Generated by trjconv : CNT in water t= 153.00000
33518
    1C        C    1   2.847   2.776   4.751
    1C        C    2   2.905   2.724   4.869
    1C        C    3   2.846   2.772   4.987
    1C        C    4   2.851   2.776   4.263
    1C        C    5   2.903   2.728   4.386
    1C        C    6   2.847   2.772   4.508
    1C        C    7   3.014   2.642   4.626
    1C        C    8   2.898   2.723   4.630
    1C        C    9   3.077   2.603   4.746
    1C        C   10   3.012   2.632   4.868
    1C        C   11   3.185   2.496   4.981
    1C        C   12   3.063   2.567   4.980
    1C        C   13   2.856   2.778   3.773
    1C        C   14   2.903   2.726   3.895
    1C        C   15   2.855   2.777   4.018
    1C        C   16   3.018   2.643   4.138
    1C        C   17   2.908   2.732   4.141
    1C        C   18   3.082   2.615   4.261
    1C        C   19   3.022   2.653   4.383
    1C        C   20   3.210   2.558   4.507
    1C        C   21   3.079   2.610   4.505
    1C        C   22   3.280   2.538   4.629
    1C        C   23   3.209   2.549   4.750
    1C        C   24   3.415   2.485   4.869
    1C        C   25   3.273   2.506   4.869
    1C        C   26   3.492   2.481   4.986
    1C        C   27   2.851   2.766   3.285
    1C        C   28   2.910   2.727   3.407
    1C        C   29   2.857   2.776   3.529
    1C        C   30   3.021   2.643   3.653
    1C        C   31   2.907   2.727   3.651
    1C        C   32   3.083   2.609   3.775
    1C        C   33   3.016   2.642   3.895
    1C        C   34   3.211   2.556   4.021
    1C        C   35   3.079   2.605   4.016
    1C        C   36   3.280   2.536   4.142
    1C        C   37   3.212   2.560   4.263
    1C        C   38   3.417   2.506   4.385
    1C        C   39   3.279   2.536   4.386
    1C        C   40   3.489   2.506   4.506
    1C        C   41   3.418   2.509   4.628
    1C        C   42   3.631   2.483   4.747
    1C        C   43   3.489   2.483   4.747
    1C        C   44   3.705   2.491   4.867
    1C        C   45   3.631   2.475   4.985
    1C        C   46   2.838   2.752   2.795
    1C        C   47   2.895   2.713   2.918
    1C        C   48   2.846   2.762   3.042
    1C        C   49   3.017   2.634   3.164
    1C        C   50   2.904   2.719   3.163
    1C        C   51   3.084   2.605   3.285
    1C        C   52   3.022   2.642   3.407
    1C        C   53   3.210   2.549   3.532
    1C        C   54   3.080   2.604   3.530
    1C        C   55   3.279   2.530   3.653
    1C        C   56   3.214   2.556   3.776
    1C        C   57   3.419   2.510   3.899
    1C        C   58   3.279   2.532   3.899
    1C        C   59   3.489   2.495   4.021
    1C        C   60   3.418   2.503   4.142
    1C        C   61   3.630   2.501   4.260
    1C        C   62   3.489   2.499   4.264
    1C        C   63   3.702   2.506   4.382
    1C        C   64   3.631   2.502   4.504
    1C        C   65   3.838   2.541   4.623
    1C        C   66   3.702   2.501   4.626
    1C        C   67   3.905   2.563   4.745
    1C        C   68   3.841   2.527   4.866
    1C        C   69   4.051   2.595   4.984
    1C        C   70   3.921   2.542   4.980
    1C        C   71   2.826   2.737   2.311
    1C        C   72   2.885   2.695   2.433
    1C        C   73   2.831   2.746   2.554
    1C        C   74   3.006   2.622   2.675
    1C        C   75   2.886   2.697   2.674
    1C        C   76   3.073   2.598   2.797
    1C        C   77   3.014   2.637   2.919
    1C        C   78   3.207   2.546   3.040
    1C        C   79   3.076   2.599   3.040
    1C        C   80   3.277   2.528   3.161
    1C        C   81   3.211   2.545   3.285
    1C        C   82   3.416   2.505   3.409
    1C        C   83   3.276   2.524   3.409
    1C        C   84   3.487   2.501   3.531
    1C        C   85   3.419   2.507   3.654
    1C        C   86   3.630   2.504   3.772
    1C        C   87   3.489   2.503   3.777
    1C        C   88   3.699   2.504   3.895
    1C        C   89   3.631   2.495   4.018
    1C        C   90   3.839   2.545   4.137
    1C        C   91   3.701   2.513   4.139
    1C        C   92   3.907   2.567   4.259
    1C        C   93   3.840   2.537   4.379
    1C        C   94   4.028   2.634   4.505
    1C        C   95   3.904   2.567   4.502
    1C        C   96   4.090   2.674   4.626
    1C        C   97   4.032   2.628   4.746
    1C        C   98   4.198   2.765   4.867
    1C        C   99   4.102   2.659   4.866
    1C        C  100   4.210   2.845   4.981
    1C        C  101   2.824   2.736   2.075
    1C        C  102   2.991   2.592   2.195
    1C        C  103   2.878   2.680   2.192
    1C        C  104   3.062   2.571   2.317
    1C        C  105   2.998   2.611   2.436
    1C        C  106   3.203   2.539   2.552
    1C        C  107   3.068   2.580   2.555
    1C        C  108   3.272   2.524   2.674
    1C        C  109   3.203   2.540   2.796
    1C        C  110   3.410   2.494   2.918
    1C        C  111   3.271   2.519   2.917
    1C        C  112   3.484   2.492   3.038
    1C        C  113   3.417   2.506   3.162
    1C        C  114   3.626   2.507   3.283
    1C        C  115   3.485   2.502   3.286
    1C        C  116   3.696   2.517   3.405
    1C        C  117   3.629   2.505   3.529
    1C        C  118   3.839   2.541   3.648
    1C        C  119   3.701   2.513   3.650
    1C        C  120   3.901   2.570   3.772
    1C        C  121   3.834   2.548   3.894
    1C        C  122   4.030   2.635   4.017
    1C        C  123   3.904   2.570   4.014
    1C        C  124   4.092   2.672   4.138
    1C        C  125   4.031   2.635   4.260
    1C        C  126   4.196   2.764   4.380
    1C        C  127   4.090   2.671   4.383
    1C        C  128   4.242   2.821   4.501
    1C        C  129   4.193   2.770   4.624
    1C        C  130   4.328   2.937   4.742
    1C        C  131   4.245   2.821   4.745
    1C        C  132   4.357   3.005   4.862
    1C        C  133   4.285   2.961   4.974
    1C        C  134   3.173   2.465   2.085
    1C        C  135   3.040   2.510   2.088
    1C        C  136   3.260   2.483   2.193
    1C        C  137   3.194   2.520   2.312
    1C        C  138   3.407   2.479   2.433
    1C        C  139   3.268   2.504   2.432
    1C        C  140   3.482   2.487   2.552
    1C        C  141   3.411   2.497   2.674
    1C        C  142   3.623   2.499   2.794
    1C        C  143   3.482   2.489   2.796
    1C        C  144   3.694   2.503   2.916
    1C        C  145   3.625   2.494   3.039
    1C        C  146   3.834   2.538   3.159
    1C        C  147   3.697   2.502   3.161
    1C        C  148   3.902   2.564   3.280
    1C        C  149   3.835   2.544   3.402
    1C        C  150   4.031   2.622   3.526
    1C        C  151   3.905   2.558   3.524
    1C        C  152   4.089   2.666   3.647
    1C        C  153   4.027   2.634   3.770
    1C        C  154   4.199   2.757   3.888
    1C        C  155   4.087   2.671   3.893
    1C        C  156   4.248   2.809   4.010
    1C        C  157   4.200   2.763   4.134
    1C        C  158   4.334   2.923   4.253
    1C        C  159   4.250   2.810   4.258
    1C        C  160   4.370   2.987   4.374
    1C        C  161   4.329   2.932   4.497
    1C        C  162   4.433   3.118   4.616
    1C        C  163   4.366   2.993   4.619
    1C        C  164   4.465   3.185   4.736
    1C        C  165   4.432   3.124   4.860
    1C        C  166   4.520   3.324   4.975
    1C        C  167   4.478   3.191   4.974
    1C        C  168   3.477   2.440   2.076
    1C        C  169   3.400   2.460   2.191
    1C        C  170   3.618   2.469   2.307
    1C        C  171   3.476   2.464   2.310
    1C        C  172   3.691   2.494   2.425
    1C        C  173   3.623   2.489   2.549
    1C        C  174   3.828   2.541   2.670
    1C        C  175   3.692   2.503   2.671
    1C        C  176   3.896   2.562   2.792
    1C        C  177   3.832   2.534   2.915
    1C        C  178   4.028   2.621   3.035
    1C        C  179   3.900   2.560   3.036
    1C        C  180   4.091   2.656   3.157
    1C        C  181   4.032   2.620   3.280
    1C        C  182   4.197   2.750   3.399
    1C        C  183   4.092   2.656   3.403
    1C        C  184   4.248   2.805   3.519
    1C        C  185   4.197   2.757   3.641
    1C        C  186   4.335   2.916   3.765
    1C        C  187   4.246   2.807   3.764
    1C        C  188   4.378   2.976   3.886
    1C        C  189   4.336   2.920   4.008
    1C        C  190   4.439   3.106   4.130
    1C        C  191   4.374   2.980   4.130
    1C        C  192   4.462   3.176   4.250
    1C        C  193   4.434   3.113   4.374
    1C        C  194   4.505   3.317   4.494
    1C        C  195   4.464   3.182   4.494
    1C        C  196   4.519   3.388   4.615
    1C        C  197   4.509   3.320   4.738
    1C        C  198   4.547   3.538   4.852
    1C        C  199   4.536   3.396   4.855
    1C        C  200   4.582   3.621   4.963
    1C        C  201   3.615   2.417   2.078
    1C        C  202   3.829   2.513   2.186
    1C        C  203   3.695   2.462   2.188
    1C        C  204   3.901   2.542   2.306
    1C        C  205   3.829   2.524   2.426
    1C        C  206   4.021   2.620   2.547
    1C        C  207   3.895   2.555   2.547
    1C        C  208   4.085   2.656   2.668
    1C        C  209   4.022   2.627   2.791
    1C        C  210   4.199   2.744   2.908
    1C        C  211   4.084   2.663   2.913
    1C        C  212   4.248   2.794   3.030
    1C        C  213   4.199   2.746   3.154
    1C        C  214   4.334   2.910   3.273
    1C        C  215   4.249   2.797   3.276
    1C        C  216   4.371   2.973   3.394
    1C        C  217   4.336   2.915   3.518
    1C        C  218   4.431   3.102   3.638
    1C        C  219   4.369   2.975   3.641
    1C        C  220   4.456   3.169   3.760
    1C        C  221   4.439   3.104   3.885
    1C        C  222   4.488   3.310   4.006
    1C        C  223   4.464   3.171   4.007
    1C        C  224   4.501   3.383   4.126
    1C        C  225   4.495   3.313   4.249
    1C        C  226   4.518   3.525   4.367
    1C        C  227   4.513   3.384   4.370
    1C        C  228   4.513   3.598   4.488
    1C        C  229   4.525   3.529   4.611
    1C        C  230   4.503   3.746   4.728
    1C        C  231   4.532   3.607   4.729
    1C        C  232   4.497   3.823   4.846
    1C        C  233   4.548   3.757   4.959
    1C        C  234   4.018   2.611   2.063
    1C        C  235   3.894   2.549   2.068
    1C        C  236   4.085   2.650   2.180
    1C        C  237   4.022   2.617   2.301
    1C        C  238   4.197   2.737   2.423
    1C        C  239   4.082   2.653   2.424
    1C        C  240   4.252   2.788   2.543
    1C        C  241   4.196   2.743   2.664
    1C        C  242   4.339   2.903   2.787
    1C        C  243   4.247   2.795   2.785
    1C        C  244   4.373   2.966   2.909
    1C        C  245   4.335   2.906   3.031
    1C        C  246   4.436   3.095   3.150
    1C        C  247   4.377   2.967   3.151
    1C        C  248   4.458   3.165   3.271
    1C        C  249   4.431   3.101   3.394
    1C        C  250   4.494   3.305   3.517
    1C        C  251   4.459   3.168   3.516
    1C        C  252   4.506   3.374   3.639
    1C        C  253   4.495   3.304   3.762
    1C        C  254   4.517   3.518   3.879
    1C        C  255   4.507   3.377   3.883
    1C        C  256   4.519   3.590   4.000
    1C        C  257   4.518   3.523   4.124
    1C        C  258   4.496   3.736   4.242
    1C        C  259   4.518   3.596   4.245
    1C        C  260   4.465   3.802   4.362
    1C        C  261   4.476   3.734   4.486
    1C        C  262   4.426   3.942   4.606
    1C        C  263   4.473   3.809   4.605
    1C        C  264   4.398   4.013   4.725
    1C        C  265   4.436   3.950   4.846
    1C        C  266   4.318   4.130   4.959
    1C        C  267   4.396   4.015   4.963
    1C        C  268   4.260   2.778   2.062
    1C        C  269   4.196   2.737   2.180
    1C        C  270   4.348   2.888   2.302
    1C        C  271   4.253   2.781   2.301
    1C        C  272   4.387   2.953   2.421
    1C        C  273   4.344   2.895   2.542
    1C        C  274   4.447   3.082   2.664
    1C        C  275   4.384   2.955   2.664
    1C        C  276   4.471   3.152   2.785
    1C        C  277   4.441   3.089   2.908
    1C        C  278   4.504   3.296   3.026
    1C        C  279   4.465   3.160   3.028
    1C        C  280   4.513   3.368   3.148
    1C        C  281   4.496   3.301   3.271
    1C        C  282   4.510   3.512   3.390
    1C        C  283   4.507   3.371   3.393
    1C        C  284   4.504   3.582   3.512
    1C        C  285   4.511   3.515   3.637
    1C        C  286   4.489   3.728   3.754
    1C        C  287   4.517   3.590   3.757
    1C        C  288   4.478   3.797   3.877
    1C        C  289   4.498   3.730   3.999
    1C        C  290   4.428   3.934   4.118
    1C        C  291   4.483   3.804   4.119
    1C        C  292   4.403   4.002   4.239
    1C        C  293   4.426   3.938   4.363
    1C        C  294   4.337   4.134   4.478
    1C        C  295   4.402   4.009   4.483
    1C        C  296   4.287   4.190   4.598
    1C        C  297   4.321   4.132   4.723
    1C        C  298   4.203   4.318   4.836
    1C        C  299   4.284   4.200   4.842
    1C        C  300   4.172   4.401   4.948
    1C        C  301   4.345   2.888   2.066
    1C        C  302   4.469   3.070   2.180
    1C        C  303   4.395   2.947   2.182
    1C        C  304   4.482   3.145   2.300
    1C        C  305   4.447   3.081   2.422
    1C        C  306   4.510   3.284   2.540
    1C        C  307   4.479   3.146   2.543
    1C        C  308   4.519   3.359   2.659
    1C        C  309   4.497   3.291   2.781
    1C        C  310   4.519   3.503   2.900
    1C        C  311   4.510   3.362   2.902
    1C        C  312   4.521   3.577   3.021
    1C        C  313   4.517   3.509   3.144
    1C        C  314   4.492   3.721   3.266
    1C        C  315   4.512   3.581   3.266
    1C        C  316   4.483   3.791   3.388
    1C        C  317   4.492   3.723   3.511
    1C        C  318   4.429   3.930   3.627
    1C        C  319   4.474   3.796   3.631
    1C        C  320   4.398   3.992   3.750
    1C        C  321   4.429   3.930   3.873
    1C        C  322   4.321   4.114   3.993
    1C        C  323   4.397   3.995   3.994
    1C        C  324   4.280   4.174   4.114
    1C        C  325   4.330   4.123   4.235
    1C        C  326   4.192   4.287   4.353
    1C        C  327   4.291   4.186   4.355
    1C        C  328   4.141   4.343   4.473
    1C        C  329   4.193   4.295   4.595
    1C        C  330   4.029   4.439   4.712
    1C        C  331   4.140   4.351   4.713
    1C        C  332   3.978   4.500   4.828
    1C        C  333   4.059   4.484   4.941
    1C        C  334   4.560   3.268   2.065
    1C        C  335   4.538   3.129   2.070
    1C        C  336   4.541   3.351   2.176
    1C        C  337   4.518   3.282   2.297
    1C        C  338   4.529   3.496   2.416
    1C        C  339   4.523   3.355   2.418
    1C        C  340   4.527   3.572   2.535
    1C        C  341   4.531   3.499   2.656
    1C        C  342   4.492   3.711   2.775
    1C        C  343   4.521   3.573   2.777
    1C        C  344   4.479   3.782   2.897
    1C        C  345   4.500   3.717   3.020
    1C        C  346   4.417   3.913   3.140
    1C        C  347   4.475   3.784   3.141
    1C        C  348   4.392   3.980   3.261
    1C        C  349   4.434   3.924   3.384
    1C        C  350   4.326   4.112   3.503
    1C        C  351   4.402   3.992   3.503
    1C        C  352   4.280   4.169   3.624
    1C        C  353   4.321   4.110   3.746
    1C        C  354   4.182   4.270   3.866
    1C        C  355   4.278   4.167   3.869
    1C        C  356   4.130   4.322   3.986
    1C        C  357   4.181   4.275   4.109
    1C        C  358   4.018   4.409   4.231
    1C        C  359   4.134   4.328   4.231
    1C        C  360   3.958   4.452   4.352
    1C        C  361   4.025   4.424   4.473
    1C        C  362   3.831   4.523   4.593
    1C        C  363   3.962   4.469   4.591
    1C        C  364   3.768   4.547   4.717
    1C        C  365   3.844   4.544   4.836
    1C        C  366   3.630   4.591   4.953
    1C        C  367   3.768   4.570   4.950
    1C        C  368   4.515   3.565   2.055
    1C        C  369   4.528   3.492   2.173
    1C        C  370   4.507   3.706   2.290
    1C        C  371   4.526   3.566   2.293
    1C        C  372   4.486   3.779   2.409
    1C        C  373   4.502   3.711   2.532
    1C        C  374   4.428   3.912   2.651
    1C        C  375   4.478   3.780   2.653
    1C        C  376   4.402   3.979   2.773
    1C        C  377   4.434   3.916   2.895
    1C        C  378   4.322   4.098   3.012
    1C        C  379   4.400   3.980   3.016
    1C        C  380   4.277   4.155   3.133
    1C        C  381   4.323   4.103   3.257
    1C        C  382   4.184   4.262   3.377
    1C        C  383   4.284   4.163   3.379
    1C        C  384   4.128   4.312   3.497
    1C        C  385   4.182   4.270   3.621
    1C        C  386   4.010   4.393   3.743
    1C        C  387   4.128   4.315   3.744
    1C        C  388   3.951   4.432   3.865
    1C        C  389   4.012   4.400   3.988
    1C        C  390   3.821   4.492   4.109
    1C        C  391   3.952   4.439   4.110
    1C        C  392   3.756   4.523   4.230
    1C        C  393   3.829   4.509   4.350
    1C        C  394   3.621   4.554   4.476
    1C        C  395   3.761   4.535   4.471
    1C        C  396   3.550   4.562   4.599
    1C        C  397   3.627   4.563   4.717
    1C        C  398   3.415   4.553   4.843
    1C        C  399   3.554   4.573   4.837
    1C        C  400   3.344   4.516   4.959
    1C        C  401   4.508   3.704   2.055
    1C        C  402   4.457   3.915   2.169
    1C        C  403   4.502   3.782   2.171
    1C        C  404   4.412   3.977   2.287
    1C        C  405   4.438   3.912   2.410
    1C        C  406   4.332   4.100   2.526
    1C        C  407   4.404   3.979   2.529
    1C        C  408   4.283   4.153   2.647
    1C        C  409   4.322   4.096   2.770
    1C        C  410   4.174   4.252   2.889
    1C        C  411   4.276   4.153   2.891
    1C        C  412   4.124   4.301   3.011
    1C        C  413   4.177   4.254   3.134
    1C        C  414   4.006   4.380   3.255
    1C        C  415   4.124   4.304   3.256
    1C        C  416   3.946   4.417   3.378
    1C        C  417   4.008   4.387   3.501
    1C        C  418   3.816   4.482   3.620
    1C        C  419   3.946   4.425   3.622
    1C        C  420   3.752   4.504   3.744
    1C        C  421   3.821   4.488   3.866
    1C        C  422   3.611   4.527   3.989
    1C        C  423   3.752   4.511   3.987
    1C        C  424   3.544   4.530   4.113
    1C        C  425   3.616   4.538   4.235
    1C        C  426   3.404   4.543   4.361
    1C        C  427   3.545   4.552   4.357
    1C        C  428   3.335   4.541   4.483
    1C        C  429   3.410   4.548   4.603
    1C        C  430   3.199   4.513   4.727
    1C        C  431   3.339   4.542   4.725
    1C        C  432   3.127   4.491   4.848
    1C        C  433   3.207   4.495   4.963
    1C        C  434   4.390   4.123   2.053
    1C        C  435   4.451   3.997   2.055
    1C        C  436   4.306   4.164   2.162
    1C        C  437   4.344   4.102   2.284
    1C        C  438   4.188   4.254   2.404
    1C        C  439   4.291   4.157   2.403
    1C        C  440   4.133   4.301   2.525
    1C        C  441   4.183   4.253   2.647
    1C        C  442   4.005   4.378   2.766
    1C        C  443   4.121   4.298   2.766
    1C        C  444   3.944   4.414   2.888
    1C        C  445   4.007   4.380   3.010
    1C        C  446   3.813   4.466   3.131
    1C        C  447   3.943   4.411   3.132
    1C        C  448   3.749   4.497   3.253
    1C        C  449   3.816   4.473   3.375
    1C        C  450   3.609   4.519   3.498
    1C        C  451   3.748   4.497   3.497
    1C        C  452   3.544   4.535   3.622
    1C        C  453   3.614   4.533   3.745
    1C        C  454   3.401   4.536   3.867
    1C        C  455   3.542   4.538   3.866
    1C        C  456   3.334   4.528   3.992
    1C        C  457   3.403   4.531   4.115
    1C        C  458   3.197   4.497   4.240
    1C        C  459   3.335   4.526   4.239
    1C        C  460   3.130   4.484   4.363
    1C        C  461   3.196   4.514   4.484
    1C        C  462   3.001   4.432   4.605
    1C        C  463   3.129   4.491   4.607
    1C        C  464   2.931   4.402   4.724
    1C        C  465   2.992   4.444   4.845
    1C        C  466   2.800   4.340   4.961
    1C        C  467   2.909   4.429   4.960
    1C        C  468   4.125   4.280   2.042
    1C        C  469   4.190   4.248   2.162
    1C        C  470   4.009   4.369   2.279
    1C        C  471   4.130   4.295   2.282
    1C        C  472   3.945   4.404   2.400
    1C        C  473   4.012   4.376   2.521
    1C        C  474   3.814   4.460   2.644
    1C        C  475   3.945   4.408   2.641
    1C        C  476   3.745   4.484   2.765
    1C        C  477   3.814   4.467   2.887
    1C        C  478   3.607   4.518   3.010
    1C        C  479   3.746   4.490   3.009
    1C        C  480   3.538   4.527   3.133
    1C        C  481   3.610   4.519   3.255
    1C        C  482   3.397   4.531   3.380
    1C        C  483   3.538   4.531   3.376
    1C        C  484   3.327   4.529   3.503
    1C        C  485   3.402   4.538   3.623
    1C        C  486   3.194   4.495   3.748
    1C        C  487   3.331   4.529   3.745
    1C        C  488   3.132   4.469   3.872
    1C        C  489   3.198   4.490   3.995
    1C        C  490   3.003   4.413   4.118
    1C        C  491   3.129   4.475   4.118
    1C        C  492   2.940   4.383   4.241
    1C        C  493   3.003   4.422   4.362
    1C        C  494   2.829   4.302   4.487
    1C        C  495   2.942   4.388   4.485
    1C        C  496   2.769   4.260   4.607
    1C        C  497   2.817   4.316   4.727
    1C        C  498   2.663   4.167   4.848
    1C        C  499   2.751   4.277   4.846
    1C        C  500   2.594   4.118   4.961
    1C        C  501   4.007   4.354   2.042
    1C        C  502   3.820   4.468   2.155
    1C        C  503   3.945   4.402   2.158
    1C        C  504   3.748   4.480   2.276
    1C        C  505   3.813   4.455   2.399
    1C        C  506   3.609   4.509   2.521
    1C        C  507   3.747   4.478   2.521
    1C        C  508   3.538   4.522   2.642
    1C        C  509   3.606   4.509   2.765
    1C        C  510   3.396   4.523   2.889
    1C        C  511   3.537   4.523   2.888
    1C        C  512   3.326   4.519   3.011
    1C        C  513   3.397   4.530   3.133
    1C        C  514   3.193   4.486   3.255
    1C        C  515   3.330   4.521   3.256
    1C        C  516   3.125   4.467   3.378
    1C        C  517   3.191   4.494   3.500
    1C        C  518   3.002   4.407   3.625
    1C        C  519   3.129   4.470   3.625
    1C        C  520   2.943   4.369   3.748
    1C        C  521   3.004   4.410   3.869
    1C        C  522   2.841   4.281   3.998
    1C        C  523   2.949   4.372   3.994
    1C        C  524   2.788   4.237   4.121
    1C        C  525   2.832   4.293   4.243
    1C        C  526   2.689   4.139   4.365
    1C        C  527   2.778   4.249   4.366
    1C        C  528   2.643   4.083   4.487
    1C        C  529   2.682   4.149   4.606
    1C        C  530   2.585   3.964   4.732
    1C        C  531   2.637   4.096   4.729
    1C        C  532   2.549   3.904   4.856
    1C        C  533   2.528   3.995   4.964
    1C        C  534   3.620   4.557   2.043
    1C        C  535   3.752   4.511   2.040
    1C        C  536   3.537   4.536   2.158
    1C        C  537   3.608   4.505   2.277
    1C        C  538   3.396   4.505   2.401
    1C        C  539   3.537   4.511   2.399
    1C        C  540   3.326   4.506   2.524
    1C        C  541   3.397   4.520   2.645
    1C        C  542   3.188   4.479   2.766
    1C        C  543   3.327   4.506   2.767
    1C        C  544   3.120   4.463   2.889
    1C        C  545   3.188   4.488   3.010
    1C        C  546   2.997   4.402   3.134
    1C        C  547   3.123   4.466   3.134
    1C        C  548   2.943   4.360   3.258
    1C        C  549   3.003   4.397   3.380
    1C        C  550   2.830   4.280   3.507
    1C        C  551   2.942   4.367   3.504
    1C        C  552   2.779   4.234   3.630
    1C        C  553   2.832   4.283   3.752
    1C        C  554   2.692   4.129   3.876
    1C        C  555   2.785   4.236   3.876
    1C        C  556   2.652   4.072   3.999
    1C        C  557   2.695   4.130   4.120
    1C        C  558   2.593   3.949   4.248
    1C        C  559   2.653   4.077   4.244
    1C        C  560   2.570   3.881   4.370
    1C        C  561   2.585   3.954   4.489
    1C        C  562   2.528   3.753   4.618
    1C        C  563   2.561   3.891   4.613
    1C        C  564   2.518   3.685   4.741
    1C        C  565   2.529   3.762   4.860
    1C        C  566   2.532   3.548   4.982
    1C        C  567   2.529   3.687   4.978
    1C        C  568   3.326   4.480   2.045
    1C        C  569   3.396   4.518   2.159
    1C        C  570   3.185   4.474   2.282
    1C        C  571   3.323   4.507   2.281
    1C        C  572   3.116   4.457   2.404
    1C        C  573   3.186   4.482   2.524
    1C        C  574   2.989   4.402   2.648
    1C        C  575   3.118   4.458   2.645
    1C        C  576   2.930   4.364   2.771
    1C        C  577   2.994   4.400   2.892
    1C        C  578   2.824   4.274   3.018
    1C        C  579   2.933   4.364   3.014
    1C        C  580   2.777   4.223   3.142
    1C        C  581   2.831   4.273   3.262
    1C        C  582   2.692   4.116   3.386
    1C        C  583   2.782   4.225   3.386
    1C        C  584   2.654   4.061   3.509
    1C        C  585   2.695   4.120   3.631
    1C        C  586   2.597   3.937   3.758
    1C        C  587   2.657   4.065   3.755
    1C        C  588   2.569   3.874   3.881
    1C        C  589   2.596   3.942   4.002
    1C        C  590   2.537   3.743   4.129
    1C        C  591   2.570   3.881   4.127
    1C        C  592   2.527   3.674   4.252
    1C        C  593   2.533   3.744   4.374
    1C        C  594   2.513   3.537   4.501
    1C        C  595   2.522   3.678   4.498
    1C        C  596   2.517   3.468   4.624
    1C        C  597   2.514   3.543   4.744
    1C        C  598   2.536   3.330   4.864
    1C        C  599   2.527   3.470   4.865
    1C        C  600   2.534   3.249   4.978
    1C        C  601   3.193   4.443   2.043
    1C        C  602   2.981   4.397   2.160
    1C        C  603   3.117   4.441   2.161
    1C        C  604   2.925   4.361   2.285
    1C        C  605   2.987   4.399   2.406
    1C        C  606   2.820   4.269   2.529
    1C        C  607   2.926   4.363   2.528
    1C        C  608   2.772   4.221   2.653
    1C        C  609   2.822   4.273   2.774
    1C        C  610   2.683   4.115   2.897
    1C        C  611   2.771   4.226   2.897
    1C        C  612   2.647   4.054   3.019
    1C        C  613   2.689   4.113   3.141
    1C        C  614   2.588   3.930   3.265
    1C        C  615   2.649   4.058   3.264
    1C        C  616   2.564   3.867   3.390
    1C        C  617   2.594   3.932   3.511
    1C        C  618   2.538   3.732   3.639
    1C        C  619   2.576   3.868   3.636
    1C        C  620   2.524   3.665   3.762
    1C        C  621   2.535   3.737   3.883
    1C        C  622   2.510   3.531   4.012
    1C        C  623   2.527   3.672   4.008
    1C        C  624   2.521   3.461   4.134
    1C        C  625   2.524   3.532   4.256
    1C        C  626   2.541   3.325   4.380
    1C        C  627   2.519   3.465   4.380
    1C        C  628   2.561   3.258   4.502
    1C        C  629   2.544   3.330   4.623
    1C        C  630   2.597   3.122   4.746
    1C        C  631   2.554   3.257   4.744
    1C        C  632   2.622   3.050   4.866
    1C        C  633   2.566   3.113   4.982
    1C        C  634   2.776   4.308   2.051
    1C        C  635   2.888   4.392   2.051
    1C        C  636   2.750   4.234   2.167
    1C        C  637   2.814   4.272   2.287
    1C        C  638   2.677   4.109   2.412
    1C        C  639   2.763   4.221   2.409
    1C        C  640   2.644   4.049   2.535
    1C        C  641   2.685   4.110   2.656
    1C        C  642   2.581   3.923   2.776
    1C        C  643   2.643   4.050   2.778
    1C        C  644   2.561   3.859   2.900
    1C        C  645   2.586   3.927   3.021
    1C        C  646   2.527   3.725   3.149
    1C        C  647   2.568   3.861   3.144
    1C        C  648   2.519   3.656   3.272
    1C        C  649   2.531   3.730   3.392
    1C        C  650   2.514   3.522   3.519
    1C        C  651   2.524   3.663   3.516
    1C        C  652   2.518   3.455   3.643
    1C        C  653   2.516   3.524   3.767
    1C        C  654   2.540   3.320   3.890
    1C        C  655   2.512   3.458   3.892
    1C        C  656   2.561   3.253   4.013
    1C        C  657   2.548   3.322   4.135
    1C        C  658   2.610   3.122   4.261
    1C        C  659   2.559   3.254   4.259
    1C        C  660   2.638   3.057   4.383
    1C        C  661   2.605   3.124   4.503
    1C        C  662   2.709   2.939   4.625
    1C        C  663   2.631   3.057   4.625
    1C        C  664   2.754   2.883   4.747
    1C        C  665   2.698   2.929   4.869
    1C        C  666   2.749   2.871   4.986
    1C        C  667   2.685   4.027   2.057
    1C        C  668   2.686   4.108   2.171
    1C        C  669   2.585   3.917   2.292
    1C        C  670   2.639   4.048   2.290
    1C        C  671   2.556   3.852   2.414
    1C        C  672   2.583   3.922   2.533
    1C        C  673   2.523   3.718   2.658
    1C        C  674   2.559   3.854   2.655
    1C        C  675   2.517   3.651   2.782
    1C        C  676   2.530   3.721   2.904
    1C        C  677   2.510   3.514   3.029
    1C        C  678   2.511   3.655   3.028
    1C        C  679   2.513   3.444   3.152
    1C        C  680   2.514   3.515   3.274
    1C        C  681   2.538   3.309   3.402
    1C        C  682   2.516   3.448   3.399
    1C        C  683   2.556   3.242   3.526
    1C        C  684   2.544   3.316   3.645
    1C        C  685   2.602   3.115   3.773
    1C        C  686   2.557   3.249   3.769
    1C        C  687   2.636   3.053   3.895
    1C        C  688   2.605   3.119   4.016
    1C        C  689   2.717   2.940   4.140
    1C        C  690   2.638   3.057   4.139
    1C        C  691   2.758   2.882   4.262
    1C        C  692   2.715   2.939   4.384
    1C        C  693   2.758   2.882   4.506
    1C        C  694   2.631   3.898   2.059
    1C        C  695   2.524   3.708   2.176
    1C        C  696   2.573   3.841   2.173
    1C        C  697   2.505   3.641   2.299
    1C        C  698   2.521   3.715   2.418
    1C        C  699   2.494   3.503   2.541
    1C        C  700   2.505   3.644   2.539
    1C        C  701   2.511   3.436   2.665
    1C        C  702   2.516   3.510   2.785
    1C        C  703   2.534   3.300   2.912
    1C        C  704   2.520   3.441   2.908
    1C        C  705   2.551   3.233   3.035
    1C        C  706   2.538   3.305   3.156
    1C        C  707   2.599   3.106   3.280
    1C        C  708   2.551   3.239   3.280
    1C        C  709   2.634   3.048   3.404
    1C        C  710   2.603   3.109   3.527
    1C        C  711   2.713   2.934   3.651
    1C        C  712   2.629   3.048   3.652
    1C        C  713   2.757   2.879   3.774
    1C        C  714   2.717   2.937   3.896
    1C        C  715   2.760   2.881   4.019
    1C        C  716   2.447   3.501   2.063
    1C        C  717   2.486   3.636   2.062
    1C        C  718   2.468   3.424   2.181
    1C        C  719   2.481   3.501   2.300
    1C        C  720   2.523   3.292   2.423
    1C        C  721   2.489   3.429   2.421
    1C        C  722   2.546   3.226   2.546
    1C        C  723   2.526   3.296   2.667
    1C        C  724   2.588   3.096   2.793
    1C        C  725   2.540   3.229   2.790
    1C        C  726   2.625   3.034   2.914
    1C        C  727   2.594   3.099   3.036
    1C        C  728   2.713   2.926   3.163
    1C        C  729   2.629   3.039   3.159
    1C        C  730   2.760   2.874   3.286
    1C        C  731   2.718   2.934   3.407
    1C        C  732   2.759   2.878   3.530
    1C        C  733   2.491   3.199   2.070
    1C        C  734   2.488   3.282   2.183
    1C        C  735   2.578   3.084   2.308
    1C        C  736   2.528   3.217   2.303
    1C        C  737   2.612   3.021   2.430
    1C        C  738   2.588   3.091   2.551
    1C        C  739   2.701   2.912   2.673
    1C        C  740   2.621   3.029   2.673
    1C        C  741   2.743   2.856   2.796
    1C        C  742   2.705   2.918   2.917
    1C        C  743   2.754   2.869   3.040
    1C        C  744   2.538   3.068   2.075
    1C        C  745   2.687   2.902   2.188
    1C        C  746   2.601   3.014   2.188
    1C        C  747   2.733   2.844   2.309
    1C        C  748   2.687   2.902   2.429
    1C        C  749   2.740   2.854   2.551
    1C        C  750   2.739   2.846   2.071
    1C        C  751   3.665   2.302   1.999
    1C        O  752   3.719   2.199   2.048
    1C        O  753   3.650   2.283   1.862
    1C        C  754   4.639   3.043   2.004
    1C        O  755   4.644   3.051   1.879
    1C        O  756   4.749   2.981   2.065
    1C        C  757   4.461   4.232   1.981
    1C        O  758   4.577   4.264   2.018
    1C        O  759   4.433   4.251   1.846
    1C        C  760   3.609   4.684   1.966
    1C        O  761   3.665   4.788   2.010
    1C        O  762   3.554   4.678   1.838
    1C        C  763   2.884   4.501   1.951
    1C        O  764   2.925   4.479   1.834
    1C        O  765   2.844   4.634   1.970
    1C        C  766   2.331   3.477   1.974
    1C        O  767   2.339   3.443   1.853
    1C        O  768   2.201   3.449   2.017
    1C        C  769   4.692   3.599   5.061
    1C        O  770   4.670   3.602   5.185
    1C        O  771   4.825   3.591   5.019
    1C        C  772   4.272   4.434   5.051
    1C        O  773   4.237   4.458   5.170
    1C        O  774   4.370   4.525   5.008
    1C        C  775   4.142   2.536   5.084
    1C        O  776   4.194   2.421   5.078
    1C        O  777   4.176   2.599   5.205
    1C        C  778   2.898   4.537   5.062
    1C        O  779   2.827   4.640   5.056
    1C        O  780   2.931   4.504   5.194
    1C        C  781   2.478   3.033   5.071
    1C        O  782   2.403   2.938   5.037
    1C        O  783   2.458   3.074   5.203
    1C        C  784   2.401   4.000   5.041
    1C        O  785   2.289   4.019   4.988
    1C        O  786   2.406   3.974   5.179
    1C        C  787   2.944   2.452   1.992
    1C        O  788   2.964   2.474   1.870
    1C        O  789   2.879   2.335   2.031
    1C        C  790   3.205   2.397   5.089
    1C        O  791   3.186   2.276   5.062
    1C        O  792   3.234   2.439   5.220
    1C        H  793   4.251   3.045   5.031
    1C        H  794   4.162   2.818   5.073
    1C        H  795   4.496   3.131   5.061
    1C        H  796   4.575   3.352   5.062
    1C        H  797   4.549   3.807   5.053
    1C        H  798   4.455   4.002   5.051
    1C        H  799   4.241   4.132   5.034
    1C        H  800   4.048   4.559   5.017
    1C        H  801   3.817   4.611   5.036
    1C        H  802   3.585   4.643   5.035
    1C        H  803   3.390   4.525   5.055
    1C        H  804   3.165   4.482   5.061
    1C        H  805   3.903   2.468   5.055
    1C        H  806   3.669   2.403   5.054
    1C        H  807   2.999   2.529   5.057
    1C        H  808   3.447   2.505   5.080
    1C        H  809   2.890   2.744   5.080
    1C        H  810   2.725   2.919   5.079
    1C        H  811   2.543   3.300   5.072
    1C        H  812   2.487   3.508   5.070
    1C        H  813   2.535   3.744   5.068
    1C        H  814   2.617   4.165   5.055
    1C        H  815   2.744   4.339   5.052
    1C        H  816   2.738   2.898   1.978
    1C        H  817   2.824   2.675   1.987
    1C        H  818   3.216   2.452   1.988
    1C        H  819   3.434   2.440   1.978
    1C        H  820   3.828   2.580   1.990
    1C        H  821   4.081   2.594   1.978
    1C        H  822   4.266   2.713   1.977
    1C        H  823   4.399   2.900   1.974
    1C        H  824   4.641   3.300   2.004
    1C        H  825   4.523   3.519   1.959
    1C        H  826   4.516   3.751   1.959
    1C        H  827   3.809   4.532   1.952
    1C        H  828   3.970   4.367   1.943
    1C        H  829   4.181   4.274   1.951
    1C        H  830   4.504   3.966   1.968
    1C        H  831   2.658   3.829   1.982
    1C        H  832   2.760   4.049   1.984
    1C        H  833   2.766   4.255   1.958
    1C        H  834   3.375   4.496   1.951
    1C        H  835   3.143   4.411   1.953
    1C        H  836   2.498   3.000   2.003
    1C        H  837   2.451   3.235   1.978
    1C        H  838   2.458   3.693   1.975
    2V3OU   H29  839   2.801   3.534   1.649
    2V3OU   C27  840   2.784   3.498   1.754
    2V3OU   H27  841   2.734   3.569   1.824
    2V3OU   H28  842   2.730   3.400   1.761
    2V3OU   O11  843   2.910   3.474   1.817
    2V3OU   C15  844   2.924   3.394   1.929
    2V3OU   C13  845   3.052   3.374   1.986
    2V3OU   C14  846   3.080   3.274   2.080
    2V3OU   C16  847   2.974   3.194   2.122
    2V3OU    H6  848   2.989   3.110   2.192
    2V3OU   C12  849   3.216   3.230   2.117
    2V3OU    O2  850   3.238   3.123   2.179
    2V3OU   C10  851   3.330   3.313   2.077
    2V3OU    C8  852   3.459   3.274   2.111
    2V3OU   O10  853   3.488   3.160   2.180
    2V3OU   H26  854   3.402   3.119   2.196
    2V3OU    C6  855   3.569   3.353   2.065
    2V3OU    C5  856   3.543   3.468   1.991
    2V3OU    C4  857   3.707   3.297   2.066
    2V3OU    H4  858   3.722   3.227   2.154
    2V3OU    H5  859   3.715   3.228   1.977
    2V3OU    C2  860   3.817   3.402   2.058
    2V3OU    O6  861   3.811   3.478   2.179
    2V3OU   H21  862   3.763   3.561   2.160
    2V3OU    C3  863   3.784   3.497   1.944
    2V3OU    H2  864   3.863   3.577   1.946
    2V3OU    H3  865   3.785   3.439   1.848
    2V3OU   C25  866   3.953   3.334   2.036
    2V3OU    O7  867   4.004   3.303   1.928
    2V3OU   C26  868   4.031   3.293   2.159
    2V3OU   H22  869   4.064   3.390   2.204
    2V3OU   H23  870   4.120   3.231   2.130
    2V3OU    O8  871   3.959   3.216   2.252
    2V3OU   H24  872   3.936   3.271   2.328
    2V3OU    C1  873   3.651   3.568   1.964
    2V3OU    H1  874   3.628   3.622   1.867
    2V3OU    O3  875   3.659   3.658   2.075
    2V3OU   C19  876   3.620   3.794   2.055
    2V3OU    H9  877   3.521   3.799   2.000
    2V3OU    O4  878   3.716   3.849   1.968
    2V3OU   C20  879   3.845   3.875   2.023
    2V3OU   H10  880   3.899   3.776   2.036
    2V3OU   C24  881   3.609   3.855   2.195
    2V3OU   H16  882   3.534   3.794   2.252
    2V3OU   H17  883   3.566   3.957   2.178
    2V3OU   C23  884   3.749   3.876   2.255
    2V3OU   H15  885   3.791   3.772   2.274
    2V3OU    N1  886   3.739   3.952   2.378
    2V3OU   H19  887   3.806   3.918   2.443
    2V3OU   H20  888   3.646   3.939   2.411
    2V3OU   C21  889   3.852   3.944   2.160
    2V3OU   H11  890   3.947   3.926   2.217
    2V3OU    O5  891   3.823   4.083   2.149
    2V3OU   H18  892   3.791   4.108   2.238
    2V3OU   C22  893   3.916   3.951   1.912
    2V3OU   H12  894   3.867   4.051   1.898
    2V3OU   H13  895   3.909   3.893   1.816
    2V3OU   H14  896   4.023   3.967   1.941
    2V3OU   C11  897   3.163   3.467   1.960
    2V3OU    O1  898   3.138   3.581   1.916
    2V3OU    C9  899   3.299   3.431   2.004
    2V3OU    C7  900   3.408   3.506   1.961
    2V3OU    O9  901   3.390   3.614   1.877
    2V3OU   H25  902   3.293   3.618   1.878
    2V3OU   C17  903   2.819   3.311   1.972
    2V3OU    H7  904   2.717   3.348   1.967
    2V3OU   C18  905   2.848   3.214   2.068
    2V3OU    H8  906   2.765   3.158   2.114
    3SOL     OW  907   2.109   4.033   0.922
    3SOL    HW1  908   2.177   4.095   0.883
    3SOL    HW2  909   2.117   3.943   0.877
    4SOL     OW  910   6.867   5.292   2.110
    4SOL    HW1  911   6.852   5.312   2.013
    4SOL    HW2  912   6.873   5.378   2.161
    5SOL     OW  913   3.722   1.817   2.482
    5SOL    HW1  914   3.787   1.855   2.416
    5SOL    HW2  915   3.761   1.735   2.523
    6SOL     OW  916   3.991   1.258   2.195
    6SOL    HW1  917   3.963   1.354   2.191
    6SOL    HW2  918   4.023   1.229   2.105
    7SOL     OW  919   6.442   3.246   1.490
    7SOL    HW1  920   6.361   3.219   1.543
    7SOL    HW2  921   6.498   3.308   1.544
    8SOL     OW  922   2.514   6.835   5.168
    8SOL    HW1  923   2.427   6.875   5.194
    8SOL    HW2  924   2.572   6.823   5.249
    9SOL     OW  925   0.846   5.616   6.217
    9SOL    HW1  926   0.757   5.570   6.218
    9SOL    HW2  927   0.851   5.675   6.137
   10SOL     OW  928   1.242   4.701   5.347
   10SOL    HW1  929   1.341   4.703   5.344
   10SOL    HW2  930   1.205   4.742   5.263
   11SOL     OW  931   2.896   0.584   0.494
   11SOL    HW1  932   2.804   0.590   0.454
   11SOL    HW2  933   2.929   0.676   0.515
   12SOL     OW  934   4.096   5.822   4.199
   12SOL    HW1  935   4.054   5.754   4.258
   12SOL    HW2  936   4.076   5.914   4.234
   13SOL     OW  937   3.755   5.995   4.236
   13SOL    HW1  938   3.677   5.966   4.181
   13SOL    HW2  939   3.838   5.953   4.200
   14SOL     OW  940   4.707   5.832   6.667
   14SOL    HW1  941   4.799   5.794   6.674
   14SOL    HW2  942   4.666   5.803   6.580
   15SOL     OW  943   1.598   5.564   0.134
   15SOL    HW1  944   1.606   5.651   0.181
   15SOL    HW2  945   1.501   5.538   0.127
   16SOL     OW  946   5.732   2.051   5.753
   16SOL    HW1  947   5.750   2.000   5.837
   16SOL    HW2  948   5.781   2.009   5.677
   17SOL     OW  949   6.124   5.923   4.788
   17SOL    HW1  950   6.086   5.970   4.868
   17SOL    HW2  951   6.082   5.961   4.705
   18SOL     OW  952   2.852   1.143   6.780
   18SOL    HW1  953   2.877   1.223   6.726
   18SOL    HW2  954   2.785   1.089   6.729
   19SOL     OW  955   0.405   6.902   2.962
   19SOL    HW1  956   0.492   6.906   2.913
   19SOL    HW2  957   0.393   6.986   3.015
   20SOL     OW  958   3.287   1.753   4.240
   20SOL    HW1  959   3.190   1.758   4.216
   20SOL    HW2  960   3.324   1.846   4.247
   21SOL     OW  961   3.111   2.116   2.416
   21SOL    HW1  962   3.184   2.126   2.484
   21SOL    HW2  963   3.040   2.184   2.434
   22SOL     OW  964   2.158   0.072   6.640
   22SOL    HW1  965   2.082   0.135   6.654
   22SOL    HW2  966   2.176   0.022   6.725
   23SOL     OW  967   4.426   6.566   3.604
   23SOL    HW1  968   4.372   6.586   3.522
   23SOL    HW2  969   4.468   6.476   3.595
   24SOL     OW  970   5.276   1.611   4.090
   24SOL    HW1  971   5.179   1.599   4.111
   24SOL    HW2  972   5.302   1.707   4.104
   25SOL     OW  973   3.172   5.880   6.216
   25SOL    HW1  974   3.150   5.906   6.122
   25SOL    HW2  975   3.271   5.871   6.226
   26SOL     OW  976   6.193   1.237   1.056
   26SOL    HW1  977   6.231   1.315   1.007
   26SOL    HW2  978   6.103   1.262   1.092
   27SOL     OW  979   0.370   0.926   2.140
   27SOL    HW1  980   0.284   0.909   2.187
   27SOL    HW2  981   0.398   1.021   2.154
   28SOL     OW  982   4.146   0.736   0.181
   28SOL    HW1  983   4.091   0.796   0.239
   28SOL    HW2  984   4.226   0.706   0.231
   29SOL     OW  985   5.205   2.378   1.820
   29SOL    HW1  986   5.292   2.364   1.867
   29SOL    HW2  987   5.141   2.306   1.845
   30SOL     OW  988   3.558   6.887   5.138
   30SOL    HW1  989   3.580   6.882   5.040
   30SOL    HW2  990   3.611   6.960   5.180
   31SOL     OW  991   1.302   1.893   5.912
   31SOL    HW1  992   1.306   1.890   5.812
   31SOL    HW2  993   1.378   1.947   5.947
   32SOL     OW  994   0.708   1.586   3.163
   32SOL    HW1  995   0.735   1.504   3.213
   32SOL    HW2  996   0.733   1.668   3.215
   33SOL     OW  997   2.360   3.340   6.843
   33SOL    HW1  998   2.268   3.348   6.804
   33SOL    HW2  999   2.420   3.294   6.778
   34SOL     OW 1000   2.171   0.878   3.855
   34SOL    HW1 1001   2.091   0.868   3.797
   34SOL    HW2 1002   2.254   0.867   3.800
   35SOL     OW 1003   3.845   2.159   6.668
   35SOL    HW1 1004   3.896   2.174   6.753
   35SOL    HW2 1005   3.770   2.095   6.684
   36SOL     OW 1006   0.729   0.726   6.495
   36SOL    HW1 1007   0.689   0.690   6.579
   36SOL    HW2 1008   0.827   0.706   6.494
   37SOL     OW 1009   2.201   0.347   0.529
   37SOL    HW1 1010   2.253   0.347   0.615
   37SOL    HW2 1011   2.104   0.337   0.550
   38SOL     OW 1012   0.709   5.390   3.560
   38SOL    HW1 1013   0.615   5.363   3.538
   38SOL    HW2 1014   0.761   5.404   3.476
   39SOL     OW 1015   6.618   4.431   6.452
   39SOL    HW1 1016   6.702   4.467   6.411
   39SOL    HW2 1017   6.565   4.384   6.381
   40SOL     OW 1018   6.084   2.194   1.622
   40SOL    HW1 1019   6.084   2.154   1.530
   40SOL    HW2 1020   6.019   2.270   1.626
   41SOL     OW 1021   1.456   6.524   4.253
   41SOL    HW1 1022   1.525   6.515   4.181
   41SOL    HW2 1023   1.369   6.485   4.221
   42SOL     OW 1024   3.161   6.444   6.417
   42SOL    HW1 1025   3.158   6.525   6.476
   42SOL    HW2 1026   3.074   6.434   6.369
   43SOL     OW 1027   5.868   6.461   5.689
   43SOL    HW1 1028   5.772   6.469   5.716
   43SOL    HW2 1029   5.909   6.385   5.737
   44SOL     OW 1030   6.346   2.526   6.153
   44SOL    HW1 1031   6.442   2.526   6.124
   44SOL    HW2 1032   6.338   2.576   6.239
   45SOL     OW 1033   3.147   0.703   3.860
   45SOL    HW1 1034   3.205   0.784   3.853
   45SOL    HW2 1035   3.177   0.647   3.937
   46SOL     OW 1036   1.318   3.767   4.324
   46SOL    HW1 1037   1.253   3.691   4.334
   46SOL    HW2 1038   1.388   3.741   4.257
   47SOL     OW 1039   5.069   4.034   2.988
   47SOL    HW1 1040   5.124   4.050   3.070
   47SOL    HW2 1041   5.127   3.993   2.917
   48SOL     OW 1042   0.626   2.865   5.017
   48SOL    HW1 1043   0.682   2.809   5.079
   48SOL    HW2 1044   0.550   2.811   4.982
   49SOL     OW 1045   4.574   4.126   1.666
   49SOL    HW1 1046   4.531   4.176   1.741
   49SOL    HW2 1047   4.545   4.164   1.578
   50SOL     OW 1048   6.323   2.414   5.651
   50SOL    HW1 1049   6.372   2.342   5.602
   50SOL    HW2 1050   6.312   2.388   5.747
   51SOL     OW 1051   3.246   6.059   2.903
   51SOL    HW1 1052   3.207   5.968   2.889
   51SOL    HW2 1053   3.175   6.128   2.890
   52SOL     OW 1054   4.810   2.065   3.785
   52SOL    HW1 1055   4.853   1.976   3.777
   52SOL    HW2 1056   4.875   2.136   3.759
   53SOL     OW 1057   4.667   0.396   4.436
   53SOL    HW1 1058   4.643   0.306   4.402
   53SOL    HW2 1059   4.709   0.388   4.527
   54SOL     OW 1060   3.956   5.071   0.713
   54SOL    HW1 1061   3.993   5.140   0.776
   54SOL    HW2 1062   3.872   5.033   0.751
   55SOL     OW 1063   3.400   1.266   6.494
   55SOL    HW1 1064   3.356   1.184   6.456
   55SOL    HW2 1065   3.390   1.341   6.429
   56SOL     OW 1066   1.406   0.693   1.339
   56SOL    HW1 1067   1.349   0.644   1.405
   56SOL    HW2 1068   1.461   0.762   1.387
   57SOL     OW 1069   4.816   0.554   1.238
   57SOL    HW1 1070   4.806   0.615   1.316
   57SOL    HW2 1071   4.877   0.478   1.263
   58SOL     OW 1072   6.988   6.741   5.809
   58SOL    HW1 1073   7.001   6.694   5.721
   58SOL    HW2 1074   6.894   6.775   5.814
   59SOL     OW 1075   1.983   1.076   5.920
   59SOL    HW1 1076   1.964   1.083   5.823
   59SOL    HW2 1077   1.937   1.149   5.969
   60SOL     OW 1078   6.144   0.575   5.935
   60SOL    HW1 1079   6.081   0.592   5.859
   60SOL    HW2 1080   6.188   0.486   5.923
   61SOL     OW 1081   5.326   1.155   4.580
   61SOL    HW1 1082   5.351   1.251   4.576
   61SOL    HW2 1083   5.285   1.134   4.668
   62SOL     OW 1084   0.687   1.000   3.547
   62SOL    HW1 1085   0.592   0.975   3.566
   62SOL    HW2 1086   0.709   1.083   3.598
   63SOL     OW 1087   6.298   1.653   3.715
   63SOL    HW1 1088   6.213   1.609   3.685
   63SOL    HW2 1089   6.375   1.592   3.699
   64SOL     OW 1090   0.253   4.160   6.479
   64SOL    HW1 1091   0.223   4.239   6.532
   64SOL    HW2 1092   0.335   4.184   6.427
   65SOL     OW 1093   6.335   4.169   5.211
   65SOL    HW1 1094   6.403   4.135   5.276
   65SOL    HW2 1095   6.280   4.240   5.255
   66SOL     OW 1096   3.540   0.583   6.508
   66SOL    HW1 1097   3.458   0.599   6.452
   66SOL    HW2 1098   3.618   0.566   6.449
   67SOL     OW 1099   5.984   5.146   5.380
   67SOL    HW1 1100   5.901   5.090   5.387
   67SOL    HW2 1101   5.977   5.224   5.442
   68SOL     OW 1102   6.468   0.553   6.727
   68SOL    HW1 1103   6.414   0.587   6.804
   68SOL    HW2 1104   6.478   0.625   6.659
   69SOL     OW 1105   1.714   3.954   6.506
   69SOL    HW1 1106   1.800   3.999   6.480
   69SOL    HW2 1107   1.729   3.856   6.517
   70SOL     OW 1108   6.425   5.191   3.263
   70SOL    HW1 1109   6.489   5.259   3.301
   70SOL    HW2 1110   6.358   5.237   3.205
   71SOL     OW 1111   3.372   2.136   2.612
   71SOL    HW1 1112   3.453   2.189   2.636
   71SOL    HW2 1113   3.398   2.060   2.553
   72SOL     OW 1114   3.141   5.830   4.904
   72SOL    HW1 1115   3.155   5.884   4.987
   72SOL    HW2 1116   3.227   5.788   4.877
   73SOL     OW 1117   3.193   1.585   0.539
   73SOL    HW1 1118   3.216   1.584   0.442
   73SOL    HW2 1119   3.252   1.651   0.586
   74SOL     OW 1120   5.263   6.606   6.496
   74SOL    HW1 1121   5.326   6.529   6.500
   74SOL    HW2 1122   5.302   6.678   6.439
   75SOL     OW 1123   3.634   6.539   6.041
   75SOL    HW1 1124   3.614   6.463   5.979
   75SOL    HW2 1125   3.641   6.624   5.987
   76SOL     OW 1126   1.831   2.993   1.104
   76SOL    HW1 1127   1.919   3.028   1.137
   76SOL    HW2 1128   1.797   2.924   1.167
   77SOL     OW 1129   4.728   6.015   4.668
   77SOL    HW1 1130   4.827   6.026   4.665
   77SOL    HW2 1131   4.700   5.946   4.601
   78SOL     OW 1132   6.012   0.259   5.685
   78SOL    HW1 1133   5.939   0.304   5.633
   78SOL    HW2 1134   5.995   0.270   5.783
   79SOL     OW 1135   3.143   6.863   0.393
   79SOL    HW1 1136   3.102   6.804   0.463
   79SOL    HW2 1137   3.222   6.910   0.431
   80SOL     OW 1138   5.673   1.254   4.529
   80SOL    HW1 1139   5.635   1.170   4.566
   80SOL    HW2 1140   5.618   1.285   4.452
   81SOL     OW 1141   2.274   0.249   2.317
   81SOL    HW1 1142   2.234   0.341   2.318
   81SOL    HW2 1143   2.246   0.202   2.233
   82SOL     OW 1144   0.081   5.676   0.448
   82SOL    HW1 1145   0.166   5.622   0.454
   82SOL    HW2 1146   0.023   5.638   0.376
   83SOL     OW 1147   6.276   0.050   0.425
   83SOL    HW1 1148   6.348   0.109   0.463
   83SOL    HW2 1149   6.216   0.018   0.498
   84SOL     OW 1150   4.876   3.515   3.512
   84SOL    HW1 1151   4.908   3.427   3.479
   84SOL    HW2 1152   4.792   3.540   3.464
   85SOL     OW 1153   1.432   1.609   5.396
   85SOL    HW1 1154   1.426   1.510   5.388
   85SOL    HW2 1155   1.346   1.645   5.432
   86SOL     OW 1156   0.833   0.094   5.732
   86SOL    HW1 1157   0.926   0.062   5.713
   86SOL    HW2 1158   0.776   0.081   5.651
   87SOL     OW 1159   5.201   3.230   0.626
   87SOL    HW1 1160   5.130   3.170   0.588
   87SOL    HW2 1161   5.220   3.303   0.560
   88SOL     OW 1162   4.188   1.772   6.353
   88SOL    HW1 1163   4.244   1.809   6.428
   88SOL    HW2 1164   4.179   1.841   6.282
   89SOL     OW 1165   1.252   3.145   6.634
   89SOL    HW1 1166   1.334   3.090   6.648
   89SOL    HW2 1167   1.243   3.211   6.709
   90SOL     OW 1168   4.983   6.291   3.687
   90SOL    HW1 1169   4.901   6.243   3.719
   90SOL    HW2 1170   4.973   6.313   3.590
   91SOL     OW 1171   4.690   4.384   4.167
   91SOL    HW1 1172   4.699   4.318   4.242
   91SOL    HW2 1173   4.595   4.414   4.161
   92SOL     OW 1174   2.948   4.354   0.780
   92SOL    HW1 1175   2.909   4.263   0.762
   92SOL    HW2 1176   2.978   4.395   0.694
   93SOL     OW 1177   2.258   4.486   6.457
   93SOL    HW1 1178   2.292   4.472   6.364
   93SOL    HW2 1179   2.225   4.399   6.494
   94SOL     OW 1180   2.586   6.555   6.347
   94SOL    HW1 1181   2.566   6.530   6.442
   94SOL    HW2 1182   2.504   6.546   6.292
   95SOL     OW 1183   1.044   1.762   3.046
   95SOL    HW1 1184   1.033   1.781   3.144
   95SOL    HW2 1185   0.959   1.785   2.998
   96SOL     OW 1186   2.948   6.756   5.723
   96SOL    HW1 1187   2.849   6.762   5.723
   96SOL    HW2 1188   2.988   6.847   5.712
   97SOL     OW 1189   0.587   4.094   5.632
   97SOL    HW1 1190   0.640   4.048   5.702
   97SOL    HW2 1191   0.494   4.056   5.630
   98SOL     OW 1192   6.532   3.948   0.043
   98SOL    HW1 1193   6.561   3.854   0.026
   98SOL    HW2 1194   6.433   3.950   0.058
   99SOL     OW 1195   4.395   3.989   1.012
   99SOL    HW1 1196   4.450   4.053   1.067
   99SOL    HW2 1197   4.304   3.980   1.052
  100SOL     OW 1198   0.725   6.978   5.939
  100SOL    HW1 1199   0.728   0.017   6.014
  100SOL    HW2 1200   0.789   7.006   5.867
  101SOL     OW 1201   1.477   5.587   2.652
  101SOL    HW1 1202   1.532   5.660   2.694
  101SOL    HW2 1203   1.419   5.627   2.581
  102SOL     OW 1204   5.030   0.525   2.735
  102SOL    HW1 1205   4.960   0.545   2.803
  102SOL    HW2 1206   5.069   0.611   2.701
  103SOL     OW 1207   3.929   0.903   2.271
  103SOL    HW1 1208   3.925   0.997   2.236
  103SOL    HW2 1209   3.836   0.865   2.275
  104SOL     OW 1210   0.591   5.084   2.539
  104SOL    HW1 1211   0.627   5.143   2.468
  104SOL    HW2 1212   0.624   5.114   2.629
  105SOL     OW 1213   6.272   1.841   6.357
  105SOL    HW1 1214   6.313   1.750   6.359
  105SOL    HW2 1215   6.194   1.843   6.419
  106SOL     OW 1216   3.224   6.358   5.165
  106SOL    HW1 1217   3.271   6.364   5.077
  106SOL    HW2 1218   3.277   6.406   5.234
  107SOL     OW 1219   2.071   2.026   2.045
  107SOL    HW1 1220   1.990   1.979   2.012
  107SOL    HW2 1221   2.150   2.000   1.989
  108SOL     OW 1222   4.003   4.880   6.593
  108SOL    HW1 1223   3.968   4.941   6.664
  108SOL    HW2 1224   4.033   4.794   6.634
  109SOL     OW 1225   0.401   1.467   1.306
  109SOL    HW1 1226   0.328   1.534   1.323
  109SOL    HW2 1227   0.486   1.501   1.345
  110SOL     OW 1228   3.676   6.608   5.525
  110SOL    HW1 1229   3.734   6.527   5.532
  110SOL    HW2 1230   3.628   6.608   5.438
  111SOL     OW 1231   3.293   0.513   5.456
  111SOL    HW1 1232   3.329   0.424   5.428
  111SOL    HW2 1233   3.367   0.581   5.453
  112SOL     OW 1234   6.167   6.363   6.165
  112SOL    HW1 1235   6.217   6.449   6.167
  112SOL    HW2 1236   6.068   6.381   6.161
  113SOL     OW 1237   6.639   5.014   3.292
  113SOL    HW1 1238   6.572   5.084   3.270
  113SOL    HW2 1239   6.605   4.925   3.261
  114SOL     OW 1240   0.829   0.411   1.179
  114SOL    HW1 1241   0.760   0.374   1.241
  114SOL    HW2 1242   0.785   0.464   1.107
  115SOL     OW 1243   3.913   1.393   4.218
  115SOL    HW1 1244   3.893   1.296   4.231
  115SOL    HW2 1245   3.834   1.447   4.248
  116SOL     OW 1246   6.348   5.113   2.363
  116SOL    HW1 1247   6.389   5.162   2.286
  116SOL    HW2 1248   6.403   5.128   2.445
  117SOL     OW 1249   1.037   1.454   6.424
  117SOL    HW1 1250   0.940   1.451   6.448
  117SOL    HW2 1251   1.069   1.548   6.426
  118SOL     OW 1252   0.869   1.493   2.215
  118SOL    HW1 1253   0.916   1.548   2.146
  118SOL    HW2 1254   0.794   1.546   2.255
  119SOL     OW 1255   1.631   2.221   6.094
  119SOL    HW1 1256   1.715   2.264   6.127
  119SOL    HW2 1257   1.621   2.131   6.136
  120SOL     OW 1258   6.675   6.723   0.299
  120SOL    HW1 1259   6.602   6.748   0.363
  120SOL    HW2 1260   6.661   6.771   0.212
  121SOL     OW 1261   2.535   3.996   6.843
  121SOL    HW1 1262   2.459   4.040   6.796
  121SOL    HW2 1263   2.621   4.043   6.821
  122SOL     OW 1264   1.599   4.683   6.366
  122SOL    HW1 1265   1.696   4.703   6.378
  122SOL    HW2 1266   1.570   4.616   6.433
  123SOL     OW 1267   0.579   2.308   1.541
  123SOL    HW1 1268   0.512   2.379   1.559
  123SOL    HW2 1269   0.537   2.218   1.555
  124SOL     OW 1270   5.482   2.843   0.230
  124SOL    HW1 1271   5.512   2.921   0.175
  124SOL    HW2 1272   5.544   2.832   0.308
  125SOL     OW 1273   2.331   1.976   1.927
  125SOL    HW1 1274   2.350   1.878   1.915
  125SOL    HW2 1275   2.383   2.028   1.859
  126SOL     OW 1276   2.397   4.075   0.780
  126SOL    HW1 1277   2.476   4.021   0.810
  126SOL    HW2 1278   2.335   4.017   0.728
  127SOL     OW 1279   0.019   5.335   6.346
  127SOL    HW1 1280   0.036   5.359   6.441
  127SOL    HW2 1281   0.106   5.323   6.298
  128SOL     OW 1282   4.389   2.459   1.500
  128SOL    HW1 1283   4.376   2.489   1.594
  128SOL    HW2 1284   4.320   2.503   1.442
  129SOL     OW 1285   4.276   4.020   6.013
  129SOL    HW1 1286   4.318   4.072   6.087
  129SOL    HW2 1287   4.296   4.065   5.926
  130SOL     OW 1288   0.578   1.018   4.326
  130SOL    HW1 1289   0.528   0.970   4.397
  130SOL    HW2 1290   0.531   1.006   4.238
  131SOL     OW 1291   5.788   1.203   2.064
  131SOL    HW1 1292   5.804   1.302   2.064
  131SOL    HW2 1293   5.773   1.171   1.971
  132SOL     OW 1294   2.497   2.854   0.895
  132SOL    HW1 1295   2.481   2.952   0.886
  132SOL    HW2 1296   2.441   2.804   0.829
  133SOL     OW 1297   5.247   6.350   4.005
  133SOL    HW1 1298   5.152   6.379   3.992
  133SOL    HW2 1299   5.289   6.405   4.077
  134SOL     OW 1300   6.037   1.611   2.216
  134SOL    HW1 1301   5.942   1.596   2.189
  134SOL    HW2 1302   6.069   1.534   2.271
  135SOL     OW 1303   5.989   3.075   1.644
  135SOL    HW1 1304   5.928   3.030   1.709
  135SOL    HW2 1305   5.969   3.174   1.643
  136SOL     OW 1306   3.939   3.643   6.393
  136SOL    HW1 1307   3.939   3.730   6.343
  136SOL    HW2 1308   3.877   3.650   6.471
  137SOL     OW 1309   5.144   0.654   4.978
  137SOL    HW1 1310   5.238   0.681   4.998
  137SOL    HW2 1311   5.143   0.563   4.936
  138SOL     OW 1312   0.575   4.287   3.696
  138SOL    HW1 1313   0.485   4.303   3.737
  138SOL    HW2 1314   0.622   4.215   3.746
  139SOL     OW 1315   2.566   5.876   5.210
  139SOL    HW1 1316   2.518   5.954   5.250
  139SOL    HW2 1317   2.505   5.828   5.147
  140SOL     OW 1318   0.387   5.930   3.284
  140SOL    HW1 1319   0.393   5.949   3.382
  140SOL    HW2 1320   0.478   5.911   3.248
  141SOL     OW 1321   6.014   3.084   5.304
  141SOL    HW1 1322   6.063   3.061   5.388
  141SOL    HW2 1323   5.983   3.179   5.308
  142SOL     OW 1324   1.712   4.965   0.605
  142SOL    HW1 1325   1.743   5.057   0.582
  142SOL    HW2 1326   1.758   4.898   0.547
  143SOL     OW 1327   5.736   3.922   1.410
  143SOL    HW1 1328   5.730   4.020   1.395
  143SOL    HW2 1329   5.805   3.902   1.479
  144SOL     OW 1330   1.467   6.738   6.680
  144SOL    HW1 1331   1.480   6.647   6.639
  144SOL    HW2 1332   1.391   6.784   6.635
  145SOL     OW 1333   0.612   4.932   0.315
  145SOL    HW1 1334   0.586   4.867   0.387
  145SOL    HW2 1335   0.566   5.019   0.330
  146SOL     OW 1336   4.984   0.053   5.967
  146SOL    HW1 1337   5.004   0.025   5.873
  146SOL    HW2 1338   4.990   0.152   5.974
  147SOL     OW 1339   6.019   2.894   6.754
  147SOL    HW1 1340   5.931   2.884   6.709
  147SOL    HW2 1341   6.014   2.861   6.848
  148SOL     OW 1342   0.450   4.695   6.398
  148SOL    HW1 1343   0.451   4.723   6.302
  148SOL    HW2 1344   0.368   4.640   6.416
  149SOL     OW 1345   2.725   1.490   4.090
  149SOL    HW1 1346   2.726   1.540   4.178
  149SOL    HW2 1347   2.678   1.403   4.102
  150SOL     OW 1348   5.697   4.999   6.486
  150SOL    HW1 1349   5.757   5.079   6.480
  150SOL    HW2 1350   5.603   5.029   6.499
  151SOL     OW 1351   3.563   2.046   1.261
  151SOL    HW1 1352   3.540   1.983   1.335
  151SOL    HW2 1353   3.662   2.058   1.257
  152SOL     OW 1354   1.597   1.483   4.089
  152SOL    HW1 1355   1.580   1.515   4.182
  152SOL    HW2 1356   1.579   1.557   4.024
  153SOL     OW 1357   2.750   0.260   1.760
  153SOL    HW1 1358   2.736   0.299   1.669
  153SOL    HW2 1359   2.816   0.184   1.754
  154SOL     OW 1360   0.592   2.804   2.970
  154SOL    HW1 1361   0.623   2.829   3.062
  154SOL    HW2 1362   0.665   2.819   2.904
  155SOL     OW 1363   0.221   0.888   3.306
  155SOL    HW1 1364   0.285   0.854   3.237
  155SOL    HW2 1365   0.141   0.928   3.261
  156SOL     OW 1366   0.076   1.909   1.447
  156SOL    HW1 1367   0.125   1.878   1.528
  156SOL    HW2 1368   0.051   1.831   1.391
  157SOL     OW 1369   6.259   3.742   1.683
  157SOL    HW1 1370   6.338   3.732   1.743
  157SOL    HW2 1371   6.278   3.695   1.596
  158SOL     OW 1372   2.821   7.020   2.352
  158SOL    HW1 1373   2.793   0.081   2.393
  158SOL    HW2 1374   2.920   7.019   2.340
  159SOL     OW 1375   4.416   4.343   1.499
  159SOL    HW1 1376   4.412   4.257   1.448
  159SOL    HW2 1377   4.349   4.341   1.572
  160SOL     OW 1378   6.752   5.007   0.086
  160SOL    HW1 1379   6.743   5.075   0.159
  160SOL    HW2 1380   6.667   5.002   0.034
  161SOL     OW 1381   1.687   5.383   4.650
  161SOL    HW1 1382   1.627   5.354   4.576
  161SOL    HW2 1383   1.696   5.308   4.717
  162SOL     OW 1384   3.842   6.743   0.493
  162SOL    HW1 1385   3.772   6.762   0.425
  162SOL    HW2 1386   3.810   6.672   0.555
  163SOL     OW 1387   5.149   5.634   1.171
  163SOL    HW1 1388   5.089   5.706   1.205
  163SOL    HW2 1389   5.212   5.673   1.103
  164SOL     OW 1390   6.599   4.452   1.069
  164SOL    HW1 1391   6.686   4.451   1.021
  164SOL    HW2 1392   6.539   4.521   1.028
  165SOL     OW 1393   5.644   2.856   0.996
  165SOL    HW1 1394   5.674   2.783   0.935
  165SOL    HW2 1395   5.722   2.890   1.049
  166SOL     OW 1396   0.728   4.997   3.681
  166SOL    HW1 1397   0.758   4.939   3.607
  166SOL    HW2 1398   0.765   4.964   3.768
  167SOL     OW 1399   5.843   2.257   0.595
  167SOL    HW1 1400   5.776   2.208   0.539
  167SOL    HW2 1401   5.897   2.191   0.648
  168SOL     OW 1402   2.771   3.625   1.029
  168SOL    HW1 1403   2.686   3.573   1.018
  168SOL    HW2 1404   2.751   3.715   1.068
  169SOL     OW 1405   3.930   0.327   2.695
  169SOL    HW1 1406   4.020   0.316   2.653
  169SOL    HW2 1407   3.937   0.392   2.771
  170SOL     OW 1408   0.341   1.950   3.349
  170SOL    HW1 1409   0.417   2.010   3.377
  170SOL    HW2 1410   0.326   1.959   3.251
  171SOL     OW 1411   4.020   4.197   0.440
  171SOL    HW1 1412   4.002   4.146   0.356
  171SOL    HW2 1413   4.039   4.293   0.418
  172SOL     OW 1414   6.541   1.760   4.474
  172SOL    HW1 1415   6.599   1.678   4.473
  172SOL    HW2 1416   6.502   1.773   4.565
  173SOL     OW 1417   6.605   1.529   4.068
  173SOL    HW1 1418   6.596   1.481   4.156
  173SOL    HW2 1419   6.514   1.542   4.029
  174SOL     OW 1420   2.803   5.238   4.266
  174SOL    HW1 1421   2.895   5.201   4.280
  174SOL    HW2 1422   2.759   5.189   4.191
  175SOL     OW 1423   1.993   6.738   1.936
  175SOL    HW1 1424   1.909   6.717   1.988
  175SOL    HW2 1425   1.969   6.772   1.846
  176SOL     OW 1426   0.956   3.987   1.460
  176SOL    HW1 1427   0.940   4.082   1.431
  176SOL    HW2 1428   1.055   3.969   1.459
  177SOL     OW 1429   5.625   2.982   2.642
  177SOL    HW1 1430   5.598   3.006   2.548
  177SOL    HW2 1431   5.668   3.061   2.685
  178SOL     OW 1432   4.186   3.251   5.915
  178SOL    HW1 1433   4.161   3.332   5.969
  178SOL    HW2 1434   4.103   3.208   5.879
  179SOL     OW 1435   2.754   2.023   5.963
  179SOL    HW1 1436   2.657   2.002   5.956
  179SOL    HW2 1437   2.781   2.083   5.888
  180SOL     OW 1438   1.393   0.206   6.349
  180SOL    HW1 1439   1.352   0.219   6.259
  180SOL    HW2 1440   1.489   0.178   6.339
  181SOL     OW 1441   3.618   1.317   6.815
  181SOL    HW1 1442   3.594   1.414   6.820
  181SOL    HW2 1443   3.665   1.298   6.729
  182SOL     OW 1444   3.750   2.105   4.483
  182SOL    HW1 1445   3.716   2.177   4.544
  182SOL    HW2 1446   3.802   2.147   4.408
  183SOL     OW 1447   3.481   1.747   3.766
  183SOL    HW1 1448   3.555   1.769   3.829
  183SOL    HW2 1449   3.507   1.775   3.674
  184SOL     OW 1450   1.470   6.209   4.120
  184SOL    HW1 1451   1.464   6.144   4.044
  184SOL    HW2 1452   1.549   6.268   4.108
  185SOL     OW 1453   0.828   2.587   6.515
  185SOL    HW1 1454   0.881   2.544   6.589
  185SOL    HW2 1455   0.733   2.555   6.520
  186SOL     OW 1456   6.606   1.224   3.322
  186SOL    HW1 1457   6.689   1.170   3.306
  186SOL    HW2 1458   6.570   1.257   3.234
  187SOL     OW 1459   4.906   0.606   3.613
  187SOL    HW1 1460   4.853   0.636   3.692
  187SOL    HW2 1461   5.002   0.593   3.641
  188SOL     OW 1462   6.218   1.931   2.617
  188SOL    HW1 1463   6.234   2.013   2.672
  188SOL    HW2 1464   6.232   1.849   2.673
  189SOL     OW 1465   1.882   5.672   2.625
  189SOL    HW1 1466   1.868   5.770   2.638
  189SOL    HW2 1467   1.971   5.646   2.662
  190SOL     OW 1468   3.608   1.544   4.807
  190SOL    HW1 1469   3.700   1.513   4.781
  190SOL    HW2 1470   3.592   1.635   4.769
  191SOL     OW 1471   5.217   5.865   5.761
  191SOL    HW1 1472   5.193   5.960   5.780
  191SOL    HW2 1473   5.267   5.860   5.674
  192SOL     OW 1474   0.232   5.609   1.746
  192SOL    HW1 1475   0.224   5.541   1.819
  192SOL    HW2 1476   0.157   5.599   1.682
  193SOL     OW 1477   4.330   2.723   5.643
  193SOL    HW1 1478   4.345   2.675   5.730
  193SOL    HW2 1479   4.316   2.657   5.570
  194SOL     OW 1480   3.531   1.148   2.918
  194SOL    HW1 1481   3.440   1.158   2.877
  194SOL    HW2 1482   3.552   1.229   2.973
  195SOL     OW 1483   1.960   6.423   4.452
  195SOL    HW1 1484   1.914   6.335   4.463
  195SOL    HW2 1485   1.992   6.455   4.541
  196SOL     OW 1486   2.432   1.345   0.008
  196SOL    HW1 1487   2.379   1.338   0.092
  196SOL    HW2 1488   2.486   1.430   0.009
  197SOL     OW 1489   2.287   0.657   0.093
  197SOL    HW1 1490   2.376   0.684   0.057
  197SOL    HW2 1491   2.215   0.686   0.029
  198SOL     OW 1492   4.768   1.375   3.579
  198SOL    HW1 1493   4.757   1.284   3.620
  198SOL    HW2 1494   4.701   1.388   3.506
  199SOL     OW 1495   1.056   2.385   3.930
  199SOL    HW1 1496   1.017   2.325   3.859
  199SOL    HW2 1497   0.988   2.399   4.002
  200SOL     OW 1498   1.269   3.566   0.806
  200SOL    HW1 1499   1.345   3.523   0.855
  200SOL    HW2 1500   1.214   3.496   0.762
  201SOL     OW 1501   0.373   6.429   5.431
  201SOL    HW1 1502   0.358   6.510   5.486
  201SOL    HW2 1503   0.386   6.350   5.490
  202SOL     OW 1504   4.046   1.572   6.491
  202SOL    HW1 1505   4.072   1.553   6.585
  202SOL    HW2 1506   4.117   1.627   6.447
  203SOL     OW 1507   6.005   2.242   5.162
  203SOL    HW1 1508   5.926   2.233   5.102
  203SOL    HW2 1509   5.976   2.237   5.258
  204SOL     OW 1510   0.983   6.897   4.431
  204SOL    HW1 1511   0.970   6.815   4.485
  204SOL    HW2 1512   0.962   6.878   4.335
  205SOL     OW 1513   1.976   2.455   2.766
  205SOL    HW1 1514   1.906   2.457   2.694
  205SOL    HW2 1515   1.973   2.541   2.818
  206SOL     OW 1516   1.185   3.211   1.023
  206SOL    HW1 1517   1.229   3.156   1.094
  206SOL    HW2 1518   1.150   3.295   1.063
  207SOL     OW 1519   5.522   0.445   3.571
  207SOL    HW1 1520   5.604   0.466   3.624
  207SOL    HW2 1521   5.529   0.487   3.481
  208SOL     OW 1522   0.333   3.995   5.698
  208SOL    HW1 1523   0.242   3.959   5.679
  208SOL    HW2 1524   0.326   4.072   5.762
  209SOL     OW 1525   6.277   4.469   3.054
  209SOL    HW1 1526   6.282   4.373   3.027
  209SOL    HW2 1527   6.251   4.475   3.150
  210SOL     OW 1528   4.402   1.883   0.793
  210SOL    HW1 1529   4.305   1.874   0.770
  210SOL    HW2 1530   4.437   1.969   0.757
  211SOL     OW 1531   1.285   6.885   2.452
  211SOL    HW1 1532   1.291   6.798   2.501
  211SOL    HW2 1533   1.232   6.951   2.507
  212SOL     OW 1534   1.353   3.811   2.501
  212SOL    HW1 1535   1.323   3.729   2.452
  212SOL    HW2 1536   1.453   3.813   2.506
  213SOL     OW 1537   1.619   5.851   0.767
  213SOL    HW1 1538   1.606   5.948   0.787
  213SOL    HW2 1539   1.684   5.840   0.692
  214SOL     OW 1540   3.498   5.176   3.029
  214SOL    HW1 1541   3.516   5.080   3.051
  214SOL    HW2 1542   3.409   5.184   2.984
  215SOL     OW 1543   2.731   4.240   1.222
  215SOL    HW1 1544   2.824   4.240   1.260
  215SOL    HW2 1545   2.670   4.289   1.283
  216SOL     OW 1546   0.698   6.132   3.310
  216SOL    HW1 1547   0.725   6.200   3.378
  216SOL    HW2 1548   0.642   6.176   3.240
  217SOL     OW 1549   1.255   2.170   5.163
  217SOL    HW1 1550   1.331   2.231   5.144
  217SOL    HW2 1551   1.222   2.129   5.078
  218SOL     OW 1552   0.412   2.931   4.719
  218SOL    HW1 1553   0.448   2.899   4.631
  218SOL    HW2 1554   0.412   2.856   4.785
  219SOL     OW 1555   4.591   0.777   0.718
  219SOL    HW1 1556   4.647   0.732   0.649
  219SOL    HW2 1557   4.650   0.830   0.779
  220SOL     OW 1558   2.667   0.051   0.824
  220SOL    HW1 1559   2.731   0.006   0.762
  220SOL    HW2 1560   2.656   0.146   0.798
  221SOL     OW 1561   6.165   4.189   1.169
  221SOL    HW1 1562   6.260   4.217   1.173
  221SOL    HW2 1563   6.118   4.219   1.252
  222SOL     OW 1564   1.599   4.462   6.168
  222SOL    HW1 1565   1.559   4.535   6.223
  222SOL    HW2 1566   1.606   4.493   6.073
  223SOL     OW 1567   6.724   2.804   5.191
  223SOL    HW1 1568   6.647   2.747   5.162
  223SOL    HW2 1569   6.722   2.891   5.142
  224SOL     OW 1570   3.456   1.048   0.075
  224SOL    HW1 1571   3.423   0.980   0.140
  224SOL    HW2 1572   3.379   1.101   0.039
  225SOL     OW 1573   4.248   3.915   6.366
  225SOL    HW1 1574   4.301   3.970   6.302
  225SOL    HW2 1575   4.155   3.905   6.332
  226SOL     OW 1576   0.756   1.312   6.049
  226SOL    HW1 1577   0.677   1.317   5.987
  226SOL    HW2 1578   0.751   1.226   6.101
  227SOL     OW 1579   2.083   4.406   2.506
  227SOL    HW1 1580   2.072   4.479   2.438
  227SOL    HW2 1581   2.064   4.318   2.463
  228SOL     OW 1582   2.028   0.516   2.702
  228SOL    HW1 1583   2.051   0.456   2.779
  228SOL    HW2 1584   1.928   0.523   2.695
  229SOL     OW 1585   5.140   5.399   5.950
  229SOL    HW1 1586   5.155   5.495   5.925
  229SOL    HW2 1587   5.062   5.363   5.898
  230SOL     OW 1588   4.360   5.701   4.530
  230SOL    HW1 1589   4.434   5.736   4.588
  230SOL    HW2 1590   4.395   5.626   4.474
  231SOL     OW 1591   6.235   1.320   6.405
  231SOL    HW1 1592   6.175   1.251   6.445
  231SOL    HW2 1593   6.296   1.278   6.339
  232SOL     OW 1594   0.339   3.317   6.498
  232SOL    HW1 1595   0.252   3.348   6.459
  232SOL    HW2 1596   0.354   3.221   6.475
  233SOL     OW 1597   4.259   1.484   3.201
  233SOL    HW1 1598   4.346   1.440   3.182
  233SOL    HW2 1599   4.275   1.576   3.236
  234SOL     OW 1600   6.089   1.055   6.885
  234SOL    HW1 1601   6.162   1.010   6.833
  234SOL    HW2 1602   6.072   1.005   6.970
  235SOL     OW 1603   4.922   3.130   2.233
  235SOL    HW1 1604   4.990   3.072   2.188
  235SOL    HW2 1605   4.830   3.103   2.204
  236SOL     OW 1606   5.048   2.906   6.759
  236SOL    HW1 1607   4.949   2.893   6.764
  236SOL    HW2 1608   5.080   2.954   6.841
  237SOL     OW 1609   0.003   4.151   1.560
  237SOL    HW1 1610   6.982   4.202   1.632
  237SOL    HW2 1611   0.058   4.214   1.506
  238SOL     OW 1612   6.065   1.712   0.048
  238SOL    HW1 1613   6.023   1.663   6.998
  238SOL    HW2 1614   6.157   1.676   0.066
  239SOL     OW 1615   1.096   4.251   0.372
  239SOL    HW1 1616   1.064   4.262   0.278
  239SOL    HW2 1617   1.034   4.190   0.421
  240SOL     OW 1618   0.881   3.173   3.454
  240SOL    HW1 1619   0.933   3.108   3.509
  240SOL    HW2 1620   0.940   3.247   3.423
  241SOL     OW 1621   2.921   2.289   4.719
  241SOL    HW1 1622   2.957   2.217   4.778
  241SOL    HW2 1623   2.865   2.352   4.774
  242SOL     OW 1624   3.058   3.603   3.801
  242SOL    HW1 1625   3.103   3.619   3.713
  242SOL    HW2 1626   3.021   3.689   3.836
  243SOL     OW 1627   4.443   1.766   0.184
  243SOL    HW1 1628   4.528   1.779   0.237
  243SOL    HW2 1629   4.466   1.742   0.090
  244SOL     OW 1630   6.104   3.839   5.485
  244SOL    HW1 1631   6.088   3.937   5.476
  244SOL    HW2 1632   6.057   3.790   5.411
  245SOL     OW 1633   4.208   2.165   3.649
  245SOL    HW1 1634   4.243   2.197   3.561
  245SOL    HW2 1635   4.129   2.222   3.675
  246SOL     OW 1636   4.960   1.817   3.810
  246SOL    HW1 1637   4.921   1.737   3.855
  246SOL    HW2 1638   5.034   1.789   3.749
  247SOL     OW 1639   2.460   1.242   0.634
  247SOL    HW1 1640   2.507   1.317   0.681
  247SOL    HW2 1641   2.526   1.171   0.611
  248SOL     OW 1642   2.512   1.351   2.890
  248SOL    HW1 1643   2.517   1.350   2.790
  248SOL    HW2 1644   2.552   1.267   2.926
  249SOL     OW 1645   5.166   6.521   5.884
  249SOL    HW1 1646   5.182   6.594   5.818
  249SOL    HW2 1647   5.072   6.489   5.876
  250SOL     OW 1648   4.510   3.299   0.741
  250SOL    HW1 1649   4.434   3.347   0.698
  250SOL    HW2 1650   4.477   3.214   0.782
  251SOL     OW 1651   4.369   3.538   5.239
  251SOL    HW1 1652   4.327   3.620   5.276
  251SOL    HW2 1653   4.453   3.562   5.191
  252SOL     OW 1654   6.799   0.057   4.777
  252SOL    HW1 1655   6.828   0.032   4.870
  252SOL    HW2 1656   6.700   0.068   4.776
  253SOL     OW 1657   3.457   5.470   6.975
  253SOL    HW1 1658   3.435   5.497   6.881
  253SOL    HW2 1659   3.406   5.388   6.999
  254SOL     OW 1660   6.394   2.633   3.718
  254SOL    HW1 1661   6.448   2.551   3.739
  254SOL    HW2 1662   6.372   2.633   3.620
  255SOL     OW 1663   2.142   4.642   5.799
  255SOL    HW1 1664   2.200   4.704   5.746
  255SOL    HW2 1665   2.078   4.597   5.737
  256SOL     OW 1666   5.571   3.491   6.108
  256SOL    HW1 1667   5.494   3.473   6.169
  256SOL    HW2 1668   5.612   3.579   6.131
  257SOL     OW 1669   5.055   0.249   3.530
  257SOL    HW1 1670   5.153   0.245   3.511
  257SOL    HW2 1671   5.016   0.330   3.488
  258SOL     OW 1672   2.501   4.191   5.291
  258SOL    HW1 1673   2.471   4.268   5.234
  258SOL    HW2 1674   2.463   4.106   5.254
  259SOL     OW 1675   6.059   0.454   2.395
  259SOL    HW1 1676   6.051   0.372   2.338
  259SOL    HW2 1677   6.065   0.535   2.336
  260SOL     OW 1678   4.348   5.793   3.229
  260SOL    HW1 1679   4.352   5.791   3.329
  260SOL    HW2 1680   4.286   5.866   3.200
  261SOL     OW 1681   5.711   3.595   0.919
  261SOL    HW1 1682   5.632   3.546   0.958
  261SOL    HW2 1683   5.692   3.617   0.824
  262SOL     OW 1684   1.222   4.266   0.618
  262SOL    HW1 1685   1.180   4.251   0.528
  262SOL    HW2 1686   1.182   4.347   0.660
  263SOL     OW 1687   2.016   0.471   4.414
  263SOL    HW1 1688   2.109   0.506   4.423
  263SOL    HW2 1689   1.957   0.515   4.482
  264SOL     OW 1690   6.490   2.366   0.010
  264SOL    HW1 1691   6.477   2.463   7.016
  264SOL    HW2 1692   6.518   2.355   0.105
  265SOL     OW 1693   5.551   6.425   2.857
  265SOL    HW1 1694   5.452   6.418   2.849
  265SOL    HW2 1695   5.594   6.365   2.790
  266SOL     OW 1696   4.691   3.046   5.808
  266SOL    HW1 1697   4.647   2.972   5.758
  266SOL    HW2 1698   4.777   3.014   5.848
  267SOL     OW 1699   0.792   1.609   5.830
  267SOL    HW1 1700   0.813   1.667   5.751
  267SOL    HW2 1701   0.876   1.587   5.879
  268SOL     OW 1702   2.729   0.979   6.346
  268SOL    HW1 1703   2.680   1.042   6.285
  268SOL    HW2 1704   2.801   0.933   6.295
  269SOL     OW 1705   2.245   3.901   1.124
  269SOL    HW1 1706   2.220   3.969   1.054
  269SOL    HW2 1707   2.339   3.871   1.109
  270SOL     OW 1708   0.798   6.565   0.856
  270SOL    HW1 1709   0.705   6.536   0.878
  270SOL    HW2 1710   0.860   6.536   0.929
  271SOL     OW 1711   6.876   1.690   6.266
  271SOL    HW1 1712   6.974   1.676   6.253
  271SOL    HW2 1713   6.848   1.775   6.221
  272SOL     OW 1714   3.777   6.408   3.919
  272SOL    HW1 1715   3.798   6.376   4.012
  272SOL    HW2 1716   3.715   6.487   3.924
  273SOL     OW 1717   2.571   4.547   4.482
  273SOL    HW1 1718   2.539   4.521   4.391
  273SOL    HW2 1719   2.505   4.518   4.551
  274SOL     OW 1720   4.043   1.414   3.592
  274SOL    HW1 1721   3.997   1.388   3.677
  274SOL    HW2 1722   4.079   1.507   3.601
  275SOL     OW 1723   6.224   5.307   3.113
  275SOL    HW1 1724   6.240   5.395   3.068
  275SOL    HW2 1725   6.188   5.323   3.205
  276SOL     OW 1726   6.756   6.960   3.873
  276SOL    HW1 1727   6.717   6.871   3.851
  276SOL    HW2 1728   6.851   6.948   3.903
  277SOL     OW 1729   1.863   4.118   0.344
  277SOL    HW1 1730   1.819   4.163   0.422
  277SOL    HW2 1731   1.850   4.019   0.351
  278SOL     OW 1732   0.253   3.579   1.879
  278SOL    HW1 1733   0.312   3.654   1.910
  278SOL    HW2 1734   0.284   3.494   1.920
  279SOL     OW 1735   5.591   3.040   4.422
  279SOL    HW1 1736   5.657   2.991   4.479
  279SOL    HW2 1737   5.505   3.049   4.472
  280SOL     OW 1738   2.738   5.302   2.295
  280SOL    HW1 1739   2.763   5.397   2.316
  280SOL    HW2 1740   2.796   5.268   2.221
  281SOL     OW 1741   2.376   4.742   1.862
  281SOL    HW1 1742   2.378   4.772   1.958
  281SOL    HW2 1743   2.462   4.697   1.839
  282SOL     OW 1744   3.226   1.454   5.525
  282SOL    HW1 1745   3.225   1.506   5.440
  282SOL    HW2 1746   3.135   1.458   5.568
  283SOL     OW 1747   6.301   2.694   6.626
  283SOL    HW1 1748   6.395   2.689   6.658
  283SOL    HW2 1749   6.250   2.758   6.684
  284SOL     OW 1750   1.697   3.496   3.919
  284SOL    HW1 1751   1.779   3.447   3.947
  284SOL    HW2 1752   1.616   3.451   3.958
  285SOL     OW 1753   5.144   4.961   4.521
  285SOL    HW1 1754   5.085   4.934   4.597
  285SOL    HW2 1755   5.207   5.033   4.552
  286SOL     OW 1756   3.517   4.710   6.761
  286SOL    HW1 1757   3.569   4.767   6.698
  286SOL    HW2 1758   3.508   4.757   6.849
  287SOL     OW 1759   1.146   3.125   0.772
  287SOL    HW1 1760   1.234   3.095   0.737
  287SOL    HW2 1761   1.146   3.121   0.872
  288SOL     OW 1762   3.552   1.595   6.832
  288SOL    HW1 1763   3.504   1.669   6.785
  288SOL    HW2 1764   3.648   1.621   6.846
  289SOL     OW 1765   2.195   4.327   5.342
  289SOL    HW1 1766   2.259   4.366   5.276
  289SOL    HW2 1767   2.163   4.238   5.309
  290SOL     OW 1768   6.197   2.190   4.774
  290SOL    HW1 1769   6.295   2.167   4.775
  290SOL    HW2 1770   6.147   2.122   4.827
  291SOL     OW 1771   0.634   1.645   4.226
  291SOL    HW1 1772   0.547   1.675   4.188
  291SOL    HW2 1773   0.620   1.614   4.321
  292SOL     OW 1774   2.345   1.675   3.132
  292SOL    HW1 1775   2.317   1.757   3.181
  292SOL    HW2 1776   2.443   1.681   3.110
  293SOL     OW 1777   4.430   5.720   2.983
  293SOL    HW1 1778   4.507   5.659   2.996
  293SOL    HW2 1779   4.389   5.743   3.071
  294SOL     OW 1780   6.486   5.949   6.688
  294SOL    HW1 1781   6.447   5.877   6.631
  294SOL    HW2 1782   6.416   6.017   6.710
  295SOL     OW 1783   3.527   1.384   3.121
  295SOL    HW1 1784   3.566   1.459   3.069
  295SOL    HW2 1785   3.592   1.354   3.191
  296SOL     OW 1786   3.369   1.570   2.627
  296SOL    HW1 1787   3.314   1.653   2.618
  296SOL    HW2 1788   3.387   1.552   2.724
  297SOL     OW 1789   2.417   4.341   4.002
  297SOL    HW1 1790   2.448   4.250   3.973
  297SOL    HW2 1791   2.318   4.340   4.016
  298SOL     OW 1792   4.297   6.017   1.666
  298SOL    HW1 1793   4.285   5.917   1.662
  298SOL    HW2 1794   4.375   6.043   1.609
  299SOL     OW 1795   5.207   3.808   5.155
  299SOL    HW1 1796   5.272   3.772   5.087
  299SOL    HW2 1797   5.144   3.735   5.182
  300SOL     OW 1798   6.743   0.533   2.465
  300SOL    HW1 1799   6.674   0.561   2.531
  300SOL    HW2 1800   6.728   0.438   2.438
  301SOL     OW 1801   5.735   3.916   0.295
  301SOL    HW1 1802   5.734   3.818   0.314
  301SOL    HW2 1803   5.829   3.950   0.297
  302SOL     OW 1804   1.350   0.328   2.962
  302SOL    HW1 1805   1.375   0.231   2.962
  302SOL    HW2 1806   1.269   0.342   3.019
  303SOL     OW 1807   5.191   0.549   1.811
  303SOL    HW1 1808   5.277   0.501   1.791
  303SOL    HW2 1809   5.115   0.484   1.809
  304SOL     OW 1810   1.869   0.075   3.313
  304SOL    HW1 1811   1.876   7.012   3.358
  304SOL    HW2 1812   1.957   0.122   3.318
  305SOL     OW 1813   0.302   3.538   6.703
  305SOL    HW1 1814   0.384   3.509   6.753
  305SOL    HW2 1815   0.318   3.526   6.605
  306SOL     OW 1816   1.241   1.465   3.720
  306SOL    HW1 1817   1.190   1.379   3.723
  306SOL    HW2 1818   1.320   1.459   3.781
  307SOL     OW 1819   5.178   6.327   1.493
  307SOL    HW1 1820   5.154   6.230   1.485
  307SOL    HW2 1821   5.098   6.383   1.469
  308SOL     OW 1822   6.890   4.722   4.497
  308SOL    HW1 1823   6.890   4.821   4.512
  308SOL    HW2 1824   6.955   4.699   4.425
  309SOL     OW 1825   3.697   4.552   5.336
  309SOL    HW1 1826   3.789   4.512   5.331
  309SOL    HW2 1827   3.630   4.488   5.299
  310SOL     OW 1828   5.572   0.030   5.723
  310SOL    HW1 1829   5.621   7.022   5.643
  310SOL    HW2 1830   5.579   6.990   5.798
  311SOL     OW 1831   6.839   5.021   2.047
  311SOL    HW1 1832   6.758   4.979   2.087
  311SOL    HW2 1833   6.851   5.113   2.086
  312SOL     OW 1834   4.597   1.596   5.489
  312SOL    HW1 1835   4.695   1.584   5.506
  312SOL    HW2 1836   4.582   1.679   5.435
  313SOL     OW 1837   2.679   4.016   1.454
  313SOL    HW1 1838   2.697   4.105   1.496
  313SOL    HW2 1839   2.688   3.944   1.523
  314SOL     OW 1840   3.372   5.783   0.876
  314SOL    HW1 1841   3.344   5.872   0.841
  314SOL    HW2 1842   3.403   5.725   0.801
  315SOL     OW 1843   0.619   2.121   3.160
  315SOL    HW1 1844   0.569   2.204   3.134
  315SOL    HW2 1845   0.609   2.104   3.258
  316SOL     OW 1846   2.435   2.665   4.629
  316SOL    HW1 1847   2.407   2.739   4.690
  316SOL    HW2 1848   2.354   2.625   4.586
  317SOL     OW 1849   0.857   1.638   6.709
  317SOL    HW1 1850   0.843   1.577   6.787
  317SOL    HW2 1851   0.788   1.711   6.711
  318SOL     OW 1852   1.351   5.138   1.115
  318SOL    HW1 1853   1.310   5.099   1.033
  318SOL    HW2 1854   1.315   5.091   1.196
  319SOL     OW 1855   0.891   0.015   2.102
  319SOL    HW1 1856   0.975   0.066   2.087
  319SOL    HW2 1857   0.914   6.947   2.129
  320SOL     OW 1858   6.088   2.531   0.094
  320SOL    HW1 1859   6.001   2.532   0.046
  320SOL    HW2 1860   6.144   2.455   0.061
  321SOL     OW 1861   2.172   1.577   2.450
  321SOL    HW1 1862   2.221   1.553   2.535
  321SOL    HW2 1863   2.114   1.656   2.466
  322SOL     OW 1864   3.272   3.015   4.120
  322SOL    HW1 1865   3.333   2.977   4.190
  322SOL    HW2 1866   3.208   2.944   4.090
  323SOL     OW 1867   0.814   4.506   0.206
  323SOL    HW1 1868   0.783   4.522   0.300
  323SOL    HW2 1869   0.832   4.409   0.194
  324SOL     OW 1870   0.913   2.631   4.498
  324SOL    HW1 1871   0.851   2.665   4.569
  324SOL    HW2 1872   0.860   2.603   4.418
  325SOL     OW 1873   2.273   3.068   1.353
  325SOL    HW1 1874   2.348   3.013   1.389
  325SOL    HW2 1875   2.244   3.134   1.423
  326SOL     OW 1876   1.885   6.155   6.778
  326SOL    HW1 1877   1.806   6.094   6.776
  326SOL    HW2 1878   1.922   6.158   6.870
  327SOL     OW 1879   0.359   4.781   4.403
  327SOL    HW1 1880   0.436   4.828   4.448
  327SOL    HW2 1881   0.369   4.789   4.304
  328SOL     OW 1882   3.539   5.204   2.619
  328SOL    HW1 1883   3.538   5.277   2.688
  328SOL    HW2 1884   3.533   5.245   2.528
  329SOL     OW 1885   3.314   4.160   3.101
  329SOL    HW1 1886   3.362   4.116   3.025
  329SOL    HW2 1887   3.372   4.160   3.182
  330SOL     OW 1888   2.882   6.728   1.959
  330SOL    HW1 1889   2.823   6.651   1.983
  330SOL    HW2 1890   2.913   6.774   2.042
  331SOL     OW 1891   4.866   5.351   6.286
  331SOL    HW1 1892   4.910   5.440   6.288
  331SOL    HW2 1893   4.919   5.289   6.229
  332SOL     OW 1894   3.500   2.095   4.041
  332SOL    HW1 1895   3.436   2.025   4.012
  332SOL    HW2 1896   3.464   2.142   4.122
  333SOL     OW 1897   3.984   0.137   6.670
  333SOL    HW1 1898   4.047   0.161   6.596
  333SOL    HW2 1899   4.035   0.118   6.753
  334SOL     OW 1900   3.041   7.000   2.197
  334SOL    HW1 1901   2.995   0.043   2.141
  334SOL    HW2 1902   2.994   6.912   2.188
  335SOL     OW 1903   3.684   5.840   3.791
  335SOL    HW1 1904   3.656   5.772   3.859
  335SOL    HW2 1905   3.781   5.829   3.771
  336SOL     OW 1906   2.169   1.084   3.509
  336SOL    HW1 1907   2.159   1.114   3.415
  336SOL    HW2 1908   2.183   1.163   3.569
  337SOL     OW 1909   0.121   3.186   1.255
  337SOL    HW1 1910   0.089   3.258   1.194
  337SOL    HW2 1911   0.175   3.226   1.329
  338SOL     OW 1912   2.831   3.106   1.733
  338SOL    HW1 1913   2.894   3.089   1.808
  338SOL    HW2 1914   2.882   3.115   1.648
  339SOL     OW 1915   3.797   0.654   2.951
  339SOL    HW1 1916   3.782   0.737   3.004
  339SOL    HW2 1917   3.843   0.586   3.008
  340SOL     OW 1918   5.323   4.146   4.641
  340SOL    HW1 1919   5.359   4.239   4.641
  340SOL    HW2 1920   5.394   4.083   4.607
  341SOL     OW 1921   5.508   6.117   3.797
  341SOL    HW1 1922   5.568   6.190   3.828
  341SOL    HW2 1923   5.433   6.105   3.862
  342SOL     OW 1924   5.697   4.326   6.824
  342SOL    HW1 1925   5.683   4.248   6.886
  342SOL    HW2 1926   5.745   4.399   6.873
  343SOL     OW 1927   2.912   6.362   1.925
  343SOL    HW1 1928   2.890   6.266   1.936
  343SOL    HW2 1929   2.848   6.418   1.978
  344SOL     OW 1930   2.164   5.011   0.793
  344SOL    HW1 1931   2.221   5.003   0.711
  344SOL    HW2 1932   2.223   5.027   0.873
  345SOL     OW 1933   0.281   0.710   5.673
  345SOL    HW1 1934   0.227   0.661   5.741
  345SOL    HW2 1935   0.341   0.646   5.626
  346SOL     OW 1936   1.500   0.980   3.095
  346SOL    HW1 1937   1.434   1.036   3.145
  346SOL    HW2 1938   1.456   0.939   3.015
  347SOL     OW 1939   5.883   0.312   6.708
  347SOL    HW1 1940   5.969   0.289   6.663
  347SOL    HW2 1941   5.828   0.229   6.718
  348SOL     OW 1942   4.031   4.996   1.679
  348SOL    HW1 1943   4.011   4.975   1.584
  348SOL    HW2 1944   4.001   5.089   1.700
  349SOL     OW 1945   0.463   4.600   1.945
  349SOL    HW1 1946   0.505   4.686   1.976
  349SOL    HW2 1947   0.365   4.603   1.965
  350SOL     OW 1948   3.966   3.587   1.631
  350SOL    HW1 1949   4.031   3.622   1.698
  350SOL    HW2 1950   3.981   3.489   1.617
  351SOL     OW 1951   2.904   1.796   0.721
  351SOL    HW1 1952   2.871   1.765   0.810
  351SOL    HW2 1953   2.956   1.880   0.731
  352SOL     OW 1954   3.665   0.687   5.108
  352SOL    HW1 1955   3.744   0.713   5.053
  352SOL    HW2 1956   3.581   0.697   5.055
  353SOL     OW 1957   2.148   6.641   0.332
  353SOL    HW1 1958   2.096   6.726   0.321
  353SOL    HW2 1959   2.242   6.656   0.301
  354SOL     OW 1960   4.142   2.252   0.837
  354SOL    HW1 1961   4.076   2.250   0.912
  354SOL    HW2 1962   4.216   2.315   0.860
  355SOL     OW 1963   6.622   2.953   2.646
  355SOL    HW1 1964   6.595   2.953   2.550
  355SOL    HW2 1965   6.721   2.941   2.652
  356SOL     OW 1966   4.772   5.054   5.170
  356SOL    HW1 1967   4.801   4.990   5.099
  356SOL    HW2 1968   4.725   5.132   5.128
  357SOL     OW 1969   0.375   6.138   6.125
  357SOL    HW1 1970   0.396   6.102   6.034
  357SOL    HW2 1971   0.436   6.098   6.192
  358SOL     OW 1972   6.402   0.281   1.311
  358SOL    HW1 1973   6.335   0.279   1.237
  358SOL    HW2 1974   6.464   0.358   1.299
  359SOL     OW 1975   1.501   2.664   2.615
  359SOL    HW1 1976   1.441   2.659   2.695
  359SOL    HW2 1977   1.448   2.691   2.535
  360SOL     OW 1978   3.446   6.712   6.218
  360SOL    HW1 1979   3.527   6.712   6.158
  360SOL    HW2 1980   3.416   6.618   6.233
  361SOL     OW 1981   5.424   5.331   3.103
  361SOL    HW1 1982   5.447   5.288   3.016
  361SOL    HW2 1983   5.329   5.364   3.100
  362SOL     OW 1984   2.964   4.338   0.356
  362SOL    HW1 1985   2.881   4.383   0.323
  362SOL    HW2 1986   2.942   4.245   0.385
  363SOL     OW 1987   3.923   4.878   4.264
  363SOL    HW1 1988   3.926   4.872   4.164
  363SOL    HW2 1989   3.970   4.799   4.303
  364SOL     OW 1990   0.554   5.635   5.808
  364SOL    HW1 1991   0.501   5.551   5.823
  364SOL    HW2 1992   0.649   5.610   5.788
  365SOL     OW 1993   4.954   6.010   2.896
  365SOL    HW1 1994   4.883   6.070   2.859
  365SOL    HW2 1995   5.033   6.065   2.924
  366SOL     OW 1996   6.100   1.318   6.899
  366SOL    HW1 1997   6.107   1.218   6.896
  366SOL    HW2 1998   6.022   1.343   6.957
  367SOL     OW 1999   4.933   3.150   0.891
  367SOL    HW1 2000   4.932   3.076   0.958
  367SOL    HW2 2001   4.984   3.228   0.927
  368SOL     OW 2002   1.557   4.902   4.847
  368SOL    HW1 2003   1.615   4.822   4.862
  368SOL    HW2 2004   1.461   4.874   4.853
  369SOL     OW 2005   6.338   4.410   1.601
  369SOL    HW1 2006   6.419   4.469   1.597
  369SOL    HW2 2007   6.360   4.326   1.650
  370SOL     OW 2008   2.628   0.461   5.746
  370SOL    HW1 2009   2.675   0.426   5.827
  370SOL    HW2 2010   2.692   0.465   5.669
  371SOL     OW 2011   2.434   3.655   6.891
  371SOL    HW1 2012   2.440   3.569   6.841
  371SOL    HW2 2013   2.355   3.652   6.954
  372SOL     OW 2014   6.811   0.493   4.862
  372SOL    HW1 2015   6.860   0.581   4.859
  372SOL    HW2 2016   6.767   0.482   4.951
  373SOL     OW 2017   0.013   6.280   6.739
  373SOL    HW1 2018   7.026   6.217   6.662
  373SOL    HW2 2019   6.996   6.367   6.718
  374SOL     OW 2020   3.774   0.147   2.895
  374SOL    HW1 2021   3.860   0.111   2.862
  374SOL    HW2 2022   3.746   0.225   2.839
  375SOL     OW 2023   6.676   5.220   3.866
  375SOL    HW1 2024   6.581   5.198   3.890
  375SOL    HW2 2025   6.713   5.282   3.934
  376SOL     OW 2026   1.672   2.846   3.810
  376SOL    HW1 2027   1.642   2.879   3.721
  376SOL    HW2 2028   1.679   2.923   3.874
  377SOL     OW 2029   5.407   2.274   2.674
  377SOL    HW1 2030   5.388   2.353   2.615
  377SOL    HW2 2031   5.502   2.277   2.705
  378SOL     OW 2032   3.868   3.735   5.685
  378SOL    HW1 2033   3.855   3.636   5.676
  378SOL    HW2 2034   3.890   3.758   5.779
  379SOL     OW 2035   5.988   3.562   0.933
  379SOL    HW1 2036   6.005   3.467   0.909
  379SOL    HW2 2037   5.889   3.580   0.929
  380SOL     OW 2038   1.287   1.849   1.077
  380SOL    HW1 2039   1.197   1.811   1.055
  380SOL    HW2 2040   1.326   1.799   1.154
  381SOL     OW 2041   2.599   5.140   1.748
  381SOL    HW1 2042   2.609   5.109   1.843
  381SOL    HW2 2043   2.684   5.125   1.699
  382SOL     OW 2044   3.242   5.955   0.385
  382SOL    HW1 2045   3.162   5.931   0.440
  382SOL    HW2 2046   3.272   6.047   0.409
  383SOL     OW 2047   6.743   2.571   6.463
  383SOL    HW1 2048   6.730   2.600   6.368
  383SOL    HW2 2049   6.840   2.573   6.485
  384SOL     OW 2050   0.105   5.445   5.497
  384SOL    HW1 2051   0.121   5.530   5.546
  384SOL    HW2 2052   0.007   5.428   5.489
  385SOL     OW 2053   4.760   6.023   0.465
  385SOL    HW1 2054   4.706   5.979   0.537
  385SOL    HW2 2055   4.779   5.957   0.393
  386SOL     OW 2056   3.839   6.672   5.206
  386SOL    HW1 2057   3.894   6.626   5.276
  386SOL    HW2 2058   3.742   6.658   5.224
  387SOL     OW 2059   0.137   0.464   4.154
  387SOL    HW1 2060   0.232   0.436   4.164
  387SOL    HW2 2061   0.087   0.396   4.100
  388SOL     OW 2062   6.913   3.038   5.361
  388SOL    HW1 2063   6.830   3.054   5.307
  388SOL    HW2 2064   6.933   3.118   5.416
  389SOL     OW 2065   4.237   4.334   1.716
  389SOL    HW1 2066   4.176   4.265   1.678
  389SOL    HW2 2067   4.311   4.289   1.766
  390SOL     OW 2068   3.753   1.341   0.687
  390SOL    HW1 2069   3.700   1.300   0.762
  390SOL    HW2 2070   3.745   1.440   0.691
  391SOL     OW 2071   2.567   4.086   6.284
  391SOL    HW1 2072   2.557   3.998   6.236
  391SOL    HW2 2073   2.480   4.134   6.283
  392SOL     OW 2074   1.555   4.039   2.260
  392SOL    HW1 2075   1.643   4.048   2.213
  392SOL    HW2 2076   1.489   4.102   2.220
  393SOL     OW 2077   0.982   4.652   1.140
  393SOL    HW1 2078   0.903   4.712   1.124
  393SOL    HW2 2079   0.956   4.582   1.207
  394SOL     OW 2080   6.571   2.654   6.962
  394SOL    HW1 2081   6.596   2.698   6.876
  394SOL    HW2 2082   6.480   2.683   6.990
  395SOL     OW 2083   4.642   4.419   1.729
  395SOL    HW1 2084   4.565   4.380   1.779
  395SOL    HW2 2085   4.728   4.387   1.770
  396SOL     OW 2086   3.271   2.127   2.196
  396SOL    HW1 2087   3.197   2.108   2.261
  396SOL    HW2 2088   3.317   2.212   2.221
  397SOL     OW 2089   4.515   1.080   5.271
  397SOL    HW1 2090   4.568   1.094   5.355
  397SOL    HW2 2091   4.576   1.050   5.198
  398SOL     OW 2092   1.251   0.023   4.643
  398SOL    HW1 2093   1.222   0.062   4.555
  398SOL    HW2 2094   1.272   6.952   4.632
  399SOL     OW 2095   4.997   5.199   4.037
  399SOL    HW1 2096   5.034   5.247   4.117
  399SOL    HW2 2097   4.902   5.230   4.022
  400SOL     OW 2098   5.939   0.587   4.573
  400SOL    HW1 2099   5.888   0.507   4.605
  400SOL    HW2 2100   6.032   0.559   4.547
  401SOL     OW 2101   6.445   7.024   5.755
  401SOL    HW1 2102   6.387   0.072   5.720
  401SOL    HW2 2103   6.490   6.979   5.678
  402SOL     OW 2104   6.045   0.102   2.669
  402SOL    HW1 2105   5.961   0.132   2.623
  402SOL    HW2 2106   6.119   0.095   2.602
  403SOL     OW 2107   2.567   0.605   6.487
  403SOL    HW1 2108   2.642   0.541   6.501
  403SOL    HW2 2109   2.511   0.610   6.570
  404SOL     OW 2110   3.571   5.871   5.860
  404SOL    HW1 2111   3.513   5.824   5.927
  404SOL    HW2 2112   3.667   5.849   5.879
  405SOL     OW 2113   2.163   3.909   3.673
  405SOL    HW1 2114   2.182   3.918   3.575
  405SOL    HW2 2115   2.100   3.982   3.702
  406SOL     OW 2116   0.537   5.314   5.702
  406SOL    HW1 2117   0.562   5.226   5.662
  406SOL    HW2 2118   0.525   5.381   5.629
  407SOL     OW 2119   1.085   3.182   4.072
  407SOL    HW1 2120   0.994   3.168   4.112
  407SOL    HW2 2121   1.155   3.161   4.141
  408SOL     OW 2122   3.313   1.552   3.150
  408SOL    HW1 2123   3.334   1.647   3.131
  408SOL    HW2 2124   3.395   1.496   3.136
  409SOL     OW 2125   1.271   4.058   2.512
  409SOL    HW1 2126   1.325   4.129   2.468
  409SOL    HW2 2127   1.315   3.970   2.500
  410SOL     OW 2128   1.606   2.415   1.202
  410SOL    HW1 2129   1.541   2.489   1.217
  410SOL    HW2 2130   1.608   2.356   1.283
  411SOL     OW 2131   0.160   2.159   1.738
  411SOL    HW1 2132   0.142   2.167   1.836
  411SOL    HW2 2133   0.079   2.122   1.692
  412SOL     OW 2134   2.406   5.244   2.892
  412SOL    HW1 2135   2.493   5.270   2.934
  412SOL    HW2 2136   2.396   5.144   2.895
  413SOL     OW 2137   4.087   4.900   2.600
  413SOL    HW1 2138   4.093   4.875   2.503
  413SOL    HW2 2139   4.167   4.864   2.648
  414SOL     OW 2140   2.615   6.767   4.054
  414SOL    HW1 2141   2.655   6.687   4.009
  414SOL    HW2 2142   2.688   6.830   4.080
  415SOL     OW 2143   6.351   0.779   0.764
  415SOL    HW1 2144   6.302   0.730   0.692
  415SOL    HW2 2145   6.308   0.868   0.780
  416SOL     OW 2146   5.140   3.546   4.824
  416SOL    HW1 2147   5.047   3.512   4.812
  416SOL    HW2 2148   5.139   3.626   4.884
  417SOL     OW 2149   3.483   2.380   6.770
  417SOL    HW1 2150   3.472   2.302   6.832
  417SOL    HW2 2151   3.579   2.388   6.743
  418SOL     OW 2152   3.820   6.258   4.141
  418SOL    HW1 2153   3.806   6.294   4.234
  418SOL    HW2 2154   3.774   6.170   4.133
  419SOL     OW 2155   0.902   6.939   1.785
  419SOL    HW1 2156   0.832   6.992   1.832
  419SOL    HW2 2157   0.986   6.939   1.840
  420SOL     OW 2158   6.106   0.270   6.452
  420SOL    HW1 2159   6.056   0.187   6.476
  420SOL    HW2 2160   6.081   0.298   6.359
  421SOL     OW 2161   5.096   4.041   4.015
  421SOL    HW1 2162   5.000   4.022   3.993
  421SOL    HW2 2163   5.104   4.070   4.110
  422SOL     OW 2164   5.488   2.606   1.637
  422SOL    HW1 2165   5.407   2.666   1.636
  422SOL    HW2 2166   5.538   2.615   1.551
  423SOL     OW 2167   2.720   1.239   6.136
  423SOL    HW1 2168   2.708   1.161   6.075
  423SOL    HW2 2169   2.661   1.314   6.107
  424SOL     OW 2170   1.459   4.289   3.202
  424SOL    HW1 2171   1.389   4.330   3.143
  424SOL    HW2 2172   1.414   4.238   3.276
  425SOL     OW 2173   3.514   0.753   5.610
  425SOL    HW1 2174   3.512   0.837   5.555
  425SOL    HW2 2175   3.581   0.690   5.570
  426SOL     OW 2176   2.631   2.454   4.629
  426SOL    HW1 2177   2.564   2.525   4.608
  426SOL    HW2 2178   2.628   2.433   4.727
  427SOL     OW 2179   4.325   1.781   3.304
  427SOL    HW1 2180   4.309   1.826   3.216
  427SOL    HW2 2181   4.401   1.826   3.351
  428SOL     OW 2182   2.678   1.135   5.135
  428SOL    HW1 2183   2.767   1.179   5.143
  428SOL    HW2 2184   2.627   1.176   5.059
  429SOL     OW 2185   1.019   6.318   3.536
  429SOL    HW1 2186   1.008   6.221   3.515
  429SOL    HW2 2187   1.076   6.361   3.466
  430SOL     OW 2188   1.941   6.831   3.534
  430SOL    HW1 2189   1.933   6.886   3.616
  430SOL    HW2 2190   2.002   6.753   3.551
  431SOL     OW 2191   2.480   2.142   1.758
  431SOL    HW1 2192   2.555   2.152   1.825
  431SOL    HW2 2193   2.449   2.233   1.731
  432SOL     OW 2194   4.322   2.173   1.594
  432SOL    HW1 2195   4.249   2.219   1.645
  432SOL    HW2 2196   4.386   2.241   1.559
  433SOL     OW 2197   2.420   6.810   6.639
  433SOL    HW1 2198   2.369   6.863   6.706
  433SOL    HW2 2199   2.414   6.713   6.662
  434SOL     OW 2200   4.530   6.388   4.022
  434SOL    HW1 2201   4.479   6.404   4.107
  434SOL    HW2 2202   4.529   6.291   4.000
  435SOL     OW 2203   3.200   1.657   6.235
  435SOL    HW1 2204   3.124   1.626   6.178
  435SOL    HW2 2205   3.169   1.729   6.296
  436SOL     OW 2206   4.277   6.909   3.226
  436SOL    HW1 2207   4.325   6.903   3.313
  436SOL    HW2 2208   4.181   6.883   3.239
  437SOL     OW 2209   0.244   6.963   4.458
  437SOL    HW1 2210   0.175   7.019   4.504
  437SOL    HW2 2211   0.249   6.989   4.362
  438SOL     OW 2212   1.029   4.464   2.710
  438SOL    HW1 2213   0.937   4.455   2.747
  438SOL    HW2 2214   1.028   4.441   2.612
  439SOL     OW 2215   5.481   0.584   3.029
  439SOL    HW1 2216   5.529   0.552   2.947
  439SOL    HW2 2217   5.394   0.537   3.038
  440SOL     OW 2218   4.284   1.125   0.173
  440SOL    HW1 2219   4.211   1.078   0.221
  440SOL    HW2 2220   4.253   1.150   0.081
  441SOL     OW 2221   0.319   4.520   2.545
  441SOL    HW1 2222   0.297   4.559   2.455
  441SOL    HW2 2223   0.235   4.513   2.599
  442SOL     OW 2224   5.488   3.617   5.602
  442SOL    HW1 2225   5.392   3.591   5.612
  442SOL    HW2 2226   5.524   3.582   5.516
  443SOL     OW 2227   4.809   3.959   3.001
  443SOL    HW1 2228   4.909   3.965   2.997
  443SOL    HW2 2229   4.775   3.913   2.919
  444SOL     OW 2230   4.488   1.068   1.164
  444SOL    HW1 2231   4.399   1.103   1.195
  444SOL    HW2 2232   4.560   1.133   1.189
  445SOL     OW 2233   1.989   5.002   2.421
  445SOL    HW1 2234   2.033   4.948   2.349
  445SOL    HW2 2235   1.901   4.960   2.445
  446SOL     OW 2236   5.732   6.656   2.249
  446SOL    HW1 2237   5.703   6.630   2.341
  446SOL    HW2 2238   5.709   6.752   2.233
  447SOL     OW 2239   5.838   3.857   6.870
  447SOL    HW1 2240   5.752   3.844   6.918
  447SOL    HW2 2241   5.909   3.800   6.912
  448SOL     OW 2242   2.846   0.143   3.291
  448SOL    HW1 2243   2.927   0.182   3.248
  448SOL    HW2 2244   2.792   0.217   3.334
  449SOL     OW 2245   1.855   2.815   4.461
  449SOL    HW1 2246   1.912   2.834   4.381
  449SOL    HW2 2247   1.841   2.716   4.469
  450SOL     OW 2248   0.816   3.789   3.346
  450SOL    HW1 2249   0.770   3.843   3.275
  450SOL    HW2 2250   0.826   3.845   3.428
  451SOL     OW 2251   0.735   2.369   2.898
  451SOL    HW1 2252   0.684   2.312   2.834
  451SOL    HW2 2253   0.707   2.348   2.992
  452SOL     OW 2254   4.345   6.596   3.300
  452SOL    HW1 2255   4.251   6.617   3.275
  452SOL    HW2 2256   4.381   6.524   3.239
  453SOL     OW 2257   4.005   0.305   0.072
  453SOL    HW1 2258   4.034   0.233   0.136
  453SOL    HW2 2259   3.910   0.289   0.046
  454SOL     OW 2260   0.216   4.518   6.455
  454SOL    HW1 2261   0.184   4.515   6.361
  454SOL    HW2 2262   0.149   4.476   6.515
  455SOL     OW 2263   6.429   4.697   6.096
  455SOL    HW1 2264   6.345   4.745   6.122
  455SOL    HW2 2265   6.462   4.734   6.010
  456SOL     OW 2266   2.592   0.974   2.751
  456SOL    HW1 2267   2.626   1.023   2.831
  456SOL    HW2 2268   2.595   1.034   2.671
  457SOL     OW 2269   2.127   6.930   6.037
  457SOL    HW1 2270   2.129   6.986   5.954
  457SOL    HW2 2271   2.156   6.986   6.115
  458SOL     OW 2272   2.054   1.607   3.299
  458SOL    HW1 2273   2.045   1.674   3.373
  458SOL    HW2 2274   2.150   1.599   3.274
  459SOL     OW 2275   2.609   6.824   4.752
  459SOL    HW1 2276   2.610   6.763   4.673
  459SOL    HW2 2277   2.517   6.827   4.791
  460SOL     OW 2278   1.105   1.670   4.954
  460SOL    HW1 2279   1.011   1.684   4.924
  460SOL    HW2 2280   1.146   1.595   4.903
  461SOL     OW 2281   1.154   5.156   5.777
  461SOL    HW1 2282   1.223   5.174   5.847
  461SOL    HW2 2283   1.185   5.193   5.689
  462SOL     OW 2284   3.218   4.051   4.409
  462SOL    HW1 2285   3.155   3.991   4.361
  462SOL    HW2 2286   3.189   4.060   4.504
  463SOL     OW 2287   5.965   6.582   2.134
  463SOL    HW1 2288   5.947   6.489   2.101
  463SOL    HW2 2289   5.884   6.618   2.179
  464SOL     OW 2290   3.436   6.036   6.464
  464SOL    HW1 2291   3.459   6.130   6.438
  464SOL    HW2 2292   3.452   5.975   6.387
  465SOL     OW 2293   1.818   2.532   0.225
  465SOL    HW1 2294   1.897   2.517   0.284
  465SOL    HW2 2295   1.846   2.588   0.146
  466SOL     OW 2296   3.773   5.721   4.761
  466SOL    HW1 2297   3.873   5.724   4.751
  466SOL    HW2 2298   3.730   5.765   4.683
  467SOL     OW 2299   6.522   0.858   2.384
  467SOL    HW1 2300   6.450   0.927   2.382
  467SOL    HW2 2301   6.483   0.769   2.360
  468SOL     OW 2302   4.144   6.775   6.713
  468SOL    HW1 2303   4.214   6.754   6.645
  468SOL    HW2 2304   4.181   6.839   6.781
  469SOL     OW 2305   2.842   5.179   6.183
  469SOL    HW1 2306   2.905   5.255   6.167
  469SOL    HW2 2307   2.759   5.192   6.129
  470SOL     OW 2308   2.022   5.020   2.870
  470SOL    HW1 2309   1.993   4.949   2.806
  470SOL    HW2 2310   2.024   4.984   2.963
  471SOL     OW 2311   2.765   2.379   4.112
  471SOL    HW1 2312   2.700   2.442   4.071
  471SOL    HW2 2313   2.769   2.395   4.211
  472SOL     OW 2314   6.194   4.209   6.013
  472SOL    HW1 2315   6.183   4.177   5.919
  472SOL    HW2 2316   6.251   4.290   6.015
  473SOL     OW 2317   6.832   2.344   2.545
  473SOL    HW1 2318   6.846   2.345   2.446
  473SOL    HW2 2319   6.779   2.424   2.573
  474SOL     OW 2320   5.209   6.045   4.482
  474SOL    HW1 2321   5.285   6.103   4.513
  474SOL    HW2 2322   5.243   5.979   4.414
  475SOL     OW 2323   5.903   1.290   1.200
  475SOL    HW1 2324   5.864   1.306   1.109
  475SOL    HW2 2325   5.832   1.254   1.260
  476SOL     OW 2326   0.626   4.423   1.565
  476SOL    HW1 2327   0.706   4.365   1.583
  476SOL    HW2 2328   0.633   4.461   1.472
  477SOL     OW 2329   1.549   4.689   3.943
  477SOL    HW1 2330   1.521   4.594   3.930
  477SOL    HW2 2331   1.575   4.702   4.039
  478SOL     OW 2332   4.562   5.780   1.815
  478SOL    HW1 2333   4.494   5.774   1.888
  478SOL    HW2 2334   4.561   5.872   1.776
  479SOL     OW 2335   4.083   3.477   4.185
  479SOL    HW1 2336   4.123   3.476   4.277
  479SOL    HW2 2337   4.015   3.551   4.179
  480SOL     OW 2338   1.925   0.183   2.592
  480SOL    HW1 2339   1.997   0.114   2.602
  480SOL    HW2 2340   1.964   0.268   2.558
  481SOL     OW 2341   0.339   7.022   0.936
  481SOL    HW1 2342   0.387   7.008   1.022
  481SOL    HW2 2343   0.390   0.062   0.880
  482SOL     OW 2344   5.112   5.009   1.655
  482SOL    HW1 2345   5.188   5.045   1.601
  482SOL    HW2 2346   5.062   5.085   1.697
  483SOL     OW 2347   5.698   2.113   3.126
  483SOL    HW1 2348   5.752   2.119   3.210
  483SOL    HW2 2349   5.719   2.027   3.079
  484SOL     OW 2350   2.114   4.161   4.300
  484SOL    HW1 2351   2.177   4.226   4.343
  484SOL    HW2 2352   2.036   4.209   4.262
  485SOL     OW 2353   5.177   3.242   1.945
  485SOL    HW1 2354   5.193   3.170   2.012
  485SOL    HW2 2355   5.083   3.236   1.911
  486SOL     OW 2356   5.918   6.450   6.118
  486SOL    HW1 2357   5.898   6.526   6.057
  486SOL    HW2 2358   5.919   6.482   6.213
  487SOL     OW 2359   6.742   6.486   4.529
  487SOL    HW1 2360   6.784   6.462   4.617
  487SOL    HW2 2361   6.814   6.510   4.464
  488SOL     OW 2362   1.524   6.296   3.770
  488SOL    HW1 2363   1.481   6.221   3.820
  488SOL    HW2 2364   1.479   6.307   3.681
  489SOL     OW 2365   0.209   5.945   6.245
  489SOL    HW1 2366   0.246   6.023   6.195
  489SOL    HW2 2367   0.260   5.863   6.221
  490SOL     OW 2368   1.503   4.833   5.642
  490SOL    HW1 2369   1.541   4.786   5.721
  490SOL    HW2 2370   1.540   4.793   5.558
  491SOL     OW 2371   0.396   2.549   1.284
  491SOL    HW1 2372   0.318   2.514   1.335
  491SOL    HW2 2373   0.451   2.608   1.344
  492SOL     OW 2374   1.539   2.035   5.888
  492SOL    HW1 2375   1.570   2.124   5.854
  492SOL    HW2 2376   1.563   1.964   5.822
  493SOL     OW 2377   2.593   6.038   4.658
  493SOL    HW1 2378   2.645   6.080   4.584
  493SOL    HW2 2379   2.651   5.973   4.707
  494SOL     OW 2380   2.232   6.649   5.167
  494SOL    HW1 2381   2.247   6.739   5.127
  494SOL    HW2 2382   2.173   6.595   5.107
  495SOL     OW 2383   3.530   5.464   6.032
  495SOL    HW1 2384   3.615   5.516   6.026
  495SOL    HW2 2385   3.544   5.372   5.994
  496SOL     OW 2386   4.990   1.747   2.661
  496SOL    HW1 2387   5.028   1.689   2.733
  496SOL    HW2 2388   4.906   1.791   2.694
  497SOL     OW 2389   3.277   0.898   6.736
  497SOL    HW1 2390   3.202   0.941   6.786
  497SOL    HW2 2391   3.350   0.965   6.721
  498SOL     OW 2392   0.407   5.767   1.887
  498SOL    HW1 2393   0.460   5.828   1.827
  498SOL    HW2 2394   0.346   5.711   1.832
  499SOL     OW 2395   3.493   5.845   0.350
  499SOL    HW1 2396   3.562   5.915   0.370
  499SOL    HW2 2397   3.402   5.885   0.355
  500SOL     OW 2398   5.669   1.754   0.327
  500SOL    HW1 2399   5.707   1.693   0.258
  500SOL    HW2 2400   5.586   1.797   0.292
  501SOL     OW 2401   1.001   0.371   2.945
  501SOL    HW1 2402   0.999   0.470   2.957
  501SOL    HW2 2403   1.042   0.328   3.026
  502SOL     OW 2404   1.922   5.261   6.380
  502SOL    HW1 2405   2.010   5.306   6.393
  502SOL    HW2 2406   1.885   5.234   6.469
  503SOL     OW 2407   3.352   5.197   0.012
  503SOL    HW1 2408   3.273   5.138   0.031
  503SOL    HW2 2409   3.432   5.141   7.020
  504SOL     OW 2410   5.857   6.308   1.644
  504SOL    HW1 2411   5.793   6.320   1.568
  504SOL    HW2 2412   5.927   6.380   1.641
  505SOL     OW 2413   5.123   6.912   4.817
  505SOL    HW1 2414   5.189   6.895   4.891
  505SOL    HW2 2415   5.140   6.848   4.742
  506SOL     OW 2416   3.934   5.514   2.763
  506SOL    HW1 2417   3.882   5.531   2.679
  506SOL    HW2 2418   3.924   5.418   2.789
  507SOL     OW 2419   3.465   0.914   1.176
  507SOL    HW1 2420   3.480   0.852   1.253
  507SOL    HW2 2421   3.552   0.950   1.144
  508SOL     OW 2422   0.111   4.722   4.281
  508SOL    HW1 2423   0.208   4.726   4.304
  508SOL    HW2 2424   0.086   4.628   4.258
  509SOL     OW 2425   4.633   6.473   6.174
  509SOL    HW1 2426   4.555   6.469   6.238
  509SOL    HW2 2427   4.718   6.474   6.226
  510SOL     OW 2428   7.023   4.183   6.980
  510SOL    HW1 2429   6.970   4.267   6.978
  510SOL    HW2 2430   6.991   4.121   6.908
  511SOL     OW 2431   1.039   1.801   0.758
  511SOL    HW1 2432   0.981   1.875   0.726
  511SOL    HW2 2433   1.134   1.820   0.734
  512SOL     OW 2434   6.488   2.473   6.521
  512SOL    HW1 2435   6.412   2.535   6.501
  512SOL    HW2 2436   6.574   2.514   6.490
  513SOL     OW 2437   5.149   0.286   3.077
  513SOL    HW1 2438   5.114   0.276   2.984
  513SOL    HW2 2439   5.228   0.226   3.090
  514SOL     OW 2440   6.374   6.769   4.028
  514SOL    HW1 2441   6.345   6.833   3.957
  514SOL    HW2 2442   6.349   6.804   4.118
  515SOL     OW 2443   3.626   6.770   6.683
  515SOL    HW1 2444   3.707   6.816   6.647
  515SOL    HW2 2445   3.585   6.714   6.611
  516SOL     OW 2446   2.009   5.526   1.348
  516SOL    HW1 2447   1.940   5.537   1.419
  516SOL    HW2 2448   2.099   5.513   1.390
  517SOL     OW 2449   3.314   4.924   2.361
  517SOL    HW1 2450   3.378   4.933   2.437
  517SOL    HW2 2451   3.363   4.902   2.277
  518SOL     OW 2452   2.193   3.278   3.581
  518SOL    HW1 2453   2.173   3.180   3.587
  518SOL    HW2 2454   2.189   3.319   3.672
  519SOL     OW 2455   0.290   6.842   3.279
  519SOL    HW1 2456   0.306   6.842   3.180
  519SOL    HW2 2457   0.203   6.797   3.298
  520SOL     OW 2458   1.776   2.932   0.352
  520SOL    HW1 2459   1.782   3.019   0.303
  520SOL    HW2 2460   1.744   2.949   0.445
  521SOL     OW 2461   5.707   5.047   5.402
  521SOL    HW1 2462   5.641   5.119   5.419
  521SOL    HW2 2463   5.659   4.962   5.381
  522SOL     OW 2464   4.335   3.826   1.352
  522SOL    HW1 2465   4.330   3.744   1.409
  522SOL    HW2 2466   4.341   3.907   1.410
  523SOL     OW 2467   0.532   6.494   1.875
  523SOL    HW1 2468   0.597   6.435   1.828
  523SOL    HW2 2469   0.439   6.471   1.846
  524SOL     OW 2470   6.723   2.127   1.892
  524SOL    HW1 2471   6.641   2.177   1.863
  524SOL    HW2 2472   6.723   2.118   1.991
  525SOL     OW 2473   1.490   4.051   6.385
  525SOL    HW1 2474   1.574   4.032   6.436
  525SOL    HW2 2475   1.480   3.984   6.311
  526SOL     OW 2476   2.966   7.001   4.763
  526SOL    HW1 2477   2.879   7.001   4.812
  526SOL    HW2 2478   3.031   0.034   4.811
  527SOL     OW 2479   0.969   1.967   0.294
  527SOL    HW1 2480   0.974   2.052   0.242
  527SOL    HW2 2481   0.875   1.951   0.324
  528SOL     OW 2482   6.637   2.687   4.215
  528SOL    HW1 2483   6.572   2.656   4.284
  528SOL    HW2 2484   6.647   2.786   4.222
  529SOL     OW 2485   2.082   0.441   5.768
  529SOL    HW1 2486   2.014   0.434   5.841
  529SOL    HW2 2487   2.132   0.527   5.777
  530SOL     OW 2488   3.555   3.526   0.920
  530SOL    HW1 2489   3.476   3.538   0.860
  530SOL    HW2 2490   3.527   3.479   1.004
  531SOL     OW 2491   2.067   0.706   2.193
  531SOL    HW1 2492   2.056   0.669   2.101
  531SOL    HW2 2493   1.991   0.768   2.214
  532SOL     OW 2494   2.711   2.245   0.654
  532SOL    HW1 2495   2.664   2.259   0.566
  532SOL    HW2 2496   2.695   2.324   0.713
  533SOL     OW 2497   3.803   0.122   3.867
  533SOL    HW1 2498   3.833   0.032   3.899
  533SOL    HW2 2499   3.798   0.120   3.767
  534SOL     OW 2500   1.108   5.328   1.184
  534SOL    HW1 2501   1.037   5.366   1.125
  534SOL    HW2 2502   1.193   5.317   1.132
  535SOL     OW 2503   5.176   3.784   3.148
  535SOL    HW1 2504   5.178   3.869   3.200
  535SOL    HW2 2505   5.095   3.731   3.174
  536SOL     OW 2506   6.432   6.014   3.009
  536SOL    HW1 2507   6.483   6.084   2.960
  536SOL    HW2 2508   6.439   6.030   3.108
  537SOL     OW 2509   3.217   1.031   4.312
  537SOL    HW1 2510   3.237   0.937   4.341
  537SOL    HW2 2511   3.165   1.029   4.227
  538SOL     OW 2512   2.425   4.985   5.615
  538SOL    HW1 2513   2.429   4.987   5.515
  538SOL    HW2 2514   2.479   4.908   5.649
  539SOL     OW 2515   0.919   6.227   0.334
  539SOL    HW1 2516   0.949   6.316   0.301
  539SOL    HW2 2517   0.822   6.230   0.357
  540SOL     OW 2518   1.317   0.355   3.863
  540SOL    HW1 2519   1.219   0.366   3.876
  540SOL    HW2 2520   1.362   0.355   3.953
  541SOL     OW 2521   4.177   6.401   4.599
  541SOL    HW1 2522   4.213   6.466   4.666
  541SOL    HW2 2523   4.109   6.447   4.541
  542SOL     OW 2524   2.774   6.622   6.783
  542SOL    HW1 2525   2.826   6.566   6.718
  542SOL    HW2 2526   2.696   6.569   6.817
  543SOL     OW 2527   5.440   2.695   4.322
  543SOL    HW1 2528   5.350   2.722   4.357
  543SOL    HW2 2529   5.470   2.762   4.254
  544SOL     OW 2530   0.666   4.555   0.461
  544SOL    HW1 2531   0.575   4.596   0.453
  544SOL    HW2 2532   0.703   4.575   0.552
  545SOL     OW 2533   5.401   1.341   1.492
  545SOL    HW1 2534   5.355   1.256   1.467
  545SOL    HW2 2535   5.349   1.388   1.563
  546SOL     OW 2536   0.399   4.087   2.311
  546SOL    HW1 2537   0.445   4.111   2.396
  546SOL    HW2 2538   0.419   3.992   2.287
  547SOL     OW 2539   4.282   1.485   0.013
  547SOL    HW1 2540   4.292   1.489   0.113
  547SOL    HW2 2541   4.204   1.428   7.016
  548SOL     OW 2542   3.605   2.754   6.991
  548SOL    HW1 2543   3.663   2.760   0.046
  548SOL    HW2 2544   3.543   2.676   6.999
  549SOL     OW 2545   6.256   2.099   0.829
  549SOL    HW1 2546   6.297   2.172   0.885
  549SOL    HW2 2547   6.278   2.010   0.869
  550SOL     OW 2548   7.013   4.694   3.041
  550SOL    HW1 2549   7.010   4.641   2.957
  550SOL    HW2 2550   6.999   4.633   3.119
  551SOL     OW 2551   6.914   0.842   0.334
  551SOL    HW1 2552   6.901   0.922   0.276
  551SOL    HW2 2553   6.878   0.861   0.426
  552SOL     OW 2554   5.470   5.846   5.874
  552SOL    HW1 2555   5.526   5.780   5.824
  552SOL    HW2 2556   5.373   5.827   5.859
  553SOL     OW 2557   3.407   1.450   5.731
  553SOL    HW1 2558   3.354   1.461   5.647
  553SOL    HW2 2559   3.481   1.384   5.716
  554SOL     OW 2560   5.948   5.904   0.903
  554SOL    HW1 2561   5.963   5.840   0.828
  554SOL    HW2 2562   5.854   5.937   0.901
  555SOL     OW 2563   2.398   5.319   5.431
  555SOL    HW1 2564   2.397   5.377   5.350
  555SOL    HW2 2565   2.435   5.229   5.408
  556SOL     OW 2566   4.747   1.835   4.058
  556SOL    HW1 2567   4.714   1.759   4.114
  556SOL    HW2 2568   4.840   1.859   4.086
  557SOL     OW 2569   6.577   4.873   5.589
  557SOL    HW1 2570   6.483   4.905   5.577
  557SOL    HW2 2571   6.637   4.922   5.526
  558SOL     OW 2572   3.701   3.416   2.675
  558SOL    HW1 2573   3.692   3.424   2.774
  558SOL    HW2 2574   3.640   3.344   2.641
  559SOL     OW 2575   6.268   6.560   5.744
  559SOL    HW1 2576   6.343   6.496   5.761
  559SOL    HW2 2577   6.192   6.512   5.700
  560SOL     OW 2578   6.378   2.997   2.963
  560SOL    HW1 2579   6.319   2.986   3.042
  560SOL    HW2 2580   6.456   2.935   2.970
  561SOL     OW 2581   0.483   3.266   6.227
  561SOL    HW1 2582   0.566   3.313   6.257
  561SOL    HW2 2583   0.416   3.334   6.194
  562SOL     OW 2584   4.172   0.484   5.652
  562SOL    HW1 2585   4.160   0.582   5.665
  562SOL    HW2 2586   4.085   0.437   5.667
  563SOL     OW 2587   1.645   1.690   4.304
  563SOL    HW1 2588   1.739   1.661   4.287
  563SOL    HW2 2589   1.641   1.789   4.313
  564SOL     OW 2590   0.405   1.953   5.537
  564SOL    HW1 2591   0.316   1.983   5.571
  564SOL    HW2 2592   0.477   2.010   5.578
  565SOL     OW 2593   3.400   2.907   3.491
  565SOL    HW1 2594   3.386   2.950   3.580
  565SOL    HW2 2595   3.384   2.809   3.499
  566SOL     OW 2596   3.431   5.494   3.122
  566SOL    HW1 2597   3.352   5.490   3.183
  566SOL    HW2 2598   3.402   5.532   3.034
  567SOL     OW 2599   2.397   2.236   6.618
  567SOL    HW1 2600   2.428   2.331   6.619
  567SOL    HW2 2601   2.379   2.208   6.524
  568SOL     OW 2602   6.167   0.035   0.665
  568SOL    HW1 2603   6.142   7.012   0.748
  568SOL    HW2 2604   6.184   0.132   0.687
  569SOL     OW 2605   0.431   2.194   0.197
  569SOL    HW1 2606   0.452   2.101   0.169
  569SOL    HW2 2607   0.481   2.259   0.139
  570SOL     OW 2608   2.807   0.439   6.484
  570SOL    HW1 2609   2.739   0.387   6.535
  570SOL    HW2 2610   2.859   0.377   6.425
  571SOL     OW 2611   2.817   4.762   2.974
  571SOL    HW1 2612   2.792   4.741   2.879
  571SOL    HW2 2613   2.748   4.724   3.036
  572SOL     OW 2614   2.128   6.076   4.208
  572SOL    HW1 2615   2.169   6.127   4.284
  572SOL    HW2 2616   2.101   6.139   4.135
  573SOL     OW 2617   6.006   2.384   5.620
  573SOL    HW1 2618   6.103   2.371   5.643
  573SOL    HW2 2619   5.952   2.386   5.703
  574SOL     OW 2620   2.662   1.506   4.961
  574SOL    HW1 2621   2.741   1.521   5.020
  574SOL    HW2 2622   2.656   1.580   4.894
  575SOL     OW 2623   3.426   3.381   0.165
  575SOL    HW1 2624   3.506   3.332   0.199
  575SOL    HW2 2625   3.448   3.478   0.156
  576SOL     OW 2626   2.120   3.407   3.053
  576SOL    HW1 2627   2.074   3.455   2.978
  576SOL    HW2 2628   2.141   3.314   3.024
  577SOL     OW 2629   1.470   1.386   2.384
  577SOL    HW1 2630   1.427   1.406   2.472
  577SOL    HW2 2631   1.471   1.469   2.327
  578SOL     OW 2632   1.970   5.316   0.018
  578SOL    HW1 2633   1.904   5.241   0.018
  578SOL    HW2 2634   2.059   5.282   7.013
  579SOL     OW 2635   2.657   4.637   2.439
  579SOL    HW1 2636   2.663   4.662   2.342
  579SOL    HW2 2637   2.719   4.695   2.492
  580SOL     OW 2638   4.226   5.764   5.195
  580SOL    HW1 2639   4.314   5.744   5.150
  580SOL    HW2 2640   4.228   5.857   5.231
  581SOL     OW 2641   0.974   2.997   3.645
  581SOL    HW1 2642   1.014   2.945   3.570
  581SOL    HW2 2643   0.944   2.934   3.717
  582SOL     OW 2644   5.765   5.153   3.378
  582SOL    HW1 2645   5.787   5.111   3.466
  582SOL    HW2 2646   5.798   5.094   3.304
  583SOL     OW 2647   3.090   5.252   6.431
  583SOL    HW1 2648   3.179   5.241   6.476
  583SOL    HW2 2649   3.103   5.298   6.343
  584SOL     OW 2650   3.779   0.302   6.750
  584SOL    HW1 2651   3.777   0.351   6.837
  584SOL    HW2 2652   3.857   0.240   6.747
  585SOL     OW 2653   2.275   6.478   1.742
  585SOL    HW1 2654   2.241   6.391   1.778
  585SOL    HW2 2655   2.197   6.539   1.723
  586SOL     OW 2656   4.300   0.141   1.417
  586SOL    HW1 2657   4.309   0.080   1.495
  586SOL    HW2 2658   4.390   0.154   1.375
  587SOL     OW 2659   5.260   1.843   1.904
  587SOL    HW1 2660   5.246   1.852   1.805
  587SOL    HW2 2661   5.183   1.883   1.953
  588SOL     OW 2662   1.348   5.543   1.370
  588SOL    HW1 2663   1.343   5.498   1.281
  588SOL    HW2 2664   1.419   5.613   1.369
  589SOL     OW 2665   3.679   5.764   1.622
  589SOL    HW1 2666   3.728   5.704   1.559
  589SOL    HW2 2667   3.670   5.719   1.711
  590SOL     OW 2668   5.564   1.138   0.736
  590SOL    HW1 2669   5.663   1.137   0.750
  590SOL    HW2 2670   5.527   1.225   0.768
  591SOL     OW 2671   4.081   5.292   4.479
  591SOL    HW1 2672   4.052   5.356   4.549
  591SOL    HW2 2673   4.053   5.199   4.504
  592SOL     OW 2674   4.722   1.327   4.545
  592SOL    HW1 2675   4.779   1.400   4.584
  592SOL    HW2 2676   4.669   1.364   4.469
  593SOL     OW 2677   3.694   2.045   5.571
  593SOL    HW1 2678   3.626   2.019   5.501
  593SOL    HW2 2679   3.658   2.122   5.625
  594SOL     OW 2680   5.396   1.665   1.607
  594SOL    HW1 2681   5.312   1.662   1.660
  594SOL    HW2 2682   5.417   1.760   1.582
  595SOL     OW 2683   5.317   6.096   2.505
  595SOL    HW1 2684   5.271   6.007   2.505
  595SOL    HW2 2685   5.401   6.089   2.451
  596SOL     OW 2686   6.917   3.673   3.785
  596SOL    HW1 2687   6.925   3.653   3.687
  596SOL    HW2 2688   6.965   3.602   3.837
  597SOL     OW 2689   2.948   6.620   5.960
  597SOL    HW1 2690   3.011   6.656   6.029
  597SOL    HW2 2691   2.967   6.663   5.872
  598SOL     OW 2692   2.979   3.954   4.794
  598SOL    HW1 2693   2.946   3.936   4.701
  598SOL    HW2 2694   2.979   3.868   4.846
  599SOL     OW 2695   1.556   5.783   1.879
  599SOL    HW1 2696   1.541   5.873   1.920
  599SOL    HW2 2697   1.526   5.784   1.784
  600SOL     OW 2698   6.941   4.126   4.604
  600SOL    HW1 2699   6.934   4.209   4.550
  600SOL    HW2 2700   7.014   4.136   4.672
  601SOL     OW 2701   1.182   0.900   4.763
  601SOL    HW1 2702   1.142   0.851   4.839
  601SOL    HW2 2703   1.236   0.977   4.797
  602SOL     OW 2704   2.535   6.143   4.971
  602SOL    HW1 2705   2.599   6.073   4.940
  602SOL    HW2 2706   2.475   6.169   4.896
  603SOL     OW 2707   1.565   0.955   5.133
  603SOL    HW1 2708   1.614   0.874   5.100
  603SOL    HW2 2709   1.557   1.022   5.058
  604SOL     OW 2710   6.895   2.345   1.830
  604SOL    HW1 2711   6.890   2.352   1.730
  604SOL    HW2 2712   6.867   2.253   1.858
  605SOL     OW 2713   0.094   4.356   1.932
  605SOL    HW1 2714   0.059   4.289   1.997
  605SOL    HW2 2715   0.192   4.343   1.921
  606SOL     OW 2716   4.019   0.141   5.041
  606SOL    HW1 2717   3.983   0.052   5.070
  606SOL    HW2 2718   4.118   0.144   5.055
  607SOL     OW 2719   1.483   4.902   6.033
  607SOL    HW1 2720   1.420   4.838   5.988
  607SOL    HW2 2721   1.576   4.867   6.027
  608SOL     OW 2722   4.030   0.083   6.022
  608SOL    HW1 2723   3.935   0.083   6.050
  608SOL    HW2 2724   4.074   0.168   6.053
  609SOL     OW 2725   3.888   2.240   1.407
  609SOL    HW1 2726   3.873   2.270   1.501
  609SOL    HW2 2727   3.847   2.150   1.393
  610SOL     OW 2728   4.581   2.496   0.134
  610SOL    HW1 2729   4.592   2.560   0.058
  610SOL    HW2 2730   4.641   2.524   0.209
  611SOL     OW 2731   4.125   0.338   2.512
  611SOL    HW1 2732   4.126   0.333   2.412
  611SOL    HW2 2733   4.211   0.378   2.544
  612SOL     OW 2734   3.774   4.859   5.924
  612SOL    HW1 2735   3.697   4.798   5.942
  612SOL    HW2 2736   3.808   4.897   6.010
  613SOL     OW 2737   5.385   5.681   5.166
  613SOL    HW1 2738   5.299   5.718   5.200
  613SOL    HW2 2739   5.461   5.735   5.202
  614SOL     OW 2740   5.110   5.569   5.191
  614SOL    HW1 2741   5.118   5.636   5.266
  614SOL    HW2 2742   5.086   5.617   5.106
  615SOL     OW 2743   0.378   4.433   1.022
  615SOL    HW1 2744   0.335   4.426   1.111
  615SOL    HW2 2745   0.314   4.405   0.951
  616SOL     OW 2746   6.519   2.754   3.329
  616SOL    HW1 2747   6.428   2.754   3.371
  616SOL    HW2 2748   6.572   2.677   3.366
  617SOL     OW 2749   2.344   5.642   6.219
  617SOL    HW1 2750   2.299   5.664   6.133
  617SOL    HW2 2751   2.423   5.583   6.201
  618SOL     OW 2752   1.493   1.471   1.486
  618SOL    HW1 2753   1.573   1.528   1.504
  618SOL    HW2 2754   1.413   1.511   1.531
  619SOL     OW 2755   1.651   2.359   6.399
  619SOL    HW1 2756   1.610   2.269   6.389
  619SOL    HW2 2757   1.734   2.353   6.455
  620SOL     OW 2758   4.800   2.785   0.419
  620SOL    HW1 2759   4.799   2.838   0.334
  620SOL    HW2 2760   4.805   2.687   0.398
  621SOL     OW 2761   6.346   5.118   0.281
  621SOL    HW1 2762   6.294   5.156   0.358
  621SOL    HW2 2763   6.391   5.193   0.232
  622SOL     OW 2764   2.054   1.704   0.452
  622SOL    HW1 2765   1.971   1.665   0.414
  622SOL    HW2 2766   2.115   1.631   0.481
  623SOL     OW 2767   0.873   4.980   6.390
  623SOL    HW1 2768   0.808   5.045   6.350
  623SOL    HW2 2769   0.925   5.026   6.462
  624SOL     OW 2770   0.446   2.489   2.640
  624SOL    HW1 2771   0.531   2.541   2.644
  624SOL    HW2 2772   0.380   2.538   2.583
  625SOL     OW 2773   3.057   1.874   2.533
  625SOL    HW1 2774   3.150   1.854   2.564
  625SOL    HW2 2775   3.060   1.948   2.466
  626SOL     OW 2776   2.123   6.291   3.397
  626SOL    HW1 2777   2.113   6.299   3.496
  626SOL    HW2 2778   2.122   6.382   3.355
  627SOL     OW 2779   5.570   1.060   0.392
  627SOL    HW1 2780   5.550   1.143   0.443
  627SOL    HW2 2781   5.494   1.039   0.330
  628SOL     OW 2782   4.682   4.916   4.266
  628SOL    HW1 2783   4.716   4.922   4.172
  628SOL    HW2 2784   4.695   4.823   4.300
  629SOL     OW 2785   0.617   0.104   1.638
  629SOL    HW1 2786   0.519   0.093   1.655
  629SOL    HW2 2787   0.664   0.121   1.725
  630SOL     OW 2788   4.634   1.176   1.775
  630SOL    HW1 2789   4.552   1.232   1.769
  630SOL    HW2 2790   4.685   1.201   1.857
  631SOL     OW 2791   2.716   0.165   5.696
  631SOL    HW1 2792   2.705   0.263   5.676
  631SOL    HW2 2793   2.644   0.113   5.649
  632SOL     OW 2794   2.315   0.625   0.587
  632SOL    HW1 2795   2.365   0.619   0.673
  632SOL    HW2 2796   2.281   0.534   0.562
  633SOL     OW 2797   3.318   6.214   0.509
  633SOL    HW1 2798   3.410   6.210   0.549
  633SOL    HW2 2799   3.254   6.249   0.578
  634SOL     OW 2800   4.341   5.546   1.132
  634SOL    HW1 2801   4.372   5.565   1.039
  634SOL    HW2 2802   4.279   5.618   1.162
  635SOL     OW 2803   3.366   0.355   2.897
  635SOL    HW1 2804   3.343   0.452   2.907
  635SOL    HW2 2805   3.285   0.304   2.867
  636SOL     OW 2806   5.297   5.248   6.654
  636SOL    HW1 2807   5.293   5.245   6.753
  636SOL    HW2 2808   5.385   5.210   6.622
  637SOL     OW 2809   4.905   4.836   1.575
  637SOL    HW1 2810   4.949   4.922   1.601
  637SOL    HW2 2811   4.835   4.814   1.643
  638SOL     OW 2812   4.968   1.281   1.760
  638SOL    HW1 2813   4.897   1.279   1.832
  638SOL    HW2 2814   4.926   1.263   1.672
  639SOL     OW 2815   4.268   4.618   1.749
  639SOL    HW1 2816   4.242   4.665   1.665
  639SOL    HW2 2817   4.273   4.519   1.732
  640SOL     OW 2818   2.418   4.041   5.633
  640SOL    HW1 2819   2.437   4.027   5.535
  640SOL    HW2 2820   2.349   3.976   5.663
  641SOL     OW 2821   0.510   5.988   4.929
  641SOL    HW1 2822   0.579   6.003   5.000
  641SOL    HW2 2823   0.501   5.890   4.911
  642SOL     OW 2824   0.320   5.007   5.010
  642SOL    HW1 2825   0.398   5.041   4.957
  642SOL    HW2 2826   0.294   4.916   4.975
  643SOL     OW 2827   6.553   5.660   5.823
  643SOL    HW1 2828   6.533   5.756   5.802
  643SOL    HW2 2829   6.622   5.626   5.759
  644SOL     OW 2830   1.238   6.300   2.975
  644SOL    HW1 2831   1.190   6.327   2.891
  644SOL    HW2 2832   1.214   6.206   2.998
  645SOL     OW 2833   4.862   2.566   4.524
  645SOL    HW1 2834   4.812   2.562   4.437
  645SOL    HW2 2835   4.888   2.474   4.552
  646SOL     OW 2836   1.359   1.133   3.824
  646SOL    HW1 2837   1.361   1.046   3.873
  646SOL    HW2 2838   1.407   1.202   3.878
  647SOL     OW 2839   6.322   2.683   0.024
  647SOL    HW1 2840   6.247   2.626   0.057
  647SOL    HW2 2841   6.327   2.768   0.076
  648SOL     OW 2842   5.920   3.388   2.294
  648SOL    HW1 2843   5.975   3.383   2.211
  648SOL    HW2 2844   5.910   3.484   2.320
  649SOL     OW 2845   4.004   4.252   1.029
  649SOL    HW1 2846   3.973   4.314   1.101
  649SOL    HW2 2847   3.971   4.284   0.940
  650SOL     OW 2848   4.637   4.479   0.675
  650SOL    HW1 2849   4.584   4.533   0.740
  650SOL    HW2 2850   4.681   4.540   0.609
  651SOL     OW 2851   0.472   6.543   1.158
  651SOL    HW1 2852   0.515   6.591   1.235
  651SOL    HW2 2853   0.388   6.498   1.189
  652SOL     OW 2854   4.407   0.235   2.861
  652SOL    HW1 2855   4.413   0.333   2.880
  652SOL    HW2 2856   4.450   0.184   2.936
  653SOL     OW 2857   3.400   4.924   4.093
  653SOL    HW1 2858   3.348   4.890   4.171
  653SOL    HW2 2859   3.483   4.969   4.125
  654SOL     OW 2860   6.862   5.476   6.858
  654SOL    HW1 2861   6.908   5.387   6.864
  654SOL    HW2 2862   6.892   5.523   6.775
  655SOL     OW 2863   0.687   0.246   1.387
  655SOL    HW1 2864   0.640   0.193   1.457
  655SOL    HW2 2865   0.770   0.285   1.425
  656SOL     OW 2866   2.360   6.476   2.223
  656SOL    HW1 2867   2.451   6.497   2.261
  656SOL    HW2 2868   2.365   6.474   2.123
  657SOL     OW 2869   2.879   1.381   0.773
  657SOL    HW1 2870   2.796   1.422   0.734
  657SOL    HW2 2871   2.875   1.282   0.761
  658SOL     OW 2872   3.060   3.702   6.888
  658SOL    HW1 2873   3.013   3.626   6.843
  658SOL    HW2 2874   3.159   3.693   6.876
  659SOL     OW 2875   2.503   7.006   0.027
  659SOL    HW1 2876   2.557   0.030   6.985
  659SOL    HW2 2877   2.565   6.962   0.092
  660SOL     OW 2878   4.030   5.815   2.177
  660SOL    HW1 2879   3.953   5.872   2.146
  660SOL    HW2 2880   4.115   5.865   2.167
  661SOL     OW 2881   4.655   5.567   3.011
  661SOL    HW1 2882   4.675   5.503   3.085
  661SOL    HW2 2883   4.728   5.635   3.005
  662SOL     OW 2884   3.508   1.147   6.153
  662SOL    HW1 2885   3.409   1.159   6.166
  662SOL    HW2 2886   3.557   1.222   6.197
  663SOL     OW 2887   1.987   4.600   4.929
  663SOL    HW1 2888   1.948   4.602   5.021
  663SOL    HW2 2889   1.946   4.525   4.877
  664SOL     OW 2890   0.237   6.449   6.849
  664SOL    HW1 2891   0.170   6.382   6.816
  664SOL    HW2 2892   0.325   6.432   6.804
  665SOL     OW 2893   3.198   5.806   3.839
  665SOL    HW1 2894   3.129   5.734   3.831
  665SOL    HW2 2895   3.280   5.780   3.788
  666SOL     OW 2896   4.080   1.263   2.453
  666SOL    HW1 2897   4.043   1.247   2.361
  666SOL    HW2 2898   4.038   1.199   2.517
  667SOL     OW 2899   1.085   5.231   1.688
  667SOL    HW1 2900   1.031   5.308   1.723
  667SOL    HW2 2901   1.095   5.239   1.589
  668SOL     OW 2902   5.644   4.600   6.157
  668SOL    HW1 2903   5.684   4.543   6.085
  668SOL    HW2 2904   5.591   4.674   6.115
  669SOL     OW 2905   5.938   1.330   2.593
  669SOL    HW1 2906   5.840   1.312   2.605
  669SOL    HW2 2907   5.986   1.244   2.577
  670SOL     OW 2908   1.649   1.589   3.606
  670SOL    HW1 2909   1.635   1.649   3.528
  670SOL    HW2 2910   1.592   1.507   3.595
  671SOL     OW 2911   2.469   6.477   1.502
  671SOL    HW1 2912   2.394   6.480   1.568
  671SOL    HW2 2913   2.544   6.422   1.540
  672SOL     OW 2914   0.546   5.793   2.180
  672SOL    HW1 2915   0.475   5.777   2.112
  672SOL    HW2 2916   0.635   5.765   2.142
  673SOL     OW 2917   5.632   6.941   1.149
  673SOL    HW1 2918   5.570   6.865   1.164
  673SOL    HW2 2919   5.720   6.921   1.192
  674SOL     OW 2920   6.672   1.495   4.989
  674SOL    HW1 2921   6.769   1.504   5.009
  674SOL    HW2 2922   6.657   1.416   4.929
  675SOL     OW 2923   5.909   2.297   1.835
  675SOL    HW1 2924   5.980   2.349   1.882
  675SOL    HW2 2925   5.938   2.201   1.827
  676SOL     OW 2926   2.467   4.694   4.830
  676SOL    HW1 2927   2.451   4.680   4.928
  676SOL    HW2 2928   2.563   4.715   4.815
  677SOL     OW 2929   4.582   0.643   1.420
  677SOL    HW1 2930   4.494   0.677   1.452
  677SOL    HW2 2931   4.656   0.701   1.455
  678SOL     OW 2932   2.647   4.587   5.240
  678SOL    HW1 2933   2.679   4.521   5.308
  678SOL    HW2 2934   2.717   4.598   5.170
  679SOL     OW 2935   5.418   1.526   4.983
  679SOL    HW1 2936   5.486   1.563   5.046
  679SOL    HW2 2937   5.452   1.442   4.942
  680SOL     OW 2938   5.438   6.847   4.114
  680SOL    HW1 2939   5.469   6.761   4.153
  680SOL    HW2 2940   5.474   6.857   4.021
  681SOL     OW 2941   5.250   6.265   2.220
  681SOL    HW1 2942   5.231   6.170   2.247
  681SOL    HW2 2943   5.182   6.296   2.155
  682SOL     OW 2944   0.520   0.948   2.535
  682SOL    HW1 2945   0.560   0.865   2.496
  682SOL    HW2 2946   0.437   0.971   2.484
  683SOL     OW 2947   4.424   3.361   1.289
  683SOL    HW1 2948   4.480   3.383   1.369
  683SOL    HW2 2949   4.452   3.419   1.212
  684SOL     OW 2950   6.517   0.777   6.590
  684SOL    HW1 2951   6.609   0.760   6.553
  684SOL    HW2 2952   6.449   0.765   6.517
  685SOL     OW 2953   3.619   1.392   3.375
  685SOL    HW1 2954   3.530   1.363   3.412
  685SOL    HW2 2955   3.692   1.342   3.421
  686SOL     OW 2956   4.378   0.881   3.976
  686SOL    HW1 2957   4.381   0.964   4.031
  686SOL    HW2 2958   4.287   0.842   3.979
  687SOL     OW 2959   0.854   1.757   4.107
  687SOL    HW1 2960   0.772   1.713   4.143
  687SOL    HW2 2961   0.914   1.689   4.065
  688SOL     OW 2962   0.343   1.298   6.340
  688SOL    HW1 2963   0.291   1.384   6.348
  688SOL    HW2 2964   0.440   1.319   6.328
  689SOL     OW 2965   1.009   4.941   5.336
  689SOL    HW1 2966   1.081   4.937   5.405
  689SOL    HW2 2967   0.940   5.008   5.364
  690SOL     OW 2968   6.438   3.253   2.888
  690SOL    HW1 2969   6.418   3.162   2.924
  690SOL    HW2 2970   6.387   3.267   2.802
  691SOL     OW 2971   3.787   1.661   0.040
  691SOL    HW1 2972   3.820   1.715   0.118
  691SOL    HW2 2973   3.787   1.718   6.984
  692SOL     OW 2974   3.303   1.123   5.520
  692SOL    HW1 2975   3.283   1.114   5.422
  692SOL    HW2 2976   3.228   1.171   5.565
  693SOL     OW 2977   4.811   5.779   3.370
  693SOL    HW1 2978   4.771   5.828   3.294
  693SOL    HW2 2979   4.770   5.688   3.377
  694SOL     OW 2980   3.989   6.173   4.569
  694SOL    HW1 2981   3.894   6.197   4.591
  694SOL    HW2 2982   4.047   6.252   4.583
  695SOL     OW 2983   3.252   5.822   4.141
  695SOL    HW1 2984   3.307   5.857   4.065
  695SOL    HW2 2985   3.267   5.879   4.222
  696SOL     OW 2986   5.196   4.307   3.237
  696SOL    HW1 2987   5.141   4.387   3.216
  696SOL    HW2 2988   5.279   4.334   3.286
  697SOL     OW 2989   0.881   4.339   1.681
  697SOL    HW1 2990   0.946   4.263   1.687
  697SOL    HW2 2991   0.864   4.375   1.772
  698SOL     OW 2992   4.947   6.779   1.388
  698SOL    HW1 2993   4.885   6.820   1.455
  698SOL    HW2 2994   4.959   6.841   1.310
  699SOL     OW 2995   2.613   2.771   6.930
  699SOL    HW1 2996   2.533   2.726   6.891
  699SOL    HW2 2997   2.644   2.843   6.867
  700SOL     OW 2998   3.298   7.001   2.290
  700SOL    HW1 2999   3.339   0.061   2.319
  700SOL    HW2 3000   3.207   7.019   2.252
  701SOL     OW 3001   6.167   4.674   0.571
  701SOL    HW1 3002   6.117   4.594   0.604
  701SOL    HW2 3003   6.257   4.645   0.538
  702SOL     OW 3004   2.786   0.880   4.330
  702SOL    HW1 3005   2.815   0.976   4.329
  702SOL    HW2 3006   2.833   0.833   4.405
  703SOL     OW 3007   2.903   3.337   5.366
  703SOL    HW1 3008   2.981   3.395   5.343
  703SOL    HW2 3009   2.909   3.251   5.314
  704SOL     OW 3010   1.266   2.679   6.434
  704SOL    HW1 3011   1.220   2.747   6.376
  704SOL    HW2 3012   1.300   2.724   6.517
  705SOL     OW 3013   6.480   6.064   4.117
  705SOL    HW1 3014   6.561   6.009   4.096
  705SOL    HW2 3015   6.465   6.065   4.216
  706SOL     OW 3016   4.095   1.154   5.773
  706SOL    HW1 3017   4.134   1.202   5.694
  706SOL    HW2 3018   4.037   1.079   5.742
  707SOL     OW 3019   3.904   5.423   3.363
  707SOL    HW1 3020   3.825   5.440   3.304
  707SOL    HW2 3021   3.888   5.341   3.417
  708SOL     OW 3022   3.093   1.095   3.169
  708SOL    HW1 3023   3.021   1.150   3.127
  708SOL    HW2 3024   3.083   1.097   3.269
  709SOL     OW 3025   1.649   6.724   1.576
  709SOL    HW1 3026   1.710   6.701   1.500
  709SOL    HW2 3027   1.641   6.823   1.583
  710SOL     OW 3028   5.042   2.859   1.500
  710SOL    HW1 3029   5.104   2.794   1.455
  710SOL    HW2 3030   4.988   2.906   1.430
  711SOL     OW 3031   0.015   2.854   5.594
  711SOL    HW1 3032   6.989   2.923   5.544
  711SOL    HW2 3033   6.978   2.791   5.640
  712SOL     OW 3034   4.392   3.098   1.244
  712SOL    HW1 3035   4.416   3.192   1.270
  712SOL    HW2 3036   4.339   3.099   1.160
  713SOL     OW 3037   4.348   2.806   5.303
  713SOL    HW1 3038   4.323   2.812   5.400
  713SOL    HW2 3039   4.275   2.759   5.253
  714SOL     OW 3040   6.298   4.900   3.810
  714SOL    HW1 3041   6.311   4.843   3.728
  714SOL    HW2 3042   6.276   4.841   3.888
  715SOL     OW 3043   6.612   5.176   5.704
  715SOL    HW1 3044   6.631   5.206   5.610
  715SOL    HW2 3045   6.695   5.135   5.743
  716SOL     OW 3046   2.303   0.939   2.519
  716SOL    HW1 3047   2.217   0.917   2.565
  716SOL    HW2 3048   2.302   1.036   2.493
  717SOL     OW 3049   6.154   4.716   4.002
  717SOL    HW1 3050   6.063   4.757   4.004
  717SOL    HW2 3051   6.156   4.641   3.936
  718SOL     OW 3052   4.634   2.222   4.359
  718SOL    HW1 3053   4.586   2.172   4.287
  718SOL    HW2 3054   4.583   2.215   4.445
  719SOL     OW 3055   6.896   0.445   2.751
  719SOL    HW1 3056   6.823   0.454   2.818
  719SOL    HW2 3057   6.908   0.531   2.702
  720SOL     OW 3058   1.775   0.631   6.113
  720SOL    HW1 3059   1.767   0.705   6.181
  720SOL    HW2 3060   1.730   0.659   6.028
  721SOL     OW 3061   0.572   2.319   2.128
  721SOL    HW1 3062   0.629   2.244   2.094
  721SOL    HW2 3063   0.557   2.308   2.226
  722SOL     OW 3064   4.167   0.186   6.478
  722SOL    HW1 3065   4.192   0.282   6.463
  722SOL    HW2 3066   4.250   0.130   6.475
  723SOL     OW 3067   2.416   6.181   3.432
  723SOL    HW1 3068   2.458   6.247   3.369
  723SOL    HW2 3069   2.338   6.137   3.387
  724SOL     OW 3070   0.865   0.995   3.320
  724SOL    HW1 3071   0.803   0.995   3.399
  724SOL    HW2 3072   0.957   1.020   3.350
  725SOL     OW 3073   2.416   4.523   2.362
  725SOL    HW1 3074   2.422   4.445   2.300
  725SOL    HW2 3075   2.507   4.555   2.385
  726SOL     OW 3076   2.542   5.219   0.605
  726SOL    HW1 3077   2.489   5.255   0.529
  726SOL    HW2 3078   2.572   5.294   0.665
  727SOL     OW 3079   4.501   5.435   6.548
  727SOL    HW1 3080   4.434   5.371   6.511
  727SOL    HW2 3081   4.506   5.516   6.490
  728SOL     OW 3082   7.008   3.558   4.408
  728SOL    HW1 3083   6.948   3.499   4.462
  728SOL    HW2 3084   0.006   3.639   4.460
  729SOL     OW 3085   0.497   2.844   1.008
  729SOL    HW1 3086   0.399   2.851   1.027
  729SOL    HW2 3087   0.513   2.777   0.936
  730SOL     OW 3088   5.030   0.689   3.242
  730SOL    HW1 3089   5.027   0.590   3.254
  730SOL    HW2 3090   4.942   0.729   3.268
  731SOL     OW 3091   4.737   4.396   6.321
  731SOL    HW1 3092   4.661   4.361   6.266
  731SOL    HW2 3093   4.782   4.320   6.368
  732SOL     OW 3094   5.234   2.133   2.833
  732SOL    HW1 3095   5.289   2.100   2.909
  732SOL    HW2 3096   5.292   2.184   2.769
  733SOL     OW 3097   6.202   6.785   3.742
  733SOL    HW1 3098   6.172   6.840   3.820
  733SOL    HW2 3099   6.273   6.834   3.691
  734SOL     OW 3100   6.522   4.986   2.626
  734SOL    HW1 3101   6.548   4.991   2.722
  734SOL    HW2 3102   6.530   4.892   2.594
  735SOL     OW 3103   5.784   0.619   1.925
  735SOL    HW1 3104   5.771   0.676   1.843
  735SOL    HW2 3105   5.698   0.571   1.945
  736SOL     OW 3106   1.403   1.340   3.973
  736SOL    HW1 3107   1.317   1.364   4.018
  736SOL    HW2 3108   1.479   1.385   4.021
  737SOL     OW 3109   5.874   1.452   6.024
  737SOL    HW1 3110   5.780   1.439   6.053
  737SOL    HW2 3111   5.905   1.544   6.049
  738SOL     OW 3112   2.748   3.790   1.257
  738SOL    HW1 3113   2.661   3.741   1.270
  738SOL    HW2 3114   2.735   3.887   1.277
  739SOL     OW 3115   3.274   6.839   4.958
  739SOL    HW1 3116   3.292   6.911   4.891
  739SOL    HW2 3117   3.342   6.766   4.947
  740SOL     OW 3118   5.682   2.317   2.687
  740SOL    HW1 3119   5.758   2.262   2.653
  740SOL    HW2 3120   5.696   2.337   2.784
  741SOL     OW 3121   2.477   0.252   4.586
  741SOL    HW1 3122   2.411   0.224   4.516
  741SOL    HW2 3123   2.556   0.190   4.584
  742SOL     OW 3124   1.378   6.361   0.519
  742SOL    HW1 3125   1.308   6.362   0.447
  742SOL    HW2 3126   1.465   6.391   0.481
  743SOL     OW 3127   0.762   6.405   3.856
  743SOL    HW1 3128   0.853   6.366   3.844
  743SOL    HW2 3129   0.703   6.378   3.780
  744SOL     OW 3130   6.628   1.515   0.974
  744SOL    HW1 3131   6.698   1.510   0.903
  744SOL    HW2 3132   6.624   1.427   1.023
  745SOL     OW 3133   2.118   5.609   4.860
  745SOL    HW1 3134   2.041   5.667   4.837
  745SOL    HW2 3135   2.088   5.514   4.865
  746SOL     OW 3136   5.429   4.157   4.908
  746SOL    HW1 3137   5.357   4.125   4.969
  746SOL    HW2 3138   5.388   4.209   4.833
  747SOL     OW 3139   5.517   5.172   3.494
  747SOL    HW1 3140   5.602   5.169   3.442
  747SOL    HW2 3141   5.498   5.267   3.522
  748SOL     OW 3142   4.647   5.343   2.573
  748SOL    HW1 3143   4.671   5.440   2.562
  748SOL    HW2 3144   4.603   5.331   2.662
  749SOL     OW 3145   4.927   3.462   3.793
  749SOL    HW1 3146   4.912   3.460   3.694
  749SOL    HW2 3147   4.859   3.404   3.838
  750SOL     OW 3148   2.470   1.414   1.417
  750SOL    HW1 3149   2.505   1.502   1.449
  750SOL    HW2 3150   2.542   1.345   1.421
  751SOL     OW 3151   4.861   2.150   0.613
  751SOL    HW1 3152   4.808   2.068   0.638
  751SOL    HW2 3153   4.922   2.174   0.689
  752SOL     OW 3154   3.315   2.241   5.692
  752SOL    HW1 3155   3.343   2.162   5.746
  752SOL    HW2 3156   3.305   2.321   5.751
  753SOL     OW 3157   3.513   3.504   5.175
  753SOL    HW1 3158   3.471   3.418   5.145
  753SOL    HW2 3159   3.544   3.555   5.094
  754SOL     OW 3160   6.065   1.006   6.353
  754SOL    HW1 3161   6.159   1.013   6.321
  754SOL    HW2 3162   6.040   1.089   6.402
  755SOL     OW 3163   2.981   4.248   5.309
  755SOL    HW1 3164   3.064   4.231   5.361
  755SOL    HW2 3165   2.979   4.343   5.280
  756SOL     OW 3166   2.628   5.198   0.082
  756SOL    HW1 3167   2.565   5.229   0.011
  756SOL    HW2 3168   2.698   5.139   0.040
  757SOL     OW 3169   2.237   6.625   2.540
  757SOL    HW1 3170   2.187   6.567   2.605
  757SOL    HW2 3171   2.332   6.596   2.536
  758SOL     OW 3172   4.260   1.126   3.669
  758SOL    HW1 3173   4.315   1.210   3.669
  758SOL    HW2 3174   4.319   1.048   3.692
  759SOL     OW 3175   6.896   2.905   3.345
  759SOL    HW1 3176   6.990   2.937   3.338
  759SOL    HW2 3177   6.837   2.958   3.285
  760SOL     OW 3178   6.850   6.607   3.808
  760SOL    HW1 3179   6.753   6.631   3.817
  760SOL    HW2 3180   6.864   6.513   3.837
  761SOL     OW 3181   5.393   3.913   5.336
  761SOL    HW1 3182   5.336   3.879   5.261
  761SOL    HW2 3183   5.336   3.927   5.418
  762SOL     OW 3184   3.144   6.217   5.788
  762SOL    HW1 3185   3.094   6.130   5.783
  762SOL    HW2 3186   3.110   6.279   5.717
  763SOL     OW 3187   5.602   0.435   6.741
  763SOL    HW1 3188   5.632   0.531   6.739
  763SOL    HW2 3189   5.672   0.377   6.700
  764SOL     OW 3190   5.644   1.174   5.830
  764SOL    HW1 3191   5.544   1.176   5.833
  764SOL    HW2 3192   5.679   1.267   5.828
  765SOL     OW 3193   0.906   0.045   0.740
  765SOL    HW1 3194   0.813   0.055   0.775
  765SOL    HW2 3195   0.953   6.997   0.790
  766SOL     OW 3196   2.298   2.164   4.854
  766SOL    HW1 3197   2.392   2.197   4.862
  766SOL    HW2 3198   2.279   2.101   4.930
  767SOL     OW 3199   0.009   6.921   3.936
  767SOL    HW1 3200   0.046   6.935   3.844
  767SOL    HW2 3201   0.049   6.987   3.999
  768SOL     OW 3202   1.942   6.409   2.592
  768SOL    HW1 3203   2.006   6.387   2.518
  768SOL    HW2 3204   1.850   6.420   2.555
  769SOL     OW 3205   3.418   1.798   5.306
  769SOL    HW1 3206   3.415   1.873   5.372
  769SOL    HW2 3207   3.449   1.832   5.217
  770SOL     OW 3208   2.047   5.057   4.426
  770SOL    HW1 3209   2.014   5.067   4.520
  770SOL    HW2 3210   1.990   4.990   4.378
  771SOL     OW 3211   1.305   5.184   3.459
  771SOL    HW1 3212   1.219   5.184   3.509
  771SOL    HW2 3213   1.378   5.146   3.516
  772SOL     OW 3214   5.372   4.963   6.978
  772SOL    HW1 3215   5.406   4.877   6.942
  772SOL    HW2 3216   5.284   4.949   7.023
  773SOL     OW 3217   1.309   3.433   3.495
  773SOL    HW1 3218   1.349   3.514   3.454
  773SOL    HW2 3219   1.382   3.371   3.524
  774SOL     OW 3220   2.155   1.863   4.073
  774SOL    HW1 3221   2.247   1.876   4.108
  774SOL    HW2 3222   2.096   1.936   4.107
  775SOL     OW 3223   2.152   3.865   4.028
  775SOL    HW1 3224   2.157   3.826   4.120
  775SOL    HW2 3225   2.136   3.792   3.962
  776SOL     OW 3226   0.927   6.832   6.231
  776SOL    HW1 3227   0.985   6.795   6.158
  776SOL    HW2 3228   0.970   6.813   6.320
  777SOL     OW 3229   1.920   3.809   6.910
  777SOL    HW1 3230   1.974   3.868   6.971
  777SOL    HW2 3231   1.861   3.865   6.853
  778SOL     OW 3232   3.504   6.752   1.787
  778SOL    HW1 3233   3.459   6.720   1.703
  778SOL    HW2 3234   3.445   6.818   1.833
  779SOL     OW 3235   0.460   2.761   1.950
  779SOL    HW1 3236   0.386   2.694   1.947
  779SOL    HW2 3237   0.548   2.714   1.959
  780SOL     OW 3238   1.520   2.102   4.694
  780SOL    HW1 3239   1.421   2.091   4.688
  780SOL    HW2 3240   1.562   2.014   4.714
  781SOL     OW 3241   0.350   4.540   0.644
  781SOL    HW1 3242   0.309   4.539   0.553
  781SOL    HW2 3243   0.385   4.449   0.666
  782SOL     OW 3244   1.728   4.012   5.669
  782SOL    HW1 3245   1.759   3.926   5.628
  782SOL    HW2 3246   1.799   4.081   5.661
  783SOL     OW 3247   5.374   4.635   6.421
  783SOL    HW1 3248   5.468   4.606   6.437
  783SOL    HW2 3249   5.318   4.554   6.399
  784SOL     OW 3250   2.877   5.856   1.735
  784SOL    HW1 3251   2.949   5.885   1.799
  784SOL    HW2 3252   2.802   5.922   1.737
  785SOL     OW 3253   0.967   6.812   4.143
  785SOL    HW1 3254   0.929   6.871   4.071
  785SOL    HW2 3255   0.968   6.717   4.111
  786SOL     OW 3256   6.303   1.023   3.791
  786SOL    HW1 3257   6.389   0.972   3.800
  786SOL    HW2 3258   6.317   1.118   3.819
  787SOL     OW 3259   2.366   0.413   0.177
  787SOL    HW1 3260   2.308   0.344   0.222
  787SOL    HW2 3261   2.310   0.492   0.155
  788SOL     OW 3262   4.024   3.085   1.414
  788SOL    HW1 3263   3.957   3.046   1.351
  788SOL    HW2 3264   3.984   3.094   1.505
  789SOL     OW 3265   4.407   5.331   1.926
  789SOL    HW1 3266   4.479   5.392   1.892
  789SOL    HW2 3267   4.424   5.238   1.895
  790SOL     OW 3268   0.858   2.845   1.840
  790SOL    HW1 3269   0.800   2.783   1.891
  790SOL    HW2 3270   0.828   2.939   1.856
  791SOL     OW 3271   2.634   5.472   5.362
  791SOL    HW1 3272   2.732   5.488   5.348
  791SOL    HW2 3273   2.619   5.442   5.457
  792SOL     OW 3274   0.700   1.006   0.753
  792SOL    HW1 3275   0.758   1.029   0.831
  792SOL    HW2 3276   0.721   1.066   0.677
  793SOL     OW 3277   3.952   5.512   3.871
  793SOL    HW1 3278   3.864   5.550   3.841
  793SOL    HW2 3279   3.948   5.412   3.866
  794SOL     OW 3280   2.938   3.753   3.569
  794SOL    HW1 3281   2.957   3.658   3.545
  794SOL    HW2 3282   2.959   3.812   3.491
  795SOL     OW 3283   3.662   0.921   6.151
  795SOL    HW1 3284   3.697   0.896   6.061
  795SOL    HW2 3285   3.589   0.989   6.141
  796SOL     OW 3286   1.543   3.094   6.746
  796SOL    HW1 3287   1.601   3.056   6.818
  796SOL    HW2 3288   1.581   3.182   6.716
  797SOL     OW 3289   4.708   6.934   1.236
  797SOL    HW1 3290   4.617   6.974   1.252
  797SOL    HW2 3291   4.753   6.983   1.162
  798SOL     OW 3292   3.071   6.157   1.403
  798SOL    HW1 3293   3.024   6.188   1.486
  798SOL    HW2 3294   3.144   6.221   1.381
  799SOL     OW 3295   1.247   2.032   6.861
  799SOL    HW1 3296   1.327   2.091   6.853
  799SOL    HW2 3297   1.169   2.076   6.816
  800SOL     OW 3298   6.121   1.174   1.955
  800SOL    HW1 3299   6.058   1.234   1.905
  800SOL    HW2 3300   6.186   1.134   1.891
  801SOL     OW 3301   1.994   5.679   5.581
  801SOL    HW1 3302   2.012   5.582   5.566
  801SOL    HW2 3303   2.077   5.724   5.615
  802SOL     OW 3304   5.367   2.182   6.940
  802SOL    HW1 3305   5.360   2.266   6.994
  802SOL    HW2 3306   5.288   2.174   6.879
  803SOL     OW 3307   2.575   0.757   5.602
  803SOL    HW1 3308   2.505   0.806   5.550
  803SOL    HW2 3309   2.565   0.659   5.588
  804SOL     OW 3310   6.208   0.446   1.756
  804SOL    HW1 3311   6.178   0.416   1.665
  804SOL    HW2 3312   6.133   0.437   1.821
  805SOL     OW 3313   3.061   1.100   3.426
  805SOL    HW1 3314   3.016   1.188   3.439
  805SOL    HW2 3315   3.137   1.091   3.491
  806SOL     OW 3316   0.964   0.092   5.300
  806SOL    HW1 3317   1.009   0.177   5.274
  806SOL    HW2 3318   0.920   0.051   5.220
  807SOL     OW 3319   0.886   6.170   5.266
  807SOL    HW1 3320   0.883   6.262   5.227
  807SOL    HW2 3321   0.970   6.159   5.319
  808SOL     OW 3322   5.933   2.930   0.449
  808SOL    HW1 3323   5.914   2.890   0.360
  808SOL    HW2 3324   5.936   2.858   0.518
  809SOL     OW 3325   0.497   5.019   0.005
  809SOL    HW1 3326   0.408   5.061   7.009
  809SOL    HW2 3327   0.484   4.946   0.072
  810SOL     OW 3328   2.877   3.596   0.283
  810SOL    HW1 3329   2.868   3.518   0.344
  810SOL    HW2 3330   2.787   3.621   0.248
  811SOL     OW 3331   5.464   5.167   5.140
  811SOL    HW1 3332   5.434   5.074   5.119
  811SOL    HW2 3333   5.392   5.215   5.191
  812SOL     OW 3334   0.974   2.052   2.315
  812SOL    HW1 3335   1.047   1.984   2.307
  812SOL    HW2 3336   0.966   2.103   2.230
  813SOL     OW 3337   1.940   1.056   4.696
  813SOL    HW1 3338   1.911   1.059   4.600
  813SOL    HW2 3339   2.023   1.001   4.703
  814SOL     OW 3340   6.707   5.599   2.922
  814SOL    HW1 3341   6.738   5.673   2.981
  814SOL    HW2 3342   6.718   5.511   2.969
  815SOL     OW 3343   5.072   2.283   3.825
  815SOL    HW1 3344   5.156   2.334   3.809
  815SOL    HW2 3345   5.088   2.216   3.898
  816SOL     OW 3346   4.969   3.865   0.205
  816SOL    HW1 3347   4.919   3.807   0.270
  816SOL    HW2 3348   5.028   3.928   0.256
  817SOL     OW 3349   1.138   5.923   0.823
  817SOL    HW1 3350   1.129   5.891   0.728
  817SOL    HW2 3351   1.203   5.998   0.826
  818SOL     OW 3352   6.010   2.723   3.437
  818SOL    HW1 3353   5.967   2.716   3.347
  818SOL    HW2 3354   5.959   2.669   3.504
  819SOL     OW 3355   5.685   2.131   1.734
  819SOL    HW1 3356   5.750   2.199   1.766
  819SOL    HW2 3357   5.599   2.175   1.710
  820SOL     OW 3358   2.391   2.141   4.257
  820SOL    HW1 3359   2.356   2.048   4.259
  820SOL    HW2 3360   2.480   2.142   4.212
  821SOL     OW 3361   5.695   3.961   4.670
  821SOL    HW1 3362   5.792   3.947   4.647
  821SOL    HW2 3363   5.678   3.928   4.762
  822SOL     OW 3364   0.766   4.271   3.497
  822SOL    HW1 3365   0.686   4.286   3.555
  822SOL    HW2 3366   0.849   4.294   3.546
  823SOL     OW 3367   1.098   3.807   5.649
  823SOL    HW1 3368   1.120   3.780   5.743
  823SOL    HW2 3369   1.017   3.865   5.650
  824SOL     OW 3370   5.710   0.994   4.975
  824SOL    HW1 3371   5.794   1.048   4.984
  824SOL    HW2 3372   5.730   0.909   4.926
  825SOL     OW 3373   6.155   6.078   0.873
  825SOL    HW1 3374   6.154   6.092   0.774
  825SOL    HW2 3375   6.065   6.045   0.903
  826SOL     OW 3376   3.842   1.263   5.871
  826SOL    HW1 3377   3.830   1.337   5.937
  826SOL    HW2 3378   3.939   1.242   5.862
  827SOL     OW 3379   3.438   3.882   4.493
  827SOL    HW1 3380   3.371   3.945   4.455
  827SOL    HW2 3381   3.476   3.920   4.578
  828SOL     OW 3382   6.114   5.441   4.283
  828SOL    HW1 3383   6.195   5.382   4.289
  828SOL    HW2 3384   6.100   5.487   4.371
  829SOL     OW 3385   3.651   2.902   2.596
  829SOL    HW1 3386   3.691   2.814   2.567
  829SOL    HW2 3387   3.679   2.974   2.533
  830SOL     OW 3388   6.433   4.618   6.583
  830SOL    HW1 3389   6.477   4.649   6.668
  830SOL    HW2 3390   6.499   4.571   6.526
  831SOL     OW 3391   5.474   6.045   1.279
  831SOL    HW1 3392   5.573   6.042   1.288
  831SOL    HW2 3393   5.437   5.953   1.288
  832SOL     OW 3394   3.609   1.511   5.172
  832SOL    HW1 3395   3.544   1.585   5.187
  832SOL    HW2 3396   3.600   1.478   5.078
  833SOL     OW 3397   1.150   3.932   6.581
  833SOL    HW1 3398   1.094   3.946   6.499
  833SOL    HW2 3399   1.113   3.856   6.634
  834SOL     OW 3400   4.489   3.644   6.497
  834SOL    HW1 3401   4.392   3.664   6.505
  834SOL    HW2 3402   4.505   3.590   6.414
  835SOL     OW 3403   1.323   0.347   4.456
  835SOL    HW1 3404   1.381   0.273   4.423
  835SOL    HW2 3405   1.310   0.339   4.555
  836SOL     OW 3406   3.400   2.016   5.475
  836SOL    HW1 3407   3.372   1.996   5.569
  836SOL    HW2 3408   3.407   2.115   5.462
  837SOL     OW 3409   1.521   0.480   1.237
  837SOL    HW1 3410   1.485   0.561   1.283
  837SOL    HW2 3411   1.448   0.436   1.185
  838SOL     OW 3412   2.309   5.367   3.855
  838SOL    HW1 3413   2.379   5.436   3.873
  838SOL    HW2 3414   2.221   5.411   3.839
  839SOL     OW 3415   2.191   1.070   1.089
  839SOL    HW1 3416   2.143   1.094   1.004
  839SOL    HW2 3417   2.289   1.059   1.070
  840SOL     OW 3418   5.974   5.457   6.957
  840SOL    HW1 3419   6.024   5.371   6.966
  840SOL    HW2 3420   5.877   5.438   6.943
  841SOL     OW 3421   4.190   5.338   5.672
  841SOL    HW1 3422   4.151   5.254   5.708
  841SOL    HW2 3423   4.289   5.326   5.658
  842SOL     OW 3424   3.255   6.909   6.844
  842SOL    HW1 3425   3.234   6.958   6.928
  842SOL    HW2 3426   3.193   6.831   6.835
  843SOL     OW 3427   1.582   1.853   1.397
  843SOL    HW1 3428   1.497   1.815   1.359
  843SOL    HW2 3429   1.643   1.878   1.322
  844SOL     OW 3430   0.370   6.896   1.441
  844SOL    HW1 3431   0.280   6.882   1.398
  844SOL    HW2 3432   0.357   6.920   1.537
  845SOL     OW 3433   4.026   1.812   2.824
  845SOL    HW1 3434   4.096   1.814   2.753
  845SOL    HW2 3435   3.982   1.722   2.826
  846SOL     OW 3436   2.902   1.347   6.305
  846SOL    HW1 3437   2.827   1.290   6.271
  846SOL    HW2 3438   2.989   1.304   6.282
  847SOL     OW 3439   2.489   3.372   1.622
  847SOL    HW1 3440   2.441   3.385   1.708
  847SOL    HW2 3441   2.504   3.274   1.607
  848SOL     OW 3442   5.996   6.638   5.914
  848SOL    HW1 3443   5.970   6.661   5.821
  848SOL    HW2 3444   6.089   6.601   5.915
  849SOL     OW 3445   5.702   3.622   0.221
  849SOL    HW1 3446   5.627   3.580   0.272
  849SOL    HW2 3447   5.740   3.555   0.157
  850SOL     OW 3448   6.125   0.840   4.951
  850SOL    HW1 3449   6.171   0.776   4.890
  850SOL    HW2 3450   6.169   0.838   5.041
  851SOL     OW 3451   6.351   3.029   6.791
  851SOL    HW1 3452   6.413   2.996   6.720
  851SOL    HW2 3453   6.266   3.060   6.750
  852SOL     OW 3454   6.929   4.168   0.998
  852SOL    HW1 3455   6.866   4.110   0.947
  852SOL    HW2 3456   7.022   4.134   0.989
  853SOL     OW 3457   2.095   4.433   0.274
  853SOL    HW1 3458   2.066   4.435   0.369
  853SOL    HW2 3459   2.017   4.412   0.215
  854SOL     OW 3460   6.270   6.413   0.032
  854SOL    HW1 3461   6.366   6.439   0.025
  854SOL    HW2 3462   6.213   6.494   0.024
  855SOL     OW 3463   6.979   0.538   0.097
  855SOL    HW1 3464   7.006   0.554   0.192
  855SOL    HW2 3465   6.964   0.440   0.083
  856SOL     OW 3466   2.003   6.659   6.549
  856SOL    HW1 3467   1.924   6.701   6.594
  856SOL    HW2 3468   2.043   6.723   6.484
  857SOL     OW 3469   0.110   4.695   3.409
  857SOL    HW1 3470   0.056   4.719   3.489
  857SOL    HW2 3471   0.152   4.777   3.371
  858SOL     OW 3472   3.884   3.579   0.642
  858SOL    HW1 3473   3.964   3.560   0.585
  858SOL    HW2 3474   3.835   3.659   0.606
  859SOL     OW 3475   4.385   6.362   5.215
  859SOL    HW1 3476   4.353   6.368   5.309
  859SOL    HW2 3477   4.483   6.382   5.211
  860SOL     OW 3478   5.129   2.788   5.377
  860SOL    HW1 3479   5.083   2.729   5.443
  860SOL    HW2 3480   5.228   2.783   5.391
  861SOL     OW 3481   1.857   5.401   3.211
  861SOL    HW1 3482   1.857   5.339   3.133
  861SOL    HW2 3483   1.765   5.437   3.226
  862SOL     OW 3484   1.795   4.290   3.904
  862SOL    HW1 3485   1.743   4.308   3.820
  862SOL    HW2 3486   1.866   4.360   3.915
  863SOL     OW 3487   6.797   0.164   5.624
  863SOL    HW1 3488   6.825   0.244   5.676
  863SOL    HW2 3489   6.858   0.087   5.645
  864SOL     OW 3490   4.380   0.138   5.724
  864SOL    HW1 3491   4.385   0.237   5.711
  864SOL    HW2 3492   4.286   0.112   5.742
  865SOL     OW 3493   2.334   5.905   4.686
  865SOL    HW1 3494   2.426   5.942   4.684
  865SOL    HW2 3495   2.336   5.806   4.668
  866SOL     OW 3496   3.014   6.974   1.006
  866SOL    HW1 3497   3.035   6.987   1.103
  866SOL    HW2 3498   3.095   6.996   0.951
  867SOL     OW 3499   6.009   2.098   0.744
  867SOL    HW1 3500   6.101   2.109   0.781
  867SOL    HW2 3501   6.008   2.020   0.681
  868SOL     OW 3502   0.479   1.993   2.028
  868SOL    HW1 3503   0.573   1.982   2.061
  868SOL    HW2 3504   0.477   1.987   1.929
  869SOL     OW 3505   0.108   3.972   3.923
  869SOL    HW1 3506   0.085   3.898   3.860
  869SOL    HW2 3507   0.060   3.958   4.009
  870SOL     OW 3508   3.346   5.060   1.917
  870SOL    HW1 3509   3.404   5.053   1.998
  870SOL    HW2 3510   3.328   4.969   1.881
  871SOL     OW 3511   4.824   1.932   4.419
  871SOL    HW1 3512   4.741   1.884   4.446
  871SOL    HW2 3513   4.807   2.031   4.419
  872SOL     OW 3514   0.038   2.187   4.586
  872SOL    HW1 3515   0.066   2.093   4.567
  872SOL    HW2 3516   6.987   2.186   4.650
  873SOL     OW 3517   4.724   6.570   5.941
  873SOL    HW1 3518   4.755   6.663   5.958
  873SOL    HW2 3519   4.676   6.535   6.022
  874SOL     OW 3520   5.931   4.454   6.473
  874SOL    HW1 3521   6.015   4.505   6.492
  874SOL    HW2 3522   5.950   4.384   6.403
  875SOL     OW 3523   5.285   5.436   1.303
  875SOL    HW1 3524   5.261   5.341   1.286
  875SOL    HW2 3525   5.202   5.493   1.301
  876SOL     OW 3526   0.612   5.540   1.835
  876SOL    HW1 3527   0.677   5.590   1.778
  876SOL    HW2 3528   0.556   5.604   1.887
  877SOL     OW 3529   2.991   4.596   0.162
  877SOL    HW1 3530   2.915   4.542   0.198
  877SOL    HW2 3531   2.957   4.685   0.132
  878SOL     OW 3532   4.342   6.685   4.350
  878SOL    HW1 3533   4.442   6.689   4.355
  878SOL    HW2 3534   4.315   6.611   4.289
  879SOL     OW 3535   3.991   0.358   1.507
  879SOL    HW1 3536   3.928   0.376   1.432
  879SOL    HW2 3537   4.080   0.399   1.487
  880SOL     OW 3538   3.461   4.115   3.597
  880SOL    HW1 3539   3.550   4.074   3.580
  880SOL    HW2 3540   3.468   4.182   3.671
  881SOL     OW 3541   4.449   2.464   5.175
  881SOL    HW1 3542   4.495   2.485   5.089
  881SOL    HW2 3543   4.350   2.461   5.160
  882SOL     OW 3544   0.819   3.411   4.759
  882SOL    HW1 3545   0.851   3.506   4.756
  882SOL    HW2 3546   0.891   3.351   4.721
  883SOL     OW 3547   2.855   0.383   2.915
  883SOL    HW1 3548   2.872   0.428   3.003
  883SOL    HW2 3549   2.900   0.294   2.914
  884SOL     OW 3550   4.864   2.668   5.490
  884SOL    HW1 3551   4.852   2.576   5.527
  884SOL    HW2 3552   4.819   2.674   5.401
  885SOL     OW 3553   2.841   1.117   5.813
  885SOL    HW1 3554   2.914   1.169   5.769
  885SOL    HW2 3555   2.831   1.029   5.767
  886SOL     OW 3556   3.600   0.698   0.171
  886SOL    HW1 3557   3.653   0.778   0.200
  886SOL    HW2 3558   3.521   0.727   0.118
  887SOL     OW 3559   3.894   6.907   4.243
  887SOL    HW1 3560   3.894   6.807   4.248
  887SOL    HW2 3561   3.808   6.943   4.280
  888SOL     OW 3562   0.764   6.408   2.723
  888SOL    HW1 3563   0.846   6.455   2.691
  888SOL    HW2 3564   0.686   6.470   2.720
  889SOL     OW 3565   0.571   3.405   0.668
  889SOL    HW1 3566   0.569   3.325   0.608
  889SOL    HW2 3567   0.654   3.458   0.650
  890SOL     OW 3568   1.593   4.972   3.782
  890SOL    HW1 3569   1.548   4.996   3.868
  890SOL    HW2 3570   1.591   5.050   3.720
  891SOL     OW 3571   5.488   5.702   0.526
  891SOL    HW1 3572   5.528   5.790   0.555
  891SOL    HW2 3573   5.543   5.627   0.562
  892SOL     OW 3574   2.825   4.103   5.664
  892SOL    HW1 3575   2.785   4.096   5.573
  892SOL    HW2 3576   2.830   4.200   5.691
  893SOL     OW 3577   2.941   6.746   2.750
  893SOL    HW1 3578   2.850   6.733   2.788
  893SOL    HW2 3579   2.994   6.808   2.809
  894SOL     OW 3580   0.903   3.086   1.562
  894SOL    HW1 3581   0.882   2.993   1.590
  894SOL    HW2 3582   0.835   3.117   1.496
  895SOL     OW 3583   0.329   4.350   3.113
  895SOL    HW1 3584   0.382   4.434   3.122
  895SOL    HW2 3585   0.389   4.274   3.091
  896SOL     OW 3586   5.745   5.195   0.724
  896SOL    HW1 3587   5.833   5.156   0.752
  896SOL    HW2 3588   5.684   5.121   0.697
  897SOL     OW 3589   4.684   1.380   0.182
  897SOL    HW1 3590   4.616   1.342   0.119
  897SOL    HW2 3591   4.651   1.371   0.276
  898SOL     OW 3592   3.469   6.212   2.732
  898SOL    HW1 3593   3.412   6.146   2.684
  898SOL    HW2 3594   3.430   6.230   2.823
  899SOL     OW 3595   0.205   5.993   6.747
  899SOL    HW1 3596   0.154   6.076   6.727
  899SOL    HW2 3597   0.287   5.989   6.690
  900SOL     OW 3598   6.089   6.785   0.308
  900SOL    HW1 3599   6.003   6.811   0.352
  900SOL    HW2 3600   6.166   6.818   0.363
  901SOL     OW 3601   2.379   0.766   2.817
  901SOL    HW1 3602   2.463   0.818   2.834
  901SOL    HW2 3603   2.382   0.727   2.725
  902SOL     OW 3604   0.305   3.129   0.762
  902SOL    HW1 3605   0.405   3.123   0.769
  902SOL    HW2 3606   0.268   3.159   0.850
  903SOL     OW 3607   6.660   2.374   6.723
  903SOL    HW1 3608   6.632   2.285   6.758
  903SOL    HW2 3609   6.588   2.411   6.664
  904SOL     OW 3610   2.567   2.067   3.398
  904SOL    HW1 3611   2.472   2.037   3.387
  904SOL    HW2 3612   2.579   2.157   3.355
  905SOL     OW 3613   4.919   2.121   6.844
  905SOL    HW1 3614   5.019   2.117   6.844
  905SOL    HW2 3615   4.885   2.097   6.935
  906SOL     OW 3616   0.169   2.235   5.638
  906SOL    HW1 3617   0.216   2.277   5.561
  906SOL    HW2 3618   0.143   2.305   5.704
  907SOL     OW 3619   5.210   3.383   0.394
  907SOL    HW1 3620   5.120   3.403   0.355
  907SOL    HW2 3621   5.265   3.334   0.326
  908SOL     OW 3622   2.461   5.012   2.677
  908SOL    HW1 3623   2.462   5.112   2.664
  908SOL    HW2 3624   2.373   4.976   2.645
  909SOL     OW 3625   4.444   5.414   0.439
  909SOL    HW1 3626   4.441   5.488   0.373
  909SOL    HW2 3627   4.529   5.419   0.491
  910SOL     OW 3628   3.046   2.771   1.334
  910SOL    HW1 3629   3.133   2.724   1.318
  910SOL    HW2 3630   3.057   2.837   1.408
  911SOL     OW 3631   1.326   5.822   6.500
  911SOL    HW1 3632   1.253   5.778   6.448
  911SOL    HW2 3633   1.362   5.900   6.448
  912SOL     OW 3634   5.573   2.632   2.867
  912SOL    HW1 3635   5.579   2.545   2.916
  912SOL    HW2 3636   5.482   2.671   2.879
  913SOL     OW 3637   4.739   5.943   3.179
  913SOL    HW1 3638   4.707   6.030   3.142
  913SOL    HW2 3639   4.774   5.886   3.104
  914SOL     OW 3640   1.996   0.462   6.490
  914SOL    HW1 3641   1.932   0.429   6.559
  914SOL    HW2 3642   2.000   0.397   6.414
  915SOL     OW 3643   6.186   4.644   6.482
  915SOL    HW1 3644   6.146   4.725   6.526
  915SOL    HW2 3645   6.282   4.636   6.508
  916SOL     OW 3646   1.525   2.757   2.027
  916SOL    HW1 3647   1.457   2.829   2.039
  916SOL    HW2 3648   1.549   2.750   1.931
  917SOL     OW 3649   0.046   6.521   0.599
  917SOL    HW1 3650   0.070   6.425   0.587
  917SOL    HW2 3651   6.979   6.537   0.566
  918SOL     OW 3652   2.666   6.809   0.478
  918SOL    HW1 3653   2.718   6.879   0.527
  918SOL    HW2 3654   2.645   6.733   0.540
  919SOL     OW 3655   5.291   1.142   3.195
  919SOL    HW1 3656   5.251   1.054   3.172
  919SOL    HW2 3657   5.358   1.167   3.124
  920SOL     OW 3658   2.309   4.530   1.597
  920SOL    HW1 3659   2.302   4.481   1.683
  920SOL    HW2 3660   2.319   4.465   1.521
  921SOL     OW 3661   4.873   5.473   4.434
  921SOL    HW1 3662   4.847   5.422   4.351
  921SOL    HW2 3663   4.876   5.411   4.512
  922SOL     OW 3664   3.792   3.584   4.466
  922SOL    HW1 3665   3.889   3.599   4.481
  922SOL    HW2 3666   3.768   3.609   4.372
  923SOL     OW 3667   2.312   2.810   6.097
  923SOL    HW1 3668   2.284   2.714   6.100
  923SOL    HW2 3669   2.328   2.837   6.002
  924SOL     OW 3670   6.452   3.639   2.359
  924SOL    HW1 3671   6.387   3.713   2.373
  924SOL    HW2 3672   6.439   3.600   2.268
  925SOL     OW 3673   6.842   2.374   0.405
  925SOL    HW1 3674   6.747   2.406   0.395
  925SOL    HW2 3675   6.900   2.421   0.339
  926SOL     OW 3676   6.919   1.736   1.240
  926SOL    HW1 3677   6.878   1.818   1.278
  926SOL    HW2 3678   6.857   1.658   1.253
  927SOL     OW 3679   5.726   4.005   3.854
  927SOL    HW1 3680   5.700   3.923   3.803
  927SOL    HW2 3681   5.777   3.977   3.936
  928SOL     OW 3682   2.705   6.234   0.430
  928SOL    HW1 3683   2.659   6.241   0.342
  928SOL    HW2 3684   2.775   6.164   0.426
  929SOL     OW 3685   6.838   1.019   0.129
  929SOL    HW1 3686   6.899   1.054   0.059
  929SOL    HW2 3687   6.785   0.943   0.091
  930SOL     OW 3688   4.169   5.483   6.404
  930SOL    HW1 3689   4.170   5.531   6.316
  930SOL    HW2 3690   4.219   5.397   6.395
  931SOL     OW 3691   6.535   2.118   3.618
  931SOL    HW1 3692   6.446   2.135   3.575
  931SOL    HW2 3693   6.548   2.019   3.631
  932SOL     OW 3694   3.490   1.288   3.801
  932SOL    HW1 3695   3.431   1.368   3.793
  932SOL    HW2 3696   3.460   1.232   3.878
  933SOL     OW 3697   1.266   4.691   2.921
  933SOL    HW1 3698   1.293   4.785   2.943
  933SOL    HW2 3699   1.342   4.629   2.943
  934SOL     OW 3700   2.405   6.045   6.063
  934SOL    HW1 3701   2.417   6.001   6.151
  934SOL    HW2 3702   2.478   6.017   6.001
  935SOL     OW 3703   5.157   4.031   3.302
  935SOL    HW1 3704   5.168   4.128   3.280
  935SOL    HW2 3705   5.097   4.021   3.381
  936SOL     OW 3706   1.436   0.399   6.007
  936SOL    HW1 3707   1.499   0.366   5.937
  936SOL    HW2 3708   1.487   0.451   6.076
  937SOL     OW 3709   4.159   1.265   5.526
  937SOL    HW1 3710   4.230   1.331   5.500
  937SOL    HW2 3711   4.162   1.187   5.464
  938SOL     OW 3712   7.019   5.825   4.106
  938SOL    HW1 3713   0.068   5.760   4.091
  938SOL    HW2 3714   6.942   5.778   4.148
  939SOL     OW 3715   6.793   6.813   4.558
  939SOL    HW1 3716   6.814   6.883   4.627
  939SOL    HW2 3717   6.810   6.722   4.597
  940SOL     OW 3718   0.940   5.063   1.085
  940SOL    HW1 3719   0.956   5.093   0.991
  940SOL    HW2 3720   0.924   4.964   1.086
  941SOL     OW 3721   4.500   0.175   6.696
  941SOL    HW1 3722   4.523   0.087   6.655
  941SOL    HW2 3723   4.527   0.249   6.635
  942SOL     OW 3724   6.898   6.385   1.155
  942SOL    HW1 3725   6.891   6.394   1.055
  942SOL    HW2 3726   6.912   6.289   1.179
  943SOL     OW 3727   2.912   5.003   2.869
  943SOL    HW1 3728   2.983   5.027   2.803
  943SOL    HW2 3729   2.906   4.904   2.876
  944SOL     OW 3730   0.209   6.109   4.586
  944SOL    HW1 3731   0.251   6.116   4.676
  944SOL    HW2 3732   0.211   6.199   4.542
  945SOL     OW 3733   0.580   5.498   5.456
  945SOL    HW1 3734   0.542   5.584   5.423
  945SOL    HW2 3735   0.592   5.435   5.380
  946SOL     OW 3736   4.873   4.415   4.457
  946SOL    HW1 3737   4.846   4.334   4.404
  946SOL    HW2 3738   4.973   4.418   4.464
  947SOL     OW 3739   4.141   3.293   3.625
  947SOL    HW1 3740   4.080   3.226   3.584
  947SOL    HW2 3741   4.176   3.258   3.712
  948SOL     OW 3742   4.982   1.171   2.897
  948SOL    HW1 3743   4.957   1.076   2.880
  948SOL    HW2 3744   4.984   1.221   2.810
  949SOL     OW 3745   2.951   6.723   0.577
  949SOL    HW1 3746   2.939   6.631   0.542
  949SOL    HW2 3747   2.957   6.721   0.677
  950SOL     OW 3748   6.510   5.820   1.582
  950SOL    HW1 3749   6.513   5.793   1.678
  950SOL    HW2 3750   6.474   5.913   1.574
  951SOL     OW 3751   1.591   0.235   3.410
  951SOL    HW1 3752   1.673   0.179   3.426
  951SOL    HW2 3753   1.525   0.182   3.356
  952SOL     OW 3754   4.017   2.221   2.549
  952SOL    HW1 3755   3.954   2.207   2.472
  952SOL    HW2 3756   3.996   2.155   2.621
  953SOL     OW 3757   6.680   6.038   5.000
  953SOL    HW1 3758   6.716   5.998   4.915
  953SOL    HW2 3759   6.622   6.116   4.979
  954SOL     OW 3760   4.537   5.712   2.349
  954SOL    HW1 3761   4.586   5.682   2.431
  954SOL    HW2 3762   4.535   5.637   2.282
  955SOL     OW 3763   1.730   4.486   6.955
  955SOL    HW1 3764   1.775   4.549   7.018
  955SOL    HW2 3765   1.649   4.530   6.917
  956SOL     OW 3766   0.271   0.726   1.054
  956SOL    HW1 3767   0.199   0.794   1.037
  956SOL    HW2 3768   0.229   0.639   1.081
  957SOL     OW 3769   6.370   1.311   2.106
  957SOL    HW1 3770   6.288   1.298   2.051
  957SOL    HW2 3771   6.357   1.269   2.196
  958SOL     OW 3772   5.097   6.685   2.216
  958SOL    HW1 3773   5.087   6.616   2.288
  958SOL    HW2 3774   5.161   6.755   2.246
  959SOL     OW 3775   3.531   6.762   4.516
  959SOL    HW1 3776   3.436   6.787   4.497
  959SOL    HW2 3777   3.593   6.825   4.469
  960SOL     OW 3778   0.558   0.541   0.768
  960SOL    HW1 3779   0.611   0.539   0.853
  960SOL    HW2 3780   0.531   0.635   0.748
  961SOL     OW 3781   3.170   6.615   3.220
  961SOL    HW1 3782   3.258   6.574   3.247
  961SOL    HW2 3783   3.152   6.695   3.277
  962SOL     OW 3784   6.573   6.876   4.769
  962SOL    HW1 3785   6.529   6.793   4.736
  962SOL    HW2 3786   6.504   6.944   4.793
  963SOL     OW 3787   4.532   1.780   1.518
  963SOL    HW1 3788   4.601   1.824   1.575
  963SOL    HW2 3789   4.510   1.838   1.440
  964SOL     OW 3790   5.104   4.611   5.097
  964SOL    HW1 3791   5.132   4.558   5.177
  964SOL    HW2 3792   5.057   4.551   5.032
  965SOL     OW 3793   5.619   2.170   2.259
  965SOL    HW1 3794   5.701   2.228   2.262
  965SOL    HW2 3795   5.644   2.080   2.223
  966SOL     OW 3796   5.201   1.831   3.661
  966SOL    HW1 3797   5.274   1.891   3.692
  966SOL    HW2 3798   5.125   1.887   3.626
  967SOL     OW 3799   4.076   4.573   6.312
  967SOL    HW1 3800   3.977   4.570   6.319
  967SOL    HW2 3801   4.103   4.581   6.216
  968SOL     OW 3802   3.471   0.301   1.922
  968SOL    HW1 3803   3.515   0.246   1.851
  968SOL    HW2 3804   3.540   0.356   1.969
  969SOL     OW 3805   3.620   5.071   6.214
  969SOL    HW1 3806   3.647   5.053   6.119
  969SOL    HW2 3807   3.524   5.098   6.216
  970SOL     OW 3808   6.285   0.590   5.158
  970SOL    HW1 3809   6.306   0.514   5.096
  970SOL    HW2 3810   6.188   0.586   5.183
  971SOL     OW 3811   6.747   4.671   2.727
  971SOL    HW1 3812   6.704   4.682   2.637
  971SOL    HW2 3813   6.845   4.689   2.719
  972SOL     OW 3814   6.710   2.708   0.992
  972SOL    HW1 3815   6.698   2.620   0.947
  972SOL    HW2 3816   6.635   2.769   0.967
  973SOL     OW 3817   0.416   4.452   5.750
  973SOL    HW1 3818   0.455   4.509   5.822
  973SOL    HW2 3819   0.481   4.443   5.675
  974SOL     OW 3820   0.666   4.838   3.938
  974SOL    HW1 3821   0.682   4.748   3.979
  974SOL    HW2 3822   0.569   4.849   3.916
  975SOL     OW 3823   1.984   6.603   1.637
  975SOL    HW1 3824   1.986   6.586   1.538
  975SOL    HW2 3825   1.950   6.695   1.654
  976SOL     OW 3826   6.488   4.211   2.066
  976SOL    HW1 3827   6.529   4.188   1.977
  976SOL    HW2 3828   6.391   4.231   2.053
  977SOL     OW 3829   1.108   1.123   2.512
  977SOL    HW1 3830   1.091   1.034   2.470
  977SOL    HW2 3831   1.040   1.189   2.480
  978SOL     OW 3832   5.881   1.896   1.819
  978SOL    HW1 3833   5.895   1.980   1.767
  978SOL    HW2 3834   5.941   1.897   1.899
  979SOL     OW 3835   0.079   3.370   6.430
  979SOL    HW1 3836   0.085   3.283   6.478
  979SOL    HW2 3837   0.027   3.435   6.485
  980SOL     OW 3838   3.880   1.238   4.681
  980SOL    HW1 3839   3.867   1.336   4.663
  980SOL    HW2 3840   3.898   1.191   4.594
  981SOL     OW 3841   6.869   0.319   4.661
  981SOL    HW1 3842   6.861   0.395   4.726
  981SOL    HW2 3843   6.864   0.232   4.710
  982SOL     OW 3844   0.517   1.692   5.468
  982SOL    HW1 3845   0.613   1.674   5.486
  982SOL    HW2 3846   0.491   1.779   5.509
  983SOL     OW 3847   0.166   3.798   3.279
  983SOL    HW1 3848   0.198   3.788   3.374
  983SOL    HW2 3849   0.219   3.737   3.220
  984SOL     OW 3850   1.717   2.378   3.058
  984SOL    HW1 3851   1.735   2.378   2.959
  984SOL    HW2 3852   1.643   2.442   3.078
  985SOL     OW 3853   5.937   3.555   3.945
  985SOL    HW1 3854   5.960   3.643   3.904
  985SOL    HW2 3855   5.844   3.560   3.984
  986SOL     OW 3856   4.777   4.298   1.458
  986SOL    HW1 3857   4.725   4.337   1.534
  986SOL    HW2 3858   4.725   4.222   1.418
  987SOL     OW 3859   5.693   5.631   3.624
  987SOL    HW1 3860   5.694   5.655   3.527
  987SOL    HW2 3861   5.601   5.601   3.649
  988SOL     OW 3862   3.628   3.835   1.709
  988SOL    HW1 3863   3.682   3.838   1.793
  988SOL    HW2 3864   3.599   3.927   1.684
  989SOL     OW 3865   0.264   2.574   0.338
  989SOL    HW1 3866   0.296   2.487   0.374
  989SOL    HW2 3867   0.267   2.643   0.411
  990SOL     OW 3868   3.483   0.889   3.073
  990SOL    HW1 3869   3.489   0.977   3.026
  990SOL    HW2 3870   3.573   0.846   3.076
  991SOL     OW 3871   6.488   3.911   3.958
  991SOL    HW1 3872   6.554   3.836   3.964
  991SOL    HW2 3873   6.478   3.939   3.863
  992SOL     OW 3874   1.129   2.773   1.265
  992SOL    HW1 3875   1.036   2.805   1.246
  992SOL    HW2 3876   1.179   2.845   1.312
  993SOL     OW 3877   1.304   4.196   1.257
  993SOL    HW1 3878   1.212   4.206   1.219
  993SOL    HW2 3879   1.372   4.212   1.186
  994SOL     OW 3880   3.689   6.447   1.250
  994SOL    HW1 3881   3.657   6.437   1.344
  994SOL    HW2 3882   3.621   6.409   1.187
  995SOL     OW 3883   4.977   3.579   5.813
  995SOL    HW1 3884   5.074   3.570   5.840
  995SOL    HW2 3885   4.943   3.489   5.785
  996SOL     OW 3886   4.433   6.061   5.680
  996SOL    HW1 3887   4.514   6.008   5.656
  996SOL    HW2 3888   4.351   6.011   5.655
  997SOL     OW 3889   1.686   6.867   3.491
  997SOL    HW1 3890   1.658   6.824   3.405
  997SOL    HW2 3891   1.782   6.845   3.509
  998SOL     OW 3892   6.430   0.158   6.232
  998SOL    HW1 3893   6.407   0.063   6.254
  998SOL    HW2 3894   6.470   0.201   6.313
  999SOL     OW 3895   4.911   3.257   1.362
  999SOL    HW1 3896   5.007   3.282   1.349
  999SOL    HW2 3897   4.853   3.322   1.314
 1000SOL     OW 3898   3.918   1.512   1.044
 1000SOL    HW1 3899   3.960   1.602   1.030
 1000SOL    HW2 3900   3.974   1.441   1.001
 1001SOL     OW 3901   2.707   6.525   2.049
 1001SOL    HW1 3902   2.612   6.512   2.020
 1001SOL    HW2 3903   2.714   6.509   2.148
 1002SOL     OW 3904   5.066   2.598   1.886
 1002SOL    HW1 3905   5.129   2.667   1.919
 1002SOL    HW2 3906   5.117   2.522   1.845
 1003SOL     OW 3907   1.349   5.992   2.816
 1003SOL    HW1 3908   1.416   5.925   2.786
 1003SOL    HW2 3909   1.364   6.079   2.769
 1004SOL     OW 3910   6.610   1.682   3.223
 1004SOL    HW1 3911   6.609   1.723   3.132
 1004SOL    HW2 3912   6.562   1.594   3.220
 1005SOL     OW 3913   1.644   4.572   4.221
 1005SOL    HW1 3914   1.707   4.512   4.270
 1005SOL    HW2 3915   1.619   4.529   4.134
 1006SOL     OW 3916   2.219   4.014   0.399
 1006SOL    HW1 3917   2.316   4.035   0.416
 1006SOL    HW2 3918   2.165   4.036   0.480
 1007SOL     OW 3919   4.430   1.699   6.942
 1007SOL    HW1 3920   4.363   1.627   6.960
 1007SOL    HW2 3921   4.514   1.658   6.906
 1008SOL     OW 3922   0.630   4.738   4.909
 1008SOL    HW1 3923   0.719   4.724   4.953
 1008SOL    HW2 3924   0.622   4.833   4.880
 1009SOL     OW 3925   6.121   4.806   5.450
 1009SOL    HW1 3926   6.205   4.854   5.478
 1009SOL    HW2 3927   6.079   4.764   5.530
 1010SOL     OW 3928   2.048   2.794   1.800
 1010SOL    HW1 3929   2.127   2.850   1.826
 1010SOL    HW2 3930   1.975   2.854   1.765
 1011SOL     OW 3931   0.944   5.085   2.605
 1011SOL    HW1 3932   0.884   5.137   2.666
 1011SOL    HW2 3933   0.941   5.126   2.513
 1012SOL     OW 3934   6.176   0.031   2.422
 1012SOL    HW1 3935   6.259   0.080   2.448
 1012SOL    HW2 3936   6.189   6.959   2.434
 1013SOL     OW 3937   6.822   1.025   6.283
 1013SOL    HW1 3938   6.875   1.094   6.233
 1013SOL    HW2 3939   6.792   1.064   6.370
 1014SOL     OW 3940   1.343   4.772   3.731
 1014SOL    HW1 3941   1.385   4.757   3.820
 1014SOL    HW2 3942   1.414   4.792   3.663
 1015SOL     OW 3943   2.933   0.213   6.380
 1015SOL    HW1 3944   3.033   0.217   6.378
 1015SOL    HW2 3945   2.904   0.174   6.468
 1016SOL     OW 3946   5.008   4.111   1.141
 1016SOL    HW1 3947   4.949   4.081   1.215
 1016SOL    HW2 3948   4.997   4.051   1.062
 1017SOL     OW 3949   2.269   1.535   1.704
 1017SOL    HW1 3950   2.280   1.616   1.762
 1017SOL    HW2 3951   2.299   1.454   1.754
 1018SOL     OW 3952   0.136   4.915   3.701
 1018SOL    HW1 3953   0.203   4.947   3.635
 1018SOL    HW2 3954   0.051   4.891   3.653
 1019SOL     OW 3955   6.680   5.079   0.810
 1019SOL    HW1 3956   6.779   5.084   0.801
 1019SOL    HW2 3957   6.645   5.004   0.754
 1020SOL     OW 3958   0.034   0.599   1.642
 1020SOL    HW1 3959   0.067   0.691   1.664
 1020SOL    HW2 3960   6.977   0.606   1.586
 1021SOL     OW 3961   6.523   5.936   2.126
 1021SOL    HW1 3962   6.609   5.986   2.118
 1021SOL    HW2 3963   6.531   5.868   2.200
 1022SOL     OW 3964   2.608   6.291   6.211
 1022SOL    HW1 3965   2.678   6.318   6.145
 1022SOL    HW2 3966   2.518   6.294   6.167
 1023SOL     OW 3967   6.809   1.394   2.576
 1023SOL    HW1 3968   6.877   1.375   2.506
 1023SOL    HW2 3969   6.727   1.434   2.533
 1024SOL     OW 3970   0.898   1.028   4.743
 1024SOL    HW1 3971   0.961   0.954   4.718
 1024SOL    HW2 3972   0.807   0.991   4.758
 1025SOL     OW 3973   5.178   3.572   6.710
 1025SOL    HW1 3974   5.256   3.624   6.742
 1025SOL    HW2 3975   5.102   3.634   6.688
 1026SOL     OW 3976   3.172   2.478   1.674
 1026SOL    HW1 3977   3.186   2.387   1.634
 1026SOL    HW2 3978   3.096   2.473   1.739
 1027SOL     OW 3979   1.185   6.090   1.833
 1027SOL    HW1 3980   1.248   6.022   1.796
 1027SOL    HW2 3981   1.139   6.136   1.757
 1028SOL     OW 3982   1.097   6.221   3.281
 1028SOL    HW1 3983   1.196   6.211   3.277
 1028SOL    HW2 3984   1.054   6.152   3.223
 1029SOL     OW 3985   1.184   2.338   5.750
 1029SOL    HW1 3986   1.156   2.284   5.829
 1029SOL    HW2 3987   1.103   2.363   5.696
 1030SOL     OW 3988   3.213   3.145   1.809
 1030SOL    HW1 3989   3.179   3.220   1.752
 1030SOL    HW2 3990   3.149   3.068   1.804
 1031SOL     OW 3991   3.569   3.238   1.627
 1031SOL    HW1 3992   3.520   3.159   1.663
 1031SOL    HW2 3993   3.534   3.322   1.670
 1032SOL     OW 3994   2.127   1.130   5.652
 1032SOL    HW1 3995   2.047   1.071   5.650
 1032SOL    HW2 3996   2.187   1.109   5.575
 1033SOL     OW 3997   1.259   5.863   2.251
 1033SOL    HW1 3998   1.162   5.885   2.248
 1033SOL    HW2 3999   1.305   5.901   2.171
 1034SOL     OW 4000   3.578   6.454   4.523
 1034SOL    HW1 4001   3.562   6.552   4.533
 1034SOL    HW2 4002   3.529   6.404   4.595
 1035SOL     OW 4003   0.529   2.144   5.707
 1035SOL    HW1 4004   0.538   2.234   5.751
 1035SOL    HW2 4005   0.543   2.072   5.774
 1036SOL     OW 4006   4.897   1.211   1.513
 1036SOL    HW1 4007   4.893   1.309   1.498
 1036SOL    HW2 4008   4.811   1.168   1.485
 1037SOL     OW 4009   2.202   2.273   2.758
 1037SOL    HW1 4010   2.138   2.349   2.744
 1037SOL    HW2 4011   2.180   2.198   2.696
 1038SOL     OW 4012   2.313   0.780   6.813
 1038SOL    HW1 4013   2.266   0.848   6.868
 1038SOL    HW2 4014   2.275   0.779   6.720
 1039SOL     OW 4015   3.154   3.178   3.632
 1039SOL    HW1 4016   3.106   3.243   3.690
 1039SOL    HW2 4017   3.120   3.185   3.538
 1040SOL     OW 4018   5.211   0.888   3.178
 1040SOL    HW1 4019   5.152   0.822   3.225
 1040SOL    HW2 4020   5.225   0.857   3.083
 1041SOL     OW 4021   6.680   6.206   4.679
 1041SOL    HW1 4022   6.634   6.217   4.591
 1041SOL    HW2 4023   6.734   6.122   4.678
 1042SOL     OW 4024   4.661   5.191   2.340
 1042SOL    HW1 4025   4.691   5.097   2.359
 1042SOL    HW2 4026   4.661   5.244   2.425
 1043SOL     OW 4027   3.368   1.169   3.209
 1043SOL    HW1 4028   3.406   1.232   3.141
 1043SOL    HW2 4029   3.278   1.137   3.178
 1044SOL     OW 4030   6.242   5.142   1.477
 1044SOL    HW1 4031   6.156   5.166   1.433
 1044SOL    HW2 4032   6.313   5.131   1.408
 1045SOL     OW 4033   2.249   0.009   3.656
 1045SOL    HW1 4034   2.244   6.946   3.611
 1045SOL    HW2 4035   2.340   0.022   3.696
 1046SOL     OW 4036   2.914   1.145   1.505
 1046SOL    HW1 4037   2.862   1.114   1.585
 1046SOL    HW2 4038   2.884   1.094   1.424
 1047SOL     OW 4039   3.437   6.680   3.677
 1047SOL    HW1 4040   3.353   6.685   3.731
 1047SOL    HW2 4041   3.488   6.598   3.702
 1048SOL     OW 4042   2.315   6.192   2.065
 1048SOL    HW1 4043   2.404   6.154   2.088
 1048SOL    HW2 4044   2.252   6.180   2.141
 1049SOL     OW 4045   4.330   0.083   4.492
 1049SOL    HW1 4046   4.351   0.001   4.545
 1049SOL    HW2 4047   4.253   0.131   4.535
 1050SOL     OW 4048   3.919   5.189   3.487
 1050SOL    HW1 4049   3.920   5.146   3.397
 1050SOL    HW2 4050   3.873   5.129   3.552
 1051SOL     OW 4051   6.953   6.576   0.282
 1051SOL    HW1 4052   6.931   6.495   0.227
 1051SOL    HW2 4053   6.873   6.636   0.285
 1052SOL     OW 4054   4.197   0.401   6.066
 1052SOL    HW1 4055   4.125   0.453   6.020
 1052SOL    HW2 4056   4.281   0.404   6.011
 1053SOL     OW 4057   5.736   3.536   1.968
 1053SOL    HW1 4058   5.721   3.461   2.032
 1053SOL    HW2 4059   5.774   3.615   2.017
 1054SOL     OW 4060   3.245   3.987   0.811
 1054SOL    HW1 4061   3.195   3.924   0.752
 1054SOL    HW2 4062   3.320   4.029   0.760
 1055SOL     OW 4063   5.048   5.610   6.919
 1055SOL    HW1 4064   5.076   5.571   7.007
 1055SOL    HW2 4065   4.966   5.562   6.886
 1056SOL     OW 4066   2.073   4.159   0.601
 1056SOL    HW1 4067   2.020   4.238   0.571
 1056SOL    HW2 4068   2.019   4.104   0.664
 1057SOL     OW 4069   3.275   1.591   1.836
 1057SOL    HW1 4070   3.303   1.499   1.865
 1057SOL    HW2 4071   3.338   1.659   1.874
 1058SOL     OW 4072   3.798   2.128   2.998
 1058SOL    HW1 4073   3.836   2.192   3.066
 1058SOL    HW2 4074   3.809   2.035   3.030
 1059SOL     OW 4075   2.155   6.282   1.874
 1059SOL    HW1 4076   2.207   6.209   1.918
 1059SOL    HW2 4077   2.092   6.322   1.940
 1060SOL     OW 4078   0.394   5.744   4.263
 1060SOL    HW1 4079   0.350   5.799   4.334
 1060SOL    HW2 4080   0.485   5.717   4.292
 1061SOL     OW 4081   6.538   4.110   6.841
 1061SOL    HW1 4082   6.555   4.064   6.928
 1061SOL    HW2 4083   6.439   4.121   6.828
 1062SOL     OW 4084   3.931   6.391   4.883
 1062SOL    HW1 4085   3.933   6.464   4.815
 1062SOL    HW2 4086   3.841   6.389   4.926
 1063SOL     OW 4087   1.033   6.736   5.998
 1063SOL    HW1 4088   1.131   6.755   6.009
 1063SOL    HW2 4089   1.014   6.715   5.902
 1064SOL     OW 4090   0.706   4.733   1.109
 1064SOL    HW1 4091   0.711   4.832   1.122
 1064SOL    HW2 4092   0.625   4.711   1.055
 1065SOL     OW 4093   4.093   0.841   4.019
 1065SOL    HW1 4094   4.072   0.745   4.039
 1065SOL    HW2 4095   4.063   0.863   3.926
 1066SOL     OW 4096   4.669   6.886   2.288
 1066SOL    HW1 4097   4.746   6.827   2.265
 1066SOL    HW2 4098   4.583   6.836   2.274
 1067SOL     OW 4099   2.320   1.065   0.248
 1067SOL    HW1 4100   2.305   1.164   0.239
 1067SOL    HW2 4101   2.255   1.027   0.314
 1068SOL     OW 4102   6.522   3.734   0.957
 1068SOL    HW1 4103   6.616   3.754   0.983
 1068SOL    HW2 4104   6.500   3.782   0.873
 1069SOL     OW 4105   5.535   4.673   0.551
 1069SOL    HW1 4106   5.626   4.699   0.519
 1069SOL    HW2 4107   5.469   4.684   0.477
 1070SOL     OW 4108   2.017   0.412   2.413
 1070SOL    HW1 4109   1.958   0.393   2.334
 1070SOL    HW2 4110   2.029   0.511   2.423
 1071SOL     OW 4111   6.946   1.951   4.914
 1071SOL    HW1 4112   6.867   1.944   4.853
 1071SOL    HW2 4113   7.017   1.888   4.884
 1072SOL     OW 4114   2.527   0.878   1.759
 1072SOL    HW1 4115   2.512   0.833   1.846
 1072SOL    HW2 4116   2.441   0.914   1.724
 1073SOL     OW 4117   5.482   1.684   3.193
 1073SOL    HW1 4118   5.455   1.771   3.234
 1073SOL    HW2 4119   5.502   1.698   3.096
 1074SOL     OW 4120   3.045   4.891   2.429
 1074SOL    HW1 4121   3.140   4.893   2.398
 1074SOL    HW2 4122   2.985   4.890   2.350
 1075SOL     OW 4123   5.633   1.889   5.215
 1075SOL    HW1 4124   5.538   1.917   5.205
 1075SOL    HW2 4125   5.692   1.970   5.222
 1076SOL     OW 4126   2.095   4.132   5.129
 1076SOL    HW1 4127   2.168   4.086   5.078
 1076SOL    HW2 4128   2.086   4.090   5.219
 1077SOL     OW 4129   6.977   0.588   0.375
 1077SOL    HW1 4130   6.944   0.679   0.351
 1077SOL    HW2 4131   6.939   0.561   0.464
 1078SOL     OW 4132   6.564   6.729   3.796
 1078SOL    HW1 4133   6.519   6.704   3.711
 1078SOL    HW2 4134   6.497   6.727   3.871
 1079SOL     OW 4135   1.207   5.579   2.950
 1079SOL    HW1 4136   1.182   5.483   2.949
 1079SOL    HW2 4137   1.206   5.615   2.857
 1080SOL     OW 4138   2.207   6.029   5.391
 1080SOL    HW1 4139   2.270   6.083   5.336
 1080SOL    HW2 4140   2.247   5.939   5.409
 1081SOL     OW 4141   6.755   5.916   4.763
 1081SOL    HW1 4142   6.838   5.878   4.721
 1081SOL    HW2 4143   6.675   5.869   4.727
 1082SOL     OW 4144   5.960   1.004   5.626
 1082SOL    HW1 4145   6.008   0.922   5.596
 1082SOL    HW2 4146   5.901   0.981   5.704
 1083SOL     OW 4147   5.042   4.327   0.507
 1083SOL    HW1 4148   5.061   4.254   0.571
 1083SOL    HW2 4149   5.060   4.296   0.414
 1084SOL     OW 4150   6.389   0.053   6.683
 1084SOL    HW1 4151   6.382   0.096   6.773
 1084SOL    HW2 4152   6.374   0.122   6.612
 1085SOL     OW 4153   1.885   3.566   4.326
 1085SOL    HW1 4154   1.898   3.603   4.234
 1085SOL    HW2 4155   1.972   3.529   4.360
 1086SOL     OW 4156   6.591   4.475   6.175
 1086SOL    HW1 4157   6.527   4.551   6.167
 1086SOL    HW2 4158   6.572   4.408   6.103
 1087SOL     OW 4159   1.174   1.001   5.368
 1087SOL    HW1 4160   1.086   0.972   5.406
 1087SOL    HW2 4161   1.159   1.068   5.296
 1088SOL     OW 4162   0.330   5.049   4.030
 1088SOL    HW1 4163   0.344   4.990   3.951
 1088SOL    HW2 4164   0.254   5.112   4.012
 1089SOL     OW 4165   6.988   5.144   4.962
 1089SOL    HW1 4166   0.038   5.194   5.003
 1089SOL    HW2 4167   6.990   5.155   4.863
 1090SOL     OW 4168   5.855   1.744   4.246
 1090SOL    HW1 4169   5.947   1.782   4.233
 1090SOL    HW2 4170   5.790   1.818   4.263
 1091SOL     OW 4171   2.131   3.403   3.834
 1091SOL    HW1 4172   2.109   3.378   3.929
 1091SOL    HW2 4173   2.114   3.501   3.821
 1092SOL     OW 4174   0.799   5.232   1.240
 1092SOL    HW1 4175   0.855   5.165   1.191
 1092SOL    HW2 4176   0.858   5.287   1.299
 1093SOL     OW 4177   2.394   6.661   1.315
 1093SOL    HW1 4178   2.420   6.586   1.377
 1093SOL    HW2 4179   2.476   6.713   1.291
 1094SOL     OW 4180   0.946   6.757   2.848
 1094SOL    HW1 4181   0.949   6.857   2.851
 1094SOL    HW2 4182   1.009   6.719   2.916
 1095SOL     OW 4183   0.307   2.648   6.312
 1095SOL    HW1 4184   0.239   2.579   6.289
 1095SOL    HW2 4185   0.262   2.727   6.354
 1096SOL     OW 4186   2.731   5.647   0.912
 1096SOL    HW1 4187   2.737   5.700   0.996
 1096SOL    HW2 4188   2.812   5.589   0.903
 1097SOL     OW 4189   2.062   5.454   3.812
 1097SOL    HW1 4190   2.050   5.436   3.910
 1097SOL    HW2 4191   2.016   5.383   3.759
 1098SOL     OW 4192   6.000   4.199   6.585
 1098SOL    HW1 4193   6.001   4.152   6.497
 1098SOL    HW2 4194   5.945   4.282   6.577
 1099SOL     OW 4195   4.169   1.724   5.939
 1099SOL    HW1 4196   4.132   1.788   6.005
 1099SOL    HW2 4197   4.265   1.705   5.961
 1100SOL     OW 4198   3.938   1.253   3.943
 1100SOL    HW1 4199   3.868   1.195   3.985
 1100SOL    HW2 4200   3.975   1.207   3.862
 1101SOL     OW 4201   5.593   3.258   5.232
 1101SOL    HW1 4202   5.549   3.175   5.199
 1101SOL    HW2 4203   5.679   3.272   5.184
 1102SOL     OW 4204   2.400   0.911   4.515
 1102SOL    HW1 4205   2.438   0.885   4.604
 1102SOL    HW2 4206   2.355   1.000   4.523
 1103SOL     OW 4207   2.495   1.966   6.909
 1103SOL    HW1 4208   2.409   2.012   6.885
 1103SOL    HW2 4209   2.562   1.982   6.837
 1104SOL     OW 4210   0.828   3.972   3.558
 1104SOL    HW1 4211   0.780   4.058   3.542
 1104SOL    HW2 4212   0.775   3.916   3.622
 1105SOL     OW 4213   5.406   1.947   5.388
 1105SOL    HW1 4214   5.465   2.018   5.426
 1105SOL    HW2 4215   5.438   1.857   5.417
 1106SOL     OW 4216   0.747   1.665   0.464
 1106SOL    HW1 4217   0.845   1.670   0.442
 1106SOL    HW2 4218   0.710   1.578   0.429
 1107SOL     OW 4219   1.334   0.465   6.503
 1107SOL    HW1 4220   1.336   0.379   6.452
 1107SOL    HW2 4221   1.366   0.540   6.445
 1108SOL     OW 4222   3.298   6.000   4.341
 1108SOL    HW1 4223   3.322   6.094   4.321
 1108SOL    HW2 4224   3.338   5.974   4.429
 1109SOL     OW 4225   6.030   1.551   3.670
 1109SOL    HW1 4226   6.006   1.614   3.596
 1109SOL    HW2 4227   5.986   1.463   3.654
 1110SOL     OW 4228   3.294   1.203   2.778
 1110SOL    HW1 4229   3.234   1.123   2.783
 1110SOL    HW2 4230   3.245   1.284   2.811
 1111SOL     OW 4231   4.463   4.384   6.192
 1111SOL    HW1 4232   4.439   4.456   6.257
 1111SOL    HW2 4233   4.426   4.406   6.102
 1112SOL     OW 4234   6.348   6.985   2.961
 1112SOL    HW1 4235   6.251   7.001   2.947
 1112SOL    HW2 4236   6.385   6.932   2.885
 1113SOL     OW 4237   6.393   3.782   2.710
 1113SOL    HW1 4238   6.474   3.726   2.690
 1113SOL    HW2 4239   6.311   3.728   2.695
 1114SOL     OW 4240   3.663   2.660   6.133
 1114SOL    HW1 4241   3.680   2.753   6.166
 1114SOL    HW2 4242   3.740   2.601   6.157
 1115SOL     OW 4243   3.454   4.270   5.675
 1115SOL    HW1 4244   3.501   4.269   5.587
 1115SOL    HW2 4245   3.491   4.199   5.734
 1116SOL     OW 4246   5.034   1.468   0.312
 1116SOL    HW1 4247   4.986   1.514   0.238
 1116SOL    HW2 4248   5.133   1.482   0.302
 1117SOL     OW 4249   1.251   2.362   1.407
 1117SOL    HW1 4250   1.196   2.342   1.326
 1117SOL    HW2 4251   1.233   2.456   1.437
 1118SOL     OW 4252   2.625   5.919   6.475
 1118SOL    HW1 4253   2.695   5.970   6.526
 1118SOL    HW2 4254   2.640   5.821   6.488
 1119SOL     OW 4255   4.015   4.811   3.013
 1119SOL    HW1 4256   4.066   4.831   3.096
 1119SOL    HW2 4257   3.998   4.713   3.008
 1120SOL     OW 4258   6.398   5.698   1.337
 1120SOL    HW1 4259   6.431   5.732   1.425
 1120SOL    HW2 4260   6.348   5.612   1.351
 1121SOL     OW 4261   0.844   5.422   4.366
 1121SOL    HW1 4262   0.798   5.334   4.371
 1121SOL    HW2 4263   0.939   5.409   4.337
 1122SOL     OW 4264   5.442   3.279   1.869
 1122SOL    HW1 4265   5.346   3.251   1.878
 1122SOL    HW2 4266   5.450   3.347   1.796
 1123SOL     OW 4267   4.407   2.054   2.836
 1123SOL    HW1 4268   4.360   2.140   2.855
 1123SOL    HW2 4269   4.347   1.994   2.782
 1124SOL     OW 4270   1.510   2.981   5.037
 1124SOL    HW1 4271   1.541   3.021   4.951
 1124SOL    HW2 4272   1.456   2.899   5.019
 1125SOL     OW 4273   1.756   3.615   4.803
 1125SOL    HW1 4274   1.707   3.694   4.766
 1125SOL    HW2 4275   1.697   3.567   4.868
 1126SOL     OW 4276   4.347   5.636   5.633
 1126SOL    HW1 4277   4.357   5.735   5.624
 1126SOL    HW2 4278   4.252   5.611   5.616
 1127SOL     OW 4279   5.364   6.406   3.744
 1127SOL    HW1 4280   5.306   6.400   3.663
 1127SOL    HW2 4281   5.325   6.352   3.818
 1128SOL     OW 4282   6.107   0.882   3.636
 1128SOL    HW1 4283   6.174   0.923   3.698
 1128SOL    HW2 4284   6.027   0.941   3.631
 1129SOL     OW 4285   1.793   6.498   1.110
 1129SOL    HW1 4286   1.863   6.560   1.076
 1129SOL    HW2 4287   1.705   6.522   1.069
 1130SOL     OW 4288   1.745   5.462   2.416
 1130SOL    HW1 4289   1.805   5.383   2.402
 1130SOL    HW2 4290   1.773   5.511   2.498
 1131SOL     OW 4291   1.373   6.986   3.872
 1131SOL    HW1 4292   1.315   6.914   3.911
 1131SOL    HW2 4293   1.351   6.997   3.775
 1132SOL     OW 4294   4.764   1.061   2.531
 1132SOL    HW1 4295   4.850   1.036   2.487
 1132SOL    HW2 4296   4.767   1.033   2.627
 1133SOL     OW 4297   1.557   0.265   5.020
 1133SOL    HW1 4298   1.563   0.166   5.011
 1133SOL    HW2 4299   1.509   0.288   5.105
 1134SOL     OW 4300   4.395   6.957   2.000
 1134SOL    HW1 4301   4.319   6.979   1.939
 1134SOL    HW2 4302   4.369   6.976   2.095
 1135SOL     OW 4303   2.625   6.557   3.873
 1135SOL    HW1 4304   2.650   6.469   3.914
 1135SOL    HW2 4305   2.645   6.554   3.775
 1136SOL     OW 4306   2.938   6.499   2.572
 1136SOL    HW1 4307   3.037   6.508   2.560
 1136SOL    HW2 4308   2.901   6.583   2.612
 1137SOL     OW 4309   0.595   6.430   6.707
 1137SOL    HW1 4310   0.553   6.345   6.741
 1137SOL    HW2 4311   0.523   6.492   6.678
 1138SOL     OW 4312   1.738   3.313   5.434
 1138SOL    HW1 4313   1.683   3.230   5.424
 1138SOL    HW2 4314   1.829   3.289   5.466
 1139SOL     OW 4315   2.446   4.721   4.070
 1139SOL    HW1 4316   2.418   4.813   4.042
 1139SOL    HW2 4317   2.409   4.654   4.004
 1140SOL     OW 4318   2.011   1.325   1.676
 1140SOL    HW1 4319   1.971   1.369   1.595
 1140SOL    HW2 4320   2.109   1.343   1.678
 1141SOL     OW 4321   5.994   5.486   6.078
 1141SOL    HW1 4322   6.018   5.391   6.101
 1141SOL    HW2 4323   6.018   5.546   6.155
 1142SOL     OW 4324   2.490   0.041   3.762
 1142SOL    HW1 4325   2.558   0.109   3.733
 1142SOL    HW2 4326   2.450   0.069   3.849
 1143SOL     OW 4327   1.284   3.508   1.840
 1143SOL    HW1 4328   1.362   3.567   1.863
 1143SOL    HW2 4329   1.204   3.536   1.893
 1144SOL     OW 4330   5.326   4.268   2.879
 1144SOL    HW1 4331   5.238   4.307   2.905
 1144SOL    HW2 4332   5.399   4.325   2.916
 1145SOL     OW 4333   1.507   2.342   0.593
 1145SOL    HW1 4334   1.432   2.283   0.622
 1145SOL    HW2 4335   1.538   2.398   0.670
 1146SOL     OW 4336   0.541   1.736   1.542
 1146SOL    HW1 4337   0.461   1.782   1.503
 1146SOL    HW2 4338   0.592   1.689   1.470
 1147SOL     OW 4339   3.159   5.702   1.274
 1147SOL    HW1 4340   3.182   5.618   1.322
 1147SOL    HW2 4341   3.087   5.751   1.324
 1148SOL     OW 4342   4.147   6.233   2.168
 1148SOL    HW1 4343   4.235   6.271   2.140
 1148SOL    HW2 4344   4.077   6.255   2.100
 1149SOL     OW 4345   6.370   2.738   1.820
 1149SOL    HW1 4346   6.360   2.837   1.831
 1149SOL    HW2 4347   6.451   2.718   1.765
 1150SOL     OW 4348   1.011   4.608   7.002
 1150SOL    HW1 4349   0.948   4.577   6.931
 1150SOL    HW2 4350   0.982   4.573   0.065
 1151SOL     OW 4351   6.495   5.483   4.089
 1151SOL    HW1 4352   6.589   5.449   4.088
 1151SOL    HW2 4353   6.452   5.465   4.000
 1152SOL     OW 4354   4.608   0.543   0.175
 1152SOL    HW1 4355   4.584   0.451   0.206
 1152SOL    HW2 4356   4.552   0.567   0.095
 1153SOL     OW 4357   0.110   6.949   1.254
 1153SOL    HW1 4358   0.127   6.880   1.184
 1153SOL    HW2 4359   0.060   7.026   1.215
 1154SOL     OW 4360   1.208   3.574   2.272
 1154SOL    HW1 4361   1.257   3.581   2.185
 1154SOL    HW2 4362   1.270   3.537   2.342
 1155SOL     OW 4363   2.274   6.341   4.940
 1155SOL    HW1 4364   2.272   6.241   4.935
 1155SOL    HW2 4365   2.342   6.376   4.876
 1156SOL     OW 4366   4.133   1.594   4.773
 1156SOL    HW1 4367   4.160   1.652   4.850
 1156SOL    HW2 4368   4.176   1.629   4.690
 1157SOL     OW 4369   4.030   0.495   5.361
 1157SOL    HW1 4370   4.002   0.585   5.325
 1157SOL    HW2 4371   4.118   0.504   5.408
 1158SOL     OW 4372   4.972   6.142   4.308
 1158SOL    HW1 4373   4.999   6.091   4.227
 1158SOL    HW2 4374   5.046   6.139   4.376
 1159SOL     OW 4375   6.401   6.375   3.079
 1159SOL    HW1 4376   6.477   6.335   3.027
 1159SOL    HW2 4377   6.406   6.475   3.071
 1160SOL     OW 4378   4.285   6.726   1.415
 1160SOL    HW1 4379   4.263   6.761   1.506
 1160SOL    HW2 4380   4.204   6.730   1.357
 1161SOL     OW 4381   6.670   5.191   6.027
 1161SOL    HW1 4382   6.579   5.192   5.986
 1161SOL    HW2 4383   6.661   5.185   6.127
 1162SOL     OW 4384   1.888   2.703   5.758
 1162SOL    HW1 4385   1.898   2.752   5.845
 1162SOL    HW2 4386   1.978   2.682   5.720
 1163SOL     OW 4387   6.039   4.136   1.794
 1163SOL    HW1 4388   5.968   4.130   1.864
 1163SOL    HW2 4389   6.001   4.179   1.711
 1164SOL     OW 4390   5.455   2.403   4.480
 1164SOL    HW1 4391   5.359   2.405   4.507
 1164SOL    HW2 4392   5.473   2.474   4.412
 1165SOL     OW 4393   4.757   6.105   3.419
 1165SOL    HW1 4394   4.746   6.084   3.516
 1165SOL    HW2 4395   4.701   6.042   3.365
 1166SOL     OW 4396   1.990   6.491   6.890
 1166SOL    HW1 4397   2.043   6.474   6.806
 1166SOL    HW2 4398   1.978   6.589   6.902
 1167SOL     OW 4399   4.841   3.932   1.774
 1167SOL    HW1 4400   4.855   3.947   1.872
 1167SOL    HW2 4401   4.794   4.010   1.734
 1168SOL     OW 4402   6.105   2.482   2.382
 1168SOL    HW1 4403   6.006   2.496   2.385
 1168SOL    HW2 4404   6.124   2.384   2.371
 1169SOL     OW 4405   5.946   1.485   5.532
 1169SOL    HW1 4406   5.937   1.522   5.624
 1169SOL    HW2 4407   5.991   1.396   5.536
 1170SOL     OW 4408   4.613   0.155   2.663
 1170SOL    HW1 4409   4.684   0.226   2.655
 1170SOL    HW2 4410   4.541   0.186   2.725
 1171SOL     OW 4411   2.197   0.011   0.548
 1171SOL    HW1 4412   2.173   6.940   0.552
 1171SOL    HW2 4413   2.145   0.055   0.475
 1172SOL     OW 4414   5.482   3.178   0.431
 1172SOL    HW1 4415   5.414   3.177   0.358
 1172SOL    HW2 4416   5.444   3.222   0.512
 1173SOL     OW 4417   2.260   0.306   1.250
 1173SOL    HW1 4418   2.197   0.254   1.307
 1173SOL    HW2 4419   2.215   0.391   1.221
 1174SOL     OW 4420   3.703   3.618   1.555
 1174SOL    HW1 4421   3.661   3.693   1.606
 1174SOL    HW2 4422   3.802   3.623   1.565
 1175SOL     OW 4423   4.481   3.223   5.691
 1175SOL    HW1 4424   4.470   3.261   5.599
 1175SOL    HW2 4425   4.429   3.137   5.699
 1176SOL     OW 4426   4.459   3.200   5.992
 1176SOL    HW1 4427   4.372   3.223   5.948
 1176SOL    HW2 4428   4.506   3.130   5.938
 1177SOL     OW 4429   6.479   2.876   5.379
 1177SOL    HW1 4430   6.550   2.806   5.373
 1177SOL    HW2 4431   6.468   2.904   5.474
 1178SOL     OW 4432   2.744   3.810   0.631
 1178SOL    HW1 4433   2.720   3.718   0.601
 1178SOL    HW2 4434   2.825   3.842   0.582
 1179SOL     OW 4435   2.054   6.205   0.326
 1179SOL    HW1 4436   2.119   6.200   0.401
 1179SOL    HW2 4437   2.045   6.300   0.295
 1180SOL     OW 4438   3.036   5.600   2.410
 1180SOL    HW1 4439   3.003   5.631   2.500
 1180SOL    HW2 4440   3.044   5.500   2.411
 1181SOL     OW 4441   0.406   5.701   6.510
 1181SOL    HW1 4442   0.335   5.697   6.440
 1181SOL    HW2 4443   0.368   5.671   6.598
 1182SOL     OW 4444   4.029   5.626   3.501
 1182SOL    HW1 4445   3.992   5.546   3.452
 1182SOL    HW2 4446   4.004   5.709   3.451
 1183SOL     OW 4447   2.032   4.427   0.541
 1183SOL    HW1 4448   2.103   4.466   0.600
 1183SOL    HW2 4449   1.961   4.496   0.526
 1184SOL     OW 4450   0.502   0.061   4.803
 1184SOL    HW1 4451   0.574   0.128   4.823
 1184SOL    HW2 4452   0.535   7.023   4.734
 1185SOL     OW 4453   0.467   0.890   6.886
 1185SOL    HW1 4454   0.501   0.842   6.966
 1185SOL    HW2 4455   0.543   0.913   6.825
 1186SOL     OW 4456   4.908   5.319   4.647
 1186SOL    HW1 4457   5.007   5.307   4.655
 1186SOL    HW2 4458   4.862   5.237   4.682
 1187SOL     OW 4459   6.497   6.546   7.010
 1187SOL    HW1 4460   6.447   6.628   6.980
 1187SOL    HW2 4461   6.517   6.553   0.082
 1188SOL     OW 4462   3.348   6.089   5.048
 1188SOL    HW1 4463   3.399   6.093   5.134
 1188SOL    HW2 4464   3.279   6.017   5.054
 1189SOL     OW 4465   6.874   3.115   2.839
 1189SOL    HW1 4466   6.815   3.182   2.793
 1189SOL    HW2 4467   6.886   3.035   2.781
 1190SOL     OW 4468   2.682   6.526   3.278
 1190SOL    HW1 4469   2.767   6.557   3.236
 1190SOL    HW2 4470   2.691   6.430   3.304
 1191SOL     OW 4471   4.532   5.011   3.518
 1191SOL    HW1 4472   4.484   5.078   3.461
 1191SOL    HW2 4473   4.606   4.969   3.465
 1192SOL     OW 4474   3.628   5.249   3.267
 1192SOL    HW1 4475   3.640   5.344   3.239
 1192SOL    HW2 4476   3.588   5.197   3.192
 1193SOL     OW 4477   6.173   3.939   4.433
 1193SOL    HW1 4478   6.251   3.876   4.435
 1193SOL    HW2 4479   6.205   4.033   4.442
 1194SOL     OW 4480   5.572   6.501   1.667
 1194SOL    HW1 4481   5.501   6.501   1.597
 1194SOL    HW2 4482   5.537   6.458   1.750
 1195SOL     OW 4483   5.943   4.225   1.558
 1195SOL    HW1 4484   6.019   4.273   1.514
 1195SOL    HW2 4485   5.876   4.198   1.489
 1196SOL     OW 4486   6.965   6.175   2.967
 1196SOL    HW1 4487   6.971   6.093   3.024
 1196SOL    HW2 4488   6.909   6.244   3.013
 1197SOL     OW 4489   3.531   0.933   6.379
 1197SOL    HW1 4490   3.592   0.911   6.302
 1197SOL    HW2 4491   3.586   0.961   6.458
 1198SOL     OW 4492   1.129   2.956   1.801
 1198SOL    HW1 4493   1.048   2.941   1.858
 1198SOL    HW2 4494   1.163   2.869   1.766
 1199SOL     OW 4495   4.443   4.697   1.935
 1199SOL    HW1 4496   4.507   4.635   1.980
 1199SOL    HW2 4497   4.394   4.647   1.863
 1200SOL     OW 4498   3.269   3.790   3.086
 1200SOL    HW1 4499   3.311   3.726   3.022
 1200SOL    HW2 4500   3.196   3.841   3.040
 1201SOL     OW 4501   1.247   0.988   4.274
 1201SOL    HW1 4502   1.277   0.899   4.239
 1201SOL    HW2 4503   1.325   1.049   4.280
 1202SOL     OW 4504   0.824   5.855   6.364
 1202SOL    HW1 4505   0.797   5.765   6.397
 1202SOL    HW2 4506   0.906   5.847   6.308
 1203SOL     OW 4507   5.654   6.220   6.619
 1203SOL    HW1 4508   5.606   6.292   6.671
 1203SOL    HW2 4509   5.669   6.141   6.678
 1204SOL     OW 4510   2.817   0.182   1.397
 1204SOL    HW1 4511   2.915   0.192   1.413
 1204SOL    HW2 4512   2.802   0.106   1.333
 1205SOL     OW 4513   5.491   3.881   1.298
 1205SOL    HW1 4514   5.430   3.950   1.337
 1205SOL    HW2 4515   5.577   3.880   1.349
 1206SOL     OW 4516   3.251   2.977   5.114
 1206SOL    HW1 4517   3.302   2.934   5.038
 1206SOL    HW2 4518   3.159   2.999   5.084
 1207SOL     OW 4519   1.713   6.924   0.969
 1207SOL    HW1 4520   1.742   6.867   0.892
 1207SOL    HW2 4521   1.792   6.975   1.004
 1208SOL     OW 4522   3.290   3.926   0.364
 1208SOL    HW1 4523   3.374   3.893   0.407
 1208SOL    HW2 4524   3.244   3.851   0.318
 1209SOL     OW 4525   3.785   0.677   5.537
 1209SOL    HW1 4526   3.800   0.775   5.520
 1209SOL    HW2 4527   3.800   0.626   5.452
 1210SOL     OW 4528   2.506   0.157   3.210
 1210SOL    HW1 4529   2.566   0.085   3.177
 1210SOL    HW2 4530   2.449   0.191   3.135
 1211SOL     OW 4531   1.709   3.633   1.301
 1211SOL    HW1 4532   1.724   3.599   1.207
 1211SOL    HW2 4533   1.682   3.729   1.297
 1212SOL     OW 4534   0.107   0.818   6.178
 1212SOL    HW1 4535   0.014   0.845   6.151
 1212SOL    HW2 4536   0.123   0.723   6.150
 1213SOL     OW 4537   6.553   2.297   0.342
 1213SOL    HW1 4538   6.550   2.394   0.321
 1213SOL    HW2 4539   6.469   2.269   0.387
 1214SOL     OW 4540   7.020   2.789   0.178
 1214SOL    HW1 4541   7.006   2.870   0.236
 1214SOL    HW2 4542   0.038   2.817   0.093
 1215SOL     OW 4543   1.615   3.924   4.024
 1215SOL    HW1 4544   1.700   3.905   4.072
 1215SOL    HW2 4545   1.635   3.949   3.929
 1216SOL     OW 4546   4.615   0.758   0.300
 1216SOL    HW1 4547   4.609   0.666   0.263
 1216SOL    HW2 4548   4.577   0.824   0.234
 1217SOL     OW 4549   1.410   5.415   0.945
 1217SOL    HW1 4550   1.420   5.324   0.906
 1217SOL    HW2 4551   1.473   5.424   1.023
 1218SOL     OW 4552   1.715   4.966   4.481
 1218SOL    HW1 4553   1.691   4.880   4.526
 1218SOL    HW2 4554   1.755   5.029   4.548
 1219SOL     OW 4555   5.292   5.566   2.279
 1219SOL    HW1 4556   5.290   5.476   2.235
 1219SOL    HW2 4557   5.384   5.605   2.271
 1220SOL     OW 4558   0.999   5.514   3.324
 1220SOL    HW1 4559   0.924   5.448   3.328
 1220SOL    HW2 4560   0.980   5.581   3.252
 1221SOL     OW 4561   4.936   2.897   5.624
 1221SOL    HW1 4562   4.885   2.811   5.614
 1221SOL    HW2 4563   5.001   2.907   5.549
 1222SOL     OW 4564   6.050   6.831   6.882
 1222SOL    HW1 4565   5.967   6.855   6.931
 1222SOL    HW2 4566   6.038   6.848   6.784
 1223SOL     OW 4567   3.741   0.495   0.836
 1223SOL    HW1 4568   3.810   0.532   0.899
 1223SOL    HW2 4569   3.748   0.543   0.748
 1224SOL     OW 4570   2.196   6.534   0.752
 1224SOL    HW1 4571   2.126   6.465   0.774
 1224SOL    HW2 4572   2.279   6.515   0.806
 1225SOL     OW 4573   3.297   4.183   6.141
 1225SOL    HW1 4574   3.391   4.211   6.122
 1225SOL    HW2 4575   3.233   4.241   6.090
 1226SOL     OW 4576   2.535   4.581   0.959
 1226SOL    HW1 4577   2.461   4.555   1.021
 1226SOL    HW2 4578   2.615   4.523   0.976
 1227SOL     OW 4579   6.946   3.534   6.570
 1227SOL    HW1 4580   6.854   3.543   6.533
 1227SOL    HW2 4581   6.977   3.623   6.603
 1228SOL     OW 4582   3.841   3.515   6.044
 1228SOL    HW1 4583   3.751   3.477   6.069
 1228SOL    HW2 4584   3.852   3.511   5.945
 1229SOL     OW 4585   3.914   4.947   6.131
 1229SOL    HW1 4586   3.889   4.917   6.223
 1229SOL    HW2 4587   4.005   4.988   6.133
 1230SOL     OW 4588   4.369   0.928   4.434
 1230SOL    HW1 4589   4.361   1.002   4.500
 1230SOL    HW2 4590   4.410   0.848   4.478
 1231SOL     OW 4591   1.126   3.924   5.146
 1231SOL    HW1 4592   1.065   3.998   5.176
 1231SOL    HW2 4593   1.214   3.932   5.194
 1232SOL     OW 4594   1.150   1.790   5.211
 1232SOL    HW1 4595   1.117   1.709   5.163
 1232SOL    HW2 4596   1.247   1.804   5.190
 1233SOL     OW 4597   1.922   3.293   5.110
 1233SOL    HW1 4598   1.854   3.298   5.037
 1233SOL    HW2 4599   1.997   3.357   5.090
 1234SOL     OW 4600   6.672   4.117   4.094
 1234SOL    HW1 4601   6.647   4.023   4.118
 1234SOL    HW2 4602   6.699   4.167   4.177
 1235SOL     OW 4603   7.015   6.161   2.068
 1235SOL    HW1 4604   0.058   6.150   2.139
 1235SOL    HW2 4605   7.025   6.251   2.025
 1236SOL     OW 4606   5.519   1.041   6.527
 1236SOL    HW1 4607   5.437   1.047   6.584
 1236SOL    HW2 4608   5.503   0.978   6.451
 1237SOL     OW 4609   2.315   5.276   6.318
 1237SOL    HW1 4610   2.237   5.336   6.338
 1237SOL    HW2 4611   2.302   5.188   6.364
 1238SOL     OW 4612   2.250   0.619   1.165
 1238SOL    HW1 4613   2.331   0.675   1.185
 1238SOL    HW2 4614   2.255   0.588   1.070
 1239SOL     OW 4615   6.703   6.066   6.521
 1239SOL    HW1 4616   6.653   6.111   6.595
 1239SOL    HW2 4617   6.639   6.031   6.453
 1240SOL     OW 4618   5.948   6.160   1.841
 1240SOL    HW1 4619   6.046   6.164   1.860
 1240SOL    HW2 4620   5.923   6.236   1.780
 1241SOL     OW 4621   6.115   3.369   4.125
 1241SOL    HW1 4622   6.112   3.341   4.221
 1241SOL    HW2 4623   6.023   3.367   4.086
 1242SOL     OW 4624   1.600   3.777   0.232
 1242SOL    HW1 4625   1.622   3.702   0.169
 1242SOL    HW2 4626   1.592   3.862   0.180
 1243SOL     OW 4627   1.636   6.101   5.716
 1243SOL    HW1 4628   1.593   6.191   5.717
 1243SOL    HW2 4629   1.670   6.080   5.808
 1244SOL     OW 4630   0.282   6.661   3.067
 1244SOL    HW1 4631   0.315   6.587   3.126
 1244SOL    HW2 4632   0.359   6.715   3.034
 1245SOL     OW 4633   4.005   3.887   6.244
 1245SOL    HW1 4634   3.953   3.972   6.249
 1245SOL    HW2 4635   4.007   3.854   6.150
 1246SOL     OW 4636   2.216   6.732   2.105
 1246SOL    HW1 4637   2.163   6.696   2.029
 1246SOL    HW2 4638   2.272   6.659   2.144
 1247SOL     OW 4639   2.819   0.501   6.794
 1247SOL    HW1 4640   2.802   0.426   6.730
 1247SOL    HW2 4641   2.835   0.586   6.744
 1248SOL     OW 4642   1.646   6.783   3.757
 1248SOL    HW1 4643   1.730   6.766   3.808
 1248SOL    HW2 4644   1.665   6.850   3.684
 1249SOL     OW 4645   5.581   3.081   2.379
 1249SOL    HW1 4646   5.494   3.060   2.423
 1249SOL    HW2 4647   5.580   3.045   2.285
 1250SOL     OW 4648   1.042   4.586   4.385
 1250SOL    HW1 4649   1.140   4.571   4.400
 1250SOL    HW2 4650   1.010   4.659   4.445
 1251SOL     OW 4651   4.227   0.357   4.812
 1251SOL    HW1 4652   4.156   0.418   4.847
 1251SOL    HW2 4653   4.190   0.304   4.735
 1252SOL     OW 4654   3.398   3.754   5.891
 1252SOL    HW1 4655   3.466   3.773   5.821
 1252SOL    HW2 4656   3.377   3.656   5.892
 1253SOL     OW 4657   3.777   5.756   1.993
 1253SOL    HW1 4658   3.810   5.845   1.962
 1253SOL    HW2 4659   3.851   5.689   1.986
 1254SOL     OW 4660   6.309   2.617   2.622
 1254SOL    HW1 4661   6.389   2.657   2.576
 1254SOL    HW2 4662   6.281   2.677   2.697
 1255SOL     OW 4663   6.467   0.845   5.043
 1255SOL    HW1 4664   6.431   0.767   5.095
 1255SOL    HW2 4665   6.459   0.928   5.098
 1256SOL     OW 4666   6.956   0.019   3.181
 1256SOL    HW1 4667   6.877   0.079   3.184
 1256SOL    HW2 4668   0.011   0.068   3.212
 1257SOL     OW 4669   0.196   0.337   3.109
 1257SOL    HW1 4670   0.186   0.436   3.112
 1257SOL    HW2 4671   0.144   0.299   3.032
 1258SOL     OW 4672   1.107   5.607   3.578
 1258SOL    HW1 4673   1.075   5.526   3.527
 1258SOL    HW2 4674   1.088   5.689   3.524
 1259SOL     OW 4675   3.954   1.407   4.968
 1259SOL    HW1 4676   4.031   1.401   5.031
 1259SOL    HW2 4677   3.961   1.333   4.900
 1260SOL     OW 4678   0.845   1.477   6.965
 1260SOL    HW1 4679   0.883   1.532   0.014
 1260SOL    HW2 4680   0.899   1.394   6.955
 1261SOL     OW 4681   6.936   5.537   0.259
 1261SOL    HW1 4682   6.935   5.448   0.214
 1261SOL    HW2 4683   6.890   5.605   0.202
 1262SOL     OW 4684   5.547   5.671   2.292
 1262SOL    HW1 4685   5.621   5.604   2.289
 1262SOL    HW2 4686   5.544   5.714   2.382
 1263SOL     OW 4687   0.651   1.604   2.387
 1263SOL    HW1 4688   0.677   1.696   2.357
 1263SOL    HW2 4689   0.556   1.606   2.420
 1264SOL     OW 4690   0.751   3.897   5.292
 1264SOL    HW1 4691   0.779   3.850   5.208
 1264SOL    HW2 4692   0.693   3.836   5.346
 1265SOL     OW 4693   6.107   5.535   4.536
 1265SOL    HW1 4694   6.044   5.529   4.614
 1265SOL    HW2 4695   6.201   5.540   4.569
 1266SOL     OW 4696   0.857   0.730   4.678
 1266SOL    HW1 4697   0.847   0.771   4.588
 1266SOL    HW2 4698   0.885   0.634   4.668
 1267SOL     OW 4699   4.967   0.619   2.021
 1267SOL    HW1 4700   4.895   0.558   1.989
 1267SOL    HW2 4701   5.031   0.637   1.946
 1268SOL     OW 4702   4.216   2.522   5.461
 1268SOL    HW1 4703   4.129   2.526   5.511
 1268SOL    HW2 4704   4.202   2.556   5.368
 1269SOL     OW 4705   5.136   2.321   4.290
 1269SOL    HW1 4706   5.064   2.330   4.222
 1269SOL    HW2 4707   5.110   2.370   4.373
 1270SOL     OW 4708   2.046   4.762   2.734
 1270SOL    HW1 4709   2.093   4.724   2.813
 1270SOL    HW2 4710   1.990   4.691   2.691
 1271SOL     OW 4711   1.994   0.895   1.236
 1271SOL    HW1 4712   2.086   0.914   1.201
 1271SOL    HW2 4713   1.997   0.811   1.291
 1272SOL     OW 4714   6.680   3.844   6.439
 1272SOL    HW1 4715   6.600   3.811   6.389
 1272SOL    HW2 4716   6.650   3.901   6.515
 1273SOL     OW 4717   1.265   4.347   4.681
 1273SOL    HW1 4718   1.170   4.352   4.651
 1273SOL    HW2 4719   1.299   4.253   4.668
 1274SOL     OW 4720   0.150   4.802   1.609
 1274SOL    HW1 4721   0.117   4.733   1.674
 1274SOL    HW2 4722   0.109   4.786   1.520
 1275SOL     OW 4723   3.362   0.874   4.025
 1275SOL    HW1 4724   3.369   0.833   3.934
 1275SOL    HW2 4725   3.268   0.908   4.039
 1276SOL     OW 4726   5.687   4.641   3.928
 1276SOL    HW1 4727   5.638   4.725   3.951
 1276SOL    HW2 4728   5.720   4.597   4.011
 1277SOL     OW 4729   0.885   5.775   0.118
 1277SOL    HW1 4730   0.912   5.871   0.129
 1277SOL    HW2 4731   0.815   5.752   0.185
 1278SOL     OW 4732   1.402   0.142   3.247
 1278SOL    HW1 4733   1.348   0.059   3.262
 1278SOL    HW2 4734   1.358   0.219   3.293
 1279SOL     OW 4735   2.747   3.909   6.450
 1279SOL    HW1 4736   2.690   3.959   6.384
 1279SOL    HW2 4737   2.688   3.861   6.515
 1280SOL     OW 4738   3.405   0.772   3.786
 1280SOL    HW1 4739   3.477   0.829   3.747
 1280SOL    HW2 4740   3.360   0.720   3.713
 1281SOL     OW 4741   3.632   6.169   3.817
 1281SOL    HW1 4742   3.705   6.233   3.838
 1281SOL    HW2 4743   3.649   6.082   3.865
 1282SOL     OW 4744   6.935   3.030   0.854
 1282SOL    HW1 4745   6.835   3.029   0.848
 1282SOL    HW2 4746   6.965   2.957   0.915
 1283SOL     OW 4747   6.522   3.913   5.462
 1283SOL    HW1 4748   6.524   4.013   5.471
 1283SOL    HW2 4749   6.516   3.889   5.365
 1284SOL     OW 4750   3.580   1.280   1.128
 1284SOL    HW1 4751   3.664   1.294   1.180
 1284SOL    HW2 4752   3.508   1.341   1.163
 1285SOL     OW 4753   3.231   1.689   4.841
 1285SOL    HW1 4754   3.228   1.732   4.750
 1285SOL    HW2 4755   3.140   1.656   4.865
 1286SOL     OW 4756   4.996   3.047   1.704
 1286SOL    HW1 4757   5.004   2.982   1.629
 1286SOL    HW2 4758   4.913   3.102   1.692
 1287SOL     OW 4759   5.751   4.708   5.346
 1287SOL    HW1 4760   5.840   4.751   5.330
 1287SOL    HW2 4761   5.733   4.702   5.444
 1288SOL     OW 4762   4.609   4.570   6.538
 1288SOL    HW1 4763   4.601   4.597   6.442
 1288SOL    HW2 4764   4.693   4.517   6.551
 1289SOL     OW 4765   6.378   0.805   1.246
 1289SOL    HW1 4766   6.307   0.791   1.177
 1289SOL    HW2 4767   6.392   0.903   1.259
 1290SOL     OW 4768   1.431   0.879   0.391
 1290SOL    HW1 4769   1.373   0.812   0.437
 1290SOL    HW2 4770   1.385   0.968   0.390
 1291SOL     OW 4771   6.641   5.003   3.674
 1291SOL    HW1 4772   6.677   5.075   3.733
 1291SOL    HW2 4773   6.564   5.038   3.621
 1292SOL     OW 4774   0.040   5.550   2.816
 1292SOL    HW1 4775   6.988   5.571   2.758
 1292SOL    HW2 4776   0.071   5.457   2.798
 1293SOL     OW 4777   2.211   1.779   6.760
 1293SOL    HW1 4778   2.265   1.702   6.794
 1293SOL    HW2 4779   2.199   1.769   6.661
 1294SOL     OW 4780   1.864   4.701   6.268
 1294SOL    HW1 4781   1.917   4.635   6.322
 1294SOL    HW2 4782   1.921   4.739   6.196
 1295SOL     OW 4783   0.244   3.498   0.949
 1295SOL    HW1 4784   0.344   3.499   0.942
 1295SOL    HW2 4785   0.204   3.495   0.857
 1296SOL     OW 4786   5.086   0.062   5.644
 1296SOL    HW1 4787   5.033   0.045   5.561
 1296SOL    HW2 4788   5.173   0.104   5.620
 1297SOL     OW 4789   0.991   7.021   2.863
 1297SOL    HW1 4790   0.996   0.088   2.900
 1297SOL    HW2 4791   1.054   7.013   2.785
 1298SOL     OW 4792   5.357   6.074   2.766
 1298SOL    HW1 4793   5.454   6.066   2.790
 1298SOL    HW2 4794   5.349   6.093   2.668
 1299SOL     OW 4795   2.208   3.195   4.341
 1299SOL    HW1 4796   2.233   3.143   4.260
 1299SOL    HW2 4797   2.211   3.136   4.421
 1300SOL     OW 4798   2.135   3.812   0.780
 1300SOL    HW1 4799   2.203   3.812   0.707
 1300SOL    HW2 4800   2.046   3.788   0.743
 1301SOL     OW 4801   0.855   0.666   1.544
 1301SOL    HW1 4802   0.793   0.588   1.554
 1301SOL    HW2 4803   0.829   0.737   1.610
 1302SOL     OW 4804   5.534   0.290   5.784
 1302SOL    HW1 4805   5.548   0.193   5.761
 1302SOL    HW2 4806   5.550   0.304   5.881
 1303SOL     OW 4807   3.836   6.532   1.943
 1303SOL    HW1 4808   3.873   6.594   2.012
 1303SOL    HW2 4809   3.782   6.585   1.877
 1304SOL     OW 4810   1.007   1.290   1.144
 1304SOL    HW1 4811   1.069   1.330   1.077
 1304SOL    HW2 4812   1.057   1.230   1.206
 1305SOL     OW 4813   5.140   4.623   6.216
 1305SOL    HW1 4814   5.058   4.649   6.267
 1305SOL    HW2 4815   5.194   4.705   6.197
 1306SOL     OW 4816   1.071   6.017   4.789
 1306SOL    HW1 4817   0.987   5.990   4.742
 1306SOL    HW2 4818   1.048   6.063   4.874
 1307SOL     OW 4819   1.641   3.133   3.886
 1307SOL    HW1 4820   1.572   3.204   3.879
 1307SOL    HW2 4821   1.732   3.173   3.880
 1308SOL     OW 4822   6.435   5.744   6.505
 1308SOL    HW1 4823   6.340   5.714   6.509
 1308SOL    HW2 4824   6.496   5.664   6.502
 1309SOL     OW 4825   5.085   4.810   5.793
 1309SOL    HW1 4826   5.174   4.791   5.751
 1309SOL    HW2 4827   5.070   4.746   5.869
 1310SOL     OW 4828   0.940   3.806   3.897
 1310SOL    HW1 4829   1.028   3.851   3.907
 1310SOL    HW2 4830   0.953   3.713   3.863
 1311SOL     OW 4831   6.209   5.838   6.971
 1311SOL    HW1 4832   6.282   5.863   0.008
 1311SOL    HW2 4833   6.219   5.742   6.944
 1312SOL     OW 4834   0.930   1.312   5.815
 1312SOL    HW1 4835   0.939   1.219   5.780
 1312SOL    HW2 4836   0.895   1.310   5.908
 1313SOL     OW 4837   6.133   4.867   3.539
 1313SOL    HW1 4838   6.181   4.943   3.495
 1313SOL    HW2 4839   6.054   4.902   3.589
 1314SOL     OW 4840   2.465   1.705   4.667
 1314SOL    HW1 4841   2.550   1.730   4.715
 1314SOL    HW2 4842   2.473   1.732   4.571
 1315SOL     OW 4843   6.839   0.866   3.764
 1315SOL    HW1 4844   6.816   0.940   3.700
 1315SOL    HW2 4845   6.793   0.782   3.736
 1316SOL     OW 4846   4.025   6.987   5.353
 1316SOL    HW1 4847   3.996   6.969   5.259
 1316SOL    HW2 4848   3.947   6.976   5.414
 1317SOL     OW 4849   2.570   3.826   6.165
 1317SOL    HW1 4850   2.655   3.775   6.177
 1317SOL    HW2 4851   2.525   3.796   6.081
 1318SOL     OW 4852   2.356   2.600   6.871
 1318SOL    HW1 4853   2.309   2.677   6.915
 1318SOL    HW2 4854   2.299   2.519   6.877
 1319SOL     OW 4855   0.028   6.091   0.319
 1319SOL    HW1 4856   6.957   6.091   0.345
 1319SOL    HW2 4857   0.037   6.062   0.224
 1320SOL     OW 4858   3.171   3.049   6.644
 1320SOL    HW1 4859   3.129   2.970   6.689
 1320SOL    HW2 4860   3.268   3.053   6.667
 1321SOL     OW 4861   4.803   1.804   6.704
 1321SOL    HW1 4862   4.804   1.794   6.605
 1321SOL    HW2 4863   4.871   1.873   6.731
 1322SOL     OW 4864   3.338   1.094   5.792
 1322SOL    HW1 4865   3.425   1.094   5.842
 1322SOL    HW2 4866   3.353   1.124   5.698
 1323SOL     OW 4867   3.349   6.997   0.466
 1323SOL    HW1 4868   3.355   0.066   0.434
 1323SOL    HW2 4869   3.405   6.985   0.548
 1324SOL     OW 4870   1.345   4.020   0.352
 1324SOL    HW1 4871   1.327   4.022   0.450
 1324SOL    HW2 4872   1.348   3.925   0.321
 1325SOL     OW 4873   2.865   6.009   5.501
 1325SOL    HW1 4874   2.884   6.064   5.419
 1325SOL    HW2 4875   2.800   5.937   5.478
 1326SOL     OW 4876   4.664   4.241   4.784
 1326SOL    HW1 4877   4.692   4.146   4.769
 1326SOL    HW2 4878   4.599   4.268   4.712
 1327SOL     OW 4879   0.626   6.929   1.046
 1327SOL    HW1 4880   0.706   6.892   1.092
 1327SOL    HW2 4881   0.565   6.970   1.113
 1328SOL     OW 4882   1.174   3.239   5.890
 1328SOL    HW1 4883   1.161   3.193   5.978
 1328SOL    HW2 4884   1.087   3.278   5.859
 1329SOL     OW 4885   0.582   1.864   2.897
 1329SOL    HW1 4886   0.526   1.910   2.829
 1329SOL    HW2 4887   0.538   1.871   2.987
 1330SOL     OW 4888   0.025   1.895   1.054
 1330SOL    HW1 4889   0.002   1.956   1.129
 1330SOL    HW2 4890   7.000   1.809   1.064
 1331SOL     OW 4891   5.026   2.276   2.544
 1331SOL    HW1 4892   4.959   2.342   2.578
 1331SOL    HW2 4893   5.016   2.190   2.595
 1332SOL     OW 4894   1.695   0.290   0.599
 1332SOL    HW1 4895   1.656   0.209   0.642
 1332SOL    HW2 4896   1.635   0.369   0.616
 1333SOL     OW 4897   3.732   4.021   3.015
 1333SOL    HW1 4898   3.787   4.019   2.931
 1333SOL    HW2 4899   3.695   3.930   3.032
 1334SOL     OW 4900   6.977   1.947   3.194
 1334SOL    HW1 4901   0.012   1.870   3.210
 1334SOL    HW2 4902   6.957   1.955   3.097
 1335SOL     OW 4903   1.873   3.359   1.635
 1335SOL    HW1 4904   1.935   3.411   1.577
 1335SOL    HW2 4905   1.914   3.270   1.656
 1336SOL     OW 4906   3.858   0.964   5.449
 1336SOL    HW1 4907   3.770   0.983   5.494
 1336SOL    HW2 4908   3.880   1.038   5.387
 1337SOL     OW 4909   6.552   1.318   3.074
 1337SOL    HW1 4910   6.598   1.397   3.034
 1337SOL    HW2 4911   6.483   1.283   3.011
 1338SOL     OW 4912   6.234   3.631   3.987
 1338SOL    HW1 4913   6.186   3.543   3.989
 1338SOL    HW2 4914   6.172   3.702   3.954
 1339SOL     OW 4915   0.352   0.373   7.025
 1339SOL    HW1 4916   0.367   0.277   7.001
 1339SOL    HW2 4917   0.339   0.427   6.941
 1340SOL     OW 4918   5.209   1.451   2.094
 1340SOL    HW1 4919   5.147   1.528   2.111
 1340SOL    HW2 4920   5.290   1.484   2.045
 1341SOL     OW 4921   4.572   6.916   0.283
 1341SOL    HW1 4922   4.510   6.859   0.229
 1341SOL    HW2 4923   4.591   6.872   0.370
 1342SOL     OW 4924   2.970   5.477   0.917
 1342SOL    HW1 4925   2.959   5.382   0.888
 1342SOL    HW2 4926   3.056   5.487   0.968
 1343SOL     OW 4927   5.594   5.134   2.885
 1343SOL    HW1 4928   5.502   5.166   2.862
 1343SOL    HW2 4929   5.606   5.041   2.849
 1344SOL     OW 4930   0.612   6.367   4.316
 1344SOL    HW1 4931   0.577   6.348   4.408
 1344SOL    HW2 4932   0.543   6.417   4.264
 1345SOL     OW 4933   0.515   5.096   1.830
 1345SOL    HW1 4934   0.419   5.086   1.804
 1345SOL    HW2 4935   0.572   5.092   1.748
 1346SOL     OW 4936   2.010   5.398   5.856
 1346SOL    HW1 4937   1.976   5.492   5.846
 1346SOL    HW2 4938   1.940   5.341   5.899
 1347SOL     OW 4939   1.653   0.366   5.821
 1347SOL    HW1 4940   1.725   0.424   5.782
 1347SOL    HW2 4941   1.691   0.276   5.844
 1348SOL     OW 4942   0.252   5.852   5.512
 1348SOL    HW1 4943   0.338   5.869   5.560
 1348SOL    HW2 4944   0.271   5.807   5.425
 1349SOL     OW 4945   5.469   2.844   3.831
 1349SOL    HW1 4946   5.405   2.843   3.754
 1349SOL    HW2 4947   5.509   2.935   3.840
 1350SOL     OW 4948   3.779   4.273   0.543
 1350SOL    HW1 4949   3.853   4.216   0.507
 1350SOL    HW2 4950   3.702   4.270   0.480
 1351SOL     OW 4951   6.040   1.980   3.828
 1351SOL    HW1 4952   6.060   1.887   3.861
 1351SOL    HW2 4953   5.999   1.974   3.737
 1352SOL     OW 4954   0.205   0.292   2.022
 1352SOL    HW1 4955   0.295   0.329   1.998
 1352SOL    HW2 4956   0.138   0.323   1.955
 1353SOL     OW 4957   0.448   1.976   0.573
 1353SOL    HW1 4958   0.357   2.010   0.599
 1353SOL    HW2 4959   0.462   1.885   0.610
 1354SOL     OW 4960   6.738   4.086   2.325
 1354SOL    HW1 4961   6.706   4.001   2.283
 1354SOL    HW2 4962   6.806   4.065   2.395
 1355SOL     OW 4963   5.782   3.324   4.100
 1355SOL    HW1 4964   5.842   3.294   4.025
 1355SOL    HW2 4965   5.734   3.407   4.072
 1356SOL     OW 4966   3.693   3.097   2.389
 1356SOL    HW1 4967   3.617   3.155   2.418
 1356SOL    HW2 4968   3.775   3.152   2.375
 1357SOL     OW 4969   6.696   3.520   6.151
 1357SOL    HW1 4970   6.663   3.483   6.064
 1357SOL    HW2 4971   6.625   3.510   6.221
 1358SOL     OW 4972   6.905   0.255   0.038
 1358SOL    HW1 4973   6.815   0.216   0.058
 1358SOL    HW2 4974   6.932   0.229   6.971
 1359SOL     OW 4975   6.123   4.385   1.435
 1359SOL    HW1 4976   6.214   4.376   1.476
 1359SOL    HW2 4977   6.102   4.482   1.422
 1360SOL     OW 4978   3.625   3.264   0.263
 1360SOL    HW1 4979   3.631   3.170   0.296
 1360SOL    HW2 4980   3.646   3.327   0.338
 1361SOL     OW 4981   0.187   4.773   4.905
 1361SOL    HW1 4982   0.176   4.777   4.806
 1361SOL    HW2 4983   0.159   4.683   4.939
 1362SOL     OW 4984   4.095   3.167   2.548
 1362SOL    HW1 4985   4.050   3.235   2.489
 1362SOL    HW2 4986   4.165   3.119   2.495
 1363SOL     OW 4987   6.870   5.534   5.379
 1363SOL    HW1 4988   6.816   5.612   5.413
 1363SOL    HW2 4989   6.829   5.449   5.410
 1364SOL     OW 4990   4.441   4.496   6.931
 1364SOL    HW1 4991   4.477   4.564   6.868
 1364SOL    HW2 4992   4.425   4.410   6.882
 1365SOL     OW 4993   0.758   3.985   6.267
 1365SOL    HW1 4994   0.710   3.949   6.187
 1365SOL    HW2 4995   0.698   3.981   6.347
 1366SOL     OW 4996   1.490   0.502   4.895
 1366SOL    HW1 4997   1.453   0.506   4.802
 1366SOL    HW2 4998   1.543   0.418   4.907
 1367SOL     OW 4999   1.445   1.724   2.640
 1367SOL    HW1 5000   1.448   1.820   2.670
 1367SOL    HW2 5001   1.424   1.666   2.718
 1368SOL     OW 5002   5.841   6.717   4.128
 1368SOL    HW1 5003   5.896   6.679   4.202
 1368SOL    HW2 5004   5.804   6.643   4.072
 1369SOL     OW 5005   0.619   6.495   3.256
 1369SOL    HW1 5006   0.682   6.508   3.180
 1369SOL    HW2 5007   0.668   6.507   3.342
 1370SOL     OW 5008   3.216   0.354   1.627
 1370SOL    HW1 5009   3.209   0.435   1.568
 1370SOL    HW2 5010   3.139   0.353   1.690
 1371SOL     OW 5011   3.980   0.580   5.997
 1371SOL    HW1 5012   4.047   0.652   5.981
 1371SOL    HW2 5013   3.888   0.619   6.000
 1372SOL     OW 5014   2.337   2.386   1.750
 1372SOL    HW1 5015   2.390   2.436   1.682
 1372SOL    HW2 5016   2.239   2.395   1.729
 1373SOL     OW 5017   0.299   5.309   1.089
 1373SOL    HW1 5018   0.388   5.311   1.136
 1373SOL    HW2 5019   0.250   5.226   1.116
 1374SOL     OW 5020   4.101   2.347   1.250
 1374SOL    HW1 5021   4.026   2.320   1.311
 1374SOL    HW2 5022   4.159   2.414   1.296
 1375SOL     OW 5023   0.118   4.901   6.315
 1375SOL    HW1 5024   0.068   4.939   6.237
 1375SOL    HW2 5025   0.140   4.806   6.297
 1376SOL     OW 5026   4.819   2.961   3.616
 1376SOL    HW1 5027   4.800   2.972   3.714
 1376SOL    HW2 5028   4.916   2.977   3.599
 1377SOL     OW 5029   0.168   4.928   5.357
 1377SOL    HW1 5030   0.197   4.836   5.381
 1377SOL    HW2 5031   0.133   4.929   5.263
 1378SOL     OW 5032   1.248   2.380   6.911
 1378SOL    HW1 5033   1.306   2.442   6.858
 1378SOL    HW2 5034   1.155   2.382   6.875
 1379SOL     OW 5035   3.699   6.489   2.888
 1379SOL    HW1 5036   3.645   6.477   2.805
 1379SOL    HW2 5037   3.789   6.448   2.874
 1380SOL     OW 5038   6.475   6.923   2.670
 1380SOL    HW1 5039   6.503   6.987   2.599
 1380SOL    HW2 5040   6.555   6.889   2.718
 1381SOL     OW 5041   6.228   2.305   6.968
 1381SOL    HW1 5042   6.320   2.341   6.955
 1381SOL    HW2 5043   6.230   2.231   0.010
 1382SOL     OW 5044   5.482   5.255   6.271
 1382SOL    HW1 5045   5.537   5.314   6.330
 1382SOL    HW2 5046   5.390   5.293   6.262
 1383SOL     OW 5047   1.650   0.655   0.292
 1383SOL    HW1 5048   1.674   0.580   0.354
 1383SOL    HW2 5049   1.564   0.696   0.321
 1384SOL     OW 5050   4.006   1.458   3.048
 1384SOL    HW1 5051   3.964   1.368   3.044
 1384SOL    HW2 5052   4.038   1.476   3.141
 1385SOL     OW 5053   6.551   2.747   2.806
 1385SOL    HW1 5054   6.565   2.832   2.756
 1385SOL    HW2 5055   6.471   2.754   2.865
 1386SOL     OW 5056   2.202   3.007   4.549
 1386SOL    HW1 5057   2.250   2.943   4.609
 1386SOL    HW2 5058   2.138   3.062   4.603
 1387SOL     OW 5059   3.526   0.462   4.748
 1387SOL    HW1 5060   3.496   0.551   4.714
 1387SOL    HW2 5061   3.541   0.401   4.670
 1388SOL     OW 5062   6.492   0.890   4.036
 1388SOL    HW1 5063   6.529   0.971   3.992
 1388SOL    HW2 5064   6.519   0.809   3.984
 1389SOL     OW 5065   6.006   0.191   4.600
 1389SOL    HW1 5066   5.982   0.103   4.559
 1389SOL    HW2 5067   6.053   0.176   4.686
 1390SOL     OW 5068   4.204   1.675   1.825
 1390SOL    HW1 5069   4.268   1.634   1.890
 1390SOL    HW2 5070   4.246   1.755   1.782
 1391SOL     OW 5071   5.726   0.724   4.481
 1391SOL    HW1 5072   5.807   0.685   4.524
 1391SOL    HW2 5073   5.699   0.807   4.530
 1392SOL     OW 5074   5.171   5.951   6.201
 1392SOL    HW1 5075   5.152   5.984   6.109
 1392SOL    HW2 5076   5.089   5.910   6.241
 1393SOL     OW 5077   0.108   1.165   6.447
 1393SOL    HW1 5078   0.039   1.230   6.478
 1393SOL    HW2 5079   0.180   1.214   6.398
 1394SOL     OW 5080   4.475   6.818   3.738
 1394SOL    HW1 5081   4.433   6.752   3.676
 1394SOL    HW2 5082   4.440   6.804   3.831
 1395SOL     OW 5083   1.591   5.011   2.746
 1395SOL    HW1 5084   1.622   5.092   2.696
 1395SOL    HW2 5085   1.657   4.937   2.735
 1396SOL     OW 5086   2.358   1.174   4.478
 1396SOL    HW1 5087   2.291   1.241   4.444
 1396SOL    HW2 5088   2.442   1.222   4.505
 1397SOL     OW 5089   0.799   5.221   4.183
 1397SOL    HW1 5090   0.703   5.219   4.212
 1397SOL    HW2 5091   0.806   5.185   4.090
 1398SOL     OW 5092   0.620   1.695   1.037
 1398SOL    HW1 5093   0.639   1.658   1.127
 1398SOL    HW2 5094   0.693   1.668   0.974
 1399SOL     OW 5095   3.989   0.457   0.580
 1399SOL    HW1 5096   3.973   0.382   0.515
 1399SOL    HW2 5097   3.913   0.522   0.574
 1400SOL     OW 5098   6.354   0.486   4.095
 1400SOL    HW1 5099   6.383   0.505   4.189
 1400SOL    HW2 5100   6.254   0.487   4.090
 1401SOL     OW 5101   5.768   0.268   3.241
 1401SOL    HW1 5102   5.752   0.365   3.261
 1401SOL    HW2 5103   5.728   0.212   3.312
 1402SOL     OW 5104   6.058   3.840   1.857
 1402SOL    HW1 5105   6.135   3.799   1.808
 1402SOL    HW2 5106   6.067   3.940   1.856
 1403SOL     OW 5107   3.295   2.727   0.181
 1403SOL    HW1 5108   3.365   2.673   0.135
 1403SOL    HW2 5109   3.221   2.667   0.212
 1404SOL     OW 5110   4.435   6.806   1.185
 1404SOL    HW1 5111   4.404   6.723   1.230
 1404SOL    HW2 5112   4.361   6.874   1.184
 1405SOL     OW 5113   2.090   2.919   1.212
 1405SOL    HW1 5114   2.155   2.848   1.186
 1405SOL    HW2 5115   2.139   3.002   1.239
 1406SOL     OW 5116   2.809   3.132   1.007
 1406SOL    HW1 5117   2.880   3.203   1.008
 1406SOL    HW2 5118   2.845   3.048   1.046
 1407SOL     OW 5119   0.817   2.865   0.861
 1407SOL    HW1 5120   0.776   2.819   0.939
 1407SOL    HW2 5121   0.842   2.797   0.792
 1408SOL     OW 5122   6.120   5.984   6.682
 1408SOL    HW1 5123   6.204   6.038   6.671
 1408SOL    HW2 5124   6.081   6.003   6.772
 1409SOL     OW 5125   6.756   1.627   5.562
 1409SOL    HW1 5126   6.787   1.635   5.467
 1409SOL    HW2 5127   6.735   1.531   5.582
 1410SOL     OW 5128   3.505   2.346   6.376
 1410SOL    HW1 5129   3.426   2.286   6.386
 1410SOL    HW2 5130   3.587   2.291   6.359
 1411SOL     OW 5131   4.125   5.554   0.620
 1411SOL    HW1 5132   4.119   5.652   0.602
 1411SOL    HW2 5133   4.121   5.504   0.534
 1412SOL     OW 5134   2.069   2.721   0.666
 1412SOL    HW1 5135   1.978   2.701   0.703
 1412SOL    HW2 5136   2.060   2.753   0.572
 1413SOL     OW 5137   1.580   1.695   5.012
 1413SOL    HW1 5138   1.571   1.733   5.104
 1413SOL    HW2 5139   1.677   1.687   4.989
 1414SOL     OW 5140   0.975   3.823   2.084
 1414SOL    HW1 5141   0.987   3.913   2.041
 1414SOL    HW2 5142   1.009   3.827   2.178
 1415SOL     OW 5143   1.949   1.999   4.194
 1415SOL    HW1 5144   1.877   1.999   4.125
 1415SOL    HW2 5145   1.947   2.084   4.246
 1416SOL     OW 5146   4.122   0.206   5.429
 1416SOL    HW1 5147   4.057   0.249   5.492
 1416SOL    HW2 5148   4.092   0.114   5.407
 1417SOL     OW 5149   4.145   3.026   5.501
 1417SOL    HW1 5150   4.170   3.001   5.595
 1417SOL    HW2 5151   4.052   2.996   5.483
 1418SOL     OW 5152   3.597   4.391   6.350
 1418SOL    HW1 5153   3.590   4.311   6.291
 1418SOL    HW2 5154   3.514   4.446   6.342
 1419SOL     OW 5155   1.826   4.715   3.117
 1419SOL    HW1 5156   1.848   4.652   3.191
 1419SOL    HW2 5157   1.741   4.686   3.073
 1420SOL     OW 5158   3.242   5.781   3.173
 1420SOL    HW1 5159   3.206   5.805   3.083
 1420SOL    HW2 5160   3.250   5.864   3.229
 1421SOL     OW 5161   1.759   5.269   5.503
 1421SOL    HW1 5162   1.749   5.292   5.600
 1421SOL    HW2 5163   1.762   5.353   5.450
 1422SOL     OW 5164   2.455   3.743   5.908
 1422SOL    HW1 5165   2.508   3.737   5.824
 1422SOL    HW2 5166   2.426   3.651   5.935
 1423SOL     OW 5167   4.259   1.074   5.348
 1423SOL    HW1 5168   4.232   0.978   5.345
 1423SOL    HW2 5169   4.352   1.084   5.314
 1424SOL     OW 5170   5.387   2.733   6.581
 1424SOL    HW1 5171   5.448   2.703   6.654
 1424SOL    HW2 5172   5.296   2.693   6.595
 1425SOL     OW 5173   4.504   6.285   3.604
 1425SOL    HW1 5174   4.494   6.232   3.520
 1425SOL    HW2 5175   4.506   6.223   3.682
 1426SOL     OW 5176   3.132   2.376   6.950
 1426SOL    HW1 5177   3.133   2.308   6.877
 1426SOL    HW2 5178   3.043   2.374   6.995
 1427SOL     OW 5179   1.848   1.461   4.026
 1427SOL    HW1 5180   1.748   1.468   4.030
 1427SOL    HW2 5181   1.874   1.366   4.008
 1428SOL     OW 5182   0.173   3.776   3.596
 1428SOL    HW1 5183   0.153   3.874   3.602
 1428SOL    HW2 5184   0.090   3.727   3.567
 1429SOL     OW 5185   5.706   0.542   0.654
 1429SOL    HW1 5186   5.723   0.561   0.557
 1429SOL    HW2 5187   5.609   0.521   0.668
 1430SOL     OW 5188   1.802   3.753   3.368
 1430SOL    HW1 5189   1.842   3.820   3.431
 1430SOL    HW2 5190   1.856   3.752   3.283
 1431SOL     OW 5191   1.892   1.616   5.843
 1431SOL    HW1 5192   1.894   1.632   5.941
 1431SOL    HW2 5193   1.920   1.523   5.823
 1432SOL     OW 5194   3.128   1.652   2.241
 1432SOL    HW1 5195   3.042   1.625   2.199
 1432SOL    HW2 5196   3.147   1.592   2.320
 1433SOL     OW 5197   2.959   0.065   4.492
 1433SOL    HW1 5198   3.011   0.136   4.446
 1433SOL    HW2 5199   3.006   0.039   4.576
 1434SOL     OW 5200   0.653   3.148   0.096
 1434SOL    HW1 5201   0.608   3.095   0.025
 1434SOL    HW2 5202   0.585   3.198   0.149
 1435SOL     OW 5203   0.881   6.952   4.821
 1435SOL    HW1 5204   0.845   6.866   4.785
 1435SOL    HW2 5205   0.980   6.943   4.835
 1436SOL     OW 5206   5.667   1.712   0.846
 1436SOL    HW1 5207   5.743   1.739   0.906
 1436SOL    HW2 5208   5.585   1.763   0.872
 1437SOL     OW 5209   4.447   0.118   6.313
 1437SOL    HW1 5210   4.416   0.212   6.298
 1437SOL    HW2 5211   4.546   0.113   6.298
 1438SOL     OW 5212   2.449   0.352   1.802
 1438SOL    HW1 5213   2.437   0.445   1.767
 1438SOL    HW2 5214   2.546   0.327   1.798
 1439SOL     OW 5215   0.263   4.757   0.204
 1439SOL    HW1 5216   0.211   4.841   0.191
 1439SOL    HW2 5217   0.215   4.680   0.163
 1440SOL     OW 5218   2.967   3.355   3.725
 1440SOL    HW1 5219   2.883   3.350   3.672
 1440SOL    HW2 5220   2.987   3.451   3.747
 1441SOL     OW 5221   6.673   2.837   3.746
 1441SOL    HW1 5222   6.718   2.899   3.681
 1441SOL    HW2 5223   6.726   2.834   3.831
 1442SOL     OW 5224   4.810   4.486   0.404
 1442SOL    HW1 5225   4.881   4.427   0.443
 1442SOL    HW2 5226   4.743   4.430   0.356
 1443SOL     OW 5227   0.891   2.443   3.258
 1443SOL    HW1 5228   0.918   2.538   3.243
 1443SOL    HW2 5229   0.793   2.438   3.274
 1444SOL     OW 5230   4.411   0.803   3.455
 1444SOL    HW1 5231   4.343   0.865   3.415
 1444SOL    HW2 5232   4.436   0.835   3.546
 1445SOL     OW 5233   6.715   2.595   1.596
 1445SOL    HW1 5234   6.660   2.612   1.514
 1445SOL    HW2 5235   6.739   2.498   1.600
 1446SOL     OW 5236   4.054   0.929   1.313
 1446SOL    HW1 5237   3.963   0.963   1.337
 1446SOL    HW2 5238   4.074   0.847   1.366
 1447SOL     OW 5239   6.460   0.838   4.735
 1447SOL    HW1 5240   6.437   0.856   4.830
 1447SOL    HW2 5241   6.520   0.759   4.729
 1448SOL     OW 5242   5.358   0.911   6.813
 1448SOL    HW1 5243   5.322   1.004   6.821
 1448SOL    HW2 5244   5.282   0.848   6.797
 1449SOL     OW 5245   5.082   5.944   0.954
 1449SOL    HW1 5246   4.990   5.912   0.974
 1449SOL    HW2 5247   5.080   6.000   0.870
 1450SOL     OW 5248   5.655   2.814   3.093
 1450SOL    HW1 5249   5.578   2.780   3.146
 1450SOL    HW2 5250   5.639   2.795   2.996
 1451SOL     OW 5251   1.399   6.500   3.035
 1451SOL    HW1 5252   1.402   6.558   2.954
 1451SOL    HW2 5253   1.329   6.430   3.022
 1452SOL     OW 5254   4.399   1.154   5.649
 1452SOL    HW1 5255   4.488   1.192   5.625
 1452SOL    HW2 5256   4.327   1.204   5.601
 1453SOL     OW 5257   5.469   4.663   4.903
 1453SOL    HW1 5258   5.436   4.596   4.970
 1453SOL    HW2 5259   5.527   4.730   4.948
 1454SOL     OW 5260   4.591   3.786   1.272
 1454SOL    HW1 5261   4.499   3.784   1.311
 1454SOL    HW2 5262   4.586   3.799   1.173
 1455SOL     OW 5263   1.686   2.046   1.741
 1455SOL    HW1 5264   1.645   2.110   1.676
 1455SOL    HW2 5265   1.631   1.962   1.744
 1456SOL     OW 5266   6.199   6.574   4.077
 1456SOL    HW1 5267   6.250   6.499   4.035
 1456SOL    HW2 5268   6.255   6.657   4.077
 1457SOL     OW 5269   1.602   0.489   3.117
 1457SOL    HW1 5270   1.672   0.422   3.143
 1457SOL    HW2 5271   1.511   0.448   3.123
 1458SOL     OW 5272   5.682   5.791   6.513
 1458SOL    HW1 5273   5.702   5.781   6.611
 1458SOL    HW2 5274   5.667   5.701   6.473
 1459SOL     OW 5275   2.151   6.428   6.478
 1459SOL    HW1 5276   2.141   6.388   6.569
 1459SOL    HW2 5277   2.100   6.514   6.473
 1460SOL     OW 5278   1.601   0.287   6.943
 1460SOL    HW1 5279   1.651   0.368   6.974
 1460SOL    HW2 5280   1.562   0.304   6.852
 1461SOL     OW 5281   5.407   4.548   1.894
 1461SOL    HW1 5282   5.490   4.524   1.945
 1461SOL    HW2 5283   5.330   4.554   1.957
 1462SOL     OW 5284   5.747   1.305   0.002
 1462SOL    HW1 5285   5.826   1.317   0.062
 1462SOL    HW2 5286   5.715   1.210   0.008
 1463SOL     OW 5287   0.882   0.809   5.043
 1463SOL    HW1 5288   0.857   0.818   5.139
 1463SOL    HW2 5289   0.969   0.760   5.035
 1464SOL     OW 5290   0.191   6.497   0.987
 1464SOL    HW1 5291   0.199   6.399   0.968
 1464SOL    HW2 5292   0.193   6.512   1.086
 1465SOL     OW 5293   0.193   6.972   4.963
 1465SOL    HW1 5294   0.256   7.017   4.899
 1465SOL    HW2 5295   0.178   6.877   4.934
 1466SOL     OW 5296   5.565   4.732   3.361
 1466SOL    HW1 5297   5.600   4.716   3.454
 1466SOL    HW2 5298   5.472   4.770   3.367
 1467SOL     OW 5299   0.891   2.081   3.066
 1467SOL    HW1 5300   0.801   2.114   3.095
 1467SOL    HW2 5301   0.880   2.017   2.990
 1468SOL     OW 5302   5.564   6.167   3.364
 1468SOL    HW1 5303   5.504   6.135   3.291
 1468SOL    HW2 5304   5.577   6.094   3.431
 1469SOL     OW 5305   0.980   1.352   2.434
 1469SOL    HW1 5306   0.940   1.386   2.349
 1469SOL    HW2 5307   0.912   1.356   2.507
 1470SOL     OW 5308   1.045   1.082   2.863
 1470SOL    HW1 5309   0.990   1.132   2.795
 1470SOL    HW2 5310   1.131   1.131   2.878
 1471SOL     OW 5311   0.660   0.162   0.032
 1471SOL    HW1 5312   0.674   0.141   0.129
 1471SOL    HW2 5313   0.565   0.188   0.016
 1472SOL     OW 5314   4.512   0.427   5.979
 1472SOL    HW1 5315   4.485   0.399   5.886
 1472SOL    HW2 5316   4.587   0.368   6.010
 1473SOL     OW 5317   6.117   3.846   3.360
 1473SOL    HW1 5318   6.154   3.854   3.268
 1473SOL    HW2 5319   6.192   3.844   3.426
 1474SOL     OW 5320   4.526   5.523   4.400
 1474SOL    HW1 5321   4.539   5.432   4.361
 1474SOL    HW2 5322   4.611   5.554   4.442
 1475SOL     OW 5323   0.221   1.406   3.122
 1475SOL    HW1 5324   0.204   1.317   3.081
 1475SOL    HW2 5325   0.256   1.394   3.215
 1476SOL     OW 5326   0.106   1.958   1.962
 1476SOL    HW1 5327   0.119   2.048   2.004
 1476SOL    HW2 5328   0.018   1.955   1.915
 1477SOL     OW 5329   2.990   5.963   4.724
 1477SOL    HW1 5330   3.059   5.922   4.784
 1477SOL    HW2 5331   2.972   5.901   4.647
 1478SOL     OW 5332   6.342   4.070   0.258
 1478SOL    HW1 5333   6.357   4.156   0.209
 1478SOL    HW2 5334   6.383   4.075   0.349
 1479SOL     OW 5335   1.652   4.921   0.221
 1479SOL    HW1 5336   1.588   4.910   0.144
 1479SOL    HW2 5337   1.605   4.897   0.306
 1480SOL     OW 5338   2.753   0.796   0.375
 1480SOL    HW1 5339   2.734   0.873   0.314
 1480SOL    HW2 5340   2.806   0.828   0.453
 1481SOL     OW 5341   5.766   2.483   6.277
 1481SOL    HW1 5342   5.837   2.421   6.241
 1481SOL    HW2 5343   5.767   2.480   6.377
 1482SOL     OW 5344   6.336   0.314   6.595
 1482SOL    HW1 5345   6.260   0.318   6.531
 1482SOL    HW2 5346   6.340   0.400   6.647
 1483SOL     OW 5347   6.064   1.799   0.300
 1483SOL    HW1 5348   6.030   1.734   0.368
 1483SOL    HW2 5349   6.060   1.757   0.209
 1484SOL     OW 5350   6.571   5.261   2.795
 1484SOL    HW1 5351   6.487   5.313   2.782
 1484SOL    HW2 5352   6.549   5.169   2.828
 1485SOL     OW 5353   5.280   2.441   3.776
 1485SOL    HW1 5354   5.284   2.524   3.832
 1485SOL    HW2 5355   5.285   2.466   3.679
 1486SOL     OW 5356   4.628   2.214   2.408
 1486SOL    HW1 5357   4.631   2.122   2.368
 1486SOL    HW2 5358   4.614   2.206   2.507
 1487SOL     OW 5359   6.282   1.227   5.410
 1487SOL    HW1 5360   6.210   1.205   5.475
 1487SOL    HW2 5361   6.263   1.316   5.368
 1488SOL     OW 5362   4.769   1.782   2.868
 1488SOL    HW1 5363   4.700   1.714   2.845
 1488SOL    HW2 5364   4.724   1.861   2.910
 1489SOL     OW 5365   3.815   5.537   5.183
 1489SOL    HW1 5366   3.869   5.528   5.267
 1489SOL    HW2 5367   3.759   5.455   5.171
 1490SOL     OW 5368   1.739   2.644   0.479
 1490SOL    HW1 5369   1.801   2.605   0.548
 1490SOL    HW2 5370   1.762   2.607   0.389
 1491SOL     OW 5371   6.809   3.015   3.952
 1491SOL    HW1 5372   6.897   2.990   3.991
 1491SOL    HW2 5373   6.814   3.107   3.913
 1492SOL     OW 5374   5.008   2.106   1.395
 1492SOL    HW1 5375   5.030   2.200   1.422
 1492SOL    HW2 5376   4.911   2.100   1.372
 1493SOL     OW 5377   5.028   6.978   5.374
 1493SOL    HW1 5378   5.063   0.017   5.306
 1493SOL    HW2 5379   4.941   6.941   5.342
 1494SOL     OW 5380   4.188   2.459   6.150
 1494SOL    HW1 5381   4.206   2.509   6.235
 1494SOL    HW2 5382   4.274   2.445   6.101
 1495SOL     OW 5383   1.669   3.044   2.554
 1495SOL    HW1 5384   1.658   3.143   2.560
 1495SOL    HW2 5385   1.669   3.004   2.646
 1496SOL     OW 5386   0.777   7.005   2.651
 1496SOL    HW1 5387   0.848   0.003   2.716
 1496SOL    HW2 5388   0.687   7.024   2.690
 1497SOL     OW 5389   6.207   5.110   4.564
 1497SOL    HW1 5390   6.122   5.138   4.518
 1497SOL    HW2 5391   6.191   5.026   4.615
 1498SOL     OW 5392   2.320   5.603   6.988
 1498SOL    HW1 5393   2.271   5.519   6.964
 1498SOL    HW2 5394   2.311   5.619   0.061
 1499SOL     OW 5395   1.452   3.707   5.402
 1499SOL    HW1 5396   1.449   3.727   5.304
 1499SOL    HW2 5397   1.396   3.775   5.451
 1500SOL     OW 5398   4.985   6.690   6.812
 1500SOL    HW1 5399   4.988   6.617   6.743
 1500SOL    HW2 5400   4.897   6.686   6.861
 1501SOL     OW 5401   3.868   6.796   5.958
 1501SOL    HW1 5402   3.869   6.775   6.056
 1501SOL    HW2 5403   3.819   6.881   5.942
 1502SOL     OW 5404   6.491   6.658   0.544
 1502SOL    HW1 5405   6.429   6.592   0.502
 1502SOL    HW2 5406   6.532   6.618   0.626
 1503SOL     OW 5407   3.442   2.835   6.405
 1503SOL    HW1 5408   3.486   2.925   6.412
 1503SOL    HW2 5409   3.351   2.838   6.445
 1504SOL     OW 5410   3.376   6.334   4.967
 1504SOL    HW1 5411   3.393   6.341   4.869
 1504SOL    HW2 5412   3.353   6.240   4.992
 1505SOL     OW 5413   5.738   5.741   6.793
 1505SOL    HW1 5414   5.810   5.677   6.766
 1505SOL    HW2 5415   5.666   5.691   6.842
 1506SOL     OW 5416   0.663   6.148   4.752
 1506SOL    HW1 5417   0.639   6.064   4.800
 1506SOL    HW2 5418   0.753   6.137   4.708
 1507SOL     OW 5419   1.956   1.575   5.312
 1507SOL    HW1 5420   1.934   1.514   5.236
 1507SOL    HW2 5421   1.917   1.665   5.294
 1508SOL     OW 5422   5.075   6.982   0.616
 1508SOL    HW1 5423   4.987   6.936   0.626
 1508SOL    HW2 5424   5.083   7.017   0.523
 1509SOL     OW 5425   4.571   2.881   0.631
 1509SOL    HW1 5426   4.641   2.934   0.583
 1509SOL    HW2 5427   4.550   2.924   0.718
 1510SOL     OW 5428   6.812   1.862   3.808
 1510SOL    HW1 5429   6.891   1.815   3.768
 1510SOL    HW2 5430   6.829   1.879   3.906
 1511SOL     OW 5431   2.624   3.391   0.889
 1511SOL    HW1 5432   2.676   3.322   0.940
 1511SOL    HW2 5433   2.680   3.427   0.815
 1512SOL     OW 5434   0.146   1.185   1.957
 1512SOL    HW1 5435   0.060   1.157   1.915
 1512SOL    HW2 5436   0.221   1.169   1.894
 1513SOL     OW 5437   3.396   1.000   3.437
 1513SOL    HW1 5438   3.363   0.915   3.397
 1513SOL    HW2 5439   3.391   1.073   3.369
 1514SOL     OW 5440   5.695   1.370   4.787
 1514SOL    HW1 5441   5.660   1.313   4.713
 1514SOL    HW2 5442   5.769   1.323   4.833
 1515SOL     OW 5443   0.191   4.695   4.627
 1515SOL    HW1 5444   0.129   4.726   4.556
 1515SOL    HW2 5445   0.284   4.692   4.591
 1516SOL     OW 5446   0.548   1.393   0.627
 1516SOL    HW1 5447   0.537   1.346   0.715
 1516SOL    HW2 5448   0.564   1.491   0.643
 1517SOL     OW 5449   4.841   5.783   3.677
 1517SOL    HW1 5450   4.889   5.744   3.598
 1517SOL    HW2 5451   4.761   5.726   3.699
 1518SOL     OW 5452   0.162   4.057   0.993
 1518SOL    HW1 5453   0.184   3.980   0.933
 1518SOL    HW2 5454   0.246   4.096   1.030
 1519SOL     OW 5455   5.988   4.529   0.073
 1519SOL    HW1 5456   5.935   4.553   7.018
 1519SOL    HW2 5457   6.085   4.524   0.050
 1520SOL     OW 5458   1.810   3.508   3.005
 1520SOL    HW1 5459   1.870   3.545   2.934
 1520SOL    HW2 5460   1.847   3.530   3.095
 1521SOL     OW 5461   2.621   3.770   6.655
 1521SOL    HW1 5462   2.704   3.792   6.708
 1521SOL    HW2 5463   2.542   3.772   6.716
 1522SOL     OW 5464   5.798   1.737   6.834
 1522SOL    HW1 5465   5.717   1.696   6.874
 1522SOL    HW2 5466   5.874   1.672   6.836
 1523SOL     OW 5467   6.918   2.216   1.187
 1523SOL    HW1 5468   6.924   2.288   1.256
 1523SOL    HW2 5469   6.973   2.242   1.108
 1524SOL     OW 5470   0.089   1.093   2.192
 1524SOL    HW1 5471   0.121   1.122   2.102
 1524SOL    HW2 5472   0.078   0.994   2.194
 1525SOL     OW 5473   4.567   1.890   6.543
 1525SOL    HW1 5474   4.638   1.840   6.491
 1525SOL    HW2 5475   4.610   1.958   6.602
 1526SOL     OW 5476   6.885   2.839   1.570
 1526SOL    HW1 5477   6.912   2.818   1.475
 1526SOL    HW2 5478   6.804   2.785   1.593
 1527SOL     OW 5479   3.375   1.936   5.734
 1527SOL    HW1 5480   3.422   1.850   5.716
 1527SOL    HW2 5481   3.278   1.918   5.753
 1528SOL     OW 5482   5.033   6.021   3.552
 1528SOL    HW1 5483   5.050   6.117   3.575
 1528SOL    HW2 5484   4.944   6.013   3.506
 1529SOL     OW 5485   3.477   0.133   5.703
 1529SOL    HW1 5486   3.432   0.066   5.644
 1529SOL    HW2 5487   3.410   0.201   5.733
 1530SOL     OW 5488   3.669   6.701   2.178
 1530SOL    HW1 5489   3.701   6.789   2.143
 1530SOL    HW2 5490   3.582   6.714   2.225
 1531SOL     OW 5491   6.165   0.141   4.815
 1531SOL    HW1 5492   6.172   0.101   4.906
 1531SOL    HW2 5493   6.255   0.143   4.773
 1532SOL     OW 5494   3.361   2.281   5.392
 1532SOL    HW1 5495   3.318   2.279   5.482
 1532SOL    HW2 5496   3.308   2.340   5.331
 1533SOL     OW 5497   6.138   3.109   6.646
 1533SOL    HW1 5498   6.089   3.035   6.691
 1533SOL    HW2 5499   6.074   3.164   6.593
 1534SOL     OW 5500   0.137   6.050   1.545
 1534SOL    HW1 5501   0.076   5.976   1.517
 1534SOL    HW2 5502   0.164   6.036   1.640
 1535SOL     OW 5503   4.440   5.075   3.995
 1535SOL    HW1 5504   4.342   5.054   3.997
 1535SOL    HW2 5505   4.468   5.110   4.084
 1536SOL     OW 5506   2.981   5.629   5.051
 1536SOL    HW1 5507   3.031   5.670   4.975
 1536SOL    HW2 5508   3.038   5.559   5.094
 1537SOL     OW 5509   1.866   5.474   4.475
 1537SOL    HW1 5510   1.796   5.456   4.545
 1537SOL    HW2 5511   1.872   5.396   4.414
 1538SOL     OW 5512   2.518   5.465   6.879
 1538SOL    HW1 5513   2.473   5.401   6.816
 1538SOL    HW2 5514   2.451   5.526   6.919
 1539SOL     OW 5515   3.571   4.560   1.610
 1539SOL    HW1 5516   3.631   4.480   1.610
 1539SOL    HW2 5517   3.576   4.605   1.699
 1540SOL     OW 5518   0.964   0.297   4.989
 1540SOL    HW1 5519   0.882   0.308   5.045
 1540SOL    HW2 5520   0.979   0.199   4.974
 1541SOL     OW 5521   4.964   2.441   0.970
 1541SOL    HW1 5522   4.953   2.450   1.069
 1541SOL    HW2 5523   4.898   2.499   0.924
 1542SOL     OW 5524   0.760   6.886   1.560
 1542SOL    HW1 5525   0.703   6.968   1.550
 1542SOL    HW2 5526   0.832   6.904   1.627
 1543SOL     OW 5527   3.567   3.940   3.992
 1543SOL    HW1 5528   3.476   3.903   3.976
 1543SOL    HW2 5529   3.583   3.948   4.091
 1544SOL     OW 5530   3.185   4.090   2.727
 1544SOL    HW1 5531   3.213   4.112   2.633
 1544SOL    HW2 5532   3.242   4.016   2.762
 1545SOL     OW 5533   5.530   0.158   5.068
 1545SOL    HW1 5534   5.478   0.222   5.010
 1545SOL    HW2 5535   5.604   0.118   5.014
 1546SOL     OW 5536   6.670   6.448   6.373
 1546SOL    HW1 5537   6.750   6.391   6.388
 1546SOL    HW2 5538   6.629   6.426   6.285
 1547SOL     OW 5539   3.000   5.868   1.419
 1547SOL    HW1 5540   2.929   5.861   1.490
 1547SOL    HW2 5541   3.022   5.965   1.404
 1548SOL     OW 5542   4.817   4.031   4.696
 1548SOL    HW1 5543   4.804   3.966   4.771
 1548SOL    HW2 5544   4.915   4.048   4.685
 1549SOL     OW 5545   6.776   2.014   1.270
 1549SOL    HW1 5546   6.835   2.088   1.239
 1549SOL    HW2 5547   6.738   1.967   1.190
 1550SOL     OW 5548   2.132   5.648   4.051
 1550SOL    HW1 5549   2.120   5.549   4.054
 1550SOL    HW2 5550   2.056   5.692   4.099
 1551SOL     OW 5551   1.971   2.482   0.507
 1551SOL    HW1 5552   2.032   2.550   0.549
 1551SOL    HW2 5553   2.025   2.413   0.460
 1552SOL     OW 5554   1.085   0.836   1.099
 1552SOL    HW1 5555   1.027   0.824   1.180
 1552SOL    HW2 5556   1.028   0.856   1.020
 1553SOL     OW 5557   5.989   1.680   6.122
 1553SOL    HW1 5558   5.991   1.760   6.183
 1553SOL    HW2 5559   6.062   1.617   6.149
 1554SOL     OW 5560   4.137   1.981   1.901
 1554SOL    HW1 5561   4.093   2.065   1.934
 1554SOL    HW2 5562   4.138   1.983   1.801
 1555SOL     OW 5563   3.509   1.718   5.688
 1555SOL    HW1 5564   3.464   1.630   5.703
 1555SOL    HW2 5565   3.570   1.711   5.609
 1556SOL     OW 5566   3.837   1.027   0.857
 1556SOL    HW1 5567   3.751   1.016   0.808
 1556SOL    HW2 5568   3.913   1.009   0.795
 1557SOL     OW 5569   1.819   2.026   1.215
 1557SOL    HW1 5570   1.854   1.944   1.170
 1557SOL    HW2 5571   1.896   2.086   1.239
 1558SOL     OW 5572   6.277   3.369   6.011
 1558SOL    HW1 5573   6.203   3.389   5.947
 1558SOL    HW2 5574   6.294   3.448   6.069
 1559SOL     OW 5575   1.540   4.613   3.085
 1559SOL    HW1 5576   1.535   4.589   3.182
 1559SOL    HW2 5577   1.571   4.533   3.033
 1560SOL     OW 5578   3.861   1.232   1.486
 1560SOL    HW1 5579   3.799   1.263   1.558
 1560SOL    HW2 5580   3.845   1.286   1.404
 1561SOL     OW 5581   6.043   5.816   1.678
 1561SOL    HW1 5582   5.957   5.862   1.700
 1561SOL    HW2 5583   6.057   5.817   1.579
 1562SOL     OW 5584   3.412   6.761   2.268
 1562SOL    HW1 5585   3.344   6.834   2.265
 1562SOL    HW2 5586   3.389   6.690   2.201
 1563SOL     OW 5587   3.908   2.167   4.272
 1563SOL    HW1 5588   3.910   2.134   4.177
 1563SOL    HW2 5589   3.999   2.200   4.298
 1564SOL     OW 5590   1.427   2.388   2.448
 1564SOL    HW1 5591   1.378   2.344   2.372
 1564SOL    HW2 5592   1.463   2.476   2.418
 1565SOL     OW 5593   3.790   0.646   4.067
 1565SOL    HW1 5594   3.884   0.625   4.097
 1565SOL    HW2 5595   3.745   0.562   4.038
 1566SOL     OW 5596   4.500   4.435   2.830
 1566SOL    HW1 5597   4.567   4.371   2.793
 1566SOL    HW2 5598   4.462   4.490   2.755
 1567SOL     OW 5599   4.869   6.294   5.127
 1567SOL    HW1 5600   4.772   6.308   5.145
 1567SOL    HW2 5601   4.916   6.269   5.212
 1568SOL     OW 5602   2.623   6.226   2.852
 1568SOL    HW1 5603   2.665   6.175   2.927
 1568SOL    HW2 5604   2.531   6.192   2.836
 1569SOL     OW 5605   2.629   6.835   3.710
 1569SOL    HW1 5606   2.689   6.866   3.785
 1569SOL    HW2 5607   2.555   6.901   3.697
 1570SOL     OW 5608   3.635   6.898   0.045
 1570SOL    HW1 5609   3.584   6.844   7.004
 1570SOL    HW2 5610   3.725   6.921   0.008
 1571SOL     OW 5611   1.047   2.837   3.889
 1571SOL    HW1 5612   1.146   2.824   3.879
 1571SOL    HW2 5613   1.018   2.803   3.978
 1572SOL     OW 5614   1.910   4.468   1.710
 1572SOL    HW1 5615   1.885   4.466   1.613
 1572SOL    HW2 5616   1.828   4.457   1.766
 1573SOL     OW 5617   5.121   5.055   0.690
 1573SOL    HW1 5618   5.175   5.067   0.773
 1573SOL    HW2 5619   5.105   5.144   0.647
 1574SOL     OW 5620   6.925   3.631   2.811
 1574SOL    HW1 5621   6.922   3.549   2.752
 1574SOL    HW2 5622   6.921   3.713   2.753
 1575SOL     OW 5623   0.406   1.015   0.465
 1575SOL    HW1 5624   0.343   1.010   0.387
 1575SOL    HW2 5625   0.499   0.998   0.434
 1576SOL     OW 5626   0.339   6.679   2.479
 1576SOL    HW1 5627   0.297   6.720   2.560
 1576SOL    HW2 5628   0.343   6.746   2.405
 1577SOL     OW 5629   4.703   0.201   6.016
 1577SOL    HW1 5630   4.776   0.145   6.056
 1577SOL    HW2 5631   4.726   0.220   5.920
 1578SOL     OW 5632   5.369   1.061   0.192
 1578SOL    HW1 5633   5.418   1.000   0.130
 1578SOL    HW2 5634   5.274   1.032   0.199
 1579SOL     OW 5635   1.609   2.809   1.372
 1579SOL    HW1 5636   1.704   2.840   1.363
 1579SOL    HW2 5637   1.569   2.800   1.281
 1580SOL     OW 5638   3.568   3.807   3.155
 1580SOL    HW1 5639   3.615   3.723   3.128
 1580SOL    HW2 5640   3.489   3.784   3.212
 1581SOL     OW 5641   7.017   4.338   5.786
 1581SOL    HW1 5642   6.998   4.349   5.688
 1581SOL    HW2 5643   0.015   4.243   5.805
 1582SOL     OW 5644   4.876   6.518   5.593
 1582SOL    HW1 5645   4.870   6.472   5.682
 1582SOL    HW2 5646   4.952   6.481   5.541
 1583SOL     OW 5647   1.283   5.727   5.397
 1583SOL    HW1 5648   1.309   5.813   5.352
 1583SOL    HW2 5649   1.293   5.652   5.333
 1584SOL     OW 5650   0.532   5.055   6.626
 1584SOL    HW1 5651   0.439   5.055   6.664
 1584SOL    HW2 5652   0.561   4.961   6.608
 1585SOL     OW 5653   4.101   0.185   3.063
 1585SOL    HW1 5654   4.034   0.176   3.136
 1585SOL    HW2 5655   4.115   0.095   3.021
 1586SOL     OW 5656   2.802   5.660   4.097
 1586SOL    HW1 5657   2.837   5.571   4.068
 1586SOL    HW2 5658   2.860   5.697   4.170
 1587SOL     OW 5659   2.433   6.336   5.764
 1587SOL    HW1 5660   2.390   6.341   5.855
 1587SOL    HW2 5661   2.438   6.240   5.735
 1588SOL     OW 5662   5.723   0.168   2.632
 1588SOL    HW1 5663   5.674   0.086   2.662
 1588SOL    HW2 5664   5.744   0.161   2.535
 1589SOL     OW 5665   6.815   4.504   3.451
 1589SOL    HW1 5666   6.824   4.491   3.352
 1589SOL    HW2 5667   6.727   4.467   3.482
 1590SOL     OW 5668   0.012   1.354   3.390
 1590SOL    HW1 5669   0.044   1.448   3.403
 1590SOL    HW2 5670   7.019   1.338   3.294
 1591SOL     OW 5671   0.648   5.998   2.004
 1591SOL    HW1 5672   0.714   5.929   1.972
 1591SOL    HW2 5673   0.582   5.954   2.065
 1592SOL     OW 5674   0.927   3.964   0.080
 1592SOL    HW1 5675   0.908   3.974   7.008
 1592SOL    HW2 5676   0.889   3.877   0.112
 1593SOL     OW 5677   1.296   0.735   6.859
 1593SOL    HW1 5678   1.294   0.826   6.900
 1593SOL    HW2 5679   1.267   0.740   6.763
 1594SOL     OW 5680   6.652   0.493   1.653
 1594SOL    HW1 5681   6.604   0.571   1.691
 1594SOL    HW2 5682   6.657   0.420   1.721
 1595SOL     OW 5683   0.786   4.352   6.894
 1595SOL    HW1 5684   0.695   4.319   6.919
 1595SOL    HW2 5685   0.782   4.395   6.804
 1596SOL     OW 5686   5.922   4.499   1.948
 1596SOL    HW1 5687   5.999   4.539   1.899
 1596SOL    HW2 5688   5.875   4.433   1.889
 1597SOL     OW 5689   3.565   6.324   0.324
 1597SOL    HW1 5690   3.515   6.330   0.237
 1597SOL    HW2 5691   3.520   6.382   0.392
 1598SOL     OW 5692   1.284   5.452   6.589
 1598SOL    HW1 5693   1.335   5.481   6.508
 1598SOL    HW2 5694   1.341   5.464   6.670
 1599SOL     OW 5695   4.459   4.776   3.635
 1599SOL    HW1 5696   4.485   4.784   3.731
 1599SOL    HW2 5697   4.493   4.856   3.585
 1600SOL     OW 5698   3.458   0.084   2.824
 1600SOL    HW1 5699   3.442   0.163   2.883
 1600SOL    HW2 5700   3.526   0.107   2.754
 1601SOL     OW 5701   5.700   6.275   3.861
 1601SOL    HW1 5702   5.708   6.373   3.879
 1601SOL    HW2 5703   5.767   6.225   3.916
 1602SOL     OW 5704   4.566   5.329   3.640
 1602SOL    HW1 5705   4.498   5.276   3.590
 1602SOL    HW2 5706   4.560   5.308   3.737
 1603SOL     OW 5707   2.989   5.594   3.812
 1603SOL    HW1 5708   2.976   5.545   3.899
 1603SOL    HW2 5709   2.909   5.650   3.793
 1604SOL     OW 5710   3.817   4.904   2.228
 1604SOL    HW1 5711   3.762   4.872   2.150
 1604SOL    HW2 5712   3.760   4.909   2.310
 1605SOL     OW 5713   4.759   4.886   1.323
 1605SOL    HW1 5714   4.699   4.811   1.351
 1605SOL    HW2 5715   4.814   4.916   1.400
 1606SOL     OW 5716   4.099   6.184   4.902
 1606SOL    HW1 5717   4.039   6.264   4.892
 1606SOL    HW2 5718   4.047   6.108   4.940
 1607SOL     OW 5719   4.857   5.756   3.018
 1607SOL    HW1 5720   4.860   5.802   2.930
 1607SOL    HW2 5721   4.936   5.783   3.073
 1608SOL     OW 5722   6.264   0.562   2.887
 1608SOL    HW1 5723   6.209   0.646   2.885
 1608SOL    HW2 5724   6.206   0.484   2.862
 1609SOL     OW 5725   3.242   6.386   1.057
 1609SOL    HW1 5726   3.276   6.344   1.141
 1609SOL    HW2 5727   3.148   6.416   1.070
 1610SOL     OW 5728   4.840   0.203   0.204
 1610SOL    HW1 5729   4.894   0.284   0.228
 1610SOL    HW2 5730   4.821   0.204   0.106
 1611SOL     OW 5731   1.022   3.685   1.082
 1611SOL    HW1 5732   1.056   3.592   1.070
 1611SOL    HW2 5733   1.090   3.751   1.051
 1612SOL     OW 5734   3.556   6.397   1.502
 1612SOL    HW1 5735   3.536   6.319   1.561
 1612SOL    HW2 5736   3.494   6.472   1.523
 1613SOL     OW 5737   7.018   5.792   2.501
 1613SOL    HW1 5738   6.970   5.722   2.554
 1613SOL    HW2 5739   7.000   5.778   2.403
 1614SOL     OW 5740   6.135   2.826   6.170
 1614SOL    HW1 5741   6.066   2.863   6.231
 1614SOL    HW2 5742   6.215   2.798   6.223
 1615SOL     OW 5743   0.824   5.290   6.332
 1615SOL    HW1 5744   0.836   5.368   6.394
 1615SOL    HW2 5745   0.734   5.249   6.348
 1616SOL     OW 5746   2.313   1.486   4.724
 1616SOL    HW1 5747   2.346   1.579   4.739
 1616SOL    HW2 5748   2.258   1.457   4.803
 1617SOL     OW 5749   5.236   6.296   3.465
 1617SOL    HW1 5750   5.296   6.216   3.458
 1617SOL    HW2 5751   5.147   6.274   3.426
 1618SOL     OW 5752   2.894   5.974   3.109
 1618SOL    HW1 5753   2.887   5.882   3.071
 1618SOL    HW2 5754   2.934   5.971   3.200
 1619SOL     OW 5755   1.038   4.980   7.012
 1619SOL    HW1 5756   1.114   5.003   0.046
 1619SOL    HW2 5757   0.980   4.911   0.030
 1620SOL     OW 5758   3.445   5.296   0.528
 1620SOL    HW1 5759   3.423   5.323   0.434
 1620SOL    HW2 5760   3.545   5.294   0.539
 1621SOL     OW 5761   6.054   6.757   1.092
 1621SOL    HW1 5762   5.976   6.695   1.080
 1621SOL    HW2 5763   6.121   6.716   1.154
 1622SOL     OW 5764   0.676   4.046   4.912
 1622SOL    HW1 5765   0.583   4.060   4.946
 1622SOL    HW2 5766   0.673   3.990   4.829
 1623SOL     OW 5767   0.452   2.121   4.736
 1623SOL    HW1 5768   0.377   2.056   4.729
 1623SOL    HW2 5769   0.502   2.122   4.649
 1624SOL     OW 5770   4.240   1.016   0.871
 1624SOL    HW1 5771   4.240   1.012   0.771
 1624SOL    HW2 5772   4.150   0.987   0.906
 1625SOL     OW 5773   1.890   5.024   0.866
 1625SOL    HW1 5774   1.984   5.015   0.833
 1625SOL    HW2 5775   1.828   5.025   0.788
 1626SOL     OW 5776   3.218   2.023   1.372
 1626SOL    HW1 5777   3.123   2.050   1.356
 1626SOL    HW2 5778   3.230   1.927   1.350
 1627SOL     OW 5779   4.373   2.324   3.912
 1627SOL    HW1 5780   4.374   2.366   4.003
 1627SOL    HW2 5781   4.306   2.372   3.854
 1628SOL     OW 5782   5.588   6.203   6.340
 1628SOL    HW1 5783   5.594   6.231   6.436
 1628SOL    HW2 5784   5.648   6.124   6.324
 1629SOL     OW 5785   2.635   1.705   2.948
 1629SOL    HW1 5786   2.568   1.773   2.916
 1629SOL    HW2 5787   2.708   1.752   2.998
 1630SOL     OW 5788   0.951   4.276   0.079
 1630SOL    HW1 5789   0.954   4.176   0.088
 1630SOL    HW2 5790   0.891   4.300   0.003
 1631SOL     OW 5791   0.705   3.462   0.278
 1631SOL    HW1 5792   0.698   3.377   0.330
 1631SOL    HW2 5793   0.801   3.481   0.257
 1632SOL     OW 5794   6.653   4.727   2.491
 1632SOL    HW1 5795   6.726   4.777   2.444
 1632SOL    HW2 5796   6.609   4.664   2.428
 1633SOL     OW 5797   4.850   3.328   4.048
 1633SOL    HW1 5798   4.813   3.240   4.075
 1633SOL    HW2 5799   4.892   3.372   4.128
 1634SOL     OW 5800   5.126   0.390   4.830
 1634SOL    HW1 5801   5.067   0.314   4.857
 1634SOL    HW2 5802   5.082   0.442   4.757
 1635SOL     OW 5803   3.378   5.282   5.105
 1635SOL    HW1 5804   3.284   5.254   5.089
 1635SOL    HW2 5805   3.410   5.245   5.192
 1636SOL     OW 5806   5.407   5.734   1.315
 1636SOL    HW1 5807   5.383   5.741   1.412
 1636SOL    HW2 5808   5.328   5.704   1.263
 1637SOL     OW 5809   0.192   0.081   2.368
 1637SOL    HW1 5810   0.144   0.045   2.448
 1637SOL    HW2 5811   0.189   0.181   2.369
 1638SOL     OW 5812   6.912   3.379   1.541
 1638SOL    HW1 5813   6.991   3.440   1.536
 1638SOL    HW2 5814   6.891   3.360   1.636
 1639SOL     OW 5815   5.296   3.653   2.468
 1639SOL    HW1 5816   5.234   3.731   2.460
 1639SOL    HW2 5817   5.294   3.599   2.384
 1640SOL     OW 5818   6.216   0.658   0.558
 1640SOL    HW1 5819   6.125   0.649   0.600
 1640SOL    HW2 5820   6.218   0.606   0.473
 1641SOL     OW 5821   6.841   2.184   2.754
 1641SOL    HW1 5822   6.866   2.246   2.680
 1641SOL    HW2 5823   6.772   2.119   2.722
 1642SOL     OW 5824   5.171   2.610   5.663
 1642SOL    HW1 5825   5.196   2.545   5.735
 1642SOL    HW2 5826   5.085   2.655   5.686
 1643SOL     OW 5827   3.283   5.272   4.188
 1643SOL    HW1 5828   3.232   5.198   4.232
 1643SOL    HW2 5829   3.310   5.339   4.257
 1644SOL     OW 5830   6.195   2.890   0.719
 1644SOL    HW1 5831   6.207   2.792   0.709
 1644SOL    HW2 5832   6.098   2.913   0.716
 1645SOL     OW 5833   2.381   1.015   5.523
 1645SOL    HW1 5834   2.468   1.051   5.489
 1645SOL    HW2 5835   2.383   1.011   5.623
 1646SOL     OW 5836   0.948   5.767   0.632
 1646SOL    HW1 5837   0.883   5.833   0.594
 1646SOL    HW2 5838   1.012   5.738   0.561
 1647SOL     OW 5839   6.367   2.674   4.621
 1647SOL    HW1 5840   6.282   2.703   4.665
 1647SOL    HW2 5841   6.405   2.749   4.568
 1648SOL     OW 5842   5.759   6.454   0.914
 1648SOL    HW1 5843   5.736   6.530   0.975
 1648SOL    HW2 5844   5.709   6.372   0.943
 1649SOL     OW 5845   3.181   0.442   3.537
 1649SOL    HW1 5846   3.129   0.486   3.464
 1649SOL    HW2 5847   3.153   0.347   3.547
 1650SOL     OW 5848   2.941   5.521   6.879
 1650SOL    HW1 5849   2.857   5.560   6.842
 1650SOL    HW2 5850   3.020   5.565   6.837
 1651SOL     OW 5851   0.766   2.927   3.865
 1651SOL    HW1 5852   0.852   2.945   3.913
 1651SOL    HW2 5853   0.689   2.962   3.919
 1652SOL     OW 5854   0.911   2.801   1.578
 1652SOL    HW1 5855   0.916   2.801   1.678
 1652SOL    HW2 5856   0.858   2.722   1.548
 1653SOL     OW 5857   0.423   5.132   3.232
 1653SOL    HW1 5858   0.474   5.217   3.220
 1653SOL    HW2 5859   0.469   5.058   3.183
 1654SOL     OW 5860   0.404   3.349   1.926
 1654SOL    HW1 5861   0.413   3.289   2.006
 1654SOL    HW2 5862   0.332   3.315   1.866
 1655SOL     OW 5863   6.631   0.632   4.649
 1655SOL    HW1 5864   6.697   0.677   4.588
 1655SOL    HW2 5865   6.678   0.561   4.702
 1656SOL     OW 5866   2.390   5.240   4.077
 1656SOL    HW1 5867   2.367   5.302   4.152
 1656SOL    HW2 5868   2.368   5.284   3.990
 1657SOL     OW 5869   0.358   0.131   5.633
 1657SOL    HW1 5870   0.303   0.214   5.638
 1657SOL    HW2 5871   0.404   0.117   5.721
 1658SOL     OW 5872   6.967   7.016   0.290
 1658SOL    HW1 5873   7.025   0.061   0.249
 1658SOL    HW2 5874   6.918   0.029   0.368
 1659SOL     OW 5875   4.347   6.692   6.514
 1659SOL    HW1 5876   4.291   6.609   6.507
 1659SOL    HW2 5877   4.351   6.737   6.425
 1660SOL     OW 5878   1.544   6.709   1.836
 1660SOL    HW1 5879   1.577   6.794   1.877
 1660SOL    HW2 5880   1.589   6.696   1.748
 1661SOL     OW 5881   3.804   5.232   2.784
 1661SOL    HW1 5882   3.863   5.169   2.733
 1661SOL    HW2 5883   3.713   5.231   2.744
 1662SOL     OW 5884   0.209   1.401   5.233
 1662SOL    HW1 5885   0.259   1.488   5.226
 1662SOL    HW2 5886   0.198   1.376   5.329
 1663SOL     OW 5887   4.473   4.401   1.074
 1663SOL    HW1 5888   4.435   4.457   1.000
 1663SOL    HW2 5889   4.542   4.453   1.124
 1664SOL     OW 5890   0.533   6.969   5.067
 1664SOL    HW1 5891   0.513   6.978   4.970
 1664SOL    HW2 5892   0.458   7.008   5.121
 1665SOL     OW 5893   2.051   3.741   1.198
 1665SOL    HW1 5894   2.014   3.745   1.291
 1665SOL    HW2 5895   2.134   3.797   1.192
 1666SOL     OW 5896   5.312   0.550   6.252
 1666SOL    HW1 5897   5.309   0.610   6.172
 1666SOL    HW2 5898   5.364   0.594   6.325
 1667SOL     OW 5899   0.556   6.702   1.358
 1667SOL    HW1 5900   0.636   6.741   1.313
 1667SOL    HW2 5901   0.492   6.775   1.382
 1668SOL     OW 5902   4.982   4.259   3.660
 1668SOL    HW1 5903   5.053   4.203   3.617
 1668SOL    HW2 5904   4.931   4.203   3.726
 1669SOL     OW 5905   0.154   3.619   5.368
 1669SOL    HW1 5906   0.129   3.537   5.317
 1669SOL    HW2 5907   0.165   3.696   5.305
 1670SOL     OW 5908   2.237   4.413   5.946
 1670SOL    HW1 5909   2.223   4.498   5.894
 1670SOL    HW2 5910   2.292   4.349   5.892
 1671SOL     OW 5911   4.863   1.674   1.720
 1671SOL    HW1 5912   4.809   1.755   1.741
 1671SOL    HW2 5913   4.804   1.604   1.679
 1672SOL     OW 5914   0.778   3.240   6.899
 1672SOL    HW1 5915   0.687   3.272   6.872
 1672SOL    HW2 5916   0.772   3.193   6.988
 1673SOL     OW 5917   2.103   1.707   4.498
 1673SOL    HW1 5918   2.146   1.788   4.540
 1673SOL    HW2 5919   2.030   1.737   4.436
 1674SOL     OW 5920   4.615   2.609   3.059
 1674SOL    HW1 5921   4.563   2.613   3.144
 1674SOL    HW2 5922   4.567   2.549   2.994
 1675SOL     OW 5923   5.312   0.742   1.222
 1675SOL    HW1 5924   5.281   0.665   1.167
 1675SOL    HW2 5925   5.265   0.825   1.193
 1676SOL     OW 5926   2.061   1.849   2.900
 1676SOL    HW1 5927   2.040   1.777   2.966
 1676SOL    HW2 5928   2.023   1.936   2.932
 1677SOL     OW 5929   4.135   3.525   3.458
 1677SOL    HW1 5930   4.164   3.436   3.493
 1677SOL    HW2 5931   4.114   3.516   3.360
 1678SOL     OW 5932   0.467   6.781   0.869
 1678SOL    HW1 5933   0.542   6.811   0.929
 1678SOL    HW2 5934   0.390   6.845   0.877
 1679SOL     OW 5935   1.850   1.803   5.216
 1679SOL    HW1 5936   1.903   1.879   5.254
 1679SOL    HW2 5937   1.755   1.811   5.246
 1680SOL     OW 5938   4.983   2.793   4.583
 1680SOL    HW1 5939   4.911   2.858   4.607
 1680SOL    HW2 5940   4.941   2.705   4.559
 1681SOL     OW 5941   2.213   5.798   3.577
 1681SOL    HW1 5942   2.284   5.843   3.523
 1681SOL    HW2 5943   2.144   5.865   3.604
 1682SOL     OW 5944   2.683   6.804   5.714
 1682SOL    HW1 5945   2.633   6.877   5.668
 1682SOL    HW2 5946   2.642   6.785   5.804
 1683SOL     OW 5947   6.107   4.579   2.472
 1683SOL    HW1 5948   6.140   4.673   2.477
 1683SOL    HW2 5949   6.072   4.551   2.562
 1684SOL     OW 5950   1.918   4.772   1.581
 1684SOL    HW1 5951   1.885   4.692   1.631
 1684SOL    HW2 5952   2.014   4.789   1.607
 1685SOL     OW 5953   0.431   1.216   5.327
 1685SOL    HW1 5954   0.465   1.263   5.245
 1685SOL    HW2 5955   0.438   1.118   5.313
 1686SOL     OW 5956   4.921   5.106   3.396
 1686SOL    HW1 5957   5.002   5.058   3.365
 1686SOL    HW2 5958   4.869   5.139   3.317
 1687SOL     OW 5959   6.641   3.614   2.758
 1687SOL    HW1 5960   6.573   3.578   2.821
 1687SOL    HW2 5961   6.733   3.593   2.791
 1688SOL     OW 5962   2.121   2.162   3.743
 1688SOL    HW1 5963   2.030   2.138   3.778
 1688SOL    HW2 5964   2.110   2.220   3.662
 1689SOL     OW 5965   5.902   0.990   2.365
 1689SOL    HW1 5966   5.839   0.931   2.315
 1689SOL    HW2 5967   5.965   1.033   2.300
 1690SOL     OW 5968   0.805   4.265   4.298
 1690SOL    HW1 5969   0.872   4.199   4.264
 1690SOL    HW2 5970   0.849   4.324   4.366
 1691SOL     OW 5971   5.301   2.793   5.005
 1691SOL    HW1 5972   5.247   2.801   4.921
 1691SOL    HW2 5973   5.294   2.699   5.040
 1692SOL     OW 5974   6.092   5.246   1.934
 1692SOL    HW1 5975   6.002   5.259   1.974
 1692SOL    HW2 5976   6.106   5.313   1.860
 1693SOL     OW 5977   6.449   0.922   5.595
 1693SOL    HW1 5978   6.403   0.864   5.662
 1693SOL    HW2 5979   6.474   0.868   5.515
 1694SOL     OW 5980   5.344   0.869   4.822
 1694SOL    HW1 5981   5.331   0.868   4.722
 1694SOL    HW2 5982   5.298   0.948   4.861
 1695SOL     OW 5983   3.735   0.605   6.714
 1695SOL    HW1 5984   3.738   0.552   6.799
 1695SOL    HW2 5985   3.657   0.575   6.659
 1696SOL     OW 5986   4.624   5.552   0.032
 1696SOL    HW1 5987   4.651   5.600   6.975
 1696SOL    HW2 5988   4.573   5.470   0.007
 1697SOL     OW 5989   5.822   2.069   1.183
 1697SOL    HW1 5990   5.889   2.002   1.216
 1697SOL    HW2 5991   5.823   2.149   1.243
 1698SOL     OW 5992   3.435   0.887   2.442
 1698SOL    HW1 5993   3.397   0.840   2.522
 1698SOL    HW2 5994   3.457   0.982   2.465
 1699SOL     OW 5995   2.257   0.989   6.965
 1699SOL    HW1 5996   2.336   1.035   6.925
 1699SOL    HW2 5997   2.272   0.977   0.037
 1700SOL     OW 5998   6.040   3.438   2.958
 1700SOL    HW1 5999   6.123   3.479   2.996
 1700SOL    HW2 6000   5.980   3.411   3.033
 1701SOL     OW 6001   6.482   4.557   4.829
 1701SOL    HW1 6002   6.507   4.465   4.860
 1701SOL    HW2 6003   6.563   4.603   4.792
 1702SOL     OW 6004   1.975   2.358   5.722
 1702SOL    HW1 6005   1.976   2.258   5.717
 1702SOL    HW2 6006   1.922   2.395   5.646
 1703SOL     OW 6007   2.937   1.546   6.854
 1703SOL    HW1 6008   2.905   1.494   6.775
 1703SOL    HW2 6009   2.918   1.643   6.841
 1704SOL     OW 6010   2.817   1.741   0.957
 1704SOL    HW1 6011   2.765   1.663   0.991
 1704SOL    HW2 6012   2.882   1.770   1.027
 1705SOL     OW 6013   3.657   1.322   1.679
 1705SOL    HW1 6014   3.654   1.254   1.753
 1705SOL    HW2 6015   3.670   1.413   1.718
 1706SOL     OW 6016   4.125   1.950   0.750
 1706SOL    HW1 6017   4.025   1.952   0.737
 1706SOL    HW2 6018   4.153   2.036   0.794
 1707SOL     OW 6019   4.727   1.490   2.590
 1707SOL    HW1 6020   4.688   1.497   2.681
 1707SOL    HW2 6021   4.657   1.458   2.526
 1708SOL     OW 6022   3.263   5.287   2.028
 1708SOL    HW1 6023   3.241   5.263   2.122
 1708SOL    HW2 6024   3.287   5.204   1.977
 1709SOL     OW 6025   5.277   5.935   0.689
 1709SOL    HW1 6026   5.230   5.848   0.682
 1709SOL    HW2 6027   5.362   5.932   0.636
 1710SOL     OW 6028   4.364   5.061   2.862
 1710SOL    HW1 6029   4.350   5.083   2.765
 1710SOL    HW2 6030   4.278   5.075   2.912
 1711SOL     OW 6031   2.953   5.792   6.336
 1711SOL    HW1 6032   2.878   5.834   6.285
 1711SOL    HW2 6033   3.040   5.825   6.299
 1712SOL     OW 6034   0.435   1.932   4.246
 1712SOL    HW1 6035   0.530   1.952   4.271
 1712SOL    HW2 6036   0.390   2.017   4.218
 1713SOL     OW 6037   4.308   0.875   2.636
 1713SOL    HW1 6038   4.244   0.798   2.629
 1713SOL    HW2 6039   4.355   0.888   2.549
 1714SOL     OW 6040   3.728   2.869   6.765
 1714SOL    HW1 6041   3.724   2.806   6.688
 1714SOL    HW2 6042   3.686   2.827   6.845
 1715SOL     OW 6043   1.372   6.371   2.347
 1715SOL    HW1 6044   1.278   6.348   2.322
 1715SOL    HW2 6045   1.400   6.454   2.298
 1716SOL     OW 6046   4.404   0.352   4.180
 1716SOL    HW1 6047   4.470   0.348   4.255
 1716SOL    HW2 6048   4.416   0.437   4.129
 1717SOL     OW 6049   3.770   6.150   5.734
 1717SOL    HW1 6050   3.712   6.087   5.683
 1717SOL    HW2 6051   3.724   6.178   5.818
 1718SOL     OW 6052   1.950   2.553   1.914
 1718SOL    HW1 6053   1.855   2.537   1.889
 1718SOL    HW2 6054   1.982   2.639   1.873
 1719SOL     OW 6055   0.738   5.097   1.646
 1719SOL    HW1 6056   0.834   5.097   1.673
 1719SOL    HW2 6057   0.712   5.007   1.612
 1720SOL     OW 6058   6.616   2.933   5.614
 1720SOL    HW1 6059   6.600   2.892   5.704
 1720SOL    HW2 6060   6.676   3.012   5.624
 1721SOL     OW 6061   1.520   1.490   1.820
 1721SOL    HW1 6062   1.581   1.461   1.893
 1721SOL    HW2 6063   1.538   1.586   1.799
 1722SOL     OW 6064   2.735   1.951   3.019
 1722SOL    HW1 6065   2.644   1.975   2.985
 1722SOL    HW2 6066   2.804   1.979   2.952
 1723SOL     OW 6067   5.246   2.752   0.153
 1723SOL    HW1 6068   5.210   2.682   0.214
 1723SOL    HW2 6069   5.335   2.783   0.187
 1724SOL     OW 6070   6.582   2.392   1.152
 1724SOL    HW1 6071   6.546   2.464   1.212
 1724SOL    HW2 6072   6.674   2.417   1.121
 1725SOL     OW 6073   2.288   5.736   6.696
 1725SOL    HW1 6074   2.311   5.833   6.690
 1725SOL    HW2 6075   2.273   5.711   6.792
 1726SOL     OW 6076   5.680   3.752   4.146
 1726SOL    HW1 6077   5.764   3.799   4.119
 1726SOL    HW2 6078   5.613   3.819   4.178
 1727SOL     OW 6079   3.316   3.795   3.349
 1727SOL    HW1 6080   3.324   3.748   3.261
 1727SOL    HW2 6081   3.221   3.818   3.366
 1728SOL     OW 6082   4.809   2.440   5.171
 1728SOL    HW1 6083   4.784   2.535   5.189
 1728SOL    HW2 6084   4.741   2.379   5.212
 1729SOL     OW 6085   1.986   3.855   1.755
 1729SOL    HW1 6086   1.966   3.951   1.733
 1729SOL    HW2 6087   1.938   3.830   1.839
 1730SOL     OW 6088   2.617   5.146   6.015
 1730SOL    HW1 6089   2.521   5.169   6.031
 1730SOL    HW2 6090   2.628   5.047   6.011
 1731SOL     OW 6091   5.883   3.933   4.097
 1731SOL    HW1 6092   5.970   3.933   4.146
 1731SOL    HW2 6093   5.824   4.005   4.134
 1732SOL     OW 6094   1.782   4.935   6.437
 1732SOL    HW1 6095   1.799   4.852   6.383
 1732SOL    HW2 6096   1.745   5.006   6.377
 1733SOL     OW 6097   3.145   3.687   0.278
 1733SOL    HW1 6098   3.220   3.622   0.268
 1733SOL    HW2 6099   3.058   3.638   0.267
 1734SOL     OW 6100   0.247   2.927   1.359
 1734SOL    HW1 6101   0.263   2.861   1.432
 1734SOL    HW2 6102   0.242   3.019   1.398
 1735SOL     OW 6103   3.934   5.564   6.512
 1735SOL    HW1 6104   4.027   5.537   6.485
 1735SOL    HW2 6105   3.869   5.529   6.445
 1736SOL     OW 6106   4.957   3.429   0.756
 1736SOL    HW1 6107   5.036   3.369   0.766
 1736SOL    HW2 6108   4.984   3.512   0.707
 1737SOL     OW 6109   4.824   1.189   4.911
 1737SOL    HW1 6110   4.844   1.276   4.958
 1737SOL    HW2 6111   4.899   1.168   4.848
 1738SOL     OW 6112   1.066   3.650   4.320
 1738SOL    HW1 6113   1.001   3.614   4.386
 1738SOL    HW2 6114   1.026   3.730   4.273
 1739SOL     OW 6115   5.140   0.181   4.108
 1739SOL    HW1 6116   5.133   0.181   4.208
 1739SOL    HW2 6117   5.106   0.268   4.072
 1740SOL     OW 6118   6.759   2.394   4.456
 1740SOL    HW1 6119   6.758   2.297   4.433
 1740SOL    HW2 6120   6.666   2.431   4.450
 1741SOL     OW 6121   1.043   2.075   4.523
 1741SOL    HW1 6122   1.009   1.981   4.529
 1741SOL    HW2 6123   1.048   2.102   4.426
 1742SOL     OW 6124   6.171   5.850   6.334
 1742SOL    HW1 6125   6.203   5.767   6.288
 1742SOL    HW2 6126   6.206   5.930   6.286
 1743SOL     OW 6127   1.763   1.006   3.048
 1743SOL    HW1 6128   1.669   1.024   3.074
 1743SOL    HW2 6129   1.766   0.933   2.980
 1744SOL     OW 6130   4.737   2.200   4.006
 1744SOL    HW1 6131   4.768   2.142   3.930
 1744SOL    HW2 6132   4.720   2.143   4.086
 1745SOL     OW 6133   6.886   6.684   1.532
 1745SOL    HW1 6134   6.793   6.712   1.507
 1745SOL    HW2 6135   6.930   6.640   1.454
 1746SOL     OW 6136   1.854   4.112   3.445
 1746SOL    HW1 6137   1.878   4.208   3.433
 1746SOL    HW2 6138   1.756   4.100   3.433
 1747SOL     OW 6139   3.499   1.135   2.574
 1747SOL    HW1 6140   3.528   1.225   2.544
 1747SOL    HW2 6141   3.441   1.143   2.655
 1748SOL     OW 6142   6.824   1.759   4.751
 1748SOL    HW1 6143   6.729   1.729   4.762
 1748SOL    HW2 6144   6.881   1.718   4.821
 1749SOL     OW 6145   2.297   5.115   1.282
 1749SOL    HW1 6146   2.286   5.016   1.280
 1749SOL    HW2 6147   2.208   5.159   1.280
 1750SOL     OW 6148   4.607   0.370   5.423
 1750SOL    HW1 6149   4.625   0.376   5.521
 1750SOL    HW2 6150   4.665   0.300   5.382
 1751SOL     OW 6151   6.017   2.683   4.985
 1751SOL    HW1 6152   6.082   2.687   5.060
 1751SOL    HW2 6153   6.066   2.677   4.898
 1752SOL     OW 6154   6.681   0.754   1.346
 1752SOL    HW1 6155   6.717   0.800   1.264
 1752SOL    HW2 6156   6.605   0.806   1.383
 1753SOL     OW 6157   6.275   1.058   1.765
 1753SOL    HW1 6158   6.235   0.969   1.787
 1753SOL    HW2 6159   6.308   1.057   1.671
 1754SOL     OW 6160   2.951   5.629   5.924
 1754SOL    HW1 6161   2.893   5.599   6.000
 1754SOL    HW2 6162   2.946   5.561   5.850
 1755SOL     OW 6163   6.181   0.011   5.064
 1755SOL    HW1 6164   6.250   6.966   5.071
 1755SOL    HW2 6165   6.106   7.016   5.126
 1756SOL     OW 6166   5.779   0.658   6.050
 1756SOL    HW1 6167   5.679   0.664   6.045
 1756SOL    HW2 6168   5.805   0.580   6.107
 1757SOL     OW 6169   2.609   5.161   5.179
 1757SOL    HW1 6170   2.580   5.201   5.093
 1757SOL    HW2 6171   2.701   5.194   5.202
 1758SOL     OW 6172   2.144   6.240   4.668
 1758SOL    HW1 6173   2.117   6.333   4.691
 1758SOL    HW2 6174   2.074   6.176   4.700
 1759SOL     OW 6175   1.328   6.502   6.898
 1759SOL    HW1 6176   1.242   6.531   6.856
 1759SOL    HW2 6177   1.403   6.518   6.834
 1760SOL     OW 6178   6.159   0.982   5.227
 1760SOL    HW1 6179   6.133   1.074   5.198
 1760SOL    HW2 6180   6.080   0.937   5.268
 1761SOL     OW 6181   6.577   1.844   1.873
 1761SOL    HW1 6182   6.590   1.908   1.797
 1761SOL    HW2 6183   6.581   1.750   1.839
 1762SOL     OW 6184   0.376   1.655   5.215
 1762SOL    HW1 6185   0.453   1.679   5.156
 1762SOL    HW2 6186   0.406   1.656   5.311
 1763SOL     OW 6187   0.646   4.051   4.470
 1763SOL    HW1 6188   0.679   4.134   4.425
 1763SOL    HW2 6189   0.547   4.056   4.481
 1764SOL     OW 6190   1.382   4.882   2.273
 1764SOL    HW1 6191   1.339   4.877   2.182
 1764SOL    HW2 6192   1.364   4.971   2.313
 1765SOL     OW 6193   5.673   3.626   1.726
 1765SOL    HW1 6194   5.599   3.569   1.691
 1765SOL    HW2 6195   5.699   3.594   1.817
 1766SOL     OW 6196   4.072   4.876   4.671
 1766SOL    HW1 6197   4.157   4.896   4.719
 1766SOL    HW2 6198   3.994   4.904   4.727
 1767SOL     OW 6199   0.627   4.870   2.289
 1767SOL    HW1 6200   0.669   4.830   2.370
 1767SOL    HW2 6201   0.634   4.970   2.294
 1768SOL     OW 6202   5.013   6.480   2.419
 1768SOL    HW1 6203   4.921   6.462   2.385
 1768SOL    HW2 6204   5.042   6.405   2.478
 1769SOL     OW 6205   5.180   0.505   6.556
 1769SOL    HW1 6206   5.174   0.604   6.547
 1769SOL    HW2 6207   5.275   0.475   6.544
 1770SOL     OW 6208   2.089   5.066   6.274
 1770SOL    HW1 6209   2.008   5.117   6.303
 1770SOL    HW2 6210   2.103   4.988   6.336
 1771SOL     OW 6211   0.697   4.014   5.896
 1771SOL    HW1 6212   0.720   4.077   5.969
 1771SOL    HW2 6213   0.615   3.961   5.921
 1772SOL     OW 6214   2.266   4.561   3.790
 1772SOL    HW1 6215   2.328   4.525   3.721
 1772SOL    HW2 6216   2.225   4.486   3.842
 1773SOL     OW 6217   0.681   6.618   5.494
 1773SOL    HW1 6218   0.775   6.590   5.472
 1773SOL    HW2 6219   0.676   6.718   5.499
 1774SOL     OW 6220   6.027   5.215   1.332
 1774SOL    HW1 6221   6.098   5.281   1.308
 1774SOL    HW2 6222   5.958   5.212   1.260
 1775SOL     OW 6223   2.302   5.733   5.972
 1775SOL    HW1 6224   2.291   5.638   5.943
 1775SOL    HW2 6225   2.244   5.792   5.916
 1776SOL     OW 6226   4.269   0.985   6.260
 1776SOL    HW1 6227   4.223   1.072   6.275
 1776SOL    HW2 6228   4.201   0.912   6.250
 1777SOL     OW 6229   4.503   6.694   6.758
 1777SOL    HW1 6230   4.432   6.658   6.818
 1777SOL    HW2 6231   4.468   6.701   6.665
 1778SOL     OW 6232   6.080   0.243   4.097
 1778SOL    HW1 6233   6.026   0.325   4.115
 1778SOL    HW2 6234   6.032   0.185   4.031
 1779SOL     OW 6235   5.492   5.949   3.582
 1779SOL    HW1 6236   5.401   5.913   3.562
 1779SOL    HW2 6237   5.490   5.999   3.669
 1780SOL     OW 6238   2.154   5.515   5.206
 1780SOL    HW1 6239   2.254   5.505   5.198
 1780SOL    HW2 6240   2.110   5.478   5.124
 1781SOL     OW 6241   4.319   0.554   3.815
 1781SOL    HW1 6242   4.354   0.461   3.825
 1781SOL    HW2 6243   4.232   0.562   3.863
 1782SOL     OW 6244   1.726   1.764   2.647
 1782SOL    HW1 6245   1.629   1.744   2.659
 1782SOL    HW2 6246   1.743   1.861   2.661
 1783SOL     OW 6247   1.748   4.400   6.544
 1783SOL    HW1 6248   1.776   4.354   6.628
 1783SOL    HW2 6249   1.775   4.346   6.465
 1784SOL     OW 6250   2.324   0.301   0.774
 1784SOL    HW1 6251   2.405   0.257   0.734
 1784SOL    HW2 6252   2.258   0.231   0.802
 1785SOL     OW 6253   1.260   6.813   4.043
 1785SOL    HW1 6254   1.166   6.785   4.065
 1785SOL    HW2 6255   1.308   6.836   4.127
 1786SOL     OW 6256   1.095   6.096   0.486
 1786SOL    HW1 6257   1.033   6.138   0.420
 1786SOL    HW2 6258   1.051   6.091   0.576
 1787SOL     OW 6259   1.948   3.826   5.805
 1787SOL    HW1 6260   1.992   3.738   5.821
 1787SOL    HW2 6261   1.878   3.816   5.734
 1788SOL     OW 6262   4.725   3.754   0.774
 1788SOL    HW1 6263   4.715   3.718   0.681
 1788SOL    HW2 6264   4.741   3.853   0.769
 1789SOL     OW 6265   6.638   3.909   1.996
 1789SOL    HW1 6266   6.691   3.961   1.930
 1789SOL    HW2 6267   6.540   3.926   1.982
 1790SOL     OW 6268   2.791   2.370   4.435
 1790SOL    HW1 6269   2.881   2.384   4.476
 1790SOL    HW2 6270   2.721   2.403   4.498
 1791SOL     OW 6271   5.166   6.835   3.524
 1791SOL    HW1 6272   5.256   6.802   3.497
 1791SOL    HW2 6273   5.176   6.911   3.589
 1792SOL     OW 6274   0.110   1.708   5.129
 1792SOL    HW1 6275   0.197   1.680   5.169
 1792SOL    HW2 6276   0.077   1.791   5.174
 1793SOL     OW 6277   0.160   1.339   5.829
 1793SOL    HW1 6278   0.189   1.256   5.782
 1793SOL    HW2 6279   0.190   1.336   5.924
 1794SOL     OW 6280   0.880   0.059   6.164
 1794SOL    HW1 6281   0.864   6.986   6.167
 1794SOL    HW2 6282   0.827   0.104   6.236
 1795SOL     OW 6283   6.226   4.943   0.088
 1795SOL    HW1 6284   6.281   5.015   0.130
 1795SOL    HW2 6285   6.287   4.874   0.049
 1796SOL     OW 6286   0.899   6.488   6.108
 1796SOL    HW1 6287   0.823   6.553   6.110
 1796SOL    HW2 6288   0.965   6.515   6.037
 1797SOL     OW 6289   2.740   5.670   4.924
 1797SOL    HW1 6290   2.710   5.598   4.862
 1797SOL    HW2 6291   2.817   5.637   4.978
 1798SOL     OW 6292   3.017   3.947   4.238
 1798SOL    HW1 6293   3.034   3.987   4.149
 1798SOL    HW2 6294   3.005   3.848   4.229
 1799SOL     OW 6295   3.121   1.174   0.337
 1799SOL    HW1 6296   3.066   1.250   0.304
 1799SOL    HW2 6297   3.189   1.208   0.403
 1800SOL     OW 6298   5.385   3.219   4.620
 1800SOL    HW1 6299   5.446   3.291   4.654
 1800SOL    HW2 6300   5.390   3.140   4.682
 1801SOL     OW 6301   1.106   1.805   2.236
 1801SOL    HW1 6302   1.090   1.721   2.183
 1801SOL    HW2 6303   1.180   1.790   2.301
 1802SOL     OW 6304   7.023   5.094   3.883
 1802SOL    HW1 6305   0.039   5.037   3.812
 1802SOL    HW2 6306   6.945   5.046   3.922
 1803SOL     OW 6307   1.111   0.083   3.397
 1803SOL    HW1 6308   1.139   7.018   3.367
 1803SOL    HW2 6309   1.167   0.112   3.474
 1804SOL     OW 6310   2.308   3.582   5.648
 1804SOL    HW1 6311   2.388   3.576   5.589
 1804SOL    HW2 6312   2.245   3.508   5.627
 1805SOL     OW 6313   0.386   6.253   6.660
 1805SOL    HW1 6314   0.345   6.229   6.573
 1805SOL    HW2 6315   0.379   6.176   6.724
 1806SOL     OW 6316   7.008   1.993   2.504
 1806SOL    HW1 6317   6.932   1.989   2.569
 1806SOL    HW2 6318   6.973   2.007   2.412
 1807SOL     OW 6319   6.515   3.481   2.137
 1807SOL    HW1 6320   6.534   3.400   2.193
 1807SOL    HW2 6321   6.478   3.452   2.048
 1808SOL     OW 6322   4.883   2.054   5.775
 1808SOL    HW1 6323   4.947   2.085   5.705
 1808SOL    HW2 6324   4.823   1.984   5.736
 1809SOL     OW 6325   3.798   1.502   5.996
 1809SOL    HW1 6326   3.774   1.599   5.999
 1809SOL    HW2 6327   3.897   1.493   5.981
 1810SOL     OW 6328   0.420   0.368   4.195
 1810SOL    HW1 6329   0.457   0.386   4.104
 1810SOL    HW2 6330   0.490   0.387   4.263
 1811SOL     OW 6331   4.443   5.996   2.358
 1811SOL    HW1 6332   4.375   6.014   2.428
 1811SOL    HW2 6333   4.470   5.900   2.362
 1812SOL     OW 6334   4.583   6.860   4.934
 1812SOL    HW1 6335   4.682   6.854   4.917
 1812SOL    HW2 6336   4.536   6.786   4.887
 1813SOL     OW 6337   4.727   4.494   2.567
 1813SOL    HW1 6338   4.809   4.501   2.511
 1813SOL    HW2 6339   4.717   4.401   2.600
 1814SOL     OW 6340   0.125   6.279   0.491
 1814SOL    HW1 6341   0.095   6.215   0.420
 1814SOL    HW2 6342   0.220   6.258   0.516
 1815SOL     OW 6343   6.073   6.512   1.655
 1815SOL    HW1 6344   6.085   6.582   1.585
 1815SOL    HW2 6345   6.160   6.495   1.701
 1816SOL     OW 6346   4.330   5.273   6.400
 1816SOL    HW1 6347   4.350   5.233   6.311
 1816SOL    HW2 6348   4.340   5.202   6.471
 1817SOL     OW 6349   1.007   1.848   3.520
 1817SOL    HW1 6350   1.072   1.816   3.451
 1817SOL    HW2 6351   0.989   1.774   3.585
 1818SOL     OW 6352   1.721   6.704   0.746
 1818SOL    HW1 6353   1.760   6.723   0.655
 1818SOL    HW2 6354   1.795   6.677   0.808
 1819SOL     OW 6355   2.338   5.171   3.302
 1819SOL    HW1 6356   2.295   5.256   3.331
 1819SOL    HW2 6357   2.436   5.187   3.288
 1820SOL     OW 6358   3.889   0.339   4.254
 1820SOL    HW1 6359   3.871   0.326   4.156
 1820SOL    HW2 6360   3.944   0.263   4.288
 1821SOL     OW 6361   3.643   2.117   2.469
 1821SOL    HW1 6362   3.711   2.153   2.405
 1821SOL    HW2 6363   3.620   2.022   2.444
 1822SOL     OW 6364   0.012   2.688   2.189
 1822SOL    HW1 6365   7.014   2.721   2.098
 1822SOL    HW2 6366   0.027   2.766   2.250
 1823SOL     OW 6367   3.710   6.627   2.597
 1823SOL    HW1 6368   3.694   6.723   2.623
 1823SOL    HW2 6369   3.632   6.571   2.624
 1824SOL     OW 6370   3.508   2.804   1.216
 1824SOL    HW1 6371   3.545   2.894   1.193
 1824SOL    HW2 6372   3.564   2.733   1.174
 1825SOL     OW 6373   2.073   1.435   4.928
 1825SOL    HW1 6374   2.093   1.517   4.981
 1825SOL    HW2 6375   2.127   1.358   4.964
 1826SOL     OW 6376   3.719   2.028   1.757
 1826SOL    HW1 6377   3.707   2.098   1.826
 1826SOL    HW2 6378   3.705   2.068   1.666
 1827SOL     OW 6379   5.261   3.935   0.828
 1827SOL    HW1 6380   5.332   3.874   0.795
 1827SOL    HW2 6381   5.246   3.920   0.926
 1828SOL     OW 6382   1.552   3.539   4.984
 1828SOL    HW1 6383   1.597   3.595   5.054
 1828SOL    HW2 6384   1.493   3.472   5.028
 1829SOL     OW 6385   3.838   0.831   3.627
 1829SOL    HW1 6386   3.775   0.882   3.684
 1829SOL    HW2 6387   3.871   0.750   3.677
 1830SOL     OW 6388   5.023   6.538   5.169
 1830SOL    HW1 6389   5.076   6.550   5.085
 1830SOL    HW2 6390   5.080   6.494   5.238
 1831SOL     OW 6391   4.698   5.329   1.651
 1831SOL    HW1 6392   4.749   5.378   1.580
 1831SOL    HW2 6393   4.664   5.395   1.718
 1832SOL     OW 6394   2.913   3.362   0.458
 1832SOL    HW1 6395   2.991   3.345   0.398
 1832SOL    HW2 6396   2.858   3.279   0.465
 1833SOL     OW 6397   5.200   0.322   0.602
 1833SOL    HW1 6398   5.272   0.257   0.579
 1833SOL    HW2 6399   5.114   0.272   0.617
 1834SOL     OW 6400   2.304   2.520   6.341
 1834SOL    HW1 6401   2.298   2.578   6.422
 1834SOL    HW2 6402   2.222   2.532   6.285
 1835SOL     OW 6403   6.710   5.809   0.596
 1835SOL    HW1 6404   6.802   5.778   0.575
 1835SOL    HW2 6405   6.667   5.745   0.661
 1836SOL     OW 6406   5.281   2.128   1.642
 1836SOL    HW1 6407   5.304   2.225   1.631
 1836SOL    HW2 6408   5.194   2.120   1.690
 1837SOL     OW 6409   2.868   1.716   6.540
 1837SOL    HW1 6410   2.858   1.799   6.486
 1837SOL    HW2 6411   2.879   1.739   6.636
 1838SOL     OW 6412   6.773   1.184   0.327
 1838SOL    HW1 6413   6.742   1.113   0.391
 1838SOL    HW2 6414   6.775   1.147   0.235
 1839SOL     OW 6415   0.190   1.337   6.749
 1839SOL    HW1 6416   0.236   1.254   6.719
 1839SOL    HW2 6417   0.129   1.369   6.677
 1840SOL     OW 6418   4.614   6.673   3.307
 1840SOL    HW1 6419   4.670   6.643   3.385
 1840SOL    HW2 6420   4.518   6.670   3.333
 1841SOL     OW 6421   2.131   1.020   2.272
 1841SOL    HW1 6422   2.180   0.967   2.202
 1841SOL    HW2 6423   2.134   1.117   2.249
 1842SOL     OW 6424   1.402   5.179   6.969
 1842SOL    HW1 6425   1.437   5.089   6.940
 1842SOL    HW2 6426   1.337   5.213   6.901
 1843SOL     OW 6427   3.528   1.165   4.577
 1843SOL    HW1 6428   3.566   1.078   4.548
 1843SOL    HW2 6429   3.509   1.222   4.497
 1844SOL     OW 6430   5.486   1.934   6.940
 1844SOL    HW1 6431   5.582   1.952   6.965
 1844SOL    HW2 6432   5.432   2.017   6.954
 1845SOL     OW 6433   1.633   1.409   2.786
 1845SOL    HW1 6434   1.598   1.334   2.729
 1845SOL    HW2 6435   1.731   1.420   2.769
 1846SOL     OW 6436   4.187   1.514   2.338
 1846SOL    HW1 6437   4.277   1.509   2.380
 1846SOL    HW2 6438   4.131   1.437   2.369
 1847SOL     OW 6439   2.234   0.270   5.436
 1847SOL    HW1 6440   2.201   0.176   5.433
 1847SOL    HW2 6441   2.298   0.281   5.512
 1848SOL     OW 6442   2.537   5.585   4.424
 1848SOL    HW1 6443   2.494   5.600   4.335
 1848SOL    HW2 6444   2.603   5.658   4.442
 1849SOL     OW 6445   4.715   2.791   1.849
 1849SOL    HW1 6446   4.759   2.764   1.934
 1849SOL    HW2 6447   4.718   2.891   1.840
 1850SOL     OW 6448   5.151   1.716   1.673
 1850SOL    HW1 6449   5.064   1.696   1.717
 1850SOL    HW2 6450   5.136   1.780   1.597
 1851SOL     OW 6451   6.947   3.955   4.936
 1851SOL    HW1 6452   6.894   3.997   5.009
 1851SOL    HW2 6453   6.885   3.922   4.865
 1852SOL     OW 6454   1.346   5.676   2.436
 1852SOL    HW1 6455   1.311   5.731   2.361
 1852SOL    HW2 6456   1.400   5.600   2.400
 1853SOL     OW 6457   7.001   2.546   4.445
 1853SOL    HW1 6458   6.918   2.498   4.473
 1853SOL    HW2 6459   0.030   2.566   4.526
 1854SOL     OW 6460   0.221   6.935   3.740
 1854SOL    HW1 6461   0.171   6.858   3.701
 1854SOL    HW2 6462   0.308   6.903   3.778
 1855SOL     OW 6463   4.901   3.363   4.871
 1855SOL    HW1 6464   4.861   3.320   4.790
 1855SOL    HW2 6465   4.864   3.456   4.881
 1856SOL     OW 6466   3.909   2.479   6.850
 1856SOL    HW1 6467   3.884   2.414   6.922
 1856SOL    HW2 6468   3.840   2.476   6.777
 1857SOL     OW 6469   4.775   1.213   0.982
 1857SOL    HW1 6470   4.748   1.137   1.041
 1857SOL    HW2 6471   4.871   1.237   1.000
 1858SOL     OW 6472   4.181   2.200   4.385
 1858SOL    HW1 6473   4.204   2.197   4.482
 1858SOL    HW2 6474   4.232   2.274   4.341
 1859SOL     OW 6475   5.906   2.209   3.888
 1859SOL    HW1 6476   5.913   2.241   3.983
 1859SOL    HW2 6477   5.944   2.117   3.881
 1860SOL     OW 6478   1.016   1.265   4.663
 1860SOL    HW1 6479   1.002   1.171   4.696
 1860SOL    HW2 6480   0.973   1.276   4.573
 1861SOL     OW 6481   6.496   0.135   3.393
 1861SOL    HW1 6482   6.553   0.077   3.451
 1861SOL    HW2 6483   6.447   0.079   3.327
 1862SOL     OW 6484   2.468   6.164   6.485
 1862SOL    HW1 6485   2.464   6.221   6.403
 1862SOL    HW2 6486   2.518   6.079   6.464
 1863SOL     OW 6487   0.779   2.927   1.317
 1863SOL    HW1 6488   0.814   2.869   1.391
 1863SOL    HW2 6489   0.684   2.902   1.298
 1864SOL     OW 6490   3.656   5.720   2.846
 1864SOL    HW1 6491   3.625   5.812   2.871
 1864SOL    HW2 6492   3.737   5.697   2.900
 1865SOL     OW 6493   5.497   1.230   6.283
 1865SOL    HW1 6494   5.401   1.247   6.261
 1865SOL    HW2 6495   5.503   1.187   6.373
 1866SOL     OW 6496   0.466   4.788   3.253
 1866SOL    HW1 6497   0.393   4.843   3.294
 1866SOL    HW2 6498   0.512   4.841   3.183
 1867SOL     OW 6499   2.312   2.382   1.332
 1867SOL    HW1 6500   2.308   2.308   1.264
 1867SOL    HW2 6501   2.395   2.435   1.318
 1868SOL     OW 6502   5.791   4.249   5.658
 1868SOL    HW1 6503   5.815   4.295   5.573
 1868SOL    HW2 6504   5.808   4.311   5.735
 1869SOL     OW 6505   4.999   1.934   4.196
 1869SOL    HW1 6506   5.092   1.952   4.229
 1869SOL    HW2 6507   4.936   1.933   4.274
 1870SOL     OW 6508   0.163   5.575   4.354
 1870SOL    HW1 6509   0.100   5.634   4.405
 1870SOL    HW2 6510   0.256   5.588   4.389
 1871SOL     OW 6511   0.683   6.440   0.574
 1871SOL    HW1 6512   0.756   6.488   0.623
 1871SOL    HW2 6513   0.597   6.489   0.586
 1872SOL     OW 6514   2.546   2.777   1.170
 1872SOL    HW1 6515   2.642   2.776   1.198
 1872SOL    HW2 6516   2.539   2.815   1.078
 1873SOL     OW 6517   6.881   1.563   0.195
 1873SOL    HW1 6518   6.920   1.471   0.200
 1873SOL    HW2 6519   6.898   1.601   0.104
 1874SOL     OW 6520   0.529   6.337   0.044
 1874SOL    HW1 6521   0.433   6.314   0.058
 1874SOL    HW2 6522   0.546   6.431   0.075
 1875SOL     OW 6523   6.525   4.892   0.359
 1875SOL    HW1 6524   6.504   4.804   0.402
 1875SOL    HW2 6525   6.441   4.942   0.342
 1876SOL     OW 6526   0.021   6.231   6.991
 1876SOL    HW1 6527   0.033   6.252   6.894
 1876SOL    HW2 6528   6.960   6.268   7.022
 1877SOL     OW 6529   0.214   0.719   2.513
 1877SOL    HW1 6530   0.289   0.657   2.536
 1877SOL    HW2 6531   0.128   0.669   2.510
 1878SOL     OW 6532   6.310   4.249   3.595
 1878SOL    HW1 6533   6.391   4.252   3.654
 1878SOL    HW2 6534   6.322   4.311   3.518
 1879SOL     OW 6535   4.239   5.562   4.779
 1879SOL    HW1 6536   4.248   5.599   4.686
 1879SOL    HW2 6537   4.215   5.636   4.842
 1880SOL     OW 6538   0.753   1.385   4.190
 1880SOL    HW1 6539   0.765   1.482   4.168
 1880SOL    HW2 6540   0.789   1.329   4.115
 1881SOL     OW 6541   1.236   1.517   4.134
 1881SOL    HW1 6542   1.224   1.432   4.185
 1881SOL    HW2 6543   1.279   1.585   4.193
 1882SOL     OW 6544   1.483   5.438   6.774
 1882SOL    HW1 6545   1.519   5.376   6.705
 1882SOL    HW2 6546   1.548   5.445   6.850
 1883SOL     OW 6547   1.697   3.011   2.812
 1883SOL    HW1 6548   1.715   3.096   2.862
 1883SOL    HW2 6549   1.766   2.943   2.837
 1884SOL     OW 6550   3.092   0.916   0.351
 1884SOL    HW1 6551   3.064   0.896   0.257
 1884SOL    HW2 6552   3.099   1.015   0.363
 1885SOL     OW 6553   0.104   2.181   1.368
 1885SOL    HW1 6554   0.014   2.223   1.374
 1885SOL    HW2 6555   0.098   2.086   1.401
 1886SOL     OW 6556   3.243   3.215   6.239
 1886SOL    HW1 6557   3.196   3.303   6.240
 1886SOL    HW2 6558   3.186   3.146   6.285
 1887SOL     OW 6559   0.529   6.587   5.705
 1887SOL    HW1 6560   0.464   6.663   5.710
 1887SOL    HW2 6561   0.573   6.587   5.615
 1888SOL     OW 6562   2.244   2.136   5.745
 1888SOL    HW1 6563   2.159   2.111   5.791
 1888SOL    HW2 6564   2.254   2.236   5.744
 1889SOL     OW 6565   4.193   2.746   0.269
 1889SOL    HW1 6566   4.134   2.760   0.348
 1889SOL    HW2 6567   4.286   2.727   0.299
 1890SOL     OW 6568   6.613   5.290   6.564
 1890SOL    HW1 6569   6.521   5.329   6.568
 1890SOL    HW2 6570   6.606   5.190   6.565
 1891SOL     OW 6571   6.251   3.611   5.505
 1891SOL    HW1 6572   6.213   3.703   5.503
 1891SOL    HW2 6573   6.345   3.615   5.538
 1892SOL     OW 6574   4.241   5.742   1.637
 1892SOL    HW1 6575   4.232   5.650   1.598
 1892SOL    HW2 6576   4.266   5.734   1.734
 1893SOL     OW 6577   4.050   1.663   4.327
 1893SOL    HW1 6578   4.010   1.577   4.359
 1893SOL    HW2 6579   3.997   1.698   4.250
 1894SOL     OW 6580   3.960   3.870   0.897
 1894SOL    HW1 6581   4.008   3.860   0.984
 1894SOL    HW2 6582   3.930   3.780   0.864
 1895SOL     OW 6583   5.318   0.327   3.455
 1895SOL    HW1 6584   5.395   0.370   3.502
 1895SOL    HW2 6585   5.273   0.394   3.396
 1896SOL     OW 6586   6.866   1.322   5.855
 1896SOL    HW1 6587   6.959   1.361   5.853
 1896SOL    HW2 6588   6.800   1.395   5.837
 1897SOL     OW 6589   5.949   4.662   3.412
 1897SOL    HW1 6590   6.010   4.729   3.455
 1897SOL    HW2 6591   5.983   4.569   3.432
 1898SOL     OW 6592   6.081   4.851   0.331
 1898SOL    HW1 6593   6.103   4.896   0.244
 1898SOL    HW2 6594   6.161   4.800   0.362
 1899SOL     OW 6595   1.077   3.189   2.628
 1899SOL    HW1 6596   1.154   3.213   2.687
 1899SOL    HW2 6597   1.105   3.116   2.565
 1900SOL     OW 6598   1.955   5.657   5.921
 1900SOL    HW1 6599   1.867   5.655   5.874
 1900SOL    HW2 6600   1.995   5.748   5.914
 1901SOL     OW 6601   1.383   1.329   6.542
 1901SOL    HW1 6602   1.407   1.312   6.446
 1901SOL    HW2 6603   1.458   1.298   6.601
 1902SOL     OW 6604   0.567   3.154   4.721
 1902SOL    HW1 6605   0.494   3.086   4.726
 1902SOL    HW2 6606   0.656   3.107   4.719
 1903SOL     OW 6607   6.406   3.041   3.931
 1903SOL    HW1 6608   6.400   3.008   3.837
 1903SOL    HW2 6609   6.393   3.140   3.933
 1904SOL     OW 6610   6.418   6.524   3.647
 1904SOL    HW1 6611   6.393   6.605   3.595
 1904SOL    HW2 6612   6.344   6.456   3.643
 1905SOL     OW 6613   6.673   2.565   3.755
 1905SOL    HW1 6614   6.761   2.560   3.801
 1905SOL    HW2 6615   6.652   2.661   3.735
 1906SOL     OW 6616   2.563   0.428   7.019
 1906SOL    HW1 6617   2.607   0.512   0.022
 1906SOL    HW2 6618   2.488   0.406   0.054
 1907SOL     OW 6619   3.951   5.839   3.771
 1907SOL    HW1 6620   4.025   5.850   3.836
 1907SOL    HW2 6621   3.981   5.783   3.694
 1908SOL     OW 6622   4.422   1.320   6.530
 1908SOL    HW1 6623   4.325   1.302   6.548
 1908SOL    HW2 6624   4.451   1.401   6.581
 1909SOL     OW 6625   2.616   5.065   4.451
 1909SOL    HW1 6626   2.688   5.029   4.392
 1909SOL    HW2 6627   2.558   5.128   4.398
 1910SOL     OW 6628   4.827   1.585   5.630
 1910SOL    HW1 6629   4.914   1.633   5.619
 1910SOL    HW2 6630   4.843   1.497   5.673
 1911SOL     OW 6631   6.203   2.990   5.063
 1911SOL    HW1 6632   6.126   3.021   5.119
 1911SOL    HW2 6633   6.252   2.917   5.111
 1912SOL     OW 6634   3.812   0.213   3.138
 1912SOL    HW1 6635   3.784   0.184   3.046
 1912SOL    HW2 6636   3.773   0.303   3.158
 1913SOL     OW 6637   1.870   4.711   5.499
 1913SOL    HW1 6638   1.784   4.754   5.472
 1913SOL    HW2 6639   1.907   4.757   5.579
 1914SOL     OW 6640   3.515   1.998   6.178
 1914SOL    HW1 6641   3.577   1.928   6.142
 1914SOL    HW2 6642   3.492   2.062   6.105
 1915SOL     OW 6643   3.462   6.925   5.434
 1915SOL    HW1 6644   3.549   6.877   5.446
 1915SOL    HW2 6645   3.446   6.941   5.337
 1916SOL     OW 6646   3.470   6.190   1.615
 1916SOL    HW1 6647   3.459   6.162   1.711
 1916SOL    HW2 6648   3.476   6.109   1.557
 1917SOL     OW 6649   2.914   3.689   4.167
 1917SOL    HW1 6650   2.891   3.752   4.094
 1917SOL    HW2 6651   3.011   3.667   4.163
 1918SOL     OW 6652   5.562   6.295   4.326
 1918SOL    HW1 6653   5.507   6.261   4.402
 1918SOL    HW2 6654   5.545   6.240   4.244
 1919SOL     OW 6655   6.610   0.019   1.656
 1919SOL    HW1 6656   6.574   6.967   1.707
 1919SOL    HW2 6657   6.574   0.104   1.694
 1920SOL     OW 6658   6.763   5.917   4.395
 1920SOL    HW1 6659   6.711   5.990   4.439
 1920SOL    HW2 6660   6.701   5.857   4.345
 1921SOL     OW 6661   1.014   6.741   6.486
 1921SOL    HW1 6662   1.071   6.803   6.539
 1921SOL    HW2 6663   0.954   6.690   6.548
 1922SOL     OW 6664   3.758   4.062   0.843
 1922SOL    HW1 6665   3.818   4.137   0.813
 1922SOL    HW2 6666   3.810   3.977   0.848
 1923SOL     OW 6667   1.989   1.611   0.844
 1923SOL    HW1 6668   1.916   1.561   0.798
 1923SOL    HW2 6669   1.972   1.709   0.836
 1924SOL     OW 6670   0.541   4.655   1.682
 1924SOL    HW1 6671   0.558   4.577   1.622
 1924SOL    HW2 6672   0.515   4.622   1.773
 1925SOL     OW 6673   3.019   4.252   1.476
 1925SOL    HW1 6674   3.036   4.257   1.377
 1925SOL    HW2 6675   3.005   4.157   1.503
 1926SOL     OW 6676   1.465   6.592   3.688
 1926SOL    HW1 6677   1.400   6.536   3.739
 1926SOL    HW2 6678   1.535   6.627   3.751
 1927SOL     OW 6679   3.695   3.842   6.748
 1927SOL    HW1 6680   3.707   3.788   6.664
 1927SOL    HW2 6681   3.598   3.843   6.772
 1928SOL     OW 6682   6.280   4.156   5.728
 1928SOL    HW1 6683   6.361   4.204   5.695
 1928SOL    HW2 6684   6.305   4.062   5.751
 1929SOL     OW 6685   1.041   6.780   1.584
 1929SOL    HW1 6686   0.968   6.841   1.614
 1929SOL    HW2 6687   1.125   6.800   1.634
 1930SOL     OW 6688   5.619   4.198   6.073
 1930SOL    HW1 6689   5.661   4.182   6.162
 1930SOL    HW2 6690   5.540   4.259   6.084
 1931SOL     OW 6691   0.572   2.845   4.217
 1931SOL    HW1 6692   0.584   2.931   4.167
 1931SOL    HW2 6693   0.648   2.783   4.194
 1932SOL     OW 6694   5.747   3.815   1.085
 1932SOL    HW1 6695   5.705   3.737   1.038
 1932SOL    HW2 6696   5.699   3.898   1.060
 1933SOL     OW 6697   3.015   4.241   1.184
 1933SOL    HW1 6698   3.033   4.157   1.133
 1933SOL    HW2 6699   3.046   4.320   1.131
 1934SOL     OW 6700   0.876   6.344   5.694
 1934SOL    HW1 6701   0.905   6.293   5.774
 1934SOL    HW2 6702   0.837   6.432   5.722
 1935SOL     OW 6703   2.349   0.554   3.651
 1935SOL    HW1 6704   2.253   0.561   3.679
 1935SOL    HW2 6705   2.408   0.561   3.731
 1936SOL     OW 6706   6.242   5.762   5.410
 1936SOL    HW1 6707   6.223   5.853   5.373
 1936SOL    HW2 6708   6.269   5.700   5.337
 1937SOL     OW 6709   3.962   6.289   1.968
 1937SOL    HW1 6710   3.923   6.381   1.971
 1937SOL    HW2 6711   3.985   6.266   1.873
 1938SOL     OW 6712   4.451   0.905   3.715
 1938SOL    HW1 6713   4.540   0.949   3.708
 1938SOL    HW2 6714   4.424   0.899   3.811
 1939SOL     OW 6715   1.785   1.228   3.663
 1939SOL    HW1 6716   1.831   1.164   3.602
 1939SOL    HW2 6717   1.686   1.217   3.656
 1940SOL     OW 6718   6.692   5.319   0.533
 1940SOL    HW1 6719   6.663   5.405   0.490
 1940SOL    HW2 6720   6.785   5.330   0.569
 1941SOL     OW 6721   5.285   3.921   1.965
 1941SOL    HW1 6722   5.279   3.943   1.867
 1941SOL    HW2 6723   5.326   3.997   2.014
 1942SOL     OW 6724   6.654   5.190   2.506
 1942SOL    HW1 6725   6.582   5.127   2.535
 1942SOL    HW2 6726   6.735   5.177   2.563
 1943SOL     OW 6727   2.540   4.689   3.359
 1943SOL    HW1 6728   2.444   4.716   3.358
 1943SOL    HW2 6729   2.596   4.765   3.393
 1944SOL     OW 6730   6.700   1.024   0.526
 1944SOL    HW1 6731   6.715   0.990   0.619
 1944SOL    HW2 6732   6.635   0.964   0.479
 1945SOL     OW 6733   3.735   4.865   3.866
 1945SOL    HW1 6734   3.719   4.886   3.963
 1945SOL    HW2 6735   3.649   4.871   3.816
 1946SOL     OW 6736   1.373   0.717   0.118
 1946SOL    HW1 6737   1.340   0.683   0.030
 1946SOL    HW2 6738   1.449   0.781   0.102
 1947SOL     OW 6739   5.663   5.688   3.337
 1947SOL    HW1 6740   5.592   5.759   3.331
 1947SOL    HW2 6741   5.690   5.662   3.244
 1948SOL     OW 6742   6.744   5.579   4.657
 1948SOL    HW1 6743   6.809   5.598   4.732
 1948SOL    HW2 6744   6.672   5.648   4.658
 1949SOL     OW 6745   3.909   4.239   6.603
 1949SOL    HW1 6746   3.902   4.165   6.670
 1949SOL    HW2 6747   3.835   4.305   6.619
 1950SOL     OW 6748   3.359   3.890   6.607
 1950SOL    HW1 6749   3.288   3.914   6.542
 1950SOL    HW2 6750   3.405   3.972   6.640
 1951SOL     OW 6751   5.967   1.215   6.508
 1951SOL    HW1 6752   5.899   1.156   6.553
 1951SOL    HW2 6753   5.938   1.311   6.517
 1952SOL     OW 6754   3.919   2.028   0.372
 1952SOL    HW1 6755   3.988   1.981   0.426
 1952SOL    HW2 6756   3.902   2.119   0.411
 1953SOL     OW 6757   6.981   2.651   6.085
 1953SOL    HW1 6758   0.027   2.606   6.136
 1953SOL    HW2 6759   6.984   2.622   5.989
 1954SOL     OW 6760   3.706   1.968   4.211
 1954SOL    HW1 6761   3.769   2.043   4.230
 1954SOL    HW2 6762   3.620   1.982   4.261
 1955SOL     OW 6763   0.068   6.541   2.510
 1955SOL    HW1 6764   0.141   6.593   2.466
 1955SOL    HW2 6765   0.105   6.458   2.550
 1956SOL     OW 6766   5.892   5.545   2.810
 1956SOL    HW1 6767   5.809   5.493   2.790
 1956SOL    HW2 6768   5.920   5.528   2.905
 1957SOL     OW 6769   0.604   6.295   5.162
 1957SOL    HW1 6770   0.538   6.228   5.198
 1957SOL    HW2 6771   0.581   6.386   5.196
 1958SOL     OW 6772   5.260   3.523   5.817
 1958SOL    HW1 6773   5.294   3.429   5.818
 1958SOL    HW2 6774   5.245   3.553   5.723
 1959SOL     OW 6775   1.536   2.117   6.410
 1959SOL    HW1 6776   1.562   2.057   6.335
 1959SOL    HW2 6777   1.437   2.130   6.408
 1960SOL     OW 6778   5.917   5.424   0.679
 1960SOL    HW1 6779   5.999   5.401   0.732
 1960SOL    HW2 6780   5.847   5.354   0.695
 1961SOL     OW 6781   5.929   4.202   3.867
 1961SOL    HW1 6782   5.838   4.170   3.893
 1961SOL    HW2 6783   5.921   4.286   3.813
 1962SOL     OW 6784   1.369   6.139   3.260
 1962SOL    HW1 6785   1.411   6.162   3.348
 1962SOL    HW2 6786   1.421   6.065   3.217
 1963SOL     OW 6787   1.176   0.317   2.691
 1963SOL    HW1 6788   1.269   0.354   2.682
 1963SOL    HW2 6789   1.145   0.325   2.785
 1964SOL     OW 6790   4.588   2.631   2.714
 1964SOL    HW1 6791   4.642   2.659   2.793
 1964SOL    HW2 6792   4.515   2.569   2.743
 1965SOL     OW 6793   1.123   3.811   3.295
 1965SOL    HW1 6794   1.086   3.718   3.286
 1965SOL    HW2 6795   1.133   3.834   3.392
 1966SOL     OW 6796   6.555   5.402   5.495
 1966SOL    HW1 6797   6.464   5.375   5.526
 1966SOL    HW2 6798   6.591   5.473   5.555
 1967SOL     OW 6799   4.583   2.897   5.183
 1967SOL    HW1 6800   4.490   2.868   5.204
 1967SOL    HW2 6801   4.605   2.980   5.234
 1968SOL     OW 6802   2.681   6.227   0.151
 1968SOL    HW1 6803   2.659   6.211   0.055
 1968SOL    HW2 6804   2.761   6.172   0.176
 1969SOL     OW 6805   6.721   2.269   1.566
 1969SOL    HW1 6806   6.760   2.180   1.589
 1969SOL    HW2 6807   6.635   2.256   1.517
 1970SOL     OW 6808   1.635   6.997   4.537
 1970SOL    HW1 6809   1.639   6.902   4.565
 1970SOL    HW2 6810   1.725   0.014   4.547
 1971SOL     OW 6811   0.436   6.876   6.869
 1971SOL    HW1 6812   0.391   6.803   6.920
 1971SOL    HW2 6813   0.535   6.863   6.871
 1972SOL     OW 6814   0.978   4.348   3.672
 1972SOL    HW1 6815   1.037   4.304   3.738
 1972SOL    HW2 6816   0.922   4.417   3.718
 1973SOL     OW 6817   3.711   2.473   1.458
 1973SOL    HW1 6818   3.720   2.472   1.358
 1973SOL    HW2 6819   3.615   2.459   1.482
 1974SOL     OW 6820   5.405   0.541   3.940
 1974SOL    HW1 6821   5.354   0.626   3.949
 1974SOL    HW2 6822   5.404   0.492   4.027
 1975SOL     OW 6823   3.491   0.534   4.095
 1975SOL    HW1 6824   3.514   0.566   4.004
 1975SOL    HW2 6825   3.391   0.539   4.108
 1976SOL     OW 6826   0.530   6.076   0.646
 1976SOL    HW1 6827   0.508   6.008   0.577
 1976SOL    HW2 6828   0.462   6.072   0.720
 1977SOL     OW 6829   1.050   2.409   4.956
 1977SOL    HW1 6830   1.056   2.407   4.856
 1977SOL    HW2 6831   1.142   2.409   4.995
 1978SOL     OW 6832   7.003   1.472   4.742
 1978SOL    HW1 6833   6.988   1.467   4.643
 1978SOL    HW2 6834   0.070   1.504   4.759
 1979SOL     OW 6835   6.781   4.617   4.090
 1979SOL    HW1 6836   6.822   4.563   4.016
 1979SOL    HW2 6837   6.830   4.703   4.099
 1980SOL     OW 6838   3.904   0.122   1.326
 1980SOL    HW1 6839   3.913   0.171   1.412
 1980SOL    HW2 6840   3.980   0.146   1.266
 1981SOL     OW 6841   5.009   2.973   1.990
 1981SOL    HW1 6842   5.022   2.969   1.891
 1981SOL    HW2 6843   4.912   2.988   2.010
 1982SOL     OW 6844   5.733   5.364   4.862
 1982SOL    HW1 6845   5.820   5.343   4.818
 1982SOL    HW2 6846   5.749   5.418   4.945
 1983SOL     OW 6847   1.305   2.887   3.180
 1983SOL    HW1 6848   1.294   2.970   3.235
 1983SOL    HW2 6849   1.257   2.899   3.093
 1984SOL     OW 6850   3.875   1.981   6.079
 1984SOL    HW1 6851   3.891   2.069   6.122
 1984SOL    HW2 6852   3.830   1.994   5.991
 1985SOL     OW 6853   1.163   1.061   1.698
 1985SOL    HW1 6854   1.158   0.978   1.754
 1985SOL    HW2 6855   1.222   1.128   1.744
 1986SOL     OW 6856   1.452   2.188   6.937
 1986SOL    HW1 6857   1.387   2.253   6.975
 1986SOL    HW2 6858   1.493   2.135   7.011
 1987SOL     OW 6859   2.613   3.385   1.372
 1987SOL    HW1 6860   2.591   3.380   1.469
 1987SOL    HW2 6861   2.681   3.316   1.350
 1988SOL     OW 6862   4.884   3.732   6.714
 1988SOL    HW1 6863   4.821   3.654   6.711
 1988SOL    HW2 6864   4.892   3.765   6.808
 1989SOL     OW 6865   2.258   0.244   4.415
 1989SOL    HW1 6866   2.273   0.339   4.443
 1989SOL    HW2 6867   2.190   0.242   4.342
 1990SOL     OW 6868   3.201   0.636   1.038
 1990SOL    HW1 6869   3.216   0.553   0.984
 1990SOL    HW2 6870   3.141   0.615   1.115
 1991SOL     OW 6871   3.348   5.803   4.662
 1991SOL    HW1 6872   3.299   5.722   4.631
 1991SOL    HW2 6873   3.394   5.784   4.748
 1992SOL     OW 6874   2.228   6.867   5.025
 1992SOL    HW1 6875   2.294   6.919   4.971
 1992SOL    HW2 6876   2.152   6.838   4.966
 1993SOL     OW 6877   3.534   3.636   5.400
 1993SOL    HW1 6878   3.521   3.580   5.318
 1993SOL    HW2 6879   3.507   3.730   5.381
 1994SOL     OW 6880   6.681   1.957   2.173
 1994SOL    HW1 6881   6.605   1.954   2.108
 1994SOL    HW2 6882   6.667   1.888   2.243
 1995SOL     OW 6883   6.132   1.808   1.560
 1995SOL    HW1 6884   6.051   1.845   1.514
 1995SOL    HW2 6885   6.131   1.708   1.555
 1996SOL     OW 6886   3.349   4.200   0.414
 1996SOL    HW1 6887   3.329   4.107   0.384
 1996SOL    HW2 6888   3.265   4.255   0.408
 1997SOL     OW 6889   5.311   6.922   4.452
 1997SOL    HW1 6890   5.328   7.008   4.498
 1997SOL    HW2 6891   5.239   6.934   4.383
 1998SOL     OW 6892   2.663   4.246   6.667
 1998SOL    HW1 6893   2.720   4.257   6.585
 1998SOL    HW2 6894   2.574   4.208   6.640
 1999SOL     OW 6895   2.518   7.003   1.988
 1999SOL    HW1 6896   2.419   7.012   1.997
 1999SOL    HW2 6897   2.554   6.948   2.063
 2000SOL     OW 6898   3.899   1.091   4.926
 2000SOL    HW1 6899   3.802   1.070   4.919
 2000SOL    HW2 6900   3.928   1.145   4.847
 2001SOL     OW 6901   2.934   1.527   1.183
 2001SOL    HW1 6902   2.887   1.504   1.269
 2001SOL    HW2 6903   2.980   1.445   1.148
 2002SOL     OW 6904   1.971   5.912   5.777
 2002SOL    HW1 6905   2.066   5.944   5.780
 2002SOL    HW2 6906   1.966   5.831   5.719
 2003SOL     OW 6907   5.903   6.290   3.593
 2003SOL    HW1 6908   5.842   6.336   3.658
 2003SOL    HW2 6909   5.858   6.284   3.504
 2004SOL     OW 6910   3.202   0.897   5.910
 2004SOL    HW1 6911   3.192   0.817   5.851
 2004SOL    HW2 6912   3.241   0.972   5.858
 2005SOL     OW 6913   2.309   6.310   6.019
 2005SOL    HW1 6914   2.279   6.356   6.103
 2005SOL    HW2 6915   2.331   6.215   6.040
 2006SOL     OW 6916   4.363   4.935   4.435
 2006SOL    HW1 6917   4.437   4.914   4.499
 2006SOL    HW2 6918   4.368   5.032   4.409
 2007SOL     OW 6919   5.189   5.265   0.226
 2007SOL    HW1 6920   5.183   5.186   0.287
 2007SOL    HW2 6921   5.285   5.282   0.203
 2008SOL     OW 6922   6.621   6.427   3.334
 2008SOL    HW1 6923   6.538   6.414   3.389
 2008SOL    HW2 6924   6.693   6.467   3.392
 2009SOL     OW 6925   0.391   0.413   1.864
 2009SOL    HW1 6926   0.395   0.483   1.793
 2009SOL    HW2 6927   0.484   0.385   1.888
 2010SOL     OW 6928   0.711   0.591   0.999
 2010SOL    HW1 6929   0.802   0.623   0.973
 2010SOL    HW2 6930   0.644   0.664   0.985
 2011SOL     OW 6931   6.604   2.056   4.976
 2011SOL    HW1 6932   6.629   1.959   4.986
 2011SOL    HW2 6933   6.580   2.074   4.881
 2012SOL     OW 6934   1.358   4.319   1.499
 2012SOL    HW1 6935   1.316   4.276   1.419
 2012SOL    HW2 6936   1.457   4.301   1.498
 2013SOL     OW 6937   5.943   2.179   2.606
 2013SOL    HW1 6938   5.903   2.100   2.559
 2013SOL    HW2 6939   5.949   2.160   2.704
 2014SOL     OW 6940   1.885   6.054   3.847
 2014SOL    HW1 6941   1.960   6.108   3.884
 2014SOL    HW2 6942   1.840   6.004   3.921
 2015SOL     OW 6943   3.529   0.310   7.007
 2015SOL    HW1 6944   3.473   0.316   0.063
 2015SOL    HW2 6945   3.471   0.320   6.926
 2016SOL     OW 6946   0.672   5.648   4.256
 2016SOL    HW1 6947   0.742   5.685   4.195
 2016SOL    HW2 6948   0.711   5.573   4.309
 2017SOL     OW 6949   2.309   6.040   3.099
 2017SOL    HW1 6950   2.334   6.136   3.104
 2017SOL    HW2 6951   2.230   6.022   3.159
 2018SOL     OW 6952   0.378   5.755   5.990
 2018SOL    HW1 6953   0.413   5.708   5.909
 2018SOL    HW2 6954   0.287   5.792   5.971
 2019SOL     OW 6955   6.154   2.348   1.282
 2019SOL    HW1 6956   6.124   2.253   1.291
 2019SOL    HW2 6957   6.120   2.385   1.196
 2020SOL     OW 6958   2.243   4.907   3.767
 2020SOL    HW1 6959   2.168   4.841   3.757
 2020SOL    HW2 6960   2.329   4.864   3.738
 2021SOL     OW 6961   1.645   0.779   2.615
 2021SOL    HW1 6962   1.718   0.795   2.682
 2021SOL    HW2 6963   1.639   0.858   2.554
 2022SOL     OW 6964   2.527   3.666   1.689
 2022SOL    HW1 6965   2.443   3.713   1.719
 2022SOL    HW2 6966   2.522   3.570   1.715
 2023SOL     OW 6967   6.945   1.340   6.539
 2023SOL    HW1 6968   6.905   1.408   6.599
 2023SOL    HW2 6969   6.912   1.249   6.565
 2024SOL     OW 6970   6.403   0.644   3.628
 2024SOL    HW1 6971   6.425   0.550   3.605
 2024SOL    HW2 6972   6.307   0.663   3.606
 2025SOL     OW 6973   0.378   2.101   1.557
 2025SOL    HW1 6974   0.430   2.051   1.627
 2025SOL    HW2 6975   0.290   2.128   1.595
 2026SOL     OW 6976   2.427   2.103   5.415
 2026SOL    HW1 6977   2.371   2.028   5.451
 2026SOL    HW2 6978   2.451   2.165   5.489
 2027SOL     OW 6979   1.294   1.182   2.313
 2027SOL    HW1 6980   1.221   1.176   2.381
 2027SOL    HW2 6981   1.363   1.247   2.344
 2028SOL     OW 6982   3.594   1.736   0.473
 2028SOL    HW1 6983   3.583   1.667   0.402
 2028SOL    HW2 6984   3.507   1.747   0.523
 2029SOL     OW 6985   1.126   1.275   6.653
 2029SOL    HW1 6986   1.113   1.370   6.625
 2029SOL    HW2 6987   1.213   1.241   6.616
 2030SOL     OW 6988   1.770   2.356   3.797
 2030SOL    HW1 6989   1.730   2.447   3.796
 2030SOL    HW2 6990   1.770   2.319   3.704
 2031SOL     OW 6991   5.800   5.989   2.014
 2031SOL    HW1 6992   5.850   6.041   1.945
 2031SOL    HW2 6993   5.702   6.005   2.004
 2032SOL     OW 6994   5.138   6.047   6.927
 2032SOL    HW1 6995   5.048   6.028   6.967
 2032SOL    HW2 6996   5.127   6.074   6.832
 2033SOL     OW 6997   5.210   4.837   6.540
 2033SOL    HW1 6998   5.252   4.758   6.496
 2033SOL    HW2 6999   5.162   4.892   6.471
 2034SOL     OW 7000   2.877   6.648   3.143
 2034SOL    HW1 7001   2.859   6.746   3.150
 2034SOL    HW2 7002   2.975   6.634   3.127
 2035SOL     OW 7003   0.474   1.608   2.797
 2035SOL    HW1 7004   0.394   1.652   2.756
 2035SOL    HW2 7005   0.516   1.670   2.863
 2036SOL     OW 7006   0.344   5.302   0.755
 2036SOL    HW1 7007   0.406   5.227   0.732
 2036SOL    HW2 7008   0.342   5.313   0.855
 2037SOL     OW 7009   6.591   2.395   5.452
 2037SOL    HW1 7010   6.559   2.396   5.358
 2037SOL    HW2 7011   6.555   2.315   5.500
 2038SOL     OW 7012   0.481   1.543   4.903
 2038SOL    HW1 7013   0.561   1.491   4.874
 2038SOL    HW2 7014   0.507   1.604   4.978
 2039SOL     OW 7015   6.399   5.379   3.548
 2039SOL    HW1 7016   6.421   5.476   3.536
 2039SOL    HW2 7017   6.476   5.323   3.516
 2040SOL     OW 7018   3.997   3.261   4.471
 2040SOL    HW1 7019   3.965   3.182   4.522
 2040SOL    HW2 7020   3.962   3.257   4.377
 2041SOL     OW 7021   6.056   4.878   5.941
 2041SOL    HW1 7022   6.021   4.839   5.856
 2041SOL    HW2 7023   6.002   4.844   6.018
 2042SOL     OW 7024   4.943   4.828   0.754
 2042SOL    HW1 7025   5.023   4.888   0.750
 2042SOL    HW2 7026   4.911   4.821   0.849
 2043SOL     OW 7027   5.790   5.009   2.655
 2043SOL    HW1 7028   5.748   5.053   2.576
 2043SOL    HW2 7029   5.826   5.079   2.717
 2044SOL     OW 7030   5.964   0.189   2.000
 2044SOL    HW1 7031   5.906   0.107   2.006
 2044SOL    HW2 7032   5.955   0.230   1.910
 2045SOL     OW 7033   2.446   4.710   6.144
 2045SOL    HW1 7034   2.464   4.770   6.223
 2045SOL    HW2 7035   2.400   4.627   6.175
 2046SOL     OW 7036   6.600   0.838   4.286
 2046SOL    HW1 7037   6.531   0.883   4.229
 2046SOL    HW2 7038   6.598   0.739   4.269
 2047SOL     OW 7039   4.964   2.527   1.256
 2047SOL    HW1 7040   4.886   2.578   1.218
 2047SOL    HW2 7041   4.935   2.482   1.340
 2048SOL     OW 7042   3.758   0.200   0.042
 2048SOL    HW1 7043   3.662   0.225   0.028
 2048SOL    HW2 7044   3.768   0.101   0.029
 2049SOL     OW 7045   4.544   1.241   0.025
 2049SOL    HW1 7046   4.588   1.181   6.985
 2049SOL    HW2 7047   4.445   1.224   0.025
 2050SOL     OW 7048   5.960   2.638   3.992
 2050SOL    HW1 7049   6.058   2.648   3.975
 2050SOL    HW2 7050   5.915   2.604   3.910
 2051SOL     OW 7051   1.187   5.814   7.002
 2051SOL    HW1 7052   1.251   5.870   0.029
 2051SOL    HW2 7053   1.146   5.870   6.930
 2052SOL     OW 7054   0.993   3.014   6.639
 2052SOL    HW1 7055   1.086   3.049   6.626
 2052SOL    HW2 7056   0.950   2.999   6.550
 2053SOL     OW 7057   6.489   0.935   0.346
 2053SOL    HW1 7058   6.556   0.899   0.282
 2053SOL    HW2 7059   6.399   0.897   0.323
 2054SOL     OW 7060   6.293   3.126   0.772
 2054SOL    HW1 7061   6.357   3.167   0.707
 2054SOL    HW2 7062   6.283   3.028   0.751
 2055SOL     OW 7063   5.577   2.502   3.208
 2055SOL    HW1 7064   5.498   2.564   3.203
 2055SOL    HW2 7065   5.587   2.469   3.302
 2056SOL     OW 7066   2.203   1.210   3.165
 2056SOL    HW1 7067   2.131   1.218   3.096
 2056SOL    HW2 7068   2.264   1.289   3.158
 2057SOL     OW 7069   6.239   2.520   4.182
 2057SOL    HW1 7070   6.202   2.573   4.106
 2057SOL    HW2 7071   6.310   2.457   4.148
 2058SOL     OW 7072   0.257   2.254   3.181
 2058SOL    HW1 7073   0.330   2.322   3.179
 2058SOL    HW2 7074   0.254   2.206   3.093
 2059SOL     OW 7075   2.121   1.191   6.503
 2059SOL    HW1 7076   2.179   1.263   6.543
 2059SOL    HW2 7077   2.174   1.141   6.434
 2060SOL     OW 7078   0.085   4.642   1.839
 2060SOL    HW1 7079   0.064   4.547   1.861
 2060SOL    HW2 7080   0.003   4.698   1.850
 2061SOL     OW 7081   0.269   1.081   2.705
 2061SOL    HW1 7082   0.248   1.067   2.609
 2061SOL    HW2 7083   0.187   1.062   2.760
 2062SOL     OW 7084   4.358   0.078   2.257
 2062SOL    HW1 7085   4.358   0.120   2.347
 2062SOL    HW2 7086   4.450   0.085   2.217
 2063SOL     OW 7087   1.800   2.844   6.268
 2063SOL    HW1 7088   1.811   2.920   6.332
 2063SOL    HW2 7089   1.702   2.828   6.253
 2064SOL     OW 7090   0.935   2.341   5.605
 2064SOL    HW1 7091   0.865   2.324   5.536
 2064SOL    HW2 7092   0.911   2.424   5.656
 2065SOL     OW 7093   6.151   3.430   2.123
 2065SOL    HW1 7094   6.204   3.354   2.086
 2065SOL    HW2 7095   6.171   3.513   2.071
 2066SOL     OW 7096   0.334   6.166   4.815
 2066SOL    HW1 7097   0.295   6.198   4.901
 2066SOL    HW2 7098   0.413   6.109   4.833
 2067SOL     OW 7099   6.833   6.852   0.743
 2067SOL    HW1 7100   6.775   6.925   0.779
 2067SOL    HW2 7101   6.914   6.892   0.699
 2068SOL     OW 7102   2.405   1.403   5.410
 2068SOL    HW1 7103   2.492   1.438   5.377
 2068SOL    HW2 7104   2.365   1.342   5.342
 2069SOL     OW 7105   0.691   3.061   2.296
 2069SOL    HW1 7106   0.732   2.970   2.303
 2069SOL    HW2 7107   0.758   3.130   2.323
 2070SOL     OW 7108   1.373   0.612   2.644
 2070SOL    HW1 7109   1.395   0.518   2.671
 2070SOL    HW2 7110   1.457   0.665   2.637
 2071SOL     OW 7111   0.489   6.622   3.647
 2071SOL    HW1 7112   0.484   6.671   3.559
 2071SOL    HW2 7113   0.481   6.687   3.722
 2072SOL     OW 7114   4.906   6.041   2.022
 2072SOL    HW1 7115   4.893   6.034   2.120
 2072SOL    HW2 7116   4.970   6.115   2.002
 2073SOL     OW 7117   3.978   6.910   5.105
 2073SOL    HW1 7118   3.917   6.833   5.125
 2073SOL    HW2 7119   4.043   6.884   5.033
 2074SOL     OW 7120   6.791   1.828   0.818
 2074SOL    HW1 7121   6.737   1.832   0.734
 2074SOL    HW2 7122   6.868   1.765   0.805
 2075SOL     OW 7123   4.242   3.089   1.017
 2075SOL    HW1 7124   4.199   3.004   0.989
 2075SOL    HW2 7125   4.214   3.162   0.954
 2076SOL     OW 7126   5.339   5.786   0.086
 2076SOL    HW1 7127   5.433   5.753   0.089
 2076SOL    HW2 7128   5.336   5.882   0.114
 2077SOL     OW 7129   5.780   1.522   2.342
 2077SOL    HW1 7130   5.795   1.450   2.411
 2077SOL    HW2 7131   5.771   1.480   2.252
 2078SOL     OW 7132   2.662   5.659   6.471
 2078SOL    HW1 7133   2.721   5.586   6.434
 2078SOL    HW2 7134   2.567   5.637   6.453
 2079SOL     OW 7135   5.795   0.743   3.686
 2079SOL    HW1 7136   5.833   0.657   3.650
 2079SOL    HW2 7137   5.709   0.762   3.640
 2080SOL     OW 7138   2.589   2.121   4.822
 2080SOL    HW1 7139   2.621   2.093   4.732
 2080SOL    HW2 7140   2.631   2.208   4.846
 2081SOL     OW 7141   1.027   6.739   5.175
 2081SOL    HW1 7142   0.980   6.657   5.144
 2081SOL    HW2 7143   0.981   6.776   5.255
 2082SOL     OW 7144   5.560   0.691   1.280
 2082SOL    HW1 7145   5.573   0.600   1.240
 2082SOL    HW2 7146   5.472   0.728   1.251
 2083SOL     OW 7147   3.497   5.617   0.229
 2083SOL    HW1 7148   3.519   5.700   0.282
 2083SOL    HW2 7149   3.411   5.630   0.181
 2084SOL     OW 7150   6.898   2.414   3.195
 2084SOL    HW1 7151   6.869   2.497   3.243
 2084SOL    HW2 7152   6.828   2.389   3.127
 2085SOL     OW 7153   4.535   1.084   6.543
 2085SOL    HW1 7154   4.571   1.078   6.636
 2085SOL    HW2 7155   4.492   1.174   6.530
 2086SOL     OW 7156   3.421   4.213   6.902
 2086SOL    HW1 7157   3.509   4.248   6.870
 2086SOL    HW2 7158   3.437   4.143   6.971
 2087SOL     OW 7159   5.274   6.431   2.841
 2087SOL    HW1 7160   5.206   6.482   2.894
 2087SOL    HW2 7161   5.232   6.397   2.756
 2088SOL     OW 7162   3.441   6.559   0.991
 2088SOL    HW1 7163   3.356   6.507   0.986
 2088SOL    HW2 7164   3.428   6.638   1.052
 2089SOL     OW 7165   4.876   1.516   0.043
 2089SOL    HW1 7166   4.881   1.470   6.981
 2089SOL    HW2 7167   4.815   1.466   0.104
 2090SOL     OW 7168   3.819   4.000   4.492
 2090SOL    HW1 7169   3.756   4.074   4.470
 2090SOL    HW2 7170   3.826   3.990   4.592
 2091SOL     OW 7171   0.337   5.803   0.728
 2091SOL    HW1 7172   0.285   5.831   0.647
 2091SOL    HW2 7173   0.340   5.879   0.793
 2092SOL     OW 7174   5.680   6.036   0.895
 2092SOL    HW1 7175   5.653   6.117   0.948
 2092SOL    HW2 7176   5.668   6.055   0.797
 2093SOL     OW 7177   1.216   2.693   2.193
 2093SOL    HW1 7178   1.276   2.703   2.272
 2093SOL    HW2 7179   1.224   2.774   2.135
 2094SOL     OW 7180   6.023   0.484   1.973
 2094SOL    HW1 7181   6.011   0.404   2.032
 2094SOL    HW2 7182   5.935   0.530   1.961
 2095SOL     OW 7183   5.311   5.827   3.898
 2095SOL    HW1 7184   5.308   5.924   3.920
 2095SOL    HW2 7185   5.275   5.812   3.806
 2096SOL     OW 7186   4.925   4.029   2.297
 2096SOL    HW1 7187   4.950   4.117   2.337
 2096SOL    HW2 7188   4.877   3.973   2.365
 2097SOL     OW 7189   0.698   2.959   6.738
 2097SOL    HW1 7190   0.667   2.916   6.823
 2097SOL    HW2 7191   0.798   2.964   6.737
 2098SOL     OW 7192   4.528   6.111   3.933
 2098SOL    HW1 7193   4.481   6.038   3.883
 2098SOL    HW2 7194   4.497   6.113   4.028
 2099SOL     OW 7195   2.802   0.962   4.901
 2099SOL    HW1 7196   2.815   1.051   4.856
 2099SOL    HW2 7197   2.864   0.954   4.979
 2100SOL     OW 7198   3.882   4.050   6.791
 2100SOL    HW1 7199   3.816   3.974   6.787
 2100SOL    HW2 7200   3.974   4.014   6.774
 2101SOL     OW 7201   0.606   0.185   3.041
 2101SOL    HW1 7202   0.645   0.276   3.053
 2101SOL    HW2 7203   0.617   0.132   3.124
 2102SOL     OW 7204   0.262   5.876   2.574
 2102SOL    HW1 7205   0.166   5.865   2.549
 2102SOL    HW2 7206   0.319   5.827   2.509
 2103SOL     OW 7207   3.477   3.502   6.733
 2103SOL    HW1 7208   3.418   3.539   6.661
 2103SOL    HW2 7209   3.494   3.573   6.801
 2104SOL     OW 7210   1.647   3.370   6.146
 2104SOL    HW1 7211   1.593   3.423   6.212
 2104SOL    HW2 7212   1.589   3.346   6.068
 2105SOL     OW 7213   5.688   5.397   2.739
 2105SOL    HW1 7214   5.665   5.330   2.810
 2105SOL    HW2 7215   5.608   5.415   2.682
 2106SOL     OW 7216   4.322   5.027   6.713
 2106SOL    HW1 7217   4.258   5.069   6.650
 2106SOL    HW2 7218   4.280   5.020   6.804
 2107SOL     OW 7219   3.943   4.026   5.817
 2107SOL    HW1 7220   4.000   3.966   5.873
 2107SOL    HW2 7221   3.972   4.021   5.722
 2108SOL     OW 7222   6.216   5.077   5.261
 2108SOL    HW1 7223   6.127   5.114   5.289
 2108SOL    HW2 7224   6.255   5.025   5.336
 2109SOL     OW 7225   5.371   6.022   3.217
 2109SOL    HW1 7226   5.378   5.974   3.130
 2109SOL    HW2 7227   5.277   6.054   3.231
 2110SOL     OW 7228   2.855   4.922   6.770
 2110SOL    HW1 7229   2.819   4.908   6.678
 2110SOL    HW2 7230   2.952   4.899   6.771
 2111SOL     OW 7231   0.727   2.535   6.182
 2111SOL    HW1 7232   0.643   2.488   6.155
 2111SOL    HW2 7233   0.797   2.467   6.206
 2112SOL     OW 7234   4.079   2.803   1.734
 2112SOL    HW1 7235   4.001   2.837   1.785
 2112SOL    HW2 7236   4.116   2.875   1.675
 2113SOL     OW 7237   1.708   0.134   2.415
 2113SOL    HW1 7238   1.631   0.198   2.416
 2113SOL    HW2 7239   1.779   0.166   2.477
 2114SOL     OW 7240   1.484   4.195   0.664
 2114SOL    HW1 7241   1.392   4.227   0.641
 2114SOL    HW2 7242   1.526   4.256   0.731
 2115SOL     OW 7243   2.409   4.423   3.051
 2115SOL    HW1 7244   2.346   4.401   2.976
 2115SOL    HW2 7245   2.495   4.457   3.013
 2116SOL     OW 7246   6.706   3.835   3.048
 2116SOL    HW1 7247   6.697   3.922   3.000
 2116SOL    HW2 7248   6.795   3.794   3.026
 2117SOL     OW 7249   7.004   4.446   1.572
 2117SOL    HW1 7250   6.981   4.542   1.588
 2117SOL    HW2 7251   6.933   4.404   1.515
 2118SOL     OW 7252   0.084   3.517   2.153
 2118SOL    HW1 7253   0.148   3.443   2.133
 2118SOL    HW2 7254   0.055   3.561   2.068
 2119SOL     OW 7255   1.972   5.404   0.852
 2119SOL    HW1 7256   2.036   5.339   0.894
 2119SOL    HW2 7257   1.889   5.356   0.825
 2120SOL     OW 7258   6.219   4.240   2.666
 2120SOL    HW1 7259   6.268   4.323   2.641
 2120SOL    HW2 7260   6.282   4.163   2.668
 2121SOL     OW 7261   0.518   5.783   5.325
 2121SOL    HW1 7262   0.586   5.818   5.391
 2121SOL    HW2 7263   0.566   5.745   5.246
 2122SOL     OW 7264   5.594   4.231   5.471
 2122SOL    HW1 7265   5.509   4.202   5.516
 2122SOL    HW2 7266   5.672   4.211   5.531
 2123SOL     OW 7267   6.762   4.359   2.600
 2123SOL    HW1 7268   6.695   4.395   2.664
 2123SOL    HW2 7269   6.854   4.373   2.637
 2124SOL     OW 7270   1.701   1.321   1.567
 2124SOL    HW1 7271   1.622   1.379   1.548
 2124SOL    HW2 7272   1.718   1.320   1.665
 2125SOL     OW 7273   2.002   1.163   6.936
 2125SOL    HW1 7274   2.008   1.249   6.987
 2125SOL    HW2 7275   2.071   1.099   6.970
 2126SOL     OW 7276   2.486   1.126   6.852
 2126SOL    HW1 7277   2.544   1.163   6.779
 2126SOL    HW2 7278   2.446   1.202   6.904
 2127SOL     OW 7279   5.929   2.490   4.501
 2127SOL    HW1 7280   5.949   2.572   4.447
 2127SOL    HW2 7281   6.010   2.432   4.504
 2128SOL     OW 7282   0.868   4.593   4.732
 2128SOL    HW1 7283   0.906   4.501   4.723
 2128SOL    HW2 7284   0.836   4.608   4.825
 2129SOL     OW 7285   4.590   2.846   5.610
 2129SOL    HW1 7286   4.512   2.794   5.643
 2129SOL    HW2 7287   4.660   2.783   5.575
 2130SOL     OW 7288   5.382   6.587   2.566
 2130SOL    HW1 7289   5.376   6.542   2.655
 2130SOL    HW2 7290   5.306   6.651   2.557
 2131SOL     OW 7291   0.143   1.461   0.402
 2131SOL    HW1 7292   0.101   1.371   0.392
 2131SOL    HW2 7293   0.200   1.480   0.321
 2132SOL     OW 7294   2.998   2.973   1.136
 2132SOL    HW1 7295   3.021   2.903   1.203
 2132SOL    HW2 7296   3.050   3.056   1.154
 2133SOL     OW 7297   2.600   2.576   6.105
 2133SOL    HW1 7298   2.521   2.546   6.051
 2133SOL    HW2 7299   2.595   2.536   6.196
 2134SOL     OW 7300   6.486   1.995   1.346
 2134SOL    HW1 7301   6.487   1.925   1.418
 2134SOL    HW2 7302   6.580   2.024   1.327
 2135SOL     OW 7303   1.029   4.118   4.247
 2135SOL    HW1 7304   1.000   4.039   4.194
 2135SOL    HW2 7305   1.126   4.109   4.271
 2136SOL     OW 7306   2.719   5.681   1.642
 2136SOL    HW1 7307   2.693   5.705   1.548
 2136SOL    HW2 7308   2.787   5.746   1.675
 2137SOL     OW 7309   3.229   5.484   4.921
 2137SOL    HW1 7310   3.305   5.547   4.905
 2137SOL    HW2 7311   3.241   5.440   5.010
 2138SOL     OW 7312   6.187   1.066   3.098
 2138SOL    HW1 7313   6.233   0.982   3.125
 2138SOL    HW2 7314   6.247   1.119   3.038
 2139SOL     OW 7315   3.074   0.881   5.527
 2139SOL    HW1 7316   3.084   0.939   5.608
 2139SOL    HW2 7317   3.104   0.933   5.446
 2140SOL     OW 7318   2.804   0.706   5.265
 2140SOL    HW1 7319   2.841   0.616   5.285
 2140SOL    HW2 7320   2.878   0.773   5.260
 2141SOL     OW 7321   6.221   4.337   2.352
 2141SOL    HW1 7322   6.252   4.406   2.418
 2141SOL    HW2 7323   6.296   4.273   2.333
 2142SOL     OW 7324   1.599   3.044   4.125
 2142SOL    HW1 7325   1.691   3.041   4.163
 2142SOL    HW2 7326   1.604   3.068   4.028
 2143SOL     OW 7327   2.618   5.547   1.220
 2143SOL    HW1 7328   2.526   5.534   1.185
 2143SOL    HW2 7329   2.685   5.527   1.148
 2144SOL     OW 7330   6.941   5.258   4.679
 2144SOL    HW1 7331   6.931   5.335   4.742
 2144SOL    HW2 7332   6.869   5.261   4.609
 2145SOL     OW 7333   4.059   6.483   4.359
 2145SOL    HW1 7334   4.120   6.443   4.291
 2145SOL    HW2 7335   4.010   6.560   4.318
 2146SOL     OW 7336   2.323   2.630   1.079
 2146SOL    HW1 7337   2.274   2.703   1.031
 2146SOL    HW2 7338   2.399   2.668   1.130
 2147SOL     OW 7339   6.535   1.845   5.597
 2147SOL    HW1 7340   6.596   1.766   5.600
 2147SOL    HW2 7341   6.441   1.814   5.590
 2148SOL     OW 7342   0.146   2.819   6.415
 2148SOL    HW1 7343   0.125   2.862   6.327
 2148SOL    HW2 7344   0.062   2.794   6.462
 2149SOL     OW 7345   0.935   0.696   0.874
 2149SOL    HW1 7346   0.892   0.740   0.795
 2149SOL    HW2 7347   1.033   0.687   0.859
 2150SOL     OW 7348   2.446   2.782   1.780
 2150SOL    HW1 7349   2.449   2.705   1.843
 2150SOL    HW2 7350   2.379   2.849   1.811
 2151SOL     OW 7351   0.929   6.725   0.084
 2151SOL    HW1 7352   0.905   6.654   0.150
 2151SOL    HW2 7353   0.848   6.751   0.032
 2152SOL     OW 7354   4.034   5.599   2.363
 2152SOL    HW1 7355   4.018   5.673   2.297
 2152SOL    HW2 7356   4.044   5.512   2.314
 2153SOL     OW 7357   4.485   1.091   2.639
 2153SOL    HW1 7358   4.455   1.008   2.686
 2153SOL    HW2 7359   4.570   1.073   2.591
 2154SOL     OW 7360   3.128   6.478   3.608
 2154SOL    HW1 7361   3.135   6.382   3.580
 2154SOL    HW2 7362   3.064   6.526   3.549
 2155SOL     OW 7363   4.190   6.977   1.209
 2155SOL    HW1 7364   4.186   0.015   1.286
 2155SOL    HW2 7365   4.132   6.898   1.229
 2156SOL     OW 7366   6.492   1.446   3.487
 2156SOL    HW1 7367   6.528   1.439   3.580
 2156SOL    HW2 7368   6.549   1.391   3.425
 2157SOL     OW 7369   4.214   5.517   3.773
 2157SOL    HW1 7370   4.122   5.555   3.784
 2157SOL    HW2 7371   4.242   5.526   3.678
 2158SOL     OW 7372   4.261   0.409   0.616
 2158SOL    HW1 7373   4.165   0.436   0.606
 2158SOL    HW2 7374   4.310   0.476   0.671
 2159SOL     OW 7375   1.170   0.364   5.661
 2159SOL    HW1 7376   1.266   0.392   5.656
 2159SOL    HW2 7377   1.112   0.443   5.681
 2160SOL     OW 7378   5.159   5.532   0.127
 2160SOL    HW1 7379   5.249   5.568   0.152
 2160SOL    HW2 7380   5.153   5.436   0.153
 2161SOL     OW 7381   1.129   3.870   2.297
 2161SOL    HW1 7382   1.140   3.951   2.354
 2161SOL    HW2 7383   1.177   3.793   2.338
 2162SOL     OW 7384   2.899   7.014   3.503
 2162SOL    HW1 7385   2.862   0.059   3.443
 2162SOL    HW2 7386   2.832   6.940   3.512
 2163SOL     OW 7387   1.781   3.179   0.246
 2163SOL    HW1 7388   1.712   3.228   0.194
 2163SOL    HW2 7389   1.869   3.227   0.237
 2164SOL     OW 7390   2.318   2.446   0.845
 2164SOL    HW1 7391   2.328   2.504   0.926
 2164SOL    HW2 7392   2.248   2.376   0.863
 2165SOL     OW 7393   0.311   1.605   3.751
 2165SOL    HW1 7394   0.236   1.540   3.762
 2165SOL    HW2 7395   0.308   1.645   3.660
 2166SOL     OW 7396   0.753   4.125   3.872
 2166SOL    HW1 7397   0.686   4.055   3.851
 2166SOL    HW2 7398   0.740   4.157   3.966
 2167SOL     OW 7399   1.386   2.847   4.146
 2167SOL    HW1 7400   1.369   2.835   4.048
 2167SOL    HW2 7401   1.467   2.904   4.159
 2168SOL     OW 7402   1.276   1.922   3.016
 2168SOL    HW1 7403   1.184   1.883   3.024
 2168SOL    HW2 7404   1.282   1.977   2.932
 2169SOL     OW 7405   0.389   0.807   1.279
 2169SOL    HW1 7406   0.480   0.766   1.271
 2169SOL    HW2 7407   0.328   0.766   1.212
 2170SOL     OW 7408   0.932   4.340   4.734
 2170SOL    HW1 7409   0.928   4.270   4.805
 2170SOL    HW2 7410   0.954   4.298   4.646
 2171SOL     OW 7411   0.489   5.556   1.352
 2171SOL    HW1 7412   0.520   5.514   1.437
 2171SOL    HW2 7413   0.526   5.649   1.346
 2172SOL     OW 7414   0.249   1.969   5.006
 2172SOL    HW1 7415   0.266   1.928   4.917
 2172SOL    HW2 7416   0.312   1.930   5.074
 2173SOL     OW 7417   5.729   0.681   5.554
 2173SOL    HW1 7418   5.659   0.610   5.549
 2173SOL    HW2 7419   5.685   0.771   5.549
 2174SOL     OW 7420   0.461   6.062   5.226
 2174SOL    HW1 7421   0.431   6.059   5.321
 2174SOL    HW2 7422   0.544   6.008   5.215
 2175SOL     OW 7423   2.476   2.944   5.654
 2175SOL    HW1 7424   2.536   2.891   5.595
 2175SOL    HW2 7425   2.425   3.011   5.599
 2176SOL     OW 7426   5.191   2.692   1.372
 2176SOL    HW1 7427   5.176   2.607   1.423
 2176SOL    HW2 7428   5.153   2.682   1.280
 2177SOL     OW 7429   6.964   0.732   3.165
 2177SOL    HW1 7430   7.018   0.764   3.243
 2177SOL    HW2 7431   6.881   0.786   3.157
 2178SOL     OW 7432   1.242   1.471   1.932
 2178SOL    HW1 7433   1.328   1.460   1.983
 2178SOL    HW2 7434   1.262   1.507   1.841
 2179SOL     OW 7435   1.995   4.642   6.529
 2179SOL    HW1 7436   1.950   4.596   6.605
 2179SOL    HW2 7437   2.079   4.593   6.505
 2180SOL     OW 7438   1.592   4.355   2.168
 2180SOL    HW1 7439   1.562   4.335   2.074
 2180SOL    HW2 7440   1.686   4.390   2.166
 2181SOL     OW 7441   4.839   4.649   4.615
 2181SOL    HW1 7442   4.862   4.591   4.537
 2181SOL    HW2 7443   4.922   4.671   4.667
 2182SOL     OW 7444   0.899   4.295   3.239
 2182SOL    HW1 7445   0.841   4.279   3.320
 2182SOL    HW2 7446   0.988   4.252   3.253
 2183SOL     OW 7447   3.544   3.632   0.113
 2183SOL    HW1 7448   3.602   3.704   0.075
 2183SOL    HW2 7449   3.527   3.650   0.209
 2184SOL     OW 7450   6.168   0.576   0.275
 2184SOL    HW1 7451   6.232   0.525   0.219
 2184SOL    HW2 7452   6.079   0.530   0.275
 2185SOL     OW 7453   0.578   1.438   6.617
 2185SOL    HW1 7454   0.606   1.379   6.693
 2185SOL    HW2 7455   0.658   1.459   6.561
 2186SOL     OW 7456   6.411   4.666   5.386
 2186SOL    HW1 7457   6.319   4.668   5.346
 2186SOL    HW2 7458   6.404   4.641   5.483
 2187SOL     OW 7459   0.487   5.237   2.936
 2187SOL    HW1 7460   0.473   5.307   2.866
 2187SOL    HW2 7461   0.399   5.207   2.972
 2188SOL     OW 7462   2.119   5.860   6.969
 2188SOL    HW1 7463   2.216   5.877   6.990
 2188SOL    HW2 7464   2.069   5.845   0.028
 2189SOL     OW 7465   2.339   1.253   1.902
 2189SOL    HW1 7466   2.324   1.287   1.995
 2189SOL    HW2 7467   2.422   1.293   1.864
 2190SOL     OW 7468   6.659   3.552   2.488
 2190SOL    HW1 7469   6.662   3.572   2.586
 2190SOL    HW2 7470   6.569   3.576   2.452
 2191SOL     OW 7471   1.978   1.011   5.187
 2191SOL    HW1 7472   2.062   0.961   5.165
 2191SOL    HW2 7473   1.948   1.061   5.105
 2192SOL     OW 7474   5.310   0.550   2.067
 2192SOL    HW1 7475   5.262   0.539   1.980
 2192SOL    HW2 7476   5.247   0.531   2.143
 2193SOL     OW 7477   6.163   6.911   6.610
 2193SOL    HW1 7478   6.199   6.826   6.571
 2193SOL    HW2 7479   6.240   6.967   6.642
 2194SOL     OW 7480   0.592   4.280   5.415
 2194SOL    HW1 7481   0.675   4.240   5.452
 2194SOL    HW2 7482   0.527   4.207   5.392
 2195SOL     OW 7483   0.214   5.650   6.294
 2195SOL    HW1 7484   0.115   5.648   6.285
 2195SOL    HW2 7485   0.255   5.585   6.229
 2196SOL     OW 7486   2.868   6.691   5.287
 2196SOL    HW1 7487   2.833   6.705   5.194
 2196SOL    HW2 7488   2.963   6.722   5.291
 2197SOL     OW 7489   2.867   3.161   5.956
 2197SOL    HW1 7490   2.917   3.075   5.954
 2197SOL    HW2 7491   2.905   3.224   5.888
 2198SOL     OW 7492   0.100   0.178   0.147
 2198SOL    HW1 7493   0.010   0.201   0.110
 2198SOL    HW2 7494   0.162   0.156   0.072
 2199SOL     OW 7495   5.146   6.673   4.686
 2199SOL    HW1 7496   5.094   6.684   4.601
 2199SOL    HW2 7497   5.231   6.624   4.667
 2200SOL     OW 7498   3.402   1.135   4.028
 2200SOL    HW1 7499   3.328   1.199   4.050
 2200SOL    HW2 7500   3.384   1.046   4.071
 2201SOL     OW 7501   6.601   2.861   3.106
 2201SOL    HW1 7502   6.651   2.777   3.087
 2201SOL    HW2 7503   6.542   2.848   3.185
 2202SOL     OW 7504   3.251   5.238   2.973
 2202SOL    HW1 7505   3.218   5.282   3.056
 2202SOL    HW2 7506   3.211   5.146   2.966
 2203SOL     OW 7507   2.470   4.191   1.120
 2203SOL    HW1 7508   2.454   4.131   1.197
 2203SOL    HW2 7509   2.568   4.207   1.110
 2204SOL     OW 7510   3.875   2.789   1.041
 2204SOL    HW1 7511   3.808   2.715   1.040
 2204SOL    HW2 7512   3.858   2.850   1.119
 2205SOL     OW 7513   1.374   6.748   0.497
 2205SOL    HW1 7514   1.415   6.677   0.439
 2205SOL    HW2 7515   1.447   6.801   0.540
 2206SOL     OW 7516   2.306   4.136   6.337
 2206SOL    HW1 7517   2.279   4.042   6.356
 2206SOL    HW2 7518   2.242   4.177   6.272
 2207SOL     OW 7519   3.675   6.001   0.661
 2207SOL    HW1 7520   3.714   5.977   0.750
 2207SOL    HW2 7521   3.664   5.918   0.606
 2208SOL     OW 7522   1.088   5.859   3.463
 2208SOL    HW1 7523   1.113   5.867   3.560
 2208SOL    HW2 7524   1.145   5.919   3.408
 2209SOL     OW 7525   2.636   5.528   4.715
 2209SOL    HW1 7526   2.679   5.454   4.663
 2209SOL    HW2 7527   2.596   5.594   4.652
 2210SOL     OW 7528   6.220   5.819   2.153
 2210SOL    HW1 7529   6.236   5.721   2.167
 2210SOL    HW2 7530   6.244   5.843   2.059
 2211SOL     OW 7531   5.949   0.864   0.774
 2211SOL    HW1 7532   5.956   0.767   0.753
 2211SOL    HW2 7533   5.926   0.876   0.871
 2212SOL     OW 7534   1.881   5.847   6.838
 2212SOL    HW1 7535   1.889   5.860   6.739
 2212SOL    HW2 7536   1.972   5.853   6.880
 2213SOL     OW 7537   4.814   2.932   4.764
 2213SOL    HW1 7538   4.860   2.971   4.843
 2213SOL    HW2 7539   4.738   2.991   4.737
 2214SOL     OW 7540   3.806   2.879   5.592
 2214SOL    HW1 7541   3.859   2.819   5.533
 2214SOL    HW2 7542   3.826   2.975   5.570
 2215SOL     OW 7543   5.483   1.745   5.980
 2215SOL    HW1 7544   5.480   1.838   5.943
 2215SOL    HW2 7545   5.425   1.739   6.061
 2216SOL     OW 7546   0.431   6.717   5.993
 2216SOL    HW1 7547   0.458   6.803   6.038
 2216SOL    HW2 7548   0.334   6.699   6.010
 2217SOL     OW 7549   4.576   0.621   3.793
 2217SOL    HW1 7550   4.476   0.623   3.794
 2217SOL    HW2 7551   4.609   0.647   3.702
 2218SOL     OW 7552   0.248   5.162   6.998
 2218SOL    HW1 7553   0.304   5.225   6.944
 2218SOL    HW2 7554   0.221   5.207   0.057
 2219SOL     OW 7555   6.336   1.721   0.906
 2219SOL    HW1 7556   6.338   1.799   0.968
 2219SOL    HW2 7557   6.400   1.736   0.831
 2220SOL     OW 7558   2.032   6.254   5.402
 2220SOL    HW1 7559   1.983   6.267   5.489
 2220SOL    HW2 7560   2.111   6.194   5.417
 2221SOL     OW 7561   6.674   1.520   4.532
 2221SOL    HW1 7562   6.610   1.466   4.586
 2221SOL    HW2 7563   6.754   1.544   4.588
 2222SOL     OW 7564   6.470   6.966   0.726
 2222SOL    HW1 7565   6.500   6.887   0.671
 2222SOL    HW2 7566   6.550   7.017   0.757
 2223SOL     OW 7567   6.715   1.118   5.740
 2223SOL    HW1 7568   6.781   1.179   5.783
 2223SOL    HW2 7569   6.687   1.048   5.805
 2224SOL     OW 7570   6.277   3.705   2.066
 2224SOL    HW1 7571   6.197   3.743   2.113
 2224SOL    HW2 7572   6.323   3.778   2.015
 2225SOL     OW 7573   0.041   6.544   3.231
 2225SOL    HW1 7574   7.002   6.477   3.197
 2225SOL    HW2 7575   0.095   6.580   3.155
 2226SOL     OW 7576   3.680   5.578   0.851
 2226SOL    HW1 7577   3.774   5.583   0.884
 2226SOL    HW2 7578   3.672   5.630   0.766
 2227SOL     OW 7579   4.582   2.671   1.393
 2227SOL    HW1 7580   4.502   2.619   1.424
 2227SOL    HW2 7581   4.645   2.684   1.470
 2228SOL     OW 7582   4.676   4.984   0.322
 2228SOL    HW1 7583   4.611   4.912   0.295
 2228SOL    HW2 7584   4.640   5.033   0.401
 2229SOL     OW 7585   3.529   3.523   4.883
 2229SOL    HW1 7586   3.459   3.582   4.844
 2229SOL    HW2 7587   3.618   3.546   4.844
 2230SOL     OW 7588   5.082   6.073   1.435
 2230SOL    HW1 7589   4.985   6.085   1.458
 2230SOL    HW2 7590   5.093   6.077   1.336
 2231SOL     OW 7591   0.767   1.122   6.302
 2231SOL    HW1 7592   0.706   1.043   6.300
 2231SOL    HW2 7593   0.798   1.138   6.396
 2232SOL     OW 7594   0.190   0.673   5.029
 2232SOL    HW1 7595   0.255   0.601   5.003
 2232SOL    HW2 7596   0.240   0.753   5.062
 2233SOL     OW 7597   3.176   3.431   0.784
 2233SOL    HW1 7598   3.209   3.384   0.865
 2233SOL    HW2 7599   3.117   3.508   0.811
 2234SOL     OW 7600   3.766   1.715   0.683
 2234SOL    HW1 7601   3.736   1.672   0.768
 2234SOL    HW2 7602   3.690   1.716   0.617
 2235SOL     OW 7603   2.660   0.294   2.734
 2235SOL    HW1 7604   2.585   0.359   2.727
 2235SOL    HW2 7605   2.732   0.332   2.792
 2236SOL     OW 7606   2.208   3.840   5.704
 2236SOL    HW1 7607   2.243   3.746   5.697
 2236SOL    HW2 7608   2.131   3.842   5.768
 2237SOL     OW 7609   6.224   4.845   4.338
 2237SOL    HW1 7610   6.217   4.751   4.305
 2237SOL    HW2 7611   6.171   4.855   4.422
 2238SOL     OW 7612   4.742   4.934   2.371
 2238SOL    HW1 7613   4.783   4.853   2.330
 2238SOL    HW2 7614   4.655   4.910   2.414
 2239SOL     OW 7615   3.868   5.358   4.315
 2239SOL    HW1 7616   3.896   5.298   4.240
 2239SOL    HW2 7617   3.941   5.364   4.382
 2240SOL     OW 7618   3.443   5.654   2.367
 2240SOL    HW1 7619   3.490   5.657   2.279
 2240SOL    HW2 7620   3.507   5.677   2.440
 2241SOL     OW 7621   6.563   7.000   1.936
 2241SOL    HW1 7622   6.505   0.042   1.980
 2241SOL    HW2 7623   6.657   7.010   1.969
 2242SOL     OW 7624   5.402   3.491   2.267
 2242SOL    HW1 7625   5.490   3.465   2.309
 2242SOL    HW2 7626   5.330   3.433   2.303
 2243SOL     OW 7627   2.254   6.573   6.978
 2243SOL    HW1 7628   2.211   6.492   7.019
 2243SOL    HW2 7629   2.345   6.585   7.015
 2244SOL     OW 7630   3.095   0.248   1.390
 2244SOL    HW1 7631   3.144   0.229   1.305
 2244SOL    HW2 7632   3.158   0.286   1.458
 2245SOL     OW 7633   7.007   1.654   0.509
 2245SOL    HW1 7634   0.019   1.690   0.593
 2245SOL    HW2 7635   0.050   1.599   0.461
 2246SOL     OW 7636   1.776   0.428   3.948
 2246SOL    HW1 7637   1.847   0.386   3.892
 2246SOL    HW2 7638   1.742   0.362   4.015
 2247SOL     OW 7639   3.132   3.540   2.492
 2247SOL    HW1 7640   3.225   3.519   2.462
 2247SOL    HW2 7641   3.131   3.628   2.539
 2248SOL     OW 7642   6.758   4.280   3.893
 2248SOL    HW1 7643   6.674   4.278   3.839
 2248SOL    HW2 7644   6.744   4.229   3.977
 2249SOL     OW 7645   3.914   6.645   4.168
 2249SOL    HW1 7646   3.984   6.608   4.107
 2249SOL    HW2 7647   3.833   6.668   4.114
 2250SOL     OW 7648   3.124   3.813   5.538
 2250SOL    HW1 7649   3.194   3.743   5.555
 2250SOL    HW2 7650   3.130   3.842   5.443
 2251SOL     OW 7651   5.406   0.264   6.095
 2251SOL    HW1 7652   5.341   0.292   6.024
 2251SOL    HW2 7653   5.377   0.303   6.183
 2252SOL     OW 7654   5.225   1.710   3.069
 2252SOL    HW1 7655   5.155   1.676   3.005
 2252SOL    HW2 7656   5.231   1.647   3.147
 2253SOL     OW 7657   0.267   3.291   6.992
 2253SOL    HW1 7658   0.177   3.302   6.949
 2253SOL    HW2 7659   0.297   3.380   0.001
 2254SOL     OW 7660   3.481   3.543   3.322
 2254SOL    HW1 7661   3.557   3.522   3.384
 2254SOL    HW2 7662   3.416   3.468   3.321
 2255SOL     OW 7663   2.788   3.464   5.576
 2255SOL    HW1 7664   2.832   3.402   5.511
 2255SOL    HW2 7665   2.818   3.557   5.558
 2256SOL     OW 7666   4.437   6.740   2.264
 2256SOL    HW1 7667   4.359   6.742   2.327
 2256SOL    HW2 7668   4.403   6.741   2.170
 2257SOL     OW 7669   0.820   1.261   4.430
 2257SOL    HW1 7670   0.798   1.312   4.347
 2257SOL    HW2 7671   0.739   1.255   4.488
 2258SOL     OW 7672   2.277   5.802   3.852
 2258SOL    HW1 7673   2.228   5.757   3.927
 2258SOL    HW2 7674   2.269   5.746   3.769
 2259SOL     OW 7675   5.445   2.518   4.812
 2259SOL    HW1 7676   5.502   2.600   4.820
 2259SOL    HW2 7677   5.503   2.439   4.796
 2260SOL     OW 7678   0.896   3.471   1.480
 2260SOL    HW1 7679   0.864   3.512   1.394
 2260SOL    HW2 7680   0.832   3.401   1.509
 2261SOL     OW 7681   6.607   4.541   0.634
 2261SOL    HW1 7682   6.593   4.581   0.725
 2261SOL    HW2 7683   6.705   4.538   0.615
 2262SOL     OW 7684   6.467   0.453   2.997
 2262SOL    HW1 7685   6.394   0.502   2.949
 2262SOL    HW2 7686   6.438   0.432   3.090
 2263SOL     OW 7687   1.836   5.906   0.588
 2263SOL    HW1 7688   1.801   5.985   0.539
 2263SOL    HW2 7689   1.831   5.825   0.529
 2264SOL     OW 7690   2.635   6.990   6.687
 2264SOL    HW1 7691   2.634   0.040   6.752
 2264SOL    HW2 7692   2.548   6.942   6.690
 2265SOL     OW 7693   2.019   0.443   4.140
 2265SOL    HW1 7694   2.028   0.537   4.109
 2265SOL    HW2 7695   1.999   0.442   4.239
 2266SOL     OW 7696   4.667   1.296   6.361
 2266SOL    HW1 7697   4.583   1.322   6.409
 2266SOL    HW2 7698   4.651   1.213   6.308
 2267SOL     OW 7699   4.635   2.801   4.924
 2267SOL    HW1 7700   4.615   2.842   5.013
 2267SOL    HW2 7701   4.712   2.849   4.882
 2268SOL     OW 7702   5.985   3.576   6.433
 2268SOL    HW1 7703   5.939   3.664   6.421
 2268SOL    HW2 7704   5.992   3.530   6.345
 2269SOL     OW 7705   1.116   3.502   4.906
 2269SOL    HW1 7706   1.133   3.537   4.998
 2269SOL    HW2 7707   1.186   3.537   4.843
 2270SOL     OW 7708   3.888   3.153   6.256
 2270SOL    HW1 7709   3.870   3.248   6.282
 2270SOL    HW2 7710   3.986   3.134   6.263
 2271SOL     OW 7711   5.536   4.660   0.089
 2271SOL    HW1 7712   5.473   4.615   0.152
 2271SOL    HW2 7713   5.484   4.711   0.020
 2272SOL     OW 7714   6.906   1.642   6.545
 2272SOL    HW1 7715   6.875   1.629   6.451
 2272SOL    HW2 7716   6.862   1.724   6.583
 2273SOL     OW 7717   1.657   2.221   2.463
 2273SOL    HW1 7718   1.719   2.299   2.459
 2273SOL    HW2 7719   1.563   2.252   2.445
 2274SOL     OW 7720   0.577   1.391   6.279
 2274SOL    HW1 7721   0.563   1.441   6.193
 2274SOL    HW2 7722   0.675   1.390   6.301
 2275SOL     OW 7723   5.715   5.753   2.745
 2275SOL    HW1 7724   5.715   5.835   2.803
 2275SOL    HW2 7725   5.779   5.686   2.782
 2276SOL     OW 7726   1.596   5.935   1.596
 2276SOL    HW1 7727   1.695   5.952   1.598
 2276SOL    HW2 7728   1.548   6.022   1.584
 2277SOL     OW 7729   3.298   3.664   4.467
 2277SOL    HW1 7730   3.355   3.746   4.476
 2277SOL    HW2 7731   3.351   3.583   4.490
 2278SOL     OW 7732   6.226   2.722   3.895
 2278SOL    HW1 7733   6.283   2.683   3.823
 2278SOL    HW2 7734   6.276   2.795   3.941
 2279SOL     OW 7735   6.333   6.804   5.888
 2279SOL    HW1 7736   6.310   6.751   5.806
 2279SOL    HW2 7737   6.410   6.865   5.868
 2280SOL     OW 7738   6.256   0.964   4.555
 2280SOL    HW1 7739   6.241   0.891   4.489
 2280SOL    HW2 7740   6.343   0.950   4.602
 2281SOL     OW 7741   3.600   0.587   1.985
 2281SOL    HW1 7742   3.557   0.580   2.075
 2281SOL    HW2 7743   3.529   0.586   1.914
 2282SOL     OW 7744   5.066   6.042   5.516
 2282SOL    HW1 7745   5.022   6.124   5.480
 2282SOL    HW2 7746   5.154   6.066   5.557
 2283SOL     OW 7747   1.525   0.750   1.935
 2283SOL    HW1 7748   1.589   0.732   2.009
 2283SOL    HW2 7749   1.494   0.845   1.940
 2284SOL     OW 7750   0.832   3.689   6.133
 2284SOL    HW1 7751   0.749   3.693   6.188
 2284SOL    HW2 7752   0.818   3.626   6.056
 2285SOL     OW 7753   1.389   3.316   0.306
 2285SOL    HW1 7754   1.448   3.296   0.385
 2285SOL    HW2 7755   1.446   3.340   0.228
 2286SOL     OW 7756   5.486   0.096   3.484
 2286SOL    HW1 7757   5.518   0.105   3.578
 2286SOL    HW2 7758   5.419   0.167   3.464
 2287SOL     OW 7759   2.841   0.880   3.578
 2287SOL    HW1 7760   2.793   0.952   3.628
 2287SOL    HW2 7761   2.820   0.888   3.481
 2288SOL     OW 7762   0.207   5.656   4.057
 2288SOL    HW1 7763   0.258   5.658   4.142
 2288SOL    HW2 7764   0.183   5.561   4.034
 2289SOL     OW 7765   6.804   5.105   1.156
 2289SOL    HW1 7766   6.718   5.077   1.113
 2289SOL    HW2 7767   6.814   5.059   1.244
 2290SOL     OW 7768   0.538   4.181   1.260
 2290SOL    HW1 7769   0.510   4.238   1.337
 2290SOL    HW2 7770   0.536   4.085   1.287
 2291SOL     OW 7771   2.298   2.393   5.737
 2291SOL    HW1 7772   2.316   2.428   5.830
 2291SOL    HW2 7773   2.384   2.362   5.697
 2292SOL     OW 7774   1.614   1.485   4.567
 2292SOL    HW1 7775   1.515   1.495   4.571
 2292SOL    HW2 7776   1.658   1.572   4.588
 2293SOL     OW 7777   5.563   6.113   2.021
 2293SOL    HW1 7778   5.495   6.159   1.963
 2293SOL    HW2 7779   5.610   6.181   2.077
 2294SOL     OW 7780   3.523   0.033   0.237
 2294SOL    HW1 7781   3.550   6.992   0.168
 2294SOL    HW2 7782   3.424   0.036   0.244
 2295SOL     OW 7783   0.374   1.417   2.557
 2295SOL    HW1 7784   0.462   1.400   2.603
 2295SOL    HW2 7785   0.305   1.356   2.595
 2296SOL     OW 7786   3.290   6.801   0.804
 2296SOL    HW1 7787   3.277   6.896   0.832
 2296SOL    HW2 7788   3.388   6.779   0.806
 2297SOL     OW 7789   3.566   4.340   5.161
 2297SOL    HW1 7790   3.635   4.274   5.188
 2297SOL    HW2 7791   3.596   4.390   5.080
 2298SOL     OW 7792   3.520   2.433   1.687
 2298SOL    HW1 7793   3.484   2.521   1.717
 2298SOL    HW2 7794   3.558   2.384   1.765
 2299SOL     OW 7795   6.140   0.557   6.726
 2299SOL    HW1 7796   6.060   0.498   6.714
 2299SOL    HW2 7797   6.122   0.646   6.683
 2300SOL     OW 7798   2.031   5.120   1.926
 2300SOL    HW1 7799   2.092   5.184   1.972
 2300SOL    HW2 7800   2.050   5.120   1.827
 2301SOL     OW 7801   2.950   3.646   2.827
 2301SOL    HW1 7802   2.908   3.556   2.820
 2301SOL    HW2 7803   3.021   3.655   2.757
 2302SOL     OW 7804   3.561   0.192   2.577
 2302SOL    HW1 7805   3.544   0.162   2.483
 2302SOL    HW2 7806   3.605   0.282   2.577
 2303SOL     OW 7807   1.631   3.550   5.536
 2303SOL    HW1 7808   1.572   3.595   5.468
 2303SOL    HW2 7809   1.680   3.474   5.492
 2304SOL     OW 7810   2.645   0.320   3.381
 2304SOL    HW1 7811   2.592   0.403   3.398
 2304SOL    HW2 7812   2.610   0.274   3.299
 2305SOL     OW 7813   3.663   5.753   3.382
 2305SOL    HW1 7814   3.575   5.800   3.395
 2305SOL    HW2 7815   3.651   5.675   3.321
 2306SOL     OW 7816   2.179   5.964   1.340
 2306SOL    HW1 7817   2.216   6.004   1.424
 2306SOL    HW2 7818   2.083   5.988   1.331
 2307SOL     OW 7819   2.327   4.460   2.651
 2307SOL    HW1 7820   2.258   4.466   2.580
 2307SOL    HW2 7821   2.415   4.490   2.615
 2308SOL     OW 7822   1.141   0.080   6.816
 2308SOL    HW1 7823   1.072   0.120   6.877
 2308SOL    HW2 7824   1.217   0.145   6.805
 2309SOL     OW 7825   2.888   6.659   0.152
 2309SOL    HW1 7826   2.868   6.719   0.075
 2309SOL    HW2 7827   2.859   6.702   0.237
 2310SOL     OW 7828   6.370   6.737   1.352
 2310SOL    HW1 7829   6.438   6.663   1.349
 2310SOL    HW2 7830   6.379   6.793   1.270
 2311SOL     OW 7831   2.624   6.862   2.199
 2311SOL    HW1 7832   2.691   6.909   2.257
 2311SOL    HW2 7833   2.580   6.789   2.251
 2312SOL     OW 7834   3.127   6.986   3.806
 2312SOL    HW1 7835   3.076   6.901   3.815
 2312SOL    HW2 7836   3.147   7.003   3.709
 2313SOL     OW 7837   4.569   5.088   1.810
 2313SOL    HW1 7838   4.639   5.106   1.741
 2313SOL    HW2 7839   4.597   5.010   1.866
 2314SOL     OW 7840   5.802   0.665   3.313
 2314SOL    HW1 7841   5.884   0.621   3.351
 2314SOL    HW2 7842   5.814   0.764   3.316
 2315SOL     OW 7843   5.206   3.511   5.408
 2315SOL    HW1 7844   5.201   3.582   5.478
 2315SOL    HW2 7845   5.149   3.536   5.330
 2316SOL     OW 7846   2.882   1.451   5.370
 2316SOL    HW1 7847   2.813   1.421   5.436
 2316SOL    HW2 7848   2.929   1.532   5.405
 2317SOL     OW 7849   6.571   6.297   3.748
 2317SOL    HW1 7850   6.541   6.381   3.704
 2317SOL    HW2 7851   6.520   6.283   3.833
 2318SOL     OW 7852   2.132   3.459   4.390
 2318SOL    HW1 7853   2.172   3.370   4.370
 2318SOL    HW2 7854   2.150   3.483   4.485
 2319SOL     OW 7855   3.319   5.206   5.399
 2319SOL    HW1 7856   3.267   5.252   5.471
 2319SOL    HW2 7857   3.262   5.135   5.358
 2320SOL     OW 7858   0.646   1.950   4.843
 2320SOL    HW1 7859   0.582   2.013   4.799
 2320SOL    HW2 7860   0.739   1.974   4.818
 2321SOL     OW 7861   2.350   6.014   6.695
 2321SOL    HW1 7862   2.378   6.063   6.612
 2321SOL    HW2 7863   2.315   6.079   6.761
 2322SOL     OW 7864   1.990   4.160   2.065
 2322SOL    HW1 7865   2.086   4.158   2.093
 2322SOL    HW2 7866   1.979   4.110   1.979
 2323SOL     OW 7867   3.308   4.818   1.829
 2323SOL    HW1 7868   3.396   4.775   1.847
 2323SOL    HW2 7869   3.277   4.794   1.737
 2324SOL     OW 7870   6.862   5.883   1.130
 2324SOL    HW1 7871   6.859   5.805   1.192
 2324SOL    HW2 7872   6.942   5.875   1.070
 2325SOL     OW 7873   0.191   4.640   1.316
 2325SOL    HW1 7874   0.190   4.740   1.309
 2325SOL    HW2 7875   0.127   4.601   1.250
 2326SOL     OW 7876   1.564   6.399   6.498
 2326SOL    HW1 7877   1.640   6.434   6.443
 2326SOL    HW2 7878   1.552   6.301   6.480
 2327SOL     OW 7879   0.643   0.963   3.123
 2327SOL    HW1 7880   0.734   0.992   3.154
 2327SOL    HW2 7881   0.573   1.020   3.166
 2328SOL     OW 7882   1.654   2.098   2.955
 2328SOL    HW1 7883   1.604   2.157   3.019
 2328SOL    HW2 7884   1.618   2.005   2.962
 2329SOL     OW 7885   0.645   4.994   4.832
 2329SOL    HW1 7886   0.724   5.009   4.771
 2329SOL    HW2 7887   0.615   5.082   4.868
 2330SOL     OW 7888   0.212   2.759   0.593
 2330SOL    HW1 7889   0.194   2.855   0.613
 2330SOL    HW2 7890   0.215   2.707   0.678
 2331SOL     OW 7891   3.721   5.291   0.422
 2331SOL    HW1 7892   3.740   5.389   0.410
 2331SOL    HW2 7893   3.806   5.243   0.443
 2332SOL     OW 7894   6.975   7.007   5.674
 2332SOL    HW1 7895   7.013   0.045   5.740
 2332SOL    HW2 7896   6.985   6.914   5.709
 2333SOL     OW 7897   6.934   4.976   2.907
 2333SOL    HW1 7898   7.021   4.958   2.952
 2333SOL    HW2 7899   6.897   4.890   2.870
 2334SOL     OW 7900   1.604   1.185   6.623
 2334SOL    HW1 7901   1.702   1.205   6.625
 2334SOL    HW2 7902   1.583   1.116   6.692
 2335SOL     OW 7903   5.950   6.919   3.683
 2335SOL    HW1 7904   5.973   6.836   3.633
 2335SOL    HW2 7905   5.859   6.909   3.724
 2336SOL     OW 7906   3.383   1.474   4.567
 2336SOL    HW1 7907   3.451   1.436   4.630
 2336SOL    HW2 7908   3.393   1.430   4.477
 2337SOL     OW 7909   4.137   0.701   1.449
 2337SOL    HW1 7910   4.128   0.626   1.384
 2337SOL    HW2 7911   4.149   0.665   1.541
 2338SOL     OW 7912   0.416   3.168   4.264
 2338SOL    HW1 7913   0.488   3.142   4.200
 2338SOL    HW2 7914   0.456   3.193   4.352
 2339SOL     OW 7915   3.716   4.091   3.493
 2339SOL    HW1 7916   3.649   4.053   3.428
 2339SOL    HW2 7917   3.745   4.181   3.461
 2340SOL     OW 7918   7.025   4.384   6.570
 2340SOL    HW1 7919   0.028   4.334   6.651
 2340SOL    HW2 7920   6.979   4.321   6.507
 2341SOL     OW 7921   2.904   4.874   2.192
 2341SOL    HW1 7922   2.842   4.806   2.230
 2341SOL    HW2 7923   2.948   4.837   2.110
 2342SOL     OW 7924   1.575   0.004   5.010
 2342SOL    HW1 7925   1.551   6.965   5.082
 2342SOL    HW2 7926   1.674   0.002   4.995
 2343SOL     OW 7927   1.515   5.526   2.282
 2343SOL    HW1 7928   1.597   5.505   2.335
 2343SOL    HW2 7929   1.475   5.441   2.248
 2344SOL     OW 7930   0.328   5.909   0.054
 2344SOL    HW1 7931   0.341   5.888   0.151
 2344SOL    HW2 7932   0.231   5.923   0.035
 2345SOL     OW 7933   2.589   5.337   4.914
 2345SOL    HW1 7934   2.495   5.304   4.921
 2345SOL    HW2 7935   2.600   5.386   4.827
 2346SOL     OW 7936   3.539   3.130   5.701
 2346SOL    HW1 7937   3.563   3.170   5.613
 2346SOL    HW2 7938   3.476   3.054   5.687
 2347SOL     OW 7939   2.560   2.529   1.646
 2347SOL    HW1 7940   2.597   2.616   1.678
 2347SOL    HW2 7941   2.618   2.454   1.678
 2348SOL     OW 7942   1.727   6.112   3.617
 2348SOL    HW1 7943   1.781   6.125   3.701
 2348SOL    HW2 7944   1.749   6.185   3.552
 2349SOL     OW 7945   0.995   4.839   5.720
 2349SOL    HW1 7946   1.076   4.882   5.681
 2349SOL    HW2 7947   0.984   4.747   5.681
 2350SOL     OW 7948   6.512   5.492   6.029
 2350SOL    HW1 7949   6.540   5.566   5.968
 2350SOL    HW2 7950   6.476   5.416   5.974
 2351SOL     OW 7951   3.226   4.938   4.306
 2351SOL    HW1 7952   3.151   4.894   4.356
 2351SOL    HW2 7953   3.309   4.936   4.362
 2352SOL     OW 7954   0.316   3.551   2.360
 2352SOL    HW1 7955   0.363   3.464   2.371
 2352SOL    HW2 7956   0.223   3.534   2.326
 2353SOL     OW 7957   3.423   4.935   4.488
 2353SOL    HW1 7958   3.515   4.898   4.479
 2353SOL    HW2 7959   3.413   4.977   4.579
 2354SOL     OW 7960   2.184   2.043   4.619
 2354SOL    HW1 7961   2.167   2.099   4.538
 2354SOL    HW2 7962   2.217   2.100   4.693
 2355SOL     OW 7963   1.956   6.707   5.613
 2355SOL    HW1 7964   2.006   6.705   5.699
 2355SOL    HW2 7965   1.864   6.669   5.627
 2356SOL     OW 7966   1.213   3.144   6.144
 2356SOL    HW1 7967   1.185   3.051   6.171
 2356SOL    HW2 7968   1.269   3.184   6.216
 2357SOL     OW 7969   4.210   0.601   2.432
 2357SOL    HW1 7970   4.125   0.579   2.385
 2357SOL    HW2 7971   4.198   0.588   2.531
 2358SOL     OW 7972   3.168   5.299   5.610
 2358SOL    HW1 7973   3.223   5.382   5.606
 2358SOL    HW2 7974   3.187   5.250   5.695
 2359SOL     OW 7975   6.809   1.143   5.469
 2359SOL    HW1 7976   6.713   1.152   5.445
 2359SOL    HW2 7977   6.820   1.153   5.568
 2360SOL     OW 7978   5.730   2.830   6.689
 2360SOL    HW1 7979   5.679   2.754   6.729
 2360SOL    HW2 7980   5.704   2.841   6.593
 2361SOL     OW 7981   2.053   0.718   6.326
 2361SOL    HW1 7982   2.043   0.664   6.410
 2361SOL    HW2 7983   2.109   0.667   6.260
 2362SOL     OW 7984   2.559   5.661   3.652
 2362SOL    HW1 7985   2.524   5.614   3.733
 2362SOL    HW2 7986   2.484   5.679   3.589
 2363SOL     OW 7987   4.571   2.097   4.912
 2363SOL    HW1 7988   4.560   2.034   4.835
 2363SOL    HW2 7989   4.489   2.094   4.970
 2364SOL     OW 7990   1.092   2.785   2.513
 2364SOL    HW1 7991   1.167   2.842   2.548
 2364SOL    HW2 7992   1.036   2.838   2.450
 2365SOL     OW 7993   6.807   2.468   6.934
 2365SOL    HW1 7994   6.793   2.444   6.838
 2365SOL    HW2 7995   6.719   2.491   6.976
 2366SOL     OW 7996   2.391   5.583   6.476
 2366SOL    HW1 7997   2.346   5.617   6.559
 2366SOL    HW2 7998   2.339   5.613   6.396
 2367SOL     OW 7999   2.470   3.731   1.048
 2367SOL    HW1 8000   2.522   3.689   1.123
 2367SOL    HW2 8001   2.408   3.663   1.009
 2368SOL     OW 8002   4.602   6.659   4.667
 2368SOL    HW1 8003   4.561   6.662   4.576
 2368SOL    HW2 8004   4.583   6.571   4.710
 2369SOL     OW 8005   2.284   1.008   4.832
 2369SOL    HW1 8006   2.213   0.954   4.788
 2369SOL    HW2 8007   2.269   1.105   4.815
 2370SOL     OW 8008   5.110   2.971   0.106
 2370SOL    HW1 8009   5.154   2.882   0.114
 2370SOL    HW2 8010   5.011   2.959   0.094
 2371SOL     OW 8011   1.185   6.974   1.394
 2371SOL    HW1 8012   1.210   0.039   1.429
 2371SOL    HW2 8013   1.120   6.931   1.457
 2372SOL     OW 8014   0.047   2.853   1.962
 2372SOL    HW1 8015   6.992   2.896   1.922
 2372SOL    HW2 8016   0.097   2.804   1.890
 2373SOL     OW 8017   1.130   2.682   5.998
 2373SOL    HW1 8018   1.091   2.693   5.906
 2373SOL    HW2 8019   1.211   2.739   6.007
 2374SOL     OW 8020   6.046   1.710   3.942
 2374SOL    HW1 8021   6.067   1.636   4.007
 2374SOL    HW2 8022   6.029   1.670   3.852
 2375SOL     OW 8023   3.137   6.194   4.767
 2375SOL    HW1 8024   3.121   6.101   4.735
 2375SOL    HW2 8025   3.077   6.213   4.845
 2376SOL     OW 8026   6.746   2.621   4.674
 2376SOL    HW1 8027   6.720   2.546   4.614
 2376SOL    HW2 8028   6.739   2.708   4.624
 2377SOL     OW 8029   3.965   3.560   3.682
 2377SOL    HW1 8030   4.015   3.583   3.766
 2377SOL    HW2 8031   4.029   3.525   3.614
 2378SOL     OW 8032   4.927   1.516   1.001
 2378SOL    HW1 8033   4.846   1.557   1.042
 2378SOL    HW2 8034   4.948   1.430   1.046
 2379SOL     OW 8035   0.054   1.804   0.277
 2379SOL    HW1 8036   0.027   1.897   0.301
 2379SOL    HW2 8037   0.013   1.740   0.342
 2380SOL     OW 8038   0.515   1.779   6.446
 2380SOL    HW1 8039   0.592   1.832   6.411
 2380SOL    HW2 8040   0.521   1.685   6.412
 2381SOL     OW 8041   1.875   5.064   4.690
 2381SOL    HW1 8042   1.859   5.134   4.759
 2381SOL    HW2 8043   1.918   4.985   4.732
 2382SOL     OW 8044   2.208   3.906   4.340
 2382SOL    HW1 8045   2.220   4.005   4.337
 2382SOL    HW2 8046   2.214   3.875   4.435
 2383SOL     OW 8047   4.928   6.237   0.604
 2383SOL    HW1 8048   4.983   6.278   0.531
 2383SOL    HW2 8049   4.891   6.149   0.572
 2384SOL     OW 8050   5.843   1.058   2.815
 2384SOL    HW1 8051   5.850   1.127   2.888
 2384SOL    HW2 8052   5.876   0.970   2.850
 2385SOL     OW 8053   0.919   6.868   0.518
 2385SOL    HW1 8054   0.908   6.773   0.547
 2385SOL    HW2 8055   0.904   6.929   0.596
 2386SOL     OW 8056   6.013   5.750   4.019
 2386SOL    HW1 8057   6.043   5.795   4.104
 2386SOL    HW2 8058   6.074   5.674   3.999
 2387SOL     OW 8059   1.258   2.205   4.042
 2387SOL    HW1 8060   1.342   2.215   3.989
 2387SOL    HW2 8061   1.181   2.242   3.990
 2388SOL     OW 8062   0.408   2.072   3.799
 2388SOL    HW1 8063   0.365   2.089   3.888
 2388SOL    HW2 8064   0.338   2.047   3.733
 2389SOL     OW 8065   4.930   4.255   2.469
 2389SOL    HW1 8066   4.980   4.337   2.493
 2389SOL    HW2 8067   4.936   4.189   2.544
 2390SOL     OW 8068   3.692   2.885   3.312
 2390SOL    HW1 8069   3.704   2.897   3.411
 2390SOL    HW2 8070   3.600   2.852   3.294
 2391SOL     OW 8071   5.217   4.019   5.509
 2391SOL    HW1 8072   5.288   4.080   5.543
 2391SOL    HW2 8073   5.131   4.070   5.500
 2392SOL     OW 8074   3.774   6.269   5.232
 2392SOL    HW1 8075   3.688   6.243   5.276
 2392SOL    HW2 8076   3.757   6.296   5.138
 2393SOL     OW 8077   4.990   3.901   6.070
 2393SOL    HW1 8078   5.039   3.972   6.120
 2393SOL    HW2 8079   4.999   3.916   5.972
 2394SOL     OW 8080   1.210   3.907   4.522
 2394SOL    HW1 8081   1.280   3.959   4.571
 2394SOL    HW2 8082   1.252   3.859   4.445
 2395SOL     OW 8083   4.962   1.320   5.756
 2395SOL    HW1 8084   5.059   1.326   5.730
 2395SOL    HW2 8085   4.954   1.320   5.856
 2396SOL     OW 8086   3.579   5.149   1.355
 2396SOL    HW1 8087   3.590   5.248   1.343
 2396SOL    HW2 8088   3.593   5.126   1.452
 2397SOL     OW 8089   6.993   3.608   5.618
 2397SOL    HW1 8090   6.900   3.603   5.582
 2397SOL    HW2 8091   0.026   3.547   5.566
 2398SOL     OW 8092   3.693   4.252   6.866
 2398SOL    HW1 8093   3.721   4.158   6.847
 2398SOL    HW2 8094   3.770   4.302   6.907
 2399SOL     OW 8095   4.323   1.120   1.535
 2399SOL    HW1 8096   4.246   1.128   1.598
 2399SOL    HW2 8097   4.290   1.130   1.441
 2400SOL     OW 8098   2.779   4.051   0.978
 2400SOL    HW1 8099   2.710   4.002   0.924
 2400SOL    HW2 8100   2.733   4.118   1.037
 2401SOL     OW 8101   5.062   6.258   6.638
 2401SOL    HW1 8102   5.140   6.292   6.691
 2401SOL    HW2 8103   5.090   6.177   6.586
 2402SOL     OW 8104   0.405   0.600   3.376
 2402SOL    HW1 8105   0.369   0.690   3.351
 2402SOL    HW2 8106   0.398   0.588   3.475
 2403SOL     OW 8107   2.102   2.388   6.657
 2403SOL    HW1 8108   2.017   2.375   6.606
 2403SOL    HW2 8109   2.174   2.331   6.616
 2404SOL     OW 8110   2.809   0.725   1.161
 2404SOL    HW1 8111   2.819   0.795   1.232
 2404SOL    HW2 8112   2.889   0.664   1.163
 2405SOL     OW 8113   3.658   3.566   2.447
 2405SOL    HW1 8114   3.728   3.564   2.375
 2405SOL    HW2 8115   3.699   3.537   2.533
 2406SOL     OW 8116   2.765   0.354   2.041
 2406SOL    HW1 8117   2.739   0.434   1.985
 2406SOL    HW2 8118   2.689   0.331   2.102
 2407SOL     OW 8119   5.692   1.492   2.939
 2407SOL    HW1 8120   5.684   1.393   2.947
 2407SOL    HW2 8121   5.628   1.525   2.870
 2408SOL     OW 8122   4.680   4.703   3.114
 2408SOL    HW1 8123   4.751   4.662   3.172
 2408SOL    HW2 8124   4.611   4.746   3.171
 2409SOL     OW 8125   2.190   4.774   1.567
 2409SOL    HW1 8126   2.257   4.846   1.587
 2409SOL    HW2 8127   2.230   4.685   1.588
 2410SOL     OW 8128   4.130   3.257   5.204
 2410SOL    HW1 8129   4.146   3.310   5.121
 2410SOL    HW2 8130   4.218   3.230   5.244
 2411SOL     OW 8131   4.890   5.728   4.673
 2411SOL    HW1 8132   4.934   5.639   4.684
 2411SOL    HW2 8133   4.909   5.764   4.582
 2412SOL     OW 8134   5.403   4.408   1.040
 2412SOL    HW1 8135   5.342   4.340   1.083
 2412SOL    HW2 8136   5.483   4.422   1.098
 2413SOL     OW 8137   6.455   1.286   0.692
 2413SOL    HW1 8138   6.419   1.233   0.615
 2413SOL    HW2 8139   6.498   1.225   0.758
 2414SOL     OW 8140   4.668   4.252   2.676
 2414SOL    HW1 8141   4.615   4.183   2.627
 2414SOL    HW2 8142   4.760   4.217   2.693
 2415SOL     OW 8143   6.486   0.983   3.156
 2415SOL    HW1 8144   6.411   0.963   3.219
 2415SOL    HW2 8145   6.556   1.036   3.202
 2416SOL     OW 8146   4.941   2.384   4.919
 2416SOL    HW1 8147   4.902   2.398   5.010
 2416SOL    HW2 8148   4.999   2.461   4.894
 2417SOL     OW 8149   3.783   3.619   4.750
 2417SOL    HW1 8150   3.774   3.617   4.650
 2417SOL    HW2 8151   3.842   3.695   4.777
 2418SOL     OW 8152   3.769   2.909   4.780
 2418SOL    HW1 8153   3.816   2.994   4.804
 2418SOL    HW2 8154   3.782   2.842   4.853
 2419SOL     OW 8155   0.088   0.116   4.103
 2419SOL    HW1 8156   0.173   0.076   4.135
 2419SOL    HW2 8157   0.022   0.119   4.178
 2420SOL     OW 8158   3.302   0.613   2.962
 2420SOL    HW1 8159   3.213   0.654   2.981
 2420SOL    HW2 8160   3.373   0.682   2.976
 2421SOL     OW 8161   2.020   2.742   5.032
 2421SOL    HW1 8162   2.048   2.836   5.052
 2421SOL    HW2 8163   2.081   2.703   4.963
 2422SOL     OW 8164   5.550   1.337   1.055
 2422SOL    HW1 8165   5.464   1.373   1.089
 2422SOL    HW2 8166   5.573   1.381   0.968
 2423SOL     OW 8167   1.807   5.927   2.626
 2423SOL    HW1 8168   1.786   5.952   2.532
 2423SOL    HW2 8169   1.840   6.007   2.675
 2424SOL     OW 8170   6.311   6.917   6.180
 2424SOL    HW1 8171   6.225   6.913   6.230
 2424SOL    HW2 8172   6.297   6.886   6.086
 2425SOL     OW 8173   5.770   0.389   4.131
 2425SOL    HW1 8174   5.755   0.467   4.070
 2425SOL    HW2 8175   5.729   0.408   4.220
 2426SOL     OW 8176   1.457   5.956   5.338
 2426SOL    HW1 8177   1.551   5.940   5.368
 2426SOL    HW2 8178   1.453   5.950   5.238
 2427SOL     OW 8179   5.327   6.176   5.374
 2427SOL    HW1 8180   5.288   6.176   5.466
 2427SOL    HW2 8181   5.270   6.120   5.314
 2428SOL     OW 8182   0.170   0.384   2.273
 2428SOL    HW1 8183   0.261   0.423   2.286
 2428SOL    HW2 8184   0.158   0.358   2.177
 2429SOL     OW 8185   5.988   5.245   2.685
 2429SOL    HW1 8186   6.011   5.322   2.745
 2429SOL    HW2 8187   6.067   5.184   2.678
 2430SOL     OW 8188   6.200   0.812   1.781
 2430SOL    HW1 8189   6.204   0.765   1.869
 2430SOL    HW2 8190   6.183   0.746   1.709
 2431SOL     OW 8191   3.776   0.372   1.994
 2431SOL    HW1 8192   3.840   0.373   1.917
 2431SOL    HW2 8193   3.721   0.455   1.994
 2432SOL     OW 8194   3.881   6.203   2.878
 2432SOL    HW1 8195   3.960   6.264   2.879
 2432SOL    HW2 8196   3.858   6.176   2.972
 2433SOL     OW 8197   3.919   1.811   0.218
 2433SOL    HW1 8198   3.909   1.873   0.295
 2433SOL    HW2 8199   3.948   1.862   0.137
 2434SOL     OW 8200   4.058   1.464   5.966
 2434SOL    HW1 8201   4.116   1.420   6.035
 2434SOL    HW2 8202   4.098   1.552   5.940
 2435SOL     OW 8203   4.902   5.371   5.298
 2435SOL    HW1 8204   4.838   5.315   5.245
 2435SOL    HW2 8205   4.924   5.454   5.247
 2436SOL     OW 8206   1.586   5.131   6.638
 2436SOL    HW1 8207   1.681   5.162   6.635
 2436SOL    HW2 8208   1.584   5.031   6.641
 2437SOL     OW 8209   5.700   6.975   6.557
 2437SOL    HW1 8210   5.608   6.942   6.537
 2437SOL    HW2 8211   5.754   6.901   6.598
 2438SOL     OW 8212   3.112   1.607   0.018
 2438SOL    HW1 8213   3.068   1.691   0.051
 2438SOL    HW2 8214   3.053   1.562   6.977
 2439SOL     OW 8215   0.779   4.396   6.275
 2439SOL    HW1 8216   0.782   4.387   6.375
 2439SOL    HW2 8217   0.706   4.339   6.239
 2440SOL     OW 8218   4.593   5.839   5.963
 2440SOL    HW1 8219   4.689   5.851   5.988
 2440SOL    HW2 8220   4.585   5.778   5.884
 2441SOL     OW 8221   7.012   2.615   6.532
 2441SOL    HW1 8222   0.000   2.656   6.622
 2441SOL    HW2 8223   0.042   2.533   6.524
 2442SOL     OW 8224   1.117   4.106   5.406
 2442SOL    HW1 8225   1.022   4.100   5.438
 2442SOL    HW2 8226   1.174   4.041   5.455
 2443SOL     OW 8227   3.317   5.274   6.582
 2443SOL    HW1 8228   3.325   5.306   6.677
 2443SOL    HW2 8229   3.404   5.234   6.553
 2444SOL     OW 8230   2.775   4.897   6.504
 2444SOL    HW1 8231   2.686   4.899   6.458
 2444SOL    HW2 8232   2.847   4.905   6.436
 2445SOL     OW 8233   0.189   0.972   1.371
 2445SOL    HW1 8234   0.245   0.896   1.338
 2445SOL    HW2 8235   0.249   1.040   1.415
 2446SOL     OW 8236   6.097   3.838   4.209
 2446SOL    HW1 8237   6.148   3.881   4.283
 2446SOL    HW2 8238   6.071   3.745   4.237
 2447SOL     OW 8239   2.063   2.422   6.934
 2447SOL    HW1 8240   2.049   2.337   6.985
 2447SOL    HW2 8241   2.058   2.403   6.836
 2448SOL     OW 8242   0.566   0.457   4.418
 2448SOL    HW1 8243   0.534   0.551   4.412
 2448SOL    HW2 8244   0.561   0.426   4.513
 2449SOL     OW 8245   0.207   3.561   0.387
 2449SOL    HW1 8246   0.179   3.656   0.371
 2449SOL    HW2 8247   0.179   3.533   0.478
 2450SOL     OW 8248   2.646   4.590   3.106
 2450SOL    HW1 8249   2.740   4.575   3.136
 2450SOL    HW2 8250   2.583   4.568   3.180
 2451SOL     OW 8251   2.013   6.472   3.949
 2451SOL    HW1 8252   2.074   6.523   3.888
 2451SOL    HW2 8253   2.054   6.467   4.040
 2452SOL     OW 8254   1.588   3.681   3.065
 2452SOL    HW1 8255   1.524   3.669   2.990
 2452SOL    HW2 8256   1.668   3.622   3.051
 2453SOL     OW 8257   6.358   4.506   1.231
 2453SOL    HW1 8258   6.354   4.472   1.137
 2453SOL    HW2 8259   6.446   4.481   1.271
 2454SOL     OW 8260   3.194   0.579   2.670
 2454SOL    HW1 8261   3.098   0.602   2.660
 2454SOL    HW2 8262   3.207   0.524   2.752
 2455SOL     OW 8263   5.288   5.389   0.933
 2455SOL    HW1 8264   5.289   5.457   1.007
 2455SOL    HW2 8265   5.381   5.375   0.900
 2456SOL     OW 8266   5.086   6.286   1.996
 2456SOL    HW1 8267   5.127   6.358   1.940
 2456SOL    HW2 8268   4.995   6.314   2.027
 2457SOL     OW 8269   6.168   0.338   0.587
 2457SOL    HW1 8270   6.113   0.349   0.670
 2457SOL    HW2 8271   6.111   0.303   0.513
 2458SOL     OW 8272   2.432   6.304   3.114
 2458SOL    HW1 8273   2.422   6.397   3.078
 2458SOL    HW2 8274   2.522   6.269   3.091
 2459SOL     OW 8275   1.929   0.072   0.289
 2459SOL    HW1 8276   1.928   0.172   0.299
 2459SOL    HW2 8277   1.836   0.040   0.271
 2460SOL     OW 8278   2.814   5.816   2.228
 2460SOL    HW1 8279   2.798   5.810   2.326
 2460SOL    HW2 8280   2.730   5.793   2.178
 2461SOL     OW 8281   5.601   0.205   2.028
 2461SOL    HW1 8282   5.613   0.170   1.935
 2461SOL    HW2 8283   5.648   0.144   2.093
 2462SOL     OW 8284   2.226   5.305   6.943
 2462SOL    HW1 8285   2.312   5.258   6.925
 2462SOL    HW2 8286   2.184   5.333   6.857
 2463SOL     OW 8287   6.501   1.724   3.486
 2463SOL    HW1 8288   6.431   1.655   3.504
 2463SOL    HW2 8289   6.550   1.701   3.402
 2464SOL     OW 8290   1.075   3.425   1.163
 2464SOL    HW1 8291   0.983   3.389   1.178
 2464SOL    HW2 8292   1.128   3.420   1.248
 2465SOL     OW 8293   0.423   5.703   2.401
 2465SOL    HW1 8294   0.450   5.746   2.314
 2465SOL    HW2 8295   0.504   5.668   2.447
 2466SOL     OW 8296   3.954   2.078   2.785
 2466SOL    HW1 8297   3.960   1.978   2.781
 2466SOL    HW2 8298   3.914   2.105   2.873
 2467SOL     OW 8299   0.098   0.898   5.869
 2467SOL    HW1 8300   0.089   0.844   5.784
 2467SOL    HW2 8301   0.022   0.877   5.930
 2468SOL     OW 8302   6.878   6.243   1.600
 2468SOL    HW1 8303   6.932   6.327   1.610
 2468SOL    HW2 8304   6.930   6.165   1.635
 2469SOL     OW 8305   2.905   3.748   5.172
 2469SOL    HW1 8306   2.931   3.842   5.148
 2469SOL    HW2 8307   2.884   3.698   5.088
 2470SOL     OW 8308   3.768   3.627   6.597
 2470SOL    HW1 8309   3.712   3.544   6.600
 2470SOL    HW2 8310   3.837   3.624   6.669
 2471SOL     OW 8311   0.531   6.544   2.833
 2471SOL    HW1 8312   0.498   6.638   2.829
 2471SOL    HW2 8313   0.611   6.539   2.893
 2472SOL     OW 8314   5.529   2.803   4.097
 2472SOL    HW1 8315   5.607   2.741   4.106
 2472SOL    HW2 8316   5.496   2.802   4.003
 2473SOL     OW 8317   0.679   5.895   4.400
 2473SOL    HW1 8318   0.625   5.978   4.384
 2473SOL    HW2 8319   0.718   5.863   4.314
 2474SOL     OW 8320   6.763   4.965   5.375
 2474SOL    HW1 8321   6.767   5.043   5.312
 2474SOL    HW2 8322   6.806   4.886   5.332
 2475SOL     OW 8323   4.307   2.499   0.592
 2475SOL    HW1 8324   4.261   2.429   0.537
 2475SOL    HW2 8325   4.389   2.461   0.634
 2476SOL     OW 8326   0.742   2.002   3.554
 2476SOL    HW1 8327   0.741   1.942   3.634
 2476SOL    HW2 8328   0.835   2.038   3.541
 2477SOL     OW 8329   5.523   5.537   1.496
 2477SOL    HW1 8330   5.620   5.524   1.476
 2477SOL    HW2 8331   5.472   5.551   1.411
 2478SOL     OW 8332   6.077   6.562   2.479
 2478SOL    HW1 8333   6.167   6.604   2.489
 2478SOL    HW2 8334   6.023   6.614   2.413
 2479SOL     OW 8335   0.423   2.272   0.862
 2479SOL    HW1 8336   0.446   2.341   0.793
 2479SOL    HW2 8337   0.333   2.234   0.843
 2480SOL     OW 8338   0.055   3.707   1.362
 2480SOL    HW1 8339   0.064   3.621   1.413
 2480SOL    HW2 8340   0.128   3.713   1.294
 2481SOL     OW 8341   4.011   5.374   2.194
 2481SOL    HW1 8342   4.049   5.365   2.102
 2481SOL    HW2 8343   3.964   5.290   2.220
 2482SOL     OW 8344   5.437   3.028   5.137
 2482SOL    HW1 8345   5.435   3.047   5.235
 2482SOL    HW2 8346   5.374   2.954   5.116
 2483SOL     OW 8347   1.073   1.344   0.093
 2483SOL    HW1 8348   1.085   1.276   0.021
 2483SOL    HW2 8349   1.163   1.371   0.127
 2484SOL     OW 8350   3.253   1.290   0.548
 2484SOL    HW1 8351   3.350   1.278   0.529
 2484SOL    HW2 8352   3.231   1.387   0.553
 2485SOL     OW 8353   0.443   5.484   2.738
 2485SOL    HW1 8354   0.493   5.522   2.661
 2485SOL    HW2 8355   0.377   5.551   2.772
 2486SOL     OW 8356   1.598   5.780   2.806
 2486SOL    HW1 8357   1.645   5.785   2.894
 2486SOL    HW2 8358   1.652   5.831   2.738
 2487SOL     OW 8359   4.085   0.171   1.094
 2487SOL    HW1 8360   4.095   0.182   0.995
 2487SOL    HW2 8361   4.115   0.080   1.121
 2488SOL     OW 8362   2.421   5.272   1.598
 2488SOL    HW1 8363   2.450   5.266   1.502
 2488SOL    HW2 8364   2.491   5.231   1.656
 2489SOL     OW 8365   1.672   5.650   4.788
 2489SOL    HW1 8366   1.678   5.556   4.756
 2489SOL    HW2 8367   1.645   5.710   4.712
 2490SOL     OW 8368   6.152   3.815   0.624
 2490SOL    HW1 8369   6.245   3.816   0.661
 2490SOL    HW2 8370   6.125   3.721   0.603
 2491SOL     OW 8371   2.631   5.253   3.235
 2491SOL    HW1 8372   2.689   5.303   3.300
 2491SOL    HW2 8373   2.642   5.293   3.144
 2492SOL     OW 8374   4.961   3.364   6.456
 2492SOL    HW1 8375   5.028   3.294   6.482
 2492SOL    HW2 8376   4.983   3.450   6.502
 2493SOL     OW 8377   5.870   1.590   3.108
 2493SOL    HW1 8378   5.828   1.620   3.194
 2493SOL    HW2 8379   5.804   1.536   3.056
 2494SOL     OW 8380   4.750   2.748   2.507
 2494SOL    HW1 8381   4.681   2.711   2.570
 2494SOL    HW2 8382   4.705   2.777   2.423
 2495SOL     OW 8383   5.496   1.167   5.016
 2495SOL    HW1 8384   5.577   1.110   5.004
 2495SOL    HW2 8385   5.521   1.252   5.063
 2496SOL     OW 8386   1.064   6.016   6.834
 2496SOL    HW1 8387   1.082   6.114   6.829
 2496SOL    HW2 8388   0.973   6.001   6.873
 2497SOL     OW 8389   6.763   1.472   6.748
 2497SOL    HW1 8390   6.827   1.548   6.746
 2497SOL    HW2 8391   6.741   1.449   6.843
 2498SOL     OW 8392   1.867   3.084   4.533
 2498SOL    HW1 8393   1.945   3.051   4.588
 2498SOL    HW2 8394   1.817   3.005   4.497
 2499SOL     OW 8395   5.336   0.566   4.605
 2499SOL    HW1 8396   5.412   0.502   4.611
 2499SOL    HW2 8397   5.370   0.656   4.575
 2500SOL     OW 8398   4.523   2.986   6.353
 2500SOL    HW1 8399   4.584   3.033   6.289
 2500SOL    HW2 8400   4.535   3.025   6.445
 2501SOL     OW 8401   6.909   4.456   6.901
 2501SOL    HW1 8402   6.858   4.488   6.821
 2501SOL    HW2 8403   6.979   4.522   6.925
 2502SOL     OW 8404   2.708   0.025   2.799
 2502SOL    HW1 8405   2.651   6.991   2.743
 2502SOL    HW2 8406   2.695   0.120   2.770
 2503SOL     OW 8407   4.134   4.922   5.613
 2503SOL    HW1 8408   4.034   4.926   5.612
 2503SOL    HW2 8409   4.169   4.956   5.526
 2504SOL     OW 8410   1.514   4.806   4.291
 2504SOL    HW1 8411   1.590   4.744   4.273
 2504SOL    HW2 8412   1.493   4.807   4.389
 2505SOL     OW 8413   4.373   5.196   4.438
 2505SOL    HW1 8414   4.289   5.250   4.431
 2505SOL    HW2 8415   4.443   5.249   4.487
 2506SOL     OW 8416   6.741   2.630   6.199
 2506SOL    HW1 8417   6.682   2.589   6.130
 2506SOL    HW2 8418   6.836   2.625   6.169
 2507SOL     OW 8419   6.413   5.907   0.607
 2507SOL    HW1 8420   6.359   5.852   0.671
 2507SOL    HW2 8421   6.489   5.950   0.656
 2508SOL     OW 8422   2.619   2.220   2.339
 2508SOL    HW1 8423   2.563   2.140   2.316
 2508SOL    HW2 8424   2.712   2.208   2.304
 2509SOL     OW 8425   5.124   2.936   3.693
 2509SOL    HW1 8426   5.210   2.907   3.651
 2509SOL    HW2 8427   5.141   3.014   3.754
 2510SOL     OW 8428   3.962   5.492   0.844
 2510SOL    HW1 8429   3.998   5.532   0.760
 2510SOL    HW2 8430   3.928   5.400   0.825
 2511SOL     OW 8431   0.642   0.648   5.038
 2511SOL    HW1 8432   0.634   0.622   5.135
 2511SOL    HW2 8433   0.706   0.725   5.030
 2512SOL     OW 8434   5.148   3.839   4.843
 2512SOL    HW1 8435   5.179   3.841   4.748
 2512SOL    HW2 8436   5.172   3.925   4.888
 2513SOL     OW 8437   0.955   2.624   0.114
 2513SOL    HW1 8438   1.055   2.620   0.116
 2513SOL    HW2 8439   0.919   2.579   0.197
 2514SOL     OW 8440   1.522   0.872   3.893
 2514SOL    HW1 8441   1.503   0.873   3.795
 2514SOL    HW2 8442   1.617   0.899   3.909
 2515SOL     OW 8443   0.781   5.627   0.804
 2515SOL    HW1 8444   0.847   5.688   0.761
 2515SOL    HW2 8445   0.823   5.581   0.882
 2516SOL     OW 8446   5.599   6.402   3.571
 2516SOL    HW1 8447   5.537   6.378   3.646
 2516SOL    HW2 8448   5.599   6.329   3.503
 2517SOL     OW 8449   2.301   4.615   0.325
 2517SOL    HW1 8450   2.243   4.535   0.309
 2517SOL    HW2 8451   2.260   4.695   0.282
 2518SOL     OW 8452   2.621   2.658   6.443
 2518SOL    HW1 8453   2.581   2.573   6.409
 2518SOL    HW2 8454   2.584   2.735   6.392
 2519SOL     OW 8455   4.604   4.873   4.804
 2519SOL    HW1 8456   4.618   4.796   4.866
 2519SOL    HW2 8457   4.573   4.839   4.715
 2520SOL     OW 8458   2.399   4.092   1.824
 2520SOL    HW1 8459   2.344   4.145   1.759
 2520SOL    HW2 8460   2.477   4.148   1.855
 2521SOL     OW 8461   5.805   0.201   5.248
 2521SOL    HW1 8462   5.719   0.201   5.299
 2521SOL    HW2 8463   5.882   0.214   5.311
 2522SOL     OW 8464   0.577   3.240   4.467
 2522SOL    HW1 8465   0.586   3.206   4.561
 2522SOL    HW2 8466   0.668   3.263   4.431
 2523SOL     OW 8467   0.851   3.614   6.920
 2523SOL    HW1 8468   0.899   3.527   6.931
 2523SOL    HW2 8469   0.856   3.666   7.005
 2524SOL     OW 8470   1.635   6.410   4.051
 2524SOL    HW1 8471   1.653   6.381   3.957
 2524SOL    HW2 8472   1.691   6.490   4.072
 2525SOL     OW 8473   1.236   3.597   3.844
 2525SOL    HW1 8474   1.190   3.516   3.807
 2525SOL    HW2 8475   1.195   3.622   3.932
 2526SOL     OW 8476   7.000   1.567   4.201
 2526SOL    HW1 8477   6.902   1.574   4.217
 2526SOL    HW2 8478   7.018   1.564   4.102
 2527SOL     OW 8479   5.727   6.540   3.915
 2527SOL    HW1 8480   5.824   6.551   3.891
 2527SOL    HW2 8481   5.671   6.599   3.858
 2528SOL     OW 8482   6.477   5.882   0.125
 2528SOL    HW1 8483   6.517   5.919   0.041
 2528SOL    HW2 8484   6.508   5.788   0.138
 2529SOL     OW 8485   5.129   4.218   4.219
 2529SOL    HW1 8486   5.067   4.273   4.163
 2529SOL    HW2 8487   5.208   4.274   4.245
 2530SOL     OW 8488   1.079   0.850   3.812
 2530SOL    HW1 8489   1.014   0.828   3.739
 2530SOL    HW2 8490   1.170   0.820   3.786
 2531SOL     OW 8491   3.835   1.478   6.690
 2531SOL    HW1 8492   3.825   1.404   6.624
 2531SOL    HW2 8493   3.855   1.563   6.641
 2532SOL     OW 8494   1.014   4.727   6.655
 2532SOL    HW1 8495   0.915   4.725   6.674
 2532SOL    HW2 8496   1.048   4.634   6.645
 2533SOL     OW 8497   5.835   6.779   6.085
 2533SOL    HW1 8498   5.897   6.725   6.028
 2533SOL    HW2 8499   5.782   6.841   6.027
 2534SOL     OW 8500   1.201   1.068   3.254
 2534SOL    HW1 8501   1.195   1.148   3.194
 2534SOL    HW2 8502   1.228   1.098   3.346
 2535SOL     OW 8503   2.402   1.225   3.758
 2535SOL    HW1 8504   2.447   1.296   3.704
 2535SOL    HW2 8505   2.311   1.257   3.784
 2536SOL     OW 8506   5.862   1.008   3.707
 2536SOL    HW1 8507   5.866   0.909   3.713
 2536SOL    HW2 8508   5.778   1.041   3.750
 2537SOL     OW 8509   5.122   5.499   1.599
 2537SOL    HW1 8510   5.199   5.456   1.646
 2537SOL    HW2 8511   5.145   5.594   1.577
 2538SOL     OW 8512   2.109   4.687   4.357
 2538SOL    HW1 8513   2.194   4.702   4.307
 2538SOL    HW2 8514   2.032   4.723   4.303
 2539SOL     OW 8515   3.836   6.820   5.643
 2539SOL    HW1 8516   3.840   6.814   5.743
 2539SOL    HW2 8517   3.788   6.740   5.607
 2540SOL     OW 8518   5.794   1.481   2.051
 2540SOL    HW1 8519   5.713   1.534   2.076
 2540SOL    HW2 8520   5.807   1.485   1.952
 2541SOL     OW 8521   1.254   6.348   6.605
 2541SOL    HW1 8522   1.245   6.253   6.575
 2541SOL    HW2 8523   1.296   6.402   6.531
 2542SOL     OW 8524   3.389   2.148   4.631
 2542SOL    HW1 8525   3.416   2.054   4.608
 2542SOL    HW2 8526   3.378   2.157   4.730
 2543SOL     OW 8527   0.707   1.522   3.534
 2543SOL    HW1 8528   0.712   1.611   3.580
 2543SOL    HW2 8529   0.634   1.467   3.576
 2544SOL     OW 8530   6.490   5.171   1.617
 2544SOL    HW1 8531   6.402   5.124   1.607
 2544SOL    HW2 8532   6.550   5.115   1.674
 2545SOL     OW 8533   0.381   1.880   1.377
 2545SOL    HW1 8534   0.347   1.950   1.441
 2545SOL    HW2 8535   0.410   1.924   1.292
 2546SOL     OW 8536   7.021   3.872   1.930
 2546SOL    HW1 8537   6.935   3.893   1.883
 2546SOL    HW2 8538   0.072   3.908   1.877
 2547SOL     OW 8539   5.512   3.524   0.383
 2547SOL    HW1 8540   5.418   3.536   0.352
 2547SOL    HW2 8541   5.512   3.475   0.471
 2548SOL     OW 8542   6.848   0.011   5.226
 2548SOL    HW1 8543   6.890   0.069   5.157
 2548SOL    HW2 8544   6.919   6.999   5.285
 2549SOL     OW 8545   2.636   2.464   0.809
 2549SOL    HW1 8546   2.700   2.541   0.814
 2549SOL    HW2 8547   2.546   2.497   0.781
 2550SOL     OW 8548   4.356   6.887   6.303
 2550SOL    HW1 8549   4.450   6.858   6.284
 2550SOL    HW2 8550   4.351   6.987   6.302
 2551SOL     OW 8551   2.896   5.718   0.188
 2551SOL    HW1 8552   2.973   5.768   0.148
 2551SOL    HW2 8553   2.813   5.737   0.135
 2552SOL     OW 8554   1.991   5.936   0.844
 2552SOL    HW1 8555   1.942   5.951   0.757
 2552SOL    HW2 8556   1.990   5.839   0.866
 2553SOL     OW 8557   4.161   1.434   6.737
 2553SOL    HW1 8558   4.159   1.343   6.695
 2553SOL    HW2 8559   4.222   1.433   6.816
 2554SOL     OW 8560   1.562   5.748   1.398
 2554SOL    HW1 8561   1.570   5.824   1.464
 2554SOL    HW2 8562   1.599   5.777   1.310
 2555SOL     OW 8563   5.756   6.158   5.379
 2555SOL    HW1 8564   5.714   6.220   5.313
 2555SOL    HW2 8565   5.855   6.163   5.371
 2556SOL     OW 8566   4.224   6.790   1.695
 2556SOL    HW1 8567   4.180   6.716   1.746
 2556SOL    HW2 8568   4.156   6.861   1.674
 2557SOL     OW 8569   3.977   6.765   0.113
 2557SOL    HW1 8570   3.916   6.754   0.192
 2557SOL    HW2 8571   4.033   6.683   0.102
 2558SOL     OW 8572   5.946   4.054   6.325
 2558SOL    HW1 8573   5.852   4.086   6.332
 2558SOL    HW2 8574   5.998   4.116   6.267
 2559SOL     OW 8575   1.258   4.538   4.001
 2559SOL    HW1 8576   1.205   4.469   4.050
 2559SOL    HW2 8577   1.334   4.494   3.953
 2560SOL     OW 8578   4.969   1.919   3.553
 2560SOL    HW1 8579   4.931   1.956   3.468
 2560SOL    HW2 8580   4.923   1.833   3.575
 2561SOL     OW 8581   3.224   0.297   4.502
 2561SOL    HW1 8582   3.297   0.258   4.448
 2561SOL    HW2 8583   3.260   0.369   4.562
 2562SOL     OW 8584   3.298   0.155   3.765
 2562SOL    HW1 8585   3.237   0.150   3.687
 2562SOL    HW2 8586   3.289   0.072   3.820
 2563SOL     OW 8587   3.545   1.226   0.465
 2563SOL    HW1 8588   3.642   1.247   0.478
 2563SOL    HW2 8589   3.532   1.127   0.463
 2564SOL     OW 8590   1.495   1.549   0.522
 2564SOL    HW1 8591   1.529   1.555   0.615
 2564SOL    HW2 8592   1.514   1.635   0.474
 2565SOL     OW 8593   1.640   2.360   6.841
 2565SOL    HW1 8594   1.595   2.274   6.868
 2565SOL    HW2 8595   1.571   2.427   6.814
 2566SOL     OW 8596   2.549   0.637   1.192
 2566SOL    HW1 8597   2.640   0.672   1.170
 2566SOL    HW2 8598   2.542   0.542   1.163
 2567SOL     OW 8599   1.349   0.381   0.415
 2567SOL    HW1 8600   1.390   0.290   0.404
 2567SOL    HW2 8601   1.411   0.438   0.470
 2568SOL     OW 8602   2.923   6.259   1.624
 2568SOL    HW1 8603   2.948   6.288   1.716
 2568SOL    HW2 8604   2.876   6.333   1.577
 2569SOL     OW 8605   0.519   0.996   1.519
 2569SOL    HW1 8606   0.524   0.981   1.421
 2569SOL    HW2 8607   0.609   1.021   1.554
 2570SOL     OW 8608   5.351   6.346   6.466
 2570SOL    HW1 8609   5.432   6.321   6.413
 2570SOL    HW2 8610   5.292   6.266   6.476
 2571SOL     OW 8611   3.499   3.084   4.712
 2571SOL    HW1 8612   3.569   3.014   4.732
 2571SOL    HW2 8613   3.498   3.151   4.786
 2572SOL     OW 8614   2.044   6.201   1.621
 2572SOL    HW1 8615   1.996   6.285   1.594
 2572SOL    HW2 8616   2.067   6.206   1.718
 2573SOL     OW 8617   6.677   2.224   3.812
 2573SOL    HW1 8618   6.709   2.318   3.807
 2573SOL    HW2 8619   6.623   2.203   3.730
 2574SOL     OW 8620   0.513   3.935   1.593
 2574SOL    HW1 8621   0.523   3.899   1.500
 2574SOL    HW2 8622   0.496   4.033   1.589
 2575SOL     OW 8623   5.945   4.153   0.278
 2575SOL    HW1 8624   5.956   4.098   0.195
 2575SOL    HW2 8625   5.985   4.104   0.355
 2576SOL     OW 8626   2.275   6.956   3.161
 2576SOL    HW1 8627   2.272   6.885   3.090
 2576SOL    HW2 8628   2.369   6.988   3.172
 2577SOL     OW 8629   2.662   6.702   2.776
 2577SOL    HW1 8630   2.578   6.728   2.728
 2577SOL    HW2 8631   2.643   6.628   2.840
 2578SOL     OW 8632   5.437   2.864   4.716
 2578SOL    HW1 8633   5.342   2.858   4.747
 2578SOL    HW2 8634   5.491   2.790   4.758
 2579SOL     OW 8635   0.378   2.354   6.798
 2579SOL    HW1 8636   0.384   2.347   6.698
 2579SOL    HW2 8637   0.292   2.314   6.828
 2580SOL     OW 8638   1.613   2.734   6.855
 2580SOL    HW1 8639   1.698   2.710   6.902
 2580SOL    HW2 8640   1.563   2.801   6.910
 2581SOL     OW 8641   5.982   5.924   2.953
 2581SOL    HW1 8642   5.936   5.905   3.040
 2581SOL    HW2 8643   6.020   5.839   2.916
 2582SOL     OW 8644   0.867   5.249   2.400
 2582SOL    HW1 8645   0.926   5.272   2.322
 2582SOL    HW2 8646   0.885   5.313   2.475
 2583SOL     OW 8647   1.354   0.156   0.772
 2583SOL    HW1 8648   1.289   0.082   0.759
 2583SOL    HW2 8649   1.445   0.118   0.791
 2584SOL     OW 8650   3.818   5.931   0.919
 2584SOL    HW1 8651   3.895   5.899   0.974
 2584SOL    HW2 8652   3.769   6.003   0.969
 2585SOL     OW 8653   3.589   0.186   1.392
 2585SOL    HW1 8654   3.579   0.270   1.337
 2585SOL    HW2 8655   3.677   0.144   1.371
 2586SOL     OW 8656   6.318   2.100   3.789
 2586SOL    HW1 8657   6.222   2.076   3.793
 2586SOL    HW2 8658   6.369   2.053   3.861
 2587SOL     OW 8659   5.929   6.189   4.150
 2587SOL    HW1 8660   6.025   6.163   4.147
 2587SOL    HW2 8661   5.873   6.108   4.166
 2588SOL     OW 8662   5.405   0.402   1.732
 2588SOL    HW1 8663   5.494   0.444   1.748
 2588SOL    HW2 8664   5.416   0.304   1.715
 2589SOL     OW 8665   6.614   6.448   5.668
 2589SOL    HW1 8666   6.610   6.370   5.606
 2589SOL    HW2 8667   6.609   6.416   5.762
 2590SOL     OW 8668   4.881   6.692   3.161
 2590SOL    HW1 8669   4.783   6.688   3.142
 2590SOL    HW2 8670   4.896   6.700   3.260
 2591SOL     OW 8671   5.222   6.134   1.806
 2591SOL    HW1 8672   5.188   6.168   1.894
 2591SOL    HW2 8673   5.150   6.141   1.737
 2592SOL     OW 8674   3.494   5.451   2.003
 2592SOL    HW1 8675   3.456   5.501   1.926
 2592SOL    HW2 8676   3.427   5.385   2.036
 2593SOL     OW 8677   3.245   6.590   2.557
 2593SOL    HW1 8678   3.290   6.673   2.522
 2593SOL    HW2 8679   3.229   6.527   2.482
 2594SOL     OW 8680   0.430   6.650   6.639
 2594SOL    HW1 8681   0.331   6.657   6.627
 2594SOL    HW2 8682   0.461   6.721   6.703
 2595SOL     OW 8683   6.110   3.366   4.793
 2595SOL    HW1 8684   6.024   3.367   4.743
 2595SOL    HW2 8685   6.186   3.370   4.728
 2596SOL     OW 8686   4.051   2.233   1.983
 2596SOL    HW1 8687   4.078   2.220   2.079
 2596SOL    HW2 8688   3.971   2.292   1.978
 2597SOL     OW 8689   2.358   3.868   0.596
 2597SOL    HW1 8690   2.404   3.779   0.600
 2597SOL    HW2 8691   2.420   3.935   0.555
 2598SOL     OW 8692   6.748   3.026   3.567
 2598SOL    HW1 8693   6.815   2.989   3.502
 2598SOL    HW2 8694   6.701   3.104   3.526
 2599SOL     OW 8695   3.860   5.569   0.414
 2599SOL    HW1 8696   3.940   5.511   0.401
 2599SOL    HW2 8697   3.832   5.607   0.326
 2600SOL     OW 8698   5.908   3.375   3.214
 2600SOL    HW1 8699   5.846   3.297   3.222
 2600SOL    HW2 8700   5.953   3.390   3.302
 2601SOL     OW 8701   3.509   3.832   6.145
 2601SOL    HW1 8702   3.603   3.854   6.116
 2601SOL    HW2 8703   3.462   3.785   6.070
 2602SOL     OW 8704   6.728   5.345   4.144
 2602SOL    HW1 8705   6.810   5.371   4.195
 2602SOL    HW2 8706   6.720   5.246   4.142
 2603SOL     OW 8707   2.877   1.864   1.397
 2603SOL    HW1 8708   2.804   1.923   1.431
 2603SOL    HW2 8709   2.940   1.843   1.471
 2604SOL     OW 8710   5.566   0.973   1.352
 2604SOL    HW1 8711   5.598   0.883   1.324
 2604SOL    HW2 8712   5.503   0.963   1.429
 2605SOL     OW 8713   4.315   5.031   4.727
 2605SOL    HW1 8714   4.362   5.035   4.640
 2605SOL    HW2 8715   4.335   5.114   4.780
 2606SOL     OW 8716   6.495   4.497   0.232
 2606SOL    HW1 8717   6.492   4.397   0.233
 2606SOL    HW2 8718   6.584   4.528   0.198
 2607SOL     OW 8719   0.946   0.468   3.319
 2607SOL    HW1 8720   0.925   0.563   3.342
 2607SOL    HW2 8721   1.039   0.461   3.283
 2608SOL     OW 8722   5.049   0.606   1.507
 2608SOL    HW1 8723   5.107   0.601   1.425
 2608SOL    HW2 8724   5.105   0.596   1.589
 2609SOL     OW 8725   0.788   2.149   2.546
 2609SOL    HW1 8726   0.856   2.101   2.601
 2609SOL    HW2 8727   0.714   2.181   2.605
 2610SOL     OW 8728   6.049   5.516   5.127
 2610SOL    HW1 8729   6.142   5.499   5.158
 2610SOL    HW2 8730   6.010   5.432   5.092
 2611SOL     OW 8731   5.459   6.267   1.445
 2611SOL    HW1 8732   5.476   6.199   1.375
 2611SOL    HW2 8733   5.361   6.288   1.449
 2612SOL     OW 8734   5.425   6.631   3.464
 2612SOL    HW1 8735   5.374   6.606   3.382
 2612SOL    HW2 8736   5.482   6.554   3.494
 2613SOL     OW 8737   3.826   0.221   2.229
 2613SOL    HW1 8738   3.743   0.182   2.269
 2613SOL    HW2 8739   3.804   0.267   2.143
 2614SOL     OW 8740   6.469   6.548   6.075
 2614SOL    HW1 8741   6.503   6.468   6.026
 2614SOL    HW2 8742   6.461   6.625   6.012
 2615SOL     OW 8743   5.100   4.932   2.786
 2615SOL    HW1 8744   5.049   5.013   2.815
 2615SOL    HW2 8745   5.043   4.877   2.725
 2616SOL     OW 8746   3.984   3.154   2.998
 2616SOL    HW1 8747   4.006   3.218   3.072
 2616SOL    HW2 8748   3.972   3.063   3.036
 2617SOL     OW 8749   3.703   6.131   1.068
 2617SOL    HW1 8750   3.607   6.105   1.072
 2617SOL    HW2 8751   3.745   6.114   1.158
 2618SOL     OW 8752   0.035   0.562   0.935
 2618SOL    HW1 8753   6.978   0.509   0.921
 2618SOL    HW2 8754   0.112   0.500   0.953
 2619SOL     OW 8755   4.381   2.075   2.230
 2619SOL    HW1 8756   4.385   2.046   2.135
 2619SOL    HW2 8757   4.462   2.042   2.278
 2620SOL     OW 8758   1.090   5.123   3.620
 2620SOL    HW1 8759   1.156   5.116   3.695
 2620SOL    HW2 8760   1.002   5.155   3.657
 2621SOL     OW 8761   0.864   6.097   3.906
 2621SOL    HW1 8762   0.953   6.108   3.950
 2621SOL    HW2 8763   0.793   6.131   3.968
 2622SOL     OW 8764   2.608   2.904   6.678
 2622SOL    HW1 8765   2.597   3.003   6.690
 2622SOL    HW2 8766   2.566   2.876   6.592
 2623SOL     OW 8767   3.654   1.264   5.615
 2623SOL    HW1 8768   3.708   1.326   5.672
 2623SOL    HW2 8769   3.669   1.286   5.518
 2624SOL     OW 8770   5.883   2.631   3.195
 2624SOL    HW1 8771   5.939   2.551   3.173
 2624SOL    HW2 8772   5.793   2.621   3.155
 2625SOL     OW 8773   2.668   2.766   5.570
 2625SOL    HW1 8774   2.760   2.799   5.590
 2625SOL    HW2 8775   2.663   2.738   5.474
 2626SOL     OW 8776   2.129   6.516   3.237
 2626SOL    HW1 8777   2.213   6.528   3.184
 2626SOL    HW2 8778   2.098   6.605   3.270
 2627SOL     OW 8779   0.257   0.194   4.785
 2627SOL    HW1 8780   0.345   0.147   4.776
 2627SOL    HW2 8781   0.271   0.287   4.819
 2628SOL     OW 8782   3.771   6.494   0.140
 2628SOL    HW1 8783   3.691   6.461   0.091
 2628SOL    HW2 8784   3.852   6.444   0.109
 2629SOL     OW 8785   3.826   4.164   1.405
 2629SOL    HW1 8786   3.838   4.082   1.349
 2629SOL    HW2 8787   3.852   4.245   1.352
 2630SOL     OW 8788   3.623   1.593   2.238
 2630SOL    HW1 8789   3.718   1.561   2.230
 2630SOL    HW2 8790   3.619   1.691   2.219
 2631SOL     OW 8791   4.631   6.719   4.351
 2631SOL    HW1 8792   4.702   6.776   4.392
 2631SOL    HW2 8793   4.632   6.731   4.252
 2632SOL     OW 8794   3.322   1.454   6.917
 2632SOL    HW1 8795   3.401   1.504   6.882
 2632SOL    HW2 8796   3.246   1.518   6.931
 2633SOL     OW 8797   5.955   2.551   6.727
 2633SOL    HW1 8798   5.904   2.622   6.776
 2633SOL    HW2 8799   6.023   2.595   6.668
 2634SOL     OW 8800   1.782   4.010   1.580
 2634SOL    HW1 8801   1.686   4.010   1.608
 2634SOL    HW2 8802   1.837   4.058   1.649
 2635SOL     OW 8803   5.559   5.163   4.336
 2635SOL    HW1 8804   5.484   5.141   4.274
 2635SOL    HW2 8805   5.642   5.117   4.305
 2636SOL     OW 8806   5.031   0.333   5.928
 2636SOL    HW1 8807   5.121   0.358   5.890
 2636SOL    HW2 8808   5.015   0.385   6.012
 2637SOL     OW 8809   5.302   6.489   3.266
 2637SOL    HW1 8810   5.275   6.432   3.343
 2637SOL    HW2 8811   5.380   6.448   3.219
 2638SOL     OW 8812   5.581   6.245   1.042
 2638SOL    HW1 8813   5.584   6.273   1.138
 2638SOL    HW2 8814   5.501   6.285   0.998
 2639SOL     OW 8815   5.847   6.940   1.366
 2639SOL    HW1 8816   5.840   6.841   1.379
 2639SOL    HW2 8817   5.944   6.965   1.356
 2640SOL     OW 8818   6.998   6.266   5.330
 2640SOL    HW1 8819   6.987   6.204   5.252
 2640SOL    HW2 8820   0.067   6.299   5.333
 2641SOL     OW 8821   5.170   4.063   6.233
 2641SOL    HW1 8822   5.236   4.093   6.164
 2641SOL    HW2 8823   5.139   4.142   6.286
 2642SOL     OW 8824   4.888   0.430   4.285
 2642SOL    HW1 8825   4.794   0.457   4.309
 2642SOL    HW2 8826   4.931   0.504   4.234
 2643SOL     OW 8827   6.931   6.716   3.393
 2643SOL    HW1 8828   6.985   6.648   3.344
 2643SOL    HW2 8829   6.898   6.785   3.329
 2644SOL     OW 8830   0.606   5.070   5.582
 2644SOL    HW1 8831   0.635   4.986   5.629
 2644SOL    HW2 8832   0.512   5.060   5.550
 2645SOL     OW 8833   5.325   6.321   5.822
 2645SOL    HW1 8834   5.334   6.266   5.905
 2645SOL    HW2 8835   5.255   6.392   5.836
 2646SOL     OW 8836   0.130   0.134   6.514
 2646SOL    HW1 8837   0.207   0.077   6.486
 2646SOL    HW2 8838   0.163   0.209   6.572
 2647SOL     OW 8839   4.334   1.782   1.117
 2647SOL    HW1 8840   4.237   1.804   1.109
 2647SOL    HW2 8841   4.375   1.779   1.025
 2648SOL     OW 8842   6.048   0.212   2.259
 2648SOL    HW1 8843   6.097   0.138   2.307
 2648SOL    HW2 8844   6.056   0.198   2.160
 2649SOL     OW 8845   3.352   1.429   6.276
 2649SOL    HW1 8846   3.295   1.380   6.210
 2649SOL    HW2 8847   3.338   1.528   6.266
 2650SOL     OW 8848   0.438   5.273   3.502
 2650SOL    HW1 8849   0.396   5.228   3.423
 2650SOL    HW2 8850   0.434   5.213   3.581
 2651SOL     OW 8851   0.094   1.454   1.964
 2651SOL    HW1 8852   0.142   1.369   1.944
 2651SOL    HW2 8853   0.041   1.444   2.048
 2652SOL     OW 8854   2.947   3.290   3.089
 2652SOL    HW1 8855   2.873   3.271   3.024
 2652SOL    HW2 8856   2.968   3.388   3.088
 2653SOL     OW 8857   5.749   7.003   5.940
 2653SOL    HW1 8858   5.696   0.052   5.980
 2653SOL    HW2 8859   5.838   0.011   5.910
 2654SOL     OW 8860   5.025   1.874   6.192
 2654SOL    HW1 8861   5.000   1.948   6.254
 2654SOL    HW2 8862   5.034   1.909   6.099
 2655SOL     OW 8863   4.314   6.130   4.740
 2655SOL    HW1 8864   4.378   6.191   4.693
 2655SOL    HW2 8865   4.259   6.183   4.804
 2656SOL     OW 8866   5.426   3.980   3.464
 2656SOL    HW1 8867   5.395   3.978   3.369
 2656SOL    HW2 8868   5.494   4.053   3.475
 2657SOL     OW 8869   1.939   4.463   6.788
 2657SOL    HW1 8870   1.881   4.462   6.870
 2657SOL    HW2 8871   2.006   4.389   6.794
 2658SOL     OW 8872   5.860   4.001   5.789
 2658SOL    HW1 8873   5.832   4.089   5.751
 2658SOL    HW2 8874   5.799   3.976   5.864
 2659SOL     OW 8875   6.934   2.481   4.849
 2659SOL    HW1 8876   6.906   2.463   4.943
 2659SOL    HW2 8877   6.859   2.523   4.799
 2660SOL     OW 8878   6.418   2.228   2.326
 2660SOL    HW1 8879   6.404   2.135   2.358
 2660SOL    HW2 8880   6.370   2.241   2.239
 2661SOL     OW 8881   3.702   5.637   1.231
 2661SOL    HW1 8882   3.788   5.645   1.181
 2661SOL    HW2 8883   3.635   5.701   1.192
 2662SOL     OW 8884   4.203   6.425   5.013
 2662SOL    HW1 8885   4.269   6.406   5.086
 2662SOL    HW2 8886   4.142   6.346   5.003
 2663SOL     OW 8887   2.137   4.875   2.247
 2663SOL    HW1 8888   2.213   4.940   2.238
 2663SOL    HW2 8889   2.083   4.875   2.163
 2664SOL     OW 8890   4.002   3.842   2.794
 2664SOL    HW1 8891   4.010   3.881   2.886
 2664SOL    HW2 8892   3.929   3.889   2.744
 2665SOL     OW 8893   3.680   1.307   5.340
 2665SOL    HW1 8894   3.617   1.233   5.316
 2665SOL    HW2 8895   3.669   1.382   5.274
 2666SOL     OW 8896   4.918   4.357   1.058
 2666SOL    HW1 8897   4.941   4.268   1.096
 2666SOL    HW2 8898   4.999   4.398   1.016
 2667SOL     OW 8899   1.699   6.013   4.975
 2667SOL    HW1 8900   1.748   6.057   5.050
 2667SOL    HW2 8901   1.699   6.074   4.896
 2668SOL     OW 8902   6.871   3.366   5.221
 2668SOL    HW1 8903   6.818   3.308   5.282
 2668SOL    HW2 8904   6.852   3.462   5.242
 2669SOL     OW 8905   4.470   5.358   5.418
 2669SOL    HW1 8906   4.432   5.389   5.331
 2669SOL    HW2 8907   4.478   5.436   5.481
 2670SOL     OW 8908   0.955   1.048   0.211
 2670SOL    HW1 8909   0.904   1.030   0.127
 2670SOL    HW2 8910   0.950   1.146   0.233
 2671SOL     OW 8911   2.390   4.160   6.634
 2671SOL    HW1 8912   2.351   4.217   6.706
 2671SOL    HW2 8913   2.335   4.169   6.551
 2672SOL     OW 8914   2.006   5.218   0.305
 2672SOL    HW1 8915   1.938   5.250   0.239
 2672SOL    HW2 8916   2.098   5.230   0.267
 2673SOL     OW 8917   3.974   2.165   3.236
 2673SOL    HW1 8918   4.005   2.075   3.204
 2673SOL    HW2 8919   3.956   2.160   3.335
 2674SOL     OW 8920   0.402   5.220   4.466
 2674SOL    HW1 8921   0.304   5.201   4.457
 2674SOL    HW2 8922   0.415   5.300   4.523
 2675SOL     OW 8923   0.410   4.480   5.466
 2675SOL    HW1 8924   0.331   4.438   5.510
 2675SOL    HW2 8925   0.480   4.410   5.450
 2676SOL     OW 8926   4.616   1.595   1.848
 2676SOL    HW1 8927   4.577   1.508   1.820
 2676SOL    HW2 8928   4.703   1.579   1.894
 2677SOL     OW 8929   1.771   4.508   1.497
 2677SOL    HW1 8930   1.737   4.546   1.411
 2677SOL    HW2 8931   1.730   4.418   1.512
 2678SOL     OW 8932   1.143   5.147   6.242
 2678SOL    HW1 8933   1.203   5.073   6.273
 2678SOL    HW2 8934   1.110   5.198   6.321
 2679SOL     OW 8935   3.575   5.099   1.009
 2679SOL    HW1 8936   3.501   5.073   1.071
 2679SOL    HW2 8937   3.589   5.198   1.015
 2680SOL     OW 8938   2.262   1.572   0.724
 2680SOL    HW1 8939   2.177   1.618   0.749
 2680SOL    HW2 8940   2.328   1.639   0.690
 2681SOL     OW 8941   0.829   3.332   4.423
 2681SOL    HW1 8942   0.897   3.296   4.486
 2681SOL    HW2 8943   0.821   3.431   4.435
 2682SOL     OW 8944   5.266   3.105   2.166
 2682SOL    HW1 8945   5.343   3.050   2.134
 2682SOL    HW2 8946   5.200   3.046   2.213
 2683SOL     OW 8947   0.865   5.457   1.082
 2683SOL    HW1 8948   0.811   5.375   1.099
 2683SOL    HW2 8949   0.898   5.494   1.169
 2684SOL     OW 8950   3.520   6.694   2.935
 2684SOL    HW1 8951   3.592   6.635   2.899
 2684SOL    HW2 8952   3.431   6.652   2.919
 2685SOL     OW 8953   5.300   6.054   4.838
 2685SOL    HW1 8954   5.375   6.012   4.786
 2685SOL    HW2 8955   5.232   5.985   4.859
 2686SOL     OW 8956   2.280   2.833   4.313
 2686SOL    HW1 8957   2.259   2.863   4.406
 2686SOL    HW2 8958   2.337   2.751   4.317
 2687SOL     OW 8959   3.875   5.161   2.317
 2687SOL    HW1 8960   3.932   5.157   2.399
 2687SOL    HW2 8961   3.868   5.070   2.277
 2688SOL     OW 8962   4.783   4.858   6.466
 2688SOL    HW1 8963   4.876   4.885   6.489
 2688SOL    HW2 8964   4.718   4.915   6.517
 2689SOL     OW 8965   1.190   2.485   3.320
 2689SOL    HW1 8966   1.114   2.460   3.259
 2689SOL    HW2 8967   1.155   2.509   3.410
 2690SOL     OW 8968   3.668   2.981   3.575
 2690SOL    HW1 8969   3.682   2.941   3.665
 2690SOL    HW2 8970   3.645   3.077   3.584
 2691SOL     OW 8971   1.884   5.238   2.325
 2691SOL    HW1 8972   1.922   5.148   2.349
 2691SOL    HW2 8973   1.824   5.228   2.246
 2692SOL     OW 8974   0.316   5.799   3.833
 2692SOL    HW1 8975   0.413   5.821   3.835
 2692SOL    HW2 8976   0.287   5.766   3.923
 2693SOL     OW 8977   1.775   3.628   3.681
 2693SOL    HW1 8978   1.701   3.603   3.619
 2693SOL    HW2 8979   1.748   3.609   3.775
 2694SOL     OW 8980   3.152   0.105   3.530
 2694SOL    HW1 8981   3.053   0.104   3.519
 2694SOL    HW2 8982   3.196   0.090   3.441
 2695SOL     OW 8983   5.056   2.014   2.663
 2695SOL    HW1 8984   5.067   1.915   2.669
 2695SOL    HW2 8985   5.113   2.058   2.733
 2696SOL     OW 8986   3.595   3.734   5.690
 2696SOL    HW1 8987   3.690   3.765   5.677
 2696SOL    HW2 8988   3.561   3.698   5.603
 2697SOL     OW 8989   3.967   2.248   3.730
 2697SOL    HW1 8990   3.897   2.313   3.700
 2697SOL    HW2 8991   3.923   2.166   3.768
 2698SOL     OW 8992   0.886   3.990   0.444
 2698SOL    HW1 8993   0.878   3.976   0.542
 2698SOL    HW2 8994   0.801   4.031   0.409
 2699SOL     OW 8995   3.571   5.431   1.309
 2699SOL    HW1 8996   3.545   5.441   1.405
 2699SOL    HW2 8997   3.641   5.499   1.285
 2700SOL     OW 8998   1.987   3.594   2.815
 2700SOL    HW1 8999   1.921   3.647   2.761
 2700SOL    HW2 9000   2.071   3.647   2.827
 2701SOL     OW 9001   3.203   0.218   6.376
 2701SOL    HW1 9002   3.239   0.291   6.435
 2701SOL    HW2 9003   3.232   0.129   6.411
 2702SOL     OW 9004   0.125   1.598   2.877
 2702SOL    HW1 9005   0.197   1.646   2.826
 2702SOL    HW2 9006   0.155   1.505   2.899
 2703SOL     OW 9007   2.805   1.750   2.551
 2703SOL    HW1 9008   2.891   1.800   2.562
 2703SOL    HW2 9009   2.730   1.816   2.540
 2704SOL     OW 9010   2.855   5.266   2.026
 2704SOL    HW1 9011   2.906   5.185   1.998
 2704SOL    HW2 9012   2.884   5.345   1.971
 2705SOL     OW 9013   6.190   5.931   3.782
 2705SOL    HW1 9014   6.102   5.979   3.781
 2705SOL    HW2 9015   6.251   5.972   3.715
 2706SOL     OW 9016   6.729   1.375   2.241
 2706SOL    HW1 9017   6.752   1.286   2.281
 2706SOL    HW2 9018   6.796   1.443   2.269
 2707SOL     OW 9019   1.844   2.051   6.775
 2707SOL    HW1 9020   1.888   1.966   6.803
 2707SOL    HW2 9021   1.756   2.030   6.731
 2708SOL     OW 9022   2.086   2.577   2.155
 2708SOL    HW1 9023   2.029   2.570   2.073
 2708SOL    HW2 9024   2.128   2.489   2.174
 2709SOL     OW 9025   5.210   6.117   1.141
 2709SOL    HW1 9026   5.307   6.115   1.165
 2709SOL    HW2 9027   5.188   6.034   1.088
 2710SOL     OW 9028   6.930   3.676   2.335
 2710SOL    HW1 9029   6.952   3.612   2.261
 2710SOL    HW2 9030   6.831   3.684   2.344
 2711SOL     OW 9031   1.146   0.498   1.755
 2711SOL    HW1 9032   1.209   0.521   1.829
 2711SOL    HW2 9033   1.163   0.404   1.725
 2712SOL     OW 9034   2.421   4.466   0.509
 2712SOL    HW1 9035   2.406   4.475   0.607
 2712SOL    HW2 9036   2.391   4.549   0.462
 2713SOL     OW 9037   2.222   3.237   5.194
 2713SOL    HW1 9038   2.309   3.187   5.197
 2713SOL    HW2 9039   2.241   3.335   5.202
 2714SOL     OW 9040   5.097   0.796   5.924
 2714SOL    HW1 9041   4.998   0.807   5.939
 2714SOL    HW2 9042   5.113   0.726   5.856
 2715SOL     OW 9043   5.195   1.979   0.113
 2715SOL    HW1 9044   5.176   2.067   0.069
 2715SOL    HW2 9045   5.123   1.914   0.088
 2716SOL     OW 9046   6.849   5.488   2.306
 2716SOL    HW1 9047   6.792   5.485   2.389
 2716SOL    HW2 9048   6.848   5.581   2.270
 2717SOL     OW 9049   0.908   6.605   2.584
 2717SOL    HW1 9050   0.923   6.650   2.671
 2717SOL    HW2 9051   0.815   6.624   2.552
 2718SOL     OW 9052   1.866   3.904   4.188
 2718SOL    HW1 9053   1.922   3.843   4.132
 2718SOL    HW2 9054   1.870   3.873   4.283
 2719SOL     OW 9055   4.311   5.085   2.598
 2719SOL    HW1 9056   4.279   5.179   2.607
 2719SOL    HW2 9057   4.293   5.052   2.505
 2720SOL     OW 9058   2.077   6.207   3.955
 2720SOL    HW1 9059   2.177   6.209   3.946
 2720SOL    HW2 9060   2.042   6.300   3.956
 2721SOL     OW 9061   2.824   0.271   4.706
 2721SOL    HW1 9062   2.870   0.320   4.632
 2721SOL    HW2 9063   2.804   0.178   4.677
 2722SOL     OW 9064   0.411   5.659   3.337
 2722SOL    HW1 9065   0.392   5.754   3.312
 2722SOL    HW2 9066   0.491   5.656   3.397
 2723SOL     OW 9067   1.837   1.163   5.689
 2723SOL    HW1 9068   1.860   1.150   5.592
 2723SOL    HW2 9069   1.738   1.163   5.700
 2724SOL     OW 9070   3.555   5.745   6.922
 2724SOL    HW1 9071   3.474   5.802   6.910
 2724SOL    HW2 9072   3.530   5.660   6.968
 2725SOL     OW 9073   4.365   4.687   2.959
 2725SOL    HW1 9074   4.392   4.591   2.957
 2725SOL    HW2 9075   4.328   4.713   2.870
 2726SOL     OW 9076   4.710   4.767   1.740
 2726SOL    HW1 9077   4.675   4.800   1.827
 2726SOL    HW2 9078   4.718   4.667   1.742
 2727SOL     OW 9079   0.807   4.745   2.648
 2727SOL    HW1 9080   0.762   4.664   2.611
 2727SOL    HW2 9081   0.739   4.812   2.676
 2728SOL     OW 9082   2.652   6.758   5.401
 2728SOL    HW1 9083   2.658   6.784   5.497
 2728SOL    HW2 9084   2.742   6.727   5.369
 2729SOL     OW 9085   6.530   4.776   3.225
 2729SOL    HW1 9086   6.442   4.812   3.194
 2729SOL    HW2 9087   6.517   4.684   3.261
 2730SOL     OW 9088   2.466   0.014   0.486
 2730SOL    HW1 9089   2.369   0.008   0.510
 2730SOL    HW2 9090   2.505   6.948   0.485
 2731SOL     OW 9091   2.937   3.810   1.876
 2731SOL    HW1 9092   2.970   3.902   1.894
 2731SOL    HW2 9093   3.014   3.746   1.872
 2732SOL     OW 9094   5.679   2.777   2.053
 2732SOL    HW1 9095   5.633   2.690   2.034
 2732SOL    HW2 9096   5.759   2.761   2.111
 2733SOL     OW 9097   1.002   6.901   5.458
 2733SOL    HW1 9098   1.054   6.935   5.536
 2733SOL    HW2 9099   0.969   6.978   5.404
 2734SOL     OW 9100   2.071   6.333   3.659
 2734SOL    HW1 9101   1.987   6.360   3.707
 2734SOL    HW2 9102   2.150   6.354   3.717
 2735SOL     OW 9103   1.394   4.513   2.496
 2735SOL    HW1 9104   1.324   4.562   2.445
 2735SOL    HW2 9105   1.453   4.579   2.544
 2736SOL     OW 9106   3.890   0.318   5.186
 2736SOL    HW1 9107   3.948   0.377   5.243
 2736SOL    HW2 9108   3.948   0.267   5.122
 2737SOL     OW 9109   4.057   3.794   5.922
 2737SOL    HW1 9110   4.152   3.823   5.935
 2737SOL    HW2 9111   4.056   3.701   5.884
 2738SOL     OW 9112   5.582   5.156   4.914
 2738SOL    HW1 9113   5.644   5.232   4.895
 2738SOL    HW2 9114   5.560   5.154   5.012
 2739SOL     OW 9115   5.384   3.659   0.733
 2739SOL    HW1 9116   5.427   3.570   0.716
 2739SOL    HW2 9117   5.456   3.729   0.741
 2740SOL     OW 9118   6.174   2.332   2.606
 2740SOL    HW1 9119   6.087   2.282   2.612
 2740SOL    HW2 9120   6.156   2.426   2.578
 2741SOL     OW 9121   6.930   1.959   5.549
 2741SOL    HW1 9122   6.987   1.928   5.625
 2741SOL    HW2 9123   6.834   1.965   5.578
 2742SOL     OW 9124   1.606   5.587   6.505
 2742SOL    HW1 9125   1.570   5.653   6.571
 2742SOL    HW2 9126   1.565   5.603   6.415
 2743SOL     OW 9127   5.639   4.971   1.501
 2743SOL    HW1 9128   5.569   4.905   1.475
 2743SOL    HW2 9129   5.707   4.978   1.427
 2744SOL     OW 9130   4.010   2.387   6.428
 2744SOL    HW1 9131   3.962   2.427   6.506
 2744SOL    HW2 9132   4.109   2.398   6.440
 2745SOL     OW 9133   2.202   6.148   0.805
 2745SOL    HW1 9134   2.133   6.076   0.811
 2745SOL    HW2 9135   2.182   6.218   0.874
 2746SOL     OW 9136   1.878   2.083   5.355
 2746SOL    HW1 9137   1.804   2.038   5.404
 2746SOL    HW2 9138   1.964   2.070   5.405
 2747SOL     OW 9139   5.488   6.080   4.163
 2747SOL    HW1 9140   5.485   6.011   4.235
 2747SOL    HW2 9141   5.429   6.052   4.087
 2748SOL     OW 9142   4.478   1.349   3.238
 2748SOL    HW1 9143   4.574   1.344   3.209
 2748SOL    HW2 9144   4.469   1.311   3.330
 2749SOL     OW 9145   4.465   4.521   4.221
 2749SOL    HW1 9146   4.431   4.533   4.314
 2749SOL    HW2 9147   4.404   4.566   4.156
 2750SOL     OW 9148   0.658   5.619   2.521
 2750SOL    HW1 9149   0.727   5.688   2.498
 2750SOL    HW2 9150   0.703   5.532   2.540
 2751SOL     OW 9151   2.180   6.867   6.436
 2751SOL    HW1 9152   2.220   6.889   6.524
 2751SOL    HW2 9153   2.234   6.795   6.391
 2752SOL     OW 9154   6.023   6.198   5.357
 2752SOL    HW1 9155   6.110   6.149   5.360
 2752SOL    HW2 9156   6.037   6.294   5.380
 2753SOL     OW 9157   3.985   6.001   6.448
 2753SOL    HW1 9158   3.978   6.027   6.545
 2753SOL    HW2 9159   4.070   5.952   6.433
 2754SOL     OW 9160   1.012   0.234   4.525
 2754SOL    HW1 9161   0.977   0.324   4.501
 2754SOL    HW2 9162   1.064   0.197   4.449
 2755SOL     OW 9163   3.156   6.078   2.157
 2755SOL    HW1 9164   3.224   6.115   2.221
 2755SOL    HW2 9165   3.130   5.986   2.184
 2756SOL     OW 9166   6.359   3.209   5.559
 2756SOL    HW1 9167   6.373   3.203   5.658
 2756SOL    HW2 9168   6.317   3.124   5.527
 2757SOL     OW 9169   4.379   2.328   0.165
 2757SOL    HW1 9170   4.298   2.381   0.188
 2757SOL    HW2 9171   4.454   2.390   0.142
 2758SOL     OW 9172   5.370   4.868   2.698
 2758SOL    HW1 9173   5.291   4.910   2.743
 2758SOL    HW2 9174   5.448   4.869   2.761
 2759SOL     OW 9175   3.380   4.567   6.368
 2759SOL    HW1 9176   3.430   4.653   6.375
 2759SOL    HW2 9177   3.287   4.586   6.334
 2760SOL     OW 9178   5.054   5.338   3.571
 2760SOL    HW1 9179   4.963   5.358   3.535
 2760SOL    HW2 9180   5.057   5.243   3.603
 2761SOL     OW 9181   2.166   3.770   2.941
 2761SOL    HW1 9182   2.209   3.741   3.027
 2761SOL    HW2 9183   2.178   3.868   2.930
 2762SOL     OW 9184   1.792   1.995   0.354
 2762SOL    HW1 9185   1.828   2.087   0.362
 2762SOL    HW2 9186   1.813   1.959   0.263
 2763SOL     OW 9187   4.579   1.618   5.835
 2763SOL    HW1 9188   4.528   1.534   5.816
 2763SOL    HW2 9189   4.624   1.649   5.751
 2764SOL     OW 9190   0.725   3.827   2.003
 2764SOL    HW1 9191   0.714   3.835   1.904
 2764SOL    HW2 9192   0.818   3.796   2.023
 2765SOL     OW 9193   6.139   6.667   0.050
 2765SOL    HW1 9194   6.098   6.734   7.015
 2765SOL    HW2 9195   6.119   6.692   0.145
 2766SOL     OW 9196   5.809   0.847   0.000
 2766SOL    HW1 9197   5.809   0.863   6.928
 2766SOL    HW2 9198   5.866   0.768   0.022
 2767SOL     OW 9199   6.686   4.871   6.295
 2767SOL    HW1 9200   6.603   4.844   6.247
 2767SOL    HW2 9201   6.760   4.883   6.229
 2768SOL     OW 9202   4.889   0.232   1.043
 2768SOL    HW1 9203   4.793   0.252   1.027
 2768SOL    HW2 9204   4.922   0.167   0.975
 2769SOL     OW 9205   1.956   4.510   5.669
 2769SOL    HW1 9206   1.979   4.434   5.608
 2769SOL    HW2 9207   1.909   4.582   5.618
 2770SOL     OW 9208   2.451   6.725   0.059
 2770SOL    HW1 9209   2.511   6.790   0.013
 2770SOL    HW2 9210   2.506   6.665   0.117
 2771SOL     OW 9211   4.501   0.421   4.726
 2771SOL    HW1 9212   4.408   0.396   4.755
 2771SOL    HW2 9213   4.501   0.445   4.629
 2772SOL     OW 9214   4.176   1.043   2.807
 2772SOL    HW1 9215   4.214   0.979   2.739
 2772SOL    HW2 9216   4.090   1.080   2.772
 2773SOL     OW 9217   6.021   2.890   3.719
 2773SOL    HW1 9218   6.082   2.937   3.656
 2773SOL    HW2 9219   6.074   2.846   3.791
 2774SOL     OW 9220   4.917   1.614   3.421
 2774SOL    HW1 9221   4.896   1.517   3.429
 2774SOL    HW2 9222   5.016   1.628   3.419
 2775SOL     OW 9223   0.649   4.585   4.555
 2775SOL    HW1 9224   0.722   4.614   4.617
 2775SOL    HW2 9225   0.588   4.521   4.603
 2776SOL     OW 9226   4.990   4.620   5.972
 2776SOL    HW1 9227   4.904   4.599   6.021
 2776SOL    HW2 9228   5.065   4.625   6.038
 2777SOL     OW 9229   3.046   2.262   6.120
 2777SOL    HW1 9230   2.972   2.269   6.053
 2777SOL    HW2 9231   3.121   2.323   6.094
 2778SOL     OW 9232   2.486   6.483   6.579
 2778SOL    HW1 9233   2.409   6.511   6.636
 2778SOL    HW2 9234   2.505   6.386   6.595
 2779SOL     OW 9235   5.960   6.325   2.061
 2779SOL    HW1 9236   5.980   6.233   2.096
 2779SOL    HW2 9237   5.971   6.326   1.962
 2780SOL     OW 9238   0.321   1.732   6.040
 2780SOL    HW1 9239   0.319   1.831   6.052
 2780SOL    HW2 9240   0.352   1.711   5.947
 2781SOL     OW 9241   6.485   0.529   2.681
 2781SOL    HW1 9242   6.410   0.505   2.619
 2781SOL    HW2 9243   6.450   0.530   2.775
 2782SOL     OW 9244   4.126   0.987   6.845
 2782SOL    HW1 9245   4.079   0.937   6.772
 2782SOL    HW2 9246   4.197   0.930   6.885
 2783SOL     OW 9247   5.442   3.468   1.656
 2783SOL    HW1 9248   5.347   3.485   1.631
 2783SOL    HW2 9249   5.478   3.393   1.601
 2784SOL     OW 9250   1.319   1.795   0.689
 2784SOL    HW1 9251   1.272   1.818   0.604
 2784SOL    HW2 9252   1.409   1.839   0.691
 2785SOL     OW 9253   5.425   2.934   1.449
 2785SOL    HW1 9254   5.344   2.876   1.454
 2785SOL    HW2 9255   5.424   2.999   1.525
 2786SOL     OW 9256   6.770   6.136   0.316
 2786SOL    HW1 9257   6.762   6.222   0.366
 2786SOL    HW2 9258   6.682   6.089   0.316
 2787SOL     OW 9259   6.230   4.901   6.138
 2787SOL    HW1 9260   6.265   4.995   6.144
 2787SOL    HW2 9261   6.181   4.890   6.052
 2788SOL     OW 9262   3.470   5.934   5.614
 2788SOL    HW1 9263   3.372   5.924   5.596
 2788SOL    HW2 9264   3.494   5.885   5.698
 2789SOL     OW 9265   0.802   2.430   5.050
 2789SOL    HW1 9266   0.726   2.410   4.989
 2789SOL    HW2 9267   0.888   2.415   5.002
 2790SOL     OW 9268   2.019   5.675   0.949
 2790SOL    HW1 9269   2.033   5.579   0.924
 2790SOL    HW2 9270   2.091   5.704   1.013
 2791SOL     OW 9271   6.969   3.968   3.360
 2791SOL    HW1 9272   6.884   3.917   3.348
 2791SOL    HW2 9273   0.021   3.910   3.336
 2792SOL     OW 9274   3.249   1.581   5.282
 2792SOL    HW1 9275   3.320   1.643   5.314
 2792SOL    HW2 9276   3.192   1.628   5.214
 2793SOL     OW 9277   3.543   4.186   1.419
 2793SOL    HW1 9278   3.530   4.179   1.518
 2793SOL    HW2 9279   3.615   4.253   1.399
 2794SOL     OW 9280   0.378   2.004   6.073
 2794SOL    HW1 9281   0.363   2.084   6.131
 2794SOL    HW2 9282   0.332   2.017   5.986
 2795SOL     OW 9283   1.061   4.775   1.581
 2795SOL    HW1 9284   1.003   4.778   1.499
 2795SOL    HW2 9285   1.126   4.700   1.573
 2796SOL     OW 9286   1.326   6.172   5.387
 2796SOL    HW1 9287   1.252   6.159   5.453
 2796SOL    HW2 9288   1.377   6.086   5.377
 2797SOL     OW 9289   5.418   6.886   3.840
 2797SOL    HW1 9290   5.327   6.889   3.883
 2797SOL    HW2 9291   5.442   6.792   3.820
 2798SOL     OW 9292   5.969   6.880   1.633
 2798SOL    HW1 9293   5.887   6.840   1.592
 2798SOL    HW2 9294   5.977   6.850   1.728
 2799SOL     OW 9295   3.919   6.026   5.018
 2799SOL    HW1 9296   3.978   6.039   5.097
 2799SOL    HW2 9297   3.882   5.933   5.019
 2800SOL     OW 9298   6.618   0.940   6.907
 2800SOL    HW1 9299   6.625   0.934   6.807
 2800SOL    HW2 9300   6.530   0.903   6.936
 2801SOL     OW 9301   0.800   5.195   5.420
 2801SOL    HW1 9302   0.745   5.142   5.485
 2801SOL    HW2 9303   0.740   5.257   5.368
 2802SOL     OW 9304   6.737   5.578   5.671
 2802SOL    HW1 9305   6.788   5.661   5.648
 2802SOL    HW2 9306   6.801   5.507   5.702
 2803SOL     OW 9307   4.048   3.229   6.639
 2803SOL    HW1 9308   4.132   3.274   6.608
 2803SOL    HW2 9309   4.041   3.236   6.738
 2804SOL     OW 9310   0.177   2.704   3.556
 2804SOL    HW1 9311   0.141   2.640   3.489
 2804SOL    HW2 9312   0.275   2.688   3.569
 2805SOL     OW 9313   4.160   3.323   1.380
 2805SOL    HW1 9314   4.144   3.225   1.390
 2805SOL    HW2 9315   4.258   3.339   1.363
 2806SOL     OW 9316   0.630   4.999   5.955
 2806SOL    HW1 9317   0.692   5.070   5.988
 2806SOL    HW2 9318   0.669   4.956   5.874
 2807SOL     OW 9319   3.019   0.392   3.766
 2807SOL    HW1 9320   3.099   0.429   3.720
 2807SOL    HW2 9321   2.936   0.432   3.727
 2808SOL     OW 9322   6.532   5.082   6.915
 2808SOL    HW1 9323   6.452   5.059   6.860
 2808SOL    HW2 9324   6.602   5.122   6.857
 2809SOL     OW 9325   6.684   4.826   2.150
 2809SOL    HW1 9326   6.716   4.820   2.244
 2809SOL    HW2 9327   6.585   4.839   2.149
 2810SOL     OW 9328   2.302   5.475   3.361
 2810SOL    HW1 9329   2.219   5.515   3.399
 2810SOL    HW2 9330   2.303   5.487   3.262
 2811SOL     OW 9331   0.935   0.630   2.136
 2811SOL    HW1 9332   0.980   0.720   2.133
 2811SOL    HW2 9333   0.838   0.642   2.156
 2812SOL     OW 9334   0.696   3.070   1.072
 2812SOL    HW1 9335   0.692   2.999   1.002
 2812SOL    HW2 9336   0.765   3.046   1.140
 2813SOL     OW 9337   0.875   2.316   1.820
 2813SOL    HW1 9338   0.946   2.385   1.806
 2813SOL    HW2 9339   0.850   2.275   1.732
 2814SOL     OW 9340   1.887   4.325   0.158
 2814SOL    HW1 9341   1.878   4.251   0.225
 2814SOL    HW2 9342   1.950   4.297   0.086
 2815SOL     OW 9343   0.532   5.851   5.646
 2815SOL    HW1 9344   0.542   5.775   5.711
 2815SOL    HW2 9345   0.608   5.850   5.582
 2816SOL     OW 9346   0.121   6.371   5.845
 2816SOL    HW1 9347   0.118   6.447   5.911
 2816SOL    HW2 9348   0.201   6.314   5.864
 2817SOL     OW 9349   4.356   0.628   1.956
 2817SOL    HW1 9350   4.423   0.594   2.022
 2817SOL    HW2 9351   4.388   0.714   1.916
 2818SOL     OW 9352   1.089   0.438   1.263
 2818SOL    HW1 9353   1.124   0.515   1.211
 2818SOL    HW2 9354   0.994   0.420   1.237
 2819SOL     OW 9355   0.753   0.485   0.572
 2819SOL    HW1 9356   0.653   0.479   0.574
 2819SOL    HW2 9357   0.782   0.574   0.605
 2820SOL     OW 9358   1.312   2.937   1.435
 2820SOL    HW1 9359   1.259   3.022   1.440
 2820SOL    HW2 9360   1.349   2.916   1.525
 2821SOL     OW 9361   3.048   4.198   6.544
 2821SOL    HW1 9362   3.133   4.248   6.562
 2821SOL    HW2 9363   3.066   4.100   6.546
 2822SOL     OW 9364   4.489   2.637   0.810
 2822SOL    HW1 9365   4.435   2.628   0.894
 2822SOL    HW2 9366   4.525   2.730   0.803
 2823SOL     OW 9367   5.560   2.127   1.173
 2823SOL    HW1 9368   5.633   2.061   1.189
 2823SOL    HW2 9369   5.541   2.177   1.257
 2824SOL     OW 9370   1.013   3.628   5.422
 2824SOL    HW1 9371   1.080   3.701   5.438
 2824SOL    HW2 9372   0.952   3.622   5.501
 2825SOL     OW 9373   5.551   1.667   6.301
 2825SOL    HW1 9374   5.485   1.657   6.375
 2825SOL    HW2 9375   5.561   1.764   6.279
 2826SOL     OW 9376   2.211   3.863   6.429
 2826SOL    HW1 9377   2.190   3.803   6.352
 2826SOL    HW2 9378   2.150   3.840   6.505
 2827SOL     OW 9379   0.145   0.893   6.482
 2827SOL    HW1 9380   0.147   0.855   6.389
 2827SOL    HW2 9381   0.144   0.993   6.477
 2828SOL     OW 9382   1.576   4.046   0.940
 2828SOL    HW1 9383   1.553   4.021   0.846
 2828SOL    HW2 9384   1.658   3.996   0.968
 2829SOL     OW 9385   3.937   3.824   3.347
 2829SOL    HW1 9386   3.875   3.903   3.337
 2829SOL    HW2 9387   4.013   3.849   3.407
 2830SOL     OW 9388   3.575   5.212   5.862
 2830SOL    HW1 9389   3.533   5.283   5.805
 2830SOL    HW2 9390   3.505   5.147   5.892
 2831SOL     OW 9391   6.403   1.986   2.063
 2831SOL    HW1 9392   6.439   1.973   1.970
 2831SOL    HW2 9393   6.317   1.935   2.072
 2832SOL     OW 9394   0.519   3.495   0.996
 2832SOL    HW1 9395   0.511   3.400   1.027
 2832SOL    HW2 9396   0.590   3.501   0.926
 2833SOL     OW 9397   1.627   2.148   1.390
 2833SOL    HW1 9398   1.710   2.117   1.343
 2833SOL    HW2 9399   1.574   2.068   1.419
 2834SOL     OW 9400   3.882   6.085   5.476
 2834SOL    HW1 9401   3.905   6.120   5.385
 2834SOL    HW2 9402   3.960   6.098   5.538
 2835SOL     OW 9403   0.454   6.592   0.651
 2835SOL    HW1 9404   0.377   6.620   0.594
 2835SOL    HW2 9405   0.472   6.662   0.720
 2836SOL     OW 9406   3.619   6.403   3.148
 2836SOL    HW1 9407   3.657   6.445   3.065
 2836SOL    HW2 9408   3.520   6.397   3.140
 2837SOL     OW 9409   5.150   4.194   1.990
 2837SOL    HW1 9410   5.203   4.174   2.073
 2837SOL    HW2 9411   5.151   4.293   1.973
 2838SOL     OW 9412   5.377   4.353   6.165
 2838SOL    HW1 9413   5.405   4.364   6.261
 2838SOL    HW2 9414   5.277   4.351   6.160
 2839SOL     OW 9415   5.785   2.787   5.054
 2839SOL    HW1 9416   5.798   2.886   5.066
 2839SOL    HW2 9417   5.874   2.743   5.041
 2840SOL     OW 9418   0.195   6.422   3.468
 2840SOL    HW1 9419   0.141   6.458   3.392
 2840SOL    HW2 9420   0.290   6.410   3.439
 2841SOL     OW 9421   5.869   2.950   1.853
 2841SOL    HW1 9422   5.834   2.996   1.934
 2841SOL    HW2 9423   5.895   2.856   1.876
 2842SOL     OW 9424   1.579   6.736   3.260
 2842SOL    HW1 9425   1.536   6.667   3.202
 2842SOL    HW2 9426   1.646   6.788   3.207
 2843SOL     OW 9427   2.259   2.898   3.355
 2843SOL    HW1 9428   2.281   2.909   3.452
 2843SOL    HW2 9429   2.317   2.827   3.315
 2844SOL     OW 9430   5.022   4.640   1.408
 2844SOL    HW1 9431   4.987   4.621   1.316
 2844SOL    HW2 9432   4.957   4.698   1.457
 2845SOL     OW 9433   3.460   2.047   2.992
 2845SOL    HW1 9434   3.516   2.071   2.912
 2845SOL    HW2 9435   3.503   2.085   3.074
 2846SOL     OW 9436   5.213   0.781   0.134
 2846SOL    HW1 9437   5.197   0.738   0.223
 2846SOL    HW2 9438   5.168   0.870   0.131
 2847SOL     OW 9439   5.114   4.527   2.352
 2847SOL    HW1 9440   5.142   4.567   2.264
 2847SOL    HW2 9441   5.177   4.558   2.424
 2848SOL     OW 9442   1.069   4.229   5.059
 2848SOL    HW1 9443   1.169   4.230   5.058
 2848SOL    HW2 9444   1.035   4.190   4.974
 2849SOL     OW 9445   4.775   0.547   2.473
 2849SOL    HW1 9446   4.842   0.477   2.451
 2849SOL    HW2 9447   4.721   0.569   2.392
 2850SOL     OW 9448   2.632   6.936   3.099
 2850SOL    HW1 9449   2.731   6.954   3.102
 2850SOL    HW2 9450   2.604   6.925   3.003
 2851SOL     OW 9451   3.906   3.266   0.912
 2851SOL    HW1 9452   3.896   3.273   1.011
 2851SOL    HW2 9453   3.837   3.323   0.867
 2852SOL     OW 9454   6.065   3.817   5.760
 2852SOL    HW1 9455   6.070   3.791   5.663
 2852SOL    HW2 9456   5.989   3.880   5.773
 2853SOL     OW 9457   0.543   4.017   6.926
 2853SOL    HW1 9458   0.507   3.936   6.880
 2853SOL    HW2 9459   0.643   4.014   6.926
 2854SOL     OW 9460   3.544   1.709   6.136
 2854SOL    HW1 9461   3.585   1.668   6.217
 2854SOL    HW2 9462   3.457   1.752   6.161
 2855SOL     OW 9463   1.755   1.698   4.631
 2855SOL    HW1 9464   1.792   1.777   4.582
 2855SOL    HW2 9465   1.830   1.648   4.674
 2856SOL     OW 9466   0.506   4.517   3.272
 2856SOL    HW1 9467   0.476   4.612   3.270
 2856SOL    HW2 9468   0.548   4.496   3.360
 2857SOL     OW 9469   6.819   3.313   0.496
 2857SOL    HW1 9470   6.748   3.312   0.425
 2857SOL    HW2 9471   6.868   3.226   0.494
 2858SOL     OW 9472   4.858   4.755   2.684
 2858SOL    HW1 9473   4.775   4.794   2.645
 2858SOL    HW2 9474   4.836   4.713   2.772
 2859SOL     OW 9475   5.472   4.803   1.372
 2859SOL    HW1 9476   5.528   4.723   1.394
 2859SOL    HW2 9477   5.381   4.791   1.410
 2860SOL     OW 9478   1.037   6.202   1.640
 2860SOL    HW1 9479   1.100   6.259   1.588
 2860SOL    HW2 9480   0.967   6.166   1.579
 2861SOL     OW 9481   4.479   4.991   0.009
 2861SOL    HW1 9482   4.380   4.996   7.022
 2861SOL    HW2 9483   4.514   4.909   6.991
 2862SOL     OW 9484   4.038   2.842   0.544
 2862SOL    HW1 9485   3.942   2.866   0.530
 2862SOL    HW2 9486   4.096   2.921   0.523
 2863SOL     OW 9487   5.927   0.488   5.422
 2863SOL    HW1 9488   5.882   0.569   5.460
 2863SOL    HW2 9489   5.870   0.408   5.439
 2864SOL     OW 9490   4.512   3.920   0.571
 2864SOL    HW1 9491   4.460   3.919   0.656
 2864SOL    HW2 9492   4.456   3.960   0.498
 2865SOL     OW 9493   5.159   5.626   4.750
 2865SOL    HW1 9494   5.178   5.539   4.705
 2865SOL    HW2 9495   5.245   5.666   4.781
 2866SOL     OW 9496   3.896   4.346   0.028
 2866SOL    HW1 9497   3.841   4.417   0.074
 2866SOL    HW2 9498   3.984   4.385   0.001
 2867SOL     OW 9499   5.741   6.037   1.667
 2867SOL    HW1 9500   5.796   6.114   1.700
 2867SOL    HW2 9501   5.648   6.046   1.702
 2868SOL     OW 9502   1.361   1.566   6.125
 2868SOL    HW1 9503   1.302   1.611   6.192
 2868SOL    HW2 9504   1.323   1.578   6.034
 2869SOL     OW 9505   5.152   5.294   4.287
 2869SOL    HW1 9506   5.095   5.272   4.367
 2869SOL    HW2 9507   5.167   5.393   4.284
 2870SOL     OW 9508   6.886   2.042   1.515
 2870SOL    HW1 9509   6.972   1.990   1.510
 2870SOL    HW2 9510   6.831   2.023   1.434
 2871SOL     OW 9511   5.318   1.610   1.316
 2871SOL    HW1 9512   5.235   1.666   1.315
 2871SOL    HW2 9513   5.363   1.618   1.404
 2872SOL     OW 9514   2.530   1.960   2.455
 2872SOL    HW1 9515   2.535   1.888   2.386
 2872SOL    HW2 9516   2.436   1.967   2.489
 2873SOL     OW 9517   0.846   6.499   1.290
 2873SOL    HW1 9518   0.844   6.491   1.190
 2873SOL    HW2 9519   0.929   6.547   1.318
 2874SOL     OW 9520   2.227   0.887   2.981
 2874SOL    HW1 9521   2.261   0.844   2.897
 2874SOL    HW2 9522   2.127   0.886   2.982
 2875SOL     OW 9523   3.156   6.808   3.448
 2875SOL    HW1 9524   3.256   6.799   3.447
 2875SOL    HW2 9525   3.130   6.894   3.404
 2876SOL     OW 9526   1.503   6.030   1.959
 2876SOL    HW1 9527   1.596   6.057   1.935
 2876SOL    HW2 9528   1.438   6.099   1.927
 2877SOL     OW 9529   1.553   1.226   5.925
 2877SOL    HW1 9530   1.647   1.233   5.958
 2877SOL    HW2 9531   1.550   1.249   5.828
 2878SOL     OW 9532   4.176   3.462   4.441
 2878SOL    HW1 9533   4.112   3.386   4.456
 2878SOL    HW2 9534   4.270   3.430   4.456
 2879SOL     OW 9535   4.515   4.431   0.164
 2879SOL    HW1 9536   4.438   4.387   0.210
 2879SOL    HW2 9537   4.483   4.472   0.079
 2880SOL     OW 9538   1.306   1.108   4.906
 2880SOL    HW1 9539   1.303   1.201   4.869
 2880SOL    HW2 9540   1.402   1.078   4.911
 2881SOL     OW 9541   3.969   6.118   6.711
 2881SOL    HW1 9542   3.950   6.115   6.809
 2881SOL    HW2 9543   3.890   6.155   6.663
 2882SOL     OW 9544   4.645   6.503   0.469
 2882SOL    HW1 9545   4.714   6.473   0.534
 2882SOL    HW2 9546   4.689   6.545   0.389
 2883SOL     OW 9547   6.608   6.061   3.622
 2883SOL    HW1 9548   6.596   6.156   3.649
 2883SOL    HW2 9549   6.627   6.056   3.524
 2884SOL     OW 9550   0.241   5.131   2.961
 2884SOL    HW1 9551   0.189   5.047   2.976
 2884SOL    HW2 9552   0.213   5.172   2.874
 2885SOL     OW 9553   0.792   2.846   2.764
 2885SOL    HW1 9554   0.766   2.942   2.749
 2885SOL    HW2 9555   0.882   2.843   2.808
 2886SOL     OW 9556   2.668   4.545   6.107
 2886SOL    HW1 9557   2.591   4.608   6.120
 2886SOL    HW2 9558   2.635   4.451   6.108
 2887SOL     OW 9559   1.494   5.668   3.949
 2887SOL    HW1 9560   1.534   5.757   3.926
 2887SOL    HW2 9561   1.395   5.672   3.932
 2888SOL     OW 9562   6.236   6.828   0.545
 2888SOL    HW1 9563   6.335   6.824   0.544
 2888SOL    HW2 9564   6.206   6.914   0.585
 2889SOL     OW 9565   3.371   6.282   3.413
 2889SOL    HW1 9566   3.384   6.272   3.512
 2889SOL    HW2 9567   3.378   6.378   3.388
 2890SOL     OW 9568   2.516   0.358   1.165
 2890SOL    HW1 9569   2.421   0.336   1.191
 2890SOL    HW2 9570   2.569   0.274   1.157
 2891SOL     OW 9571   0.435   2.613   3.589
 2891SOL    HW1 9572   0.511   2.671   3.560
 2891SOL    HW2 9573   0.448   2.585   3.684
 2892SOL     OW 9574   6.945   3.618   1.921
 2892SOL    HW1 9575   6.860   3.624   1.974
 2892SOL    HW2 9576   6.986   3.708   1.915
 2893SOL     OW 9577   0.133   5.178   4.457
 2893SOL    HW1 9578   0.062   5.236   4.497
 2893SOL    HW2 9579   0.105   5.150   4.365
 2894SOL     OW 9580   1.326   5.244   2.671
 2894SOL    HW1 9581   1.358   5.330   2.631
 2894SOL    HW2 9582   1.301   5.181   2.599
 2895SOL     OW 9583   4.117   6.821   6.193
 2895SOL    HW1 9584   4.070   6.909   6.202
 2895SOL    HW2 9585   4.215   6.833   6.208
 2896SOL     OW 9586   6.011   6.014   5.041
 2896SOL    HW1 9587   5.913   6.035   5.044
 2896SOL    HW2 9588   6.064   6.097   5.055
 2897SOL     OW 9589   3.870   4.923   2.806
 2897SOL    HW1 9590   3.947   4.939   2.745
 2897SOL    HW2 9591   3.904   4.888   2.894
 2898SOL     OW 9592   5.729   3.895   2.184
 2898SOL    HW1 9593   5.643   3.855   2.215
 2898SOL    HW2 9594   5.741   3.984   2.227
 2899SOL     OW 9595   0.230   3.209   1.006
 2899SOL    HW1 9596   0.193   3.144   1.072
 2899SOL    HW2 9597   0.188   3.299   1.021
 2900SOL     OW 9598   2.722   4.304   6.947
 2900SOL    HW1 9599   2.786   4.236   6.981
 2900SOL    HW2 9600   2.711   4.293   6.848
 2901SOL     OW 9601   1.593   4.034   3.404
 2901SOL    HW1 9602   1.502   4.068   3.428
 2901SOL    HW2 9603   1.593   4.003   3.309
 2902SOL     OW 9604   1.165   5.902   4.192
 2902SOL    HW1 9605   1.202   5.909   4.285
 2902SOL    HW2 9606   1.066   5.916   4.195
 2903SOL     OW 9607   4.746   5.584   0.800
 2903SOL    HW1 9608   4.749   5.573   0.701
 2903SOL    HW2 9609   4.839   5.595   0.835
 2904SOL     OW 9610   2.412   4.441   5.201
 2904SOL    HW1 9611   2.502   4.485   5.204
 2904SOL    HW2 9612   2.362   4.472   5.121
 2905SOL     OW 9613   0.559   4.940   1.361
 2905SOL    HW1 9614   0.514   4.859   1.399
 2905SOL    HW2 9615   0.518   5.022   1.398
 2906SOL     OW 9616   6.179   5.395   3.365
 2906SOL    HW1 9617   6.257   5.379   3.425
 2906SOL    HW2 9618   6.094   5.383   3.416
 2907SOL     OW 9619   0.994   0.596   3.608
 2907SOL    HW1 9620   0.916   0.648   3.644
 2907SOL    HW2 9621   0.961   0.507   3.576
 2908SOL     OW 9622   4.324   7.007   2.946
 2908SOL    HW1 9623   4.306   0.075   2.915
 2908SOL    HW2 9624   4.324   7.005   3.046
 2909SOL     OW 9625   1.065   5.703   2.519
 2909SOL    HW1 9626   1.155   5.694   2.477
 2909SOL    HW2 9627   1.074   5.753   2.605
 2910SOL     OW 9628   0.072   0.704   3.440
 2910SOL    HW1 9629   0.143   0.770   3.416
 2910SOL    HW2 9630   0.070   0.691   3.540
 2911SOL     OW 9631   6.695   3.799   4.439
 2911SOL    HW1 9632   6.727   3.820   4.347
 2911SOL    HW2 9633   6.647   3.711   4.439
 2912SOL     OW 9634   6.977   6.943   1.002
 2912SOL    HW1 9635   7.021   7.002   0.934
 2912SOL    HW2 9636   6.970   6.850   0.965
 2913SOL     OW 9637   2.377   5.538   1.132
 2913SOL    HW1 9638   2.354   5.515   1.037
 2913SOL    HW2 9639   2.306   5.597   1.170
 2914SOL     OW 9640   4.963   4.913   0.272
 2914SOL    HW1 9641   4.873   4.954   0.257
 2914SOL    HW2 9642   4.958   4.847   0.347
 2915SOL     OW 9643   2.831   1.255   3.188
 2915SOL    HW1 9644   2.738   1.248   3.227
 2915SOL    HW2 9645   2.844   1.347   3.152
 2916SOL     OW 9646   1.299   5.595   0.142
 2916SOL    HW1 9647   1.250   5.508   0.143
 2916SOL    HW2 9648   1.276   5.648   0.223
 2917SOL     OW 9649   3.008   6.756   4.156
 2917SOL    HW1 9650   2.987   6.692   4.082
 2917SOL    HW2 9651   3.040   6.705   4.236
 2918SOL     OW 9652   6.142   3.475   1.137
 2918SOL    HW1 9653   6.080   3.520   1.073
 2918SOL    HW2 9654   6.090   3.444   1.217
 2919SOL     OW 9655   1.498   5.687   4.217
 2919SOL    HW1 9656   1.488   5.668   4.119
 2919SOL    HW2 9657   1.503   5.786   4.231
 2920SOL     OW 9658   1.611   2.276   2.155
 2920SOL    HW1 9659   1.599   2.198   2.216
 2920SOL    HW2 9660   1.702   2.271   2.112
 2921SOL     OW 9661   0.487   0.237   5.386
 2921SOL    HW1 9662   0.573   0.208   5.428
 2921SOL    HW2 9663   0.420   0.162   5.392
 2922SOL     OW 9664   3.921   0.623   3.252
 2922SOL    HW1 9665   3.950   0.575   3.335
 2922SOL    HW2 9666   3.999   0.627   3.188
 2923SOL     OW 9667   6.015   5.331   4.776
 2923SOL    HW1 9668   5.995   5.301   4.682
 2923SOL    HW2 9669   6.011   5.252   4.837
 2924SOL     OW 9670   6.144   2.740   5.492
 2924SOL    HW1 9671   6.202   2.673   5.538
 2924SOL    HW2 9672   6.067   2.693   5.448
 2925SOL     OW 9673   5.054   0.511   6.177
 2925SOL    HW1 9674   5.143   0.539   6.213
 2925SOL    HW2 9675   4.983   0.525   6.246
 2926SOL     OW 9676   0.211   2.290   4.342
 2926SOL    HW1 9677   0.153   2.256   4.416
 2926SOL    HW2 9678   0.159   2.292   4.257
 2927SOL     OW 9679   1.276   2.741   1.697
 2927SOL    HW1 9680   1.352   2.714   1.637
 2927SOL    HW2 9681   1.281   2.689   1.782
 2928SOL     OW 9682   7.015   2.521   0.252
 2928SOL    HW1 9683   7.001   2.565   0.163
 2928SOL    HW2 9684   0.079   2.548   0.288
 2929SOL     OW 9685   1.697   2.550   4.806
 2929SOL    HW1 9686   1.708   2.608   4.887
 2929SOL    HW2 9687   1.755   2.586   4.732
 2930SOL     OW 9688   6.998   5.044   5.521
 2930SOL    HW1 9689   0.038   4.986   5.474
 2930SOL    HW2 9690   6.906   5.008   5.507
 2931SOL     OW 9691   4.848   4.275   6.057
 2931SOL    HW1 9692   4.795   4.204   6.103
 2931SOL    HW2 9693   4.897   4.236   5.979
 2932SOL     OW 9694   6.584   5.578   0.430
 2932SOL    HW1 9695   6.658   5.643   0.446
 2932SOL    HW2 9696   6.530   5.568   0.513
 2933SOL     OW 9697   1.527   0.523   0.589
 2933SOL    HW1 9698   1.544   0.621   0.593
 2933SOL    HW2 9699   1.472   0.496   0.669
 2934SOL     OW 9700   4.089   4.459   0.356
 2934SOL    HW1 9701   4.056   4.523   0.425
 2934SOL    HW2 9702   4.059   4.490   0.265
 2935SOL     OW 9703   0.044   2.497   5.848
 2935SOL    HW1 9704   0.008   2.406   5.867
 2935SOL    HW2 9705   0.144   2.493   5.848
 2936SOL     OW 9706   5.027   6.878   1.155
 2936SOL    HW1 9707   4.964   6.854   1.082
 2936SOL    HW2 9708   5.091   6.803   1.171
 2937SOL     OW 9709   4.569   5.504   2.149
 2937SOL    HW1 9710   4.520   5.460   2.074
 2937SOL    HW2 9711   4.667   5.483   2.142
 2938SOL     OW 9712   6.214   5.580   6.866
 2938SOL    HW1 9713   6.118   5.562   6.887
 2938SOL    HW2 9714   6.264   5.493   6.859
 2939SOL     OW 9715   0.234   5.897   1.192
 2939SOL    HW1 9716   0.275   5.808   1.207
 2939SOL    HW2 9717   0.188   5.898   1.103
 2940SOL     OW 9718   4.450   5.876   3.851
 2940SOL    HW1 9719   4.467   5.824   3.767
 2940SOL    HW2 9720   4.508   5.840   3.924
 2941SOL     OW 9721   1.787   3.357   4.164
 2941SOL    HW1 9722   1.818   3.266   4.190
 2941SOL    HW2 9723   1.809   3.422   4.236
 2942SOL     OW 9724   3.743   1.830   0.979
 2942SOL    HW1 9725   3.808   1.770   0.931
 2942SOL    HW2 9726   3.785   1.919   0.995
 2943SOL     OW 9727   5.987   4.086   3.434
 2943SOL    HW1 9728   6.039   4.004   3.410
 2943SOL    HW2 9729   5.957   4.080   3.529
 2944SOL     OW 9730   2.063   5.838   3.044
 2944SOL    HW1 9731   2.052   5.765   3.112
 2944SOL    HW2 9732   2.012   5.919   3.075
 2945SOL     OW 9733   5.187   4.429   1.385
 2945SOL    HW1 9734   5.243   4.455   1.464
 2945SOL    HW2 9735   5.111   4.494   1.375
 2946SOL     OW 9736   2.919   4.138   5.985
 2946SOL    HW1 9737   2.960   4.091   5.906
 2946SOL    HW2 9738   2.952   4.096   6.069
 2947SOL     OW 9739   6.051   6.706   0.714
 2947SOL    HW1 9740   6.119   6.714   0.641
 2947SOL    HW2 9741   6.081   6.760   0.793
 2948SOL     OW 9742   6.285   3.857   2.404
 2948SOL    HW1 9743   6.188   3.858   2.428
 2948SOL    HW2 9744   6.310   3.945   2.363
 2949SOL     OW 9745   1.191   6.984   0.615
 2949SOL    HW1 9746   1.137   6.901   0.629
 2949SOL    HW2 9747   1.138   0.025   0.564
 2950SOL     OW 9748   4.963   5.077   2.408
 2950SOL    HW1 9749   4.892   5.011   2.386
 2950SOL    HW2 9750   4.949   5.111   2.501
 2951SOL     OW 9751   6.158   1.588   1.951
 2951SOL    HW1 9752   6.075   1.609   1.900
 2951SOL    HW2 9753   6.134   1.567   2.046
 2952SOL     OW 9754   5.922   1.342   4.261
 2952SOL    HW1 9755   5.844   1.292   4.223
 2952SOL    HW2 9756   5.895   1.385   4.347
 2953SOL     OW 9757   0.847   5.731   4.053
 2953SOL    HW1 9758   0.791   5.733   3.970
 2953SOL    HW2 9759   0.941   5.706   4.029
 2954SOL     OW 9760   0.368   4.863   5.901
 2954SOL    HW1 9761   0.458   4.894   5.932
 2954SOL    HW2 9762   0.376   4.826   5.808
 2955SOL     OW 9763   2.025   4.749   6.873
 2955SOL    HW1 9764   1.968   4.678   6.830
 2955SOL    HW2 9765   2.121   4.724   6.864
 2956SOL     OW 9766   6.086   4.435   3.496
 2956SOL    HW1 9767   6.131   4.356   3.539
 2956SOL    HW2 9768   6.147   4.476   3.428
 2957SOL     OW 9769   2.332   5.464   1.759
 2957SOL    HW1 9770   2.372   5.415   1.682
 2957SOL    HW2 9771   2.379   5.438   1.844
 2958SOL     OW 9772   2.309   5.476   3.088
 2958SOL    HW1 9773   2.337   5.571   3.078
 2958SOL    HW2 9774   2.364   5.418   3.027
 2959SOL     OW 9775   6.872   2.722   3.033
 2959SOL    HW1 9776   6.932   2.801   3.024
 2959SOL    HW2 9777   6.884   2.681   3.124
 2960SOL     OW 9778   4.442   0.823   0.492
 2960SOL    HW1 9779   4.488   0.784   0.413
 2960SOL    HW2 9780   4.506   0.830   0.568
 2961SOL     OW 9781   5.814   4.131   2.290
 2961SOL    HW1 9782   5.801   4.214   2.237
 2961SOL    HW2 9783   5.888   4.145   2.356
 2962SOL     OW 9784   0.242   6.877   2.174
 2962SOL    HW1 9785   0.214   6.958   2.226
 2962SOL    HW2 9786   0.161   6.835   2.131
 2963SOL     OW 9787   1.578   1.175   4.938
 2963SOL    HW1 9788   1.673   1.189   4.911
 2963SOL    HW2 9789   1.540   1.261   4.972
 2964SOL     OW 9790   0.915   2.493   6.744
 2964SOL    HW1 9791   0.842   2.514   6.808
 2964SOL    HW2 9792   0.987   2.563   6.750
 2965SOL     OW 9793   0.773   0.143   4.692
 2965SOL    HW1 9794   0.837   0.177   4.623
 2965SOL    HW2 9795   0.817   0.070   4.745
 2966SOL     OW 9796   4.296   5.680   3.519
 2966SOL    HW1 9797   4.306   5.778   3.537
 2966SOL    HW2 9798   4.199   5.659   3.505
 2967SOL     OW 9799   6.453   0.210   5.280
 2967SOL    HW1 9800   6.471   0.220   5.378
 2967SOL    HW2 9801   6.532   0.245   5.228
 2968SOL     OW 9802   1.969   2.404   1.420
 2968SOL    HW1 9803   1.965   2.466   1.342
 2968SOL    HW2 9804   2.038   2.435   1.485
 2969SOL     OW 9805   5.150   3.429   4.566
 2969SOL    HW1 9806   5.224   3.363   4.554
 2969SOL    HW2 9807   5.142   3.453   4.663
 2970SOL     OW 9808   2.433   2.595   4.300
 2970SOL    HW1 9809   2.444   2.506   4.343
 2970SOL    HW2 9810   2.480   2.596   4.212
 2971SOL     OW 9811   5.485   2.861   6.215
 2971SOL    HW1 9812   5.422   2.896   6.284
 2971SOL    HW2 9813   5.433   2.817   6.141
 2972SOL     OW 9814   5.761   4.567   6.933
 2972SOL    HW1 9815   5.698   4.600   7.003
 2972SOL    HW2 9816   5.728   4.595   6.843
 2973SOL     OW 9817   4.738   0.135   2.276
 2973SOL    HW1 9818   4.718   0.040   2.300
 2973SOL    HW2 9819   4.742   0.143   2.176
 2974SOL     OW 9820   4.711   5.538   3.332
 2974SOL    HW1 9821   4.741   5.493   3.417
 2974SOL    HW2 9822   4.612   5.526   3.322
 2975SOL     OW 9823   4.978   4.437   4.111
 2975SOL    HW1 9824   4.882   4.424   4.134
 2975SOL    HW2 9825   4.990   4.432   4.012
 2976SOL     OW 9826   4.159   2.220   2.252
 2976SOL    HW1 9827   4.244   2.171   2.234
 2976SOL    HW2 9828   4.181   2.316   2.274
 2977SOL     OW 9829   1.185   0.832   1.870
 2977SOL    HW1 9830   1.110   0.838   1.936
 2977SOL    HW2 9831   1.202   0.736   1.847
 2978SOL     OW 9832   4.626   5.090   6.630
 2978SOL    HW1 9833   4.685   5.141   6.693
 2978SOL    HW2 9834   4.547   5.054   6.679
 2979SOL     OW 9835   3.117   1.007   4.034
 2979SOL    HW1 9836   3.020   0.993   4.012
 2979SOL    HW2 9837   3.143   1.101   4.014
 2980SOL     OW 9838   3.825   4.255   5.689
 2980SOL    HW1 9839   3.840   4.177   5.749
 2980SOL    HW2 9840   3.908   4.276   5.639
 2981SOL     OW 9841   1.313   1.213   1.013
 2981SOL    HW1 9842   1.266   1.127   0.994
 2981SOL    HW2 9843   1.363   1.205   1.100
 2982SOL     OW 9844   0.764   1.042   1.604
 2982SOL    HW1 9845   0.840   1.084   1.556
 2982SOL    HW2 9846   0.796   0.962   1.653
 2983SOL     OW 9847   5.965   2.954   6.328
 2983SOL    HW1 9848   5.998   3.020   6.395
 2983SOL    HW2 9849   5.890   2.901   6.367
 2984SOL     OW 9850   0.066   4.558   0.135
 2984SOL    HW1 9851   0.104   4.516   0.053
 2984SOL    HW2 9852   6.996   4.535   0.145
 2985SOL     OW 9853   0.301   6.453   4.714
 2985SOL    HW1 9854   0.225   6.450   4.778
 2985SOL    HW2 9855   0.315   6.547   4.683
 2986SOL     OW 9856   3.555   4.135   2.587
 2986SOL    HW1 9857   3.483   4.078   2.547
 2986SOL    HW2 9858   3.587   4.201   2.519
 2987SOL     OW 9859   1.881   0.784   4.370
 2987SOL    HW1 9860   1.979   0.768   4.378
 2987SOL    HW2 9861   1.849   0.753   4.281
 2988SOL     OW 9862   0.680   1.955   0.373
 2988SOL    HW1 9863   0.610   1.978   0.441
 2988SOL    HW2 9864   0.705   1.859   0.383
 2989SOL     OW 9865   5.333   3.487   4.273
 2989SOL    HW1 9866   5.347   3.522   4.365
 2989SOL    HW2 9867   5.325   3.563   4.209
 2990SOL     OW 9868   4.929   1.953   4.799
 2990SOL    HW1 9869   5.020   1.974   4.835
 2990SOL    HW2 9870   4.880   2.039   4.782
 2991SOL     OW 9871   5.819   3.900   0.728
 2991SOL    HW1 9872   5.837   3.996   0.707
 2991SOL    HW2 9873   5.885   3.867   0.796
 2992SOL     OW 9874   0.604   3.100   5.419
 2992SOL    HW1 9875   0.690   3.129   5.378
 2992SOL    HW2 9876   0.532   3.100   5.349
 2993SOL     OW 9877   1.097   4.508   0.477
 2993SOL    HW1 9878   1.139   4.433   0.425
 2993SOL    HW2 9879   1.020   4.472   0.530
 2994SOL     OW 9880   4.440   6.901   6.921
 2994SOL    HW1 9881   4.533   6.877   6.894
 2994SOL    HW2 9882   4.439   6.995   6.955
 2995SOL     OW 9883   5.205   0.060   1.239
 2995SOL    HW1 9884   5.150   7.006   1.217
 2995SOL    HW2 9885   5.151   0.143   1.222
 2996SOL     OW 9886   0.326   1.537   4.634
 2996SOL    HW1 9887   0.320   1.621   4.580
 2996SOL    HW2 9888   0.326   1.560   4.731
 2997SOL     OW 9889   5.069   0.407   3.977
 2997SOL    HW1 9890   5.044   0.503   3.991
 2997SOL    HW2 9891   5.136   0.401   3.902
 2998SOL     OW 9892   2.509   1.332   2.614
 2998SOL    HW1 9893   2.574   1.261   2.586
 2998SOL    HW2 9894   2.538   1.420   2.576
 2999SOL     OW 9895   2.757   4.432   0.218
 2999SOL    HW1 9896   2.718   4.341   0.230
 2999SOL    HW2 9897   2.683   4.499   0.215
 3000SOL     OW 9898   3.004   3.706   4.920
 3000SOL    HW1 9899   2.969   3.629   4.866
 3000SOL    HW2 9900   3.094   3.684   4.956
 3001SOL     OW 9901   6.337   0.764   5.789
 3001SOL    HW1 9902   6.250   0.780   5.834
 3001SOL    HW2 9903   6.330   0.686   5.727
 3002SOL     OW 9904   2.547   1.371   1.762
 3002SOL    HW1 9905   2.514   1.437   1.695
 3002SOL    HW2 9906   2.630   1.406   1.806
 3003SOL     OW 9907   1.725   6.355   6.918
 3003SOL    HW1 9908   1.820   6.381   6.903
 3003SOL    HW2 9909   1.721   6.262   6.954
 3004SOL     OW 9910   2.462   6.052   3.827
 3004SOL    HW1 9911   2.558   6.027   3.832
 3004SOL    HW2 9912   2.406   5.969   3.833
 3005SOL     OW 9913   1.141   2.364   5.377
 3005SOL    HW1 9914   1.048   2.347   5.409
 3005SOL    HW2 9915   1.147   2.340   5.280
 3006SOL     OW 9916   5.479   1.457   5.557
 3006SOL    HW1 9917   5.417   1.379   5.561
 3006SOL    HW2 9918   5.565   1.428   5.514
 3007SOL     OW 9919   5.120   4.216   6.564
 3007SOL    HW1 9920   5.025   4.207   6.533
 3007SOL    HW2 9921   5.129   4.298   6.620
 3008SOL     OW 9922   4.613   2.222   5.930
 3008SOL    HW1 9923   4.523   2.190   5.902
 3008SOL    HW2 9924   4.655   2.155   5.991
 3009SOL     OW 9925   0.383   3.272   2.374
 3009SOL    HW1 9926   0.426   3.239   2.290
 3009SOL    HW2 9927   0.444   3.254   2.452
 3010SOL     OW 9928   4.383   5.885   6.118
 3010SOL    HW1 9929   4.462   5.882   6.057
 3010SOL    HW2 9930   4.347   5.978   6.122
 3011SOL     OW 9931   6.498   0.074   1.088
 3011SOL    HW1 9932   6.449   0.064   1.175
 3011SOL    HW2 9933   6.486   0.166   1.053
 3012SOL     OW 9934   2.751   2.809   6.120
 3012SOL    HW1 9935   2.756   2.841   6.025
 3012SOL    HW2 9936   2.689   2.731   6.125
 3013SOL     OW 9937   0.730   5.682   4.809
 3013SOL    HW1 9938   0.639   5.708   4.841
 3013SOL    HW2 9939   0.796   5.693   4.883
 3014SOL     OW 9940   4.838   0.139   5.493
 3014SOL    HW1 9941   4.896   0.071   5.449
 3014SOL    HW2 9942   4.752   0.097   5.522
 3015SOL     OW 9943   1.278   1.451   0.257
 3015SOL    HW1 9944   1.271   1.550   0.247
 3015SOL    HW2 9945   1.287   1.428   0.354
 3016SOL     OW 9946   2.414   6.570   4.803
 3016SOL    HW1 9947   2.354   6.638   4.759
 3016SOL    HW2 9948   2.461   6.612   4.880
 3017SOL     OW 9949   0.112   5.515   1.122
 3017SOL    HW1 9950   0.184   5.528   1.054
 3017SOL    HW2 9951   0.065   5.429   1.105
 3018SOL     OW 9952   3.343   0.222   6.799
 3018SOL    HW1 9953   3.356   0.308   6.749
 3018SOL    HW2 9954   3.390   0.148   6.750
 3019SOL     OW 9955   1.977   0.526   4.846
 3019SOL    HW1 9956   1.915   0.474   4.904
 3019SOL    HW2 9957   1.925   0.571   4.773
 3020SOL     OW 9958   5.095   3.134   6.917
 3020SOL    HW1 9959   5.079   3.080   7.000
 3020SOL    HW2 9960   5.158   3.209   6.938
 3021SOL     OW 9961   3.728   6.089   4.832
 3021SOL    HW1 9962   3.792   6.080   4.907
 3021SOL    HW2 9963   3.767   6.050   4.749
 3022SOL     OW 9964   4.101   5.513   4.116
 3022SOL    HW1 9965   4.051   5.545   4.036
 3022SOL    HW2 9966   4.197   5.541   4.109
 3023SOL     OW 9967   4.610   6.659   3.024
 3023SOL    HW1 9968   4.594   6.689   3.118
 3023SOL    HW2 9969   4.588   6.734   2.961
 3024SOL     OW 9970   0.212   6.706   6.976
 3024SOL    HW1 9971   0.209   6.682   0.047
 3024SOL    HW2 9972   0.187   6.627   6.921
 3025SOL     OW 9973   3.783   6.356   0.588
 3025SOL    HW1 9974   3.734   6.274   0.619
 3025SOL    HW2 9975   3.717   6.428   0.566
 3026SOL     OW 9976   6.353   1.121   0.495
 3026SOL    HW1 9977   6.401   1.046   0.448
 3026SOL    HW2 9978   6.260   1.091   0.518
 3027SOL     OW 9979   4.901   1.673   1.260
 3027SOL    HW1 9980   4.807   1.667   1.225
 3027SOL    HW2 9981   4.960   1.713   1.190
 3028SOL     OW 9982   2.504   4.765   5.809
 3028SOL    HW1 9983   2.427   4.791   5.868
 3028SOL    HW2 9984   2.487   4.675   5.770
 3029SOL     OW 9985   0.737   2.624   4.251
 3029SOL    HW1 9986   0.761   2.547   4.191
 3029SOL    HW2 9987   0.700   2.588   4.337
 3030SOL     OW 9988   2.502   3.110   0.338
 3030SOL    HW1 9989   2.509   3.111   0.238
 3030SOL    HW2 9990   2.408   3.088   0.364
 3031SOL     OW 9991   1.083   6.603   1.371
 3031SOL    HW1 9992   1.059   6.642   1.460
 3031SOL    HW2 9993   1.172   6.557   1.377
 3032SOL     OW 9994   2.301   0.598   2.298
 3032SOL    HW1 9995   2.225   0.651   2.260
 3032SOL    HW2 9996   2.354   0.558   2.223
 3033SOL     OW 9997   6.899   1.831   4.069
 3033SOL    HW1 9998   6.836   1.766   4.113
 3033SOL    HW2 9999   6.960   1.870   4.138
 3034SOL     OW10000   0.132   5.631   3.458
 3034SOL    HW110001   0.092   5.570   3.390
 3034SOL    HW210002   0.221   5.663   3.425
 3035SOL     OW10003   1.163   2.865   6.279
 3035SOL    HW110004   1.096   2.809   6.230
 3035SOL    HW210005   1.116   2.940   6.325
 3036SOL     OW10006   3.185   2.514   6.427
 3036SOL    HW110007   3.269   2.517   6.372
 3036SOL    HW210008   3.130   2.595   6.406
 3037SOL     OW10009   0.169   5.667   0.147
 3037SOL    HW110010   0.078   5.633   0.125
 3037SOL    HW210011   0.204   5.721   0.071
 3038SOL     OW10012   5.281   3.881   6.603
 3038SOL    HW110013   5.233   3.915   6.683
 3038SOL    HW210014   5.216   3.867   6.528
 3039SOL     OW10015   6.909   4.040   6.767
 3039SOL    HW110016   6.926   3.980   6.689
 3039SOL    HW210017   6.823   4.090   6.752
 3040SOL     OW10018   4.689   3.986   5.858
 3040SOL    HW110019   4.674   3.887   5.850
 3040SOL    HW210020   4.649   4.020   5.943
 3041SOL     OW10021   2.254   4.270   4.855
 3041SOL    HW110022   2.261   4.185   4.907
 3041SOL    HW210023   2.171   4.268   4.800
 3042SOL     OW10024   0.092   5.259   3.164
 3042SOL    HW110025   0.011   5.218   3.124
 3042SOL    HW210026   0.172   5.239   3.107
 3043SOL     OW10027   3.199   4.883   0.737
 3043SOL    HW110028   3.146   4.918   0.660
 3043SOL    HW210029   3.295   4.910   0.726
 3044SOL     OW10030   3.266   3.329   5.157
 3044SOL    HW110031   3.304   3.274   5.231
 3044SOL    HW210032   3.236   3.270   5.083
 3045SOL     OW10033   4.811   1.269   1.996
 3045SOL    HW110034   4.813   1.367   2.015
 3045SOL    HW210035   4.872   1.221   2.059
 3046SOL     OW10036   5.651   5.547   0.707
 3046SOL    HW110037   5.614   5.496   0.785
 3046SOL    HW210038   5.666   5.642   0.735
 3047SOL     OW10039   6.342   0.976   6.316
 3047SOL    HW110040   6.419   1.010   6.262
 3047SOL    HW210041   6.334   0.877   6.303
 3048SOL     OW10042   3.817   3.563   0.892
 3048SOL    HW110043   3.838   3.557   0.795
 3048SOL    HW210044   3.720   3.545   0.907
 3049SOL     OW10045   1.529   0.646   4.313
 3049SOL    HW110046   1.540   0.700   4.396
 3049SOL    HW210047   1.444   0.593   4.319
 3050SOL     OW10048   2.837   2.478   1.487
 3050SOL    HW110049   2.876   2.564   1.520
 3050SOL    HW210050   2.782   2.437   1.559
 3051SOL     OW10051   2.434   6.122   5.234
 3051SOL    HW110052   2.455   6.117   5.136
 3051SOL    HW210053   2.451   6.215   5.267
 3052SOL     OW10054   6.613   6.409   2.416
 3052SOL    HW110055   6.708   6.381   2.420
 3052SOL    HW210056   6.577   6.394   2.324
 3053SOL     OW10057   1.631   4.483   0.213
 3053SOL    HW110058   1.570   4.418   0.257
 3053SOL    HW210059   1.702   4.434   0.163
 3054SOL     OW10060   5.640   1.325   2.533
 3054SOL    HW110061   5.604   1.404   2.582
 3054SOL    HW210062   5.602   1.241   2.571
 3055SOL     OW10063   5.998   5.604   6.356
 3055SOL    HW110064   5.920   5.593   6.417
 3055SOL    HW210065   6.047   5.689   6.378
 3056SOL     OW10066   4.684   1.480   6.041
 3056SOL    HW110067   4.767   1.426   6.027
 3056SOL    HW210068   4.673   1.543   5.964
 3057SOL     OW10069   5.843   5.136   2.997
 3057SOL    HW110070   5.870   5.224   3.037
 3057SOL    HW210071   5.750   5.142   2.962
 3058SOL     OW10072   7.010   4.827   6.780
 3058SOL    HW110073   0.076   4.788   6.786
 3058SOL    HW210074   7.006   4.888   6.701
 3059SOL     OW10075   2.438   2.360   4.432
 3059SOL    HW110076   2.524   2.341   4.480
 3059SOL    HW210077   2.406   2.278   4.386
 3060SOL     OW10078   5.061   5.037   5.280
 3060SOL    HW110079   4.969   5.057   5.246
 3060SOL    HW210080   5.055   4.982   5.363
 3061SOL     OW10081   5.666   5.409   5.239
 3061SOL    HW110082   5.657   5.464   5.156
 3061SOL    HW210083   5.754   5.362   5.239
 3062SOL     OW10084   5.000   4.472   2.025
 3062SOL    HW110085   4.974   4.561   1.987
 3062SOL    HW210086   4.936   4.403   1.991
 3063SOL     OW10087   0.237   4.389   1.527
 3063SOL    HW110088   0.150   4.405   1.574
 3063SOL    HW210089   0.256   4.465   1.465
 3064SOL     OW10090   4.388   1.971   6.858
 3064SOL    HW110091   4.402   1.873   6.870
 3064SOL    HW210092   4.329   1.987   6.779
 3065SOL     OW10093   0.652   0.998   6.698
 3065SOL    HW110094   0.592   1.015   6.620
 3065SOL    HW210095   0.747   0.993   6.666
 3066SOL     OW10096   5.182   6.062   5.943
 3066SOL    HW110097   5.087   6.078   5.971
 3066SOL    HW210098   5.244   6.104   6.009
 3067SOL     OW10099   1.981   2.648   6.382
 3067SOL    HW110100   1.987   2.635   6.481
 3067SOL    HW210101   1.924   2.727   6.362
 3068SOL     OW10102   0.534   1.033   1.235
 3068SOL    HW110103   0.607   0.997   1.177
 3068SOL    HW210104   0.462   0.964   1.246
 3069SOL     OW10105   4.852   0.043   2.820
 3069SOL    HW110106   4.920   0.115   2.810
 3069SOL    HW210107   4.768   0.070   2.773
 3070SOL     OW10108   2.708   0.900   1.346
 3070SOL    HW110109   2.609   0.905   1.333
 3070SOL    HW210110   2.754   0.945   1.269
 3071SOL     OW10111   0.056   3.394   3.744
 3071SOL    HW110112   7.015   3.374   3.673
 3071SOL    HW210113   0.024   3.358   3.831
 3072SOL     OW10114   2.137   6.695   6.197
 3072SOL    HW110115   2.138   6.783   6.151
 3072SOL    HW210116   2.065   6.637   6.158
 3073SOL     OW10117   6.174   5.231   0.477
 3073SOL    HW110118   6.168   5.330   0.472
 3073SOL    HW210119   6.083   5.193   0.497
 3074SOL     OW10120   2.407   3.283   1.217
 3074SOL    HW110121   2.479   3.328   1.269
 3074SOL    HW210122   2.389   3.193   1.257
 3075SOL     OW10123   2.412   5.416   2.686
 3075SOL    HW110124   2.327   5.457   2.652
 3075SOL    HW210125   2.390   5.351   2.759
 3076SOL     OW10126   0.077   0.107   4.593
 3076SOL    HW110127   7.018   0.120   4.643
 3076SOL    HW210128   0.151   0.157   4.639
 3077SOL     OW10129   6.367   3.968   1.907
 3077SOL    HW110130   6.347   3.973   1.809
 3077SOL    HW210131   6.388   4.060   1.941
 3078SOL     OW10132   6.717   3.088   1.583
 3078SOL    HW110133   6.659   3.150   1.529
 3078SOL    HW210134   6.792   3.055   1.526
 3079SOL     OW10135   2.621   3.389   5.295
 3079SOL    HW110136   2.634   3.291   5.311
 3079SOL    HW210137   2.703   3.439   5.323
 3080SOL     OW10138   4.297   5.190   1.052
 3080SOL    HW110139   4.282   5.124   1.126
 3080SOL    HW210140   4.377   5.245   1.072
 3081SOL     OW10141   1.759   4.229   0.583
 3081SOL    HW110142   1.684   4.196   0.639
 3081SOL    HW210143   1.763   4.329   0.588
 3082SOL     OW10144   4.273   5.201   4.962
 3082SOL    HW110145   4.201   5.268   4.979
 3082SOL    HW210146   4.277   5.136   5.038
 3083SOL     OW10147   2.760   5.822   2.481
 3083SOL    HW110148   2.687   5.845   2.544
 3083SOL    HW210149   2.849   5.832   2.526
 3084SOL     OW10150   0.459   3.198   3.883
 3084SOL    HW110151   0.400   3.278   3.882
 3084SOL    HW210152   0.509   3.191   3.797
 3085SOL     OW10153   5.132   4.473   0.968
 3085SOL    HW110154   5.227   4.447   0.982
 3085SOL    HW210155   5.126   4.545   0.899
 3086SOL     OW10156   6.103   0.854   6.600
 3086SOL    HW110157   6.190   0.884   6.641
 3086SOL    HW210158   6.072   0.923   6.534
 3087SOL     OW10159   2.717   0.214   2.472
 3087SOL    HW110160   2.692   0.244   2.564
 3087SOL    HW210161   2.790   0.272   2.436
 3088SOL     OW10162   1.568   2.663   5.216
 3088SOL    HW110163   1.501   2.619   5.276
 3088SOL    HW210164   1.521   2.720   5.149
 3089SOL     OW10165   4.837   6.891   4.828
 3089SOL    HW110166   4.935   6.878   4.843
 3089SOL    HW210167   4.822   6.975   4.776
 3090SOL     OW10168   1.235   2.547   1.933
 3090SOL    HW110169   1.306   2.480   1.954
 3090SOL    HW210170   1.202   2.588   2.018
 3091SOL     OW10171   1.046   2.133   0.943
 3091SOL    HW110172   0.977   2.198   0.974
 3091SOL    HW210173   1.011   2.081   0.865
 3092SOL     OW10174   6.819   0.184   2.325
 3092SOL    HW110175   6.846   0.093   2.294
 3092SOL    HW210176   6.840   0.194   2.422
 3093SOL     OW10177   4.957   4.961   6.803
 3093SOL    HW110178   5.008   4.960   6.889
 3093SOL    HW210179   4.929   4.868   6.781
 3094SOL     OW10180   3.158   1.439   5.891
 3094SOL    HW110181   3.242   1.466   5.843
 3094SOL    HW210182   3.125   1.515   5.946
 3095SOL     OW10183   1.858   3.545   5.304
 3095SOL    HW110184   1.810   3.470   5.348
 3095SOL    HW210185   1.955   3.521   5.292
 3096SOL     OW10186   0.310   3.929   4.176
 3096SOL    HW110187   0.343   3.844   4.136
 3096SOL    HW210188   0.258   3.908   4.259
 3097SOL     OW10189   5.407   1.981   6.263
 3097SOL    HW110190   5.420   2.024   6.173
 3097SOL    HW210191   5.393   2.053   6.331
 3098SOL     OW10192   1.883   2.458   2.401
 3098SOL    HW110193   1.931   2.510   2.330
 3098SOL    HW210194   1.828   2.521   2.457
 3099SOL     OW10195   0.171   5.985   3.720
 3099SOL    HW110196   0.213   5.924   3.788
 3099SOL    HW210197   0.209   6.077   3.730
 3100SOL     OW10198   0.096   5.382   2.405
 3100SOL    HW110199   0.034   5.422   2.338
 3100SOL    HW210200   0.047   5.315   2.461
 3101SOL     OW10201   4.040   6.106   5.705
 3101SOL    HW110202   3.950   6.110   5.748
 3101SOL    HW210203   4.099   6.176   5.745
 3102SOL     OW10204   0.019   4.538   0.794
 3102SOL    HW110205   0.089   4.474   0.824
 3102SOL    HW210206   0.034   4.627   0.838
 3103SOL     OW10207   3.385   0.154   1.584
 3103SOL    HW110208   3.450   0.196   1.521
 3103SOL    HW210209   3.316   0.221   1.610
 3104SOL     OW10210   4.752   0.069   6.323
 3104SOL    HW110211   4.826   0.132   6.300
 3104SOL    HW210212   4.783   0.007   6.396
 3105SOL     OW10213   5.823   3.237   0.084
 3105SOL    HW110214   5.815   3.326   0.041
 3105SOL    HW210215   5.806   3.246   0.183
 3106SOL     OW10216   5.906   0.279   5.016
 3106SOL    HW110217   5.978   0.345   5.039
 3106SOL    HW210218   5.872   0.236   5.099
 3107SOL     OW10219   3.918   0.967   6.234
 3107SOL    HW110220   3.822   0.955   6.208
 3107SOL    HW210221   3.962   1.032   6.172
 3108SOL     OW10222   1.936   4.476   4.094
 3108SOL    HW110223   1.893   4.443   4.179
 3108SOL    HW210224   1.966   4.570   4.107
 3109SOL     OW10225   6.881   6.021   3.937
 3109SOL    HW110226   6.942   5.948   3.967
 3109SOL    HW210227   6.797   5.982   3.900
 3110SOL     OW10228   1.714   4.742   3.649
 3110SOL    HW110229   1.813   4.752   3.652
 3110SOL    HW210230   1.672   4.813   3.706
 3111SOL     OW10231   5.982   4.332   4.279
 3111SOL    HW110232   6.024   4.282   4.203
 3111SOL    HW210233   5.884   4.311   4.282
 3112SOL     OW10234   3.464   2.187   6.943
 3112SOL    HW110235   3.444   2.238   0.001
 3112SOL    HW210236   3.543   2.127   6.959
 3113SOL     OW10237   2.083   5.581   3.508
 3113SOL    HW110238   2.041   5.547   3.592
 3113SOL    HW210239   2.141   5.660   3.531
 3114SOL     OW10240   4.302   0.855   6.993
 3114SOL    HW110241   4.247   0.793   0.022
 3114SOL    HW210242   4.394   0.861   0.005
 3115SOL     OW10243   4.381   4.951   5.467
 3115SOL    HW110244   4.451   4.998   5.412
 3115SOL    HW210245   4.420   4.869   5.508
 3116SOL     OW10246   0.558   2.042   1.189
 3116SOL    HW110247   0.541   1.986   1.108
 3116SOL    HW210248   0.490   2.115   1.194
 3117SOL     OW10249   4.983   1.553   5.378
 3117SOL    HW110250   5.068   1.562   5.327
 3117SOL    HW210251   4.989   1.605   5.463
 3118SOL     OW10252   1.921   1.276   3.052
 3118SOL    HW110253   1.858   1.201   3.037
 3118SOL    HW210254   1.895   1.325   3.136
 3119SOL     OW10255   4.367   4.374   5.887
 3119SOL    HW110256   4.354   4.291   5.834
 3119SOL    HW210257   4.461   4.407   5.876
 3120SOL     OW10258   2.041   6.485   4.727
 3120SOL    HW110259   1.979   6.559   4.704
 3120SOL    HW210260   2.072   6.495   4.821
 3121SOL     OW10261   4.608   1.181   4.772
 3121SOL    HW110262   4.680   1.168   4.840
 3121SOL    HW210263   4.648   1.214   4.687
 3122SOL     OW10264   4.000   5.165   5.097
 3122SOL    HW110265   4.082   5.125   5.139
 3122SOL    HW210266   3.918   5.123   5.136
 3123SOL     OW10267   2.890   1.654   3.683
 3123SOL    HW110268   2.919   1.664   3.778
 3123SOL    HW210269   2.934   1.725   3.628
 3124SOL     OW10270   4.876   0.240   3.896
 3124SOL    HW110271   4.818   0.234   3.977
 3124SOL    HW210272   4.964   0.281   3.921
 3125SOL     OW10273   1.714   2.327   5.304
 3125SOL    HW110274   1.759   2.237   5.312
 3125SOL    HW210275   1.754   2.377   5.226
 3126SOL     OW10276   5.753   5.026   4.697
 3126SOL    HW110277   5.660   5.018   4.660
 3126SOL    HW210278   5.749   5.052   4.793
 3127SOL     OW10279   0.205   1.313   4.538
 3127SOL    HW110280   0.130   1.356   4.488
 3127SOL    HW210281   0.256   1.383   4.588
 3128SOL     OW10282   4.513   0.938   0.104
 3128SOL    HW110283   4.456   1.005   0.152
 3128SOL    HW210284   4.609   0.966   0.110
 3129SOL     OW10285   4.762   3.082   0.671
 3129SOL    HW110286   4.799   3.114   0.758
 3129SOL    HW210287   4.664   3.103   0.666
 3130SOL     OW10288   0.891   4.538   1.480
 3130SOL    HW110289   0.885   4.502   1.573
 3130SOL    HW210290   0.803   4.577   1.454
 3131SOL     OW10291   6.760   4.093   2.695
 3131SOL    HW110292   6.845   4.044   2.679
 3131SOL    HW210293   6.763   4.181   2.647
 3132SOL     OW10294   4.035   4.791   6.954
 3132SOL    HW110295   4.063   4.743   6.871
 3132SOL    HW210296   3.938   4.815   6.947
 3133SOL     OW10297   4.133   0.835   3.728
 3133SOL    HW110298   4.229   0.854   3.747
 3133SOL    HW210299   4.125   0.752   3.672
 3134SOL     OW10300   4.002   5.152   2.573
 3134SOL    HW110301   4.046   5.062   2.578
 3134SOL    HW210302   4.073   5.223   2.569
 3135SOL     OW10303   5.603   6.676   6.220
 3135SOL    HW110304   5.534   6.666   6.148
 3135SOL    HW210305   5.692   6.697   6.180
 3136SOL     OW10306   6.155   1.406   2.764
 3136SOL    HW110307   6.074   1.385   2.709
 3136SOL    HW210308   6.129   1.408   2.861
 3137SOL     OW10309   6.556   6.916   6.808
 3137SOL    HW110310   6.500   6.965   6.741
 3137SOL    HW210311   6.651   6.913   6.776
 3138SOL     OW10312   5.843   4.958   3.932
 3138SOL    HW110313   5.921   4.987   3.987
 3138SOL    HW210314   5.876   4.919   3.846
 3139SOL     OW10315   2.624   4.834   1.031
 3139SOL    HW110316   2.591   4.742   1.010
 3139SOL    HW210317   2.673   4.832   1.119
 3140SOL     OW10318   6.785   6.629   6.557
 3140SOL    HW110319   6.733   6.559   6.509
 3140SOL    HW210320   6.869   6.649   6.507
 3141SOL     OW10321   6.307   2.303   6.367
 3141SOL    HW110322   6.377   2.287   6.437
 3141SOL    HW210323   6.352   2.326   6.281
 3142SOL     OW10324   4.977   0.955   2.689
 3142SOL    HW110325   4.949   0.899   2.611
 3142SOL    HW210326   5.042   1.025   2.659
 3143SOL     OW10327   6.320   1.582   0.126
 3143SOL    HW110328   6.330   1.509   0.058
 3143SOL    HW210329   6.355   1.550   0.214
 3144SOL     OW10330   3.878   4.097   6.305
 3144SOL    HW110331   3.788   4.064   6.333
 3144SOL    HW210332   3.932   4.119   6.387
 3145SOL     OW10333   0.870   6.083   1.418
 3145SOL    HW110334   0.872   6.045   1.326
 3145SOL    HW210335   0.807   6.161   1.420
 3146SOL     OW10336   0.343   0.455   4.932
 3146SOL    HW110337   0.442   0.447   4.933
 3146SOL    HW210338   0.311   0.465   4.837
 3147SOL     OW10339   3.903   5.046   6.770
 3147SOL    HW110340   3.892   5.135   6.726
 3147SOL    HW210341   3.912   5.058   6.869
 3148SOL     OW10342   0.290   5.696   2.837
 3148SOL    HW110343   0.294   5.780   2.782
 3148SOL    HW210344   0.201   5.652   2.823
 3149SOL     OW10345   2.992   0.963   0.888
 3149SOL    HW110346   3.001   0.935   0.984
 3149SOL    HW210347   3.072   1.016   0.861
 3150SOL     OW10348   6.892   5.869   5.359
 3150SOL    HW110349   6.793   5.872   5.372
 3150SOL    HW210350   6.917   5.925   5.280
 3151SOL     OW10351   6.176   1.676   5.802
 3151SOL    HW110352   6.147   1.590   5.846
 3151SOL    HW210353   6.234   1.727   5.866
 3152SOL     OW10354   1.388   2.838   5.998
 3152SOL    HW110355   1.446   2.855   6.078
 3152SOL    HW210356   1.445   2.836   5.916
 3153SOL     OW10357   6.550   5.028   1.048
 3153SOL    HW110358   6.466   4.976   1.033
 3153SOL    HW210359   6.599   5.039   0.961
 3154SOL     OW10360   5.260   1.464   0.936
 3154SOL    HW110361   5.163   1.477   0.913
 3154SOL    HW210362   5.267   1.423   1.027
 3155SOL     OW10363   0.489   4.666   0.942
 3155SOL    HW110364   0.415   4.718   0.900
 3155SOL    HW210365   0.451   4.586   0.989
 3156SOL     OW10366   3.572   4.169   2.030
 3156SOL    HW110367   3.668   4.157   2.057
 3156SOL    HW210368   3.566   4.167   1.930
 3157SOL     OW10369   0.782   1.914   5.315
 3157SOL    HW110370   0.868   1.956   5.345
 3157SOL    HW210371   0.794   1.872   5.225
 3158SOL     OW10372   3.014   1.178   5.618
 3158SOL    HW110373   2.968   1.186   5.530
 3158SOL    HW210374   3.033   1.269   5.655
 3159SOL     OW10375   5.651   6.962   0.146
 3159SOL    HW110376   5.654   6.909   0.231
 3159SOL    HW210377   5.617   0.028   0.165
 3160SOL     OW10378   2.289   0.200   5.907
 3160SOL    HW110379   2.371   0.147   5.929
 3160SOL    HW210380   2.221   0.141   5.863
 3161SOL     OW10381   2.238   2.585   3.105
 3161SOL    HW110382   2.299   2.588   3.026
 3161SOL    HW210383   2.292   2.598   3.189
 3162SOL     OW10384   1.983   5.542   0.585
 3162SOL    HW110385   2.003   5.543   0.682
 3162SOL    HW210386   1.885   5.556   0.571
 3163SOL     OW10387   4.754   4.027   0.488
 3163SOL    HW110388   4.736   4.099   0.421
 3163SOL    HW210389   4.670   3.976   0.507
 3164SOL     OW10390   2.682   6.144   3.113
 3164SOL    HW110391   2.699   6.213   3.182
 3164SOL    HW210392   2.756   6.076   3.114
 3165SOL     OW10393   0.963   6.156   0.734
 3165SOL    HW110394   0.872   6.187   0.764
 3165SOL    HW210395   0.987   6.073   0.784
 3166SOL     OW10396   3.977   0.750   5.285
 3166SOL    HW110397   3.938   0.826   5.336
 3166SOL    HW210398   4.077   0.755   5.289
 3167SOL     OW10399   5.035   3.625   0.533
 3167SOL    HW110400   5.117   3.681   0.526
 3167SOL    HW210401   5.039   3.551   0.466
 3168SOL     OW10402   4.145   1.877   0.486
 3168SOL    HW110403   4.177   1.894   0.579
 3168SOL    HW210404   4.116   1.782   0.477
 3169SOL     OW10405   1.825   4.727   2.174
 3169SOL    HW110406   1.796   4.756   2.265
 3169SOL    HW210407   1.882   4.798   2.133
 3170SOL     OW10408   3.609   5.167   3.515
 3170SOL    HW110409   3.631   5.188   3.420
 3170SOL    HW210410   3.515   5.195   3.535
 3171SOL     OW10411   5.161   2.490   2.792
 3171SOL    HW110412   5.141   2.584   2.764
 3171SOL    HW210413   5.211   2.444   2.718
 3172SOL     OW10414   0.364   4.812   0.702
 3172SOL    HW110415   0.371   4.712   0.694
 3172SOL    HW210416   0.291   4.845   0.642
 3173SOL     OW10417   3.246   1.567   0.270
 3173SOL    HW110418   3.234   1.561   0.171
 3173SOL    HW210419   3.334   1.525   0.295
 3174SOL     OW10420   2.976   3.324   5.752
 3174SOL    HW110421   2.901   3.353   5.694
 3174SOL    HW210422   3.062   3.359   5.716
 3175SOL     OW10423   6.828   0.610   3.951
 3175SOL    HW110424   6.905   0.648   4.004
 3175SOL    HW210425   6.857   0.524   3.908
 3176SOL     OW10426   1.278   4.778   4.562
 3176SOL    HW110427   1.180   4.787   4.585
 3176SOL    HW210428   1.317   4.869   4.550
 3177SOL     OW10429   5.597   3.902   3.007
 3177SOL    HW110430   5.509   3.854   3.003
 3177SOL    HW210431   5.661   3.858   2.943
 3178SOL     OW10432   6.779   0.928   1.127
 3178SOL    HW110433   6.775   1.026   1.146
 3178SOL    HW210434   6.857   0.908   1.067
 3179SOL     OW10435   0.726   1.846   1.830
 3179SOL    HW110436   0.813   1.815   1.791
 3179SOL    HW210437   0.691   1.776   1.893
 3180SOL     OW10438   6.851   5.875   6.863
 3180SOL    HW110439   6.772   5.919   6.906
 3180SOL    HW210440   6.884   5.932   6.787
 3181SOL     OW10441   0.557   1.237   4.519
 3181SOL    HW110442   0.553   1.155   4.462
 3181SOL    HW210443   0.500   1.224   4.600
 3182SOL     OW10444   3.147   0.547   0.327
 3182SOL    HW110445   3.083   0.539   0.404
 3182SOL    HW210446   3.107   0.503   0.247
 3183SOL     OW10447   4.628   4.544   2.056
 3183SOL    HW110448   4.690   4.552   2.135
 3183SOL    HW210449   4.611   4.447   2.037
 3184SOL     OW10450   0.337   2.595   4.461
 3184SOL    HW110451   0.321   2.682   4.507
 3184SOL    HW210452   0.250   2.551   4.440
 3185SOL     OW10453   0.146   6.323   6.238
 3185SOL    HW110454   0.130   6.255   6.166
 3185SOL    HW210455   0.216   6.387   6.208
 3186SOL     OW10456   0.988   1.605   6.039
 3186SOL    HW110457   0.943   1.516   6.031
 3186SOL    HW210458   1.084   1.596   6.014
 3187SOL     OW10459   3.888   5.705   3.079
 3187SOL    HW110460   3.953   5.736   3.010
 3187SOL    HW210461   3.925   5.722   3.170
 3188SOL     OW10462   2.172   5.197   5.894
 3188SOL    HW110463   2.109   5.275   5.895
 3188SOL    HW210464   2.197   5.175   5.800
 3189SOL     OW10465   2.704   1.497   0.293
 3189SOL    HW110466   2.733   1.474   0.201
 3189SOL    HW210467   2.775   1.552   0.338
 3190SOL     OW10468   0.005   5.895   4.664
 3190SOL    HW110469   6.979   5.833   4.605
 3190SOL    HW210470   0.065   5.951   4.607
 3191SOL     OW10471   4.624   5.494   1.844
 3191SOL    HW110472   4.710   5.492   1.895
 3191SOL    HW210473   4.605   5.587   1.813
 3192SOL     OW10474   6.345   2.252   2.062
 3192SOL    HW110475   6.377   2.159   2.084
 3192SOL    HW210476   6.406   2.293   1.995
 3193SOL     OW10477   3.597   0.417   5.525
 3193SOL    HW110478   3.671   0.401   5.590
 3193SOL    HW210479   3.634   0.461   5.443
 3194SOL     OW10480   1.192   1.434   5.615
 3194SOL    HW110481   1.164   1.478   5.530
 3194SOL    HW210482   1.112   1.395   5.661
 3195SOL     OW10483   0.167   1.859   1.693
 3195SOL    HW110484   0.142   1.920   1.768
 3195SOL    HW210485   0.160   1.764   1.725
 3196SOL     OW10486   6.415   0.130   4.703
 3196SOL    HW110487   6.403   0.182   4.618
 3196SOL    HW210488   6.462   0.188   4.771
 3197SOL     OW10489   1.955   0.409   6.013
 3197SOL    HW110490   1.912   0.486   6.060
 3197SOL    HW210491   2.049   0.400   6.046
 3198SOL     OW10492   6.607   2.494   3.487
 3198SOL    HW110493   6.534   2.438   3.449
 3198SOL    HW210494   6.612   2.480   3.586
 3199SOL     OW10495   5.564   4.420   3.028
 3199SOL    HW110496   5.591   4.333   2.987
 3199SOL    HW210497   5.626   4.492   2.996
 3200SOL     OW10498   5.424   3.242   3.712
 3200SOL    HW110499   5.336   3.278   3.742
 3200SOL    HW210500   5.481   3.317   3.679
 3201SOL     OW10501   5.989   3.661   2.347
 3201SOL    HW110502   5.961   3.668   2.252
 3201SOL    HW210503   5.966   3.747   2.395
 3202SOL     OW10504   1.150   5.304   0.756
 3202SOL    HW110505   1.235   5.256   0.777
 3202SOL    HW210506   1.167   5.402   0.754
 3203SOL     OW10507   4.210   6.355   1.121
 3203SOL    HW110508   4.142   6.348   1.194
 3203SOL    HW210509   4.281   6.420   1.149
 3204SOL     OW10510   3.143   1.305   3.739
 3204SOL    HW110511   3.190   1.386   3.704
 3204SOL    HW210512   3.152   1.230   3.674
 3205SOL     OW10513   5.609   2.773   5.524
 3205SOL    HW110514   5.667   2.826   5.463
 3205SOL    HW210515   5.635   2.789   5.618
 3206SOL     OW10516   2.714   2.853   1.726
 3206SOL    HW110517   2.739   2.950   1.721
 3206SOL    HW210518   2.621   2.844   1.761
 3207SOL     OW10519   0.716   0.274   5.160
 3207SOL    HW110520   0.671   0.353   5.201
 3207SOL    HW210521   0.710   0.196   5.223
 3208SOL     OW10522   6.202   5.987   5.604
 3208SOL    HW110523   6.230   6.022   5.515
 3208SOL    HW210524   6.104   6.000   5.617
 3209SOL     OW10525   4.934   5.856   6.017
 3209SOL    HW110526   4.934   5.929   5.948
 3209SOL    HW210527   4.924   5.897   6.108
 3210SOL     OW10528   0.129   4.931   1.332
 3210SOL    HW110529   0.177   4.991   1.397
 3210SOL    HW210530   0.031   4.930   1.354
 3211SOL     OW10531   1.398   5.990   0.000
 3211SOL    HW110532   1.395   6.082   6.987
 3211SOL    HW210533   1.492   5.957   0.002
 3212SOL     OW10534   2.907   6.939   3.168
 3212SOL    HW110535   2.998   6.951   3.128
 3212SOL    HW210536   2.884   7.019   3.223
 3213SOL     OW10537   1.541   1.072   6.380
 3213SOL    HW110538   1.584   1.084   6.470
 3213SOL    HW210539   1.594   1.120   6.311
 3214SOL     OW10540   3.873   1.241   2.985
 3214SOL    HW110541   3.784   1.200   2.966
 3214SOL    HW210542   3.911   1.201   3.069
 3215SOL     OW10543   1.422   2.993   0.559
 3215SOL    HW110544   1.504   2.937   0.573
 3215SOL    HW210545   1.342   2.933   0.555
 3216SOL     OW10546   5.811   4.446   0.581
 3216SOL    HW110547   5.824   4.462   0.484
 3216SOL    HW210548   5.739   4.506   0.616
 3217SOL     OW10549   0.750   4.503   3.126
 3217SOL    HW110550   0.659   4.494   3.168
 3217SOL    HW210551   0.813   4.439   3.170
 3218SOL     OW10552   6.909   1.921   2.881
 3218SOL    HW110553   6.940   2.015   2.866
 3218SOL    HW210554   6.888   1.878   2.793
 3219SOL     OW10555   6.747   0.817   4.897
 3219SOL    HW110556   6.649   0.835   4.901
 3219SOL    HW210557   6.788   0.870   4.823
 3220SOL     OW10558   6.574   5.443   6.964
 3220SOL    HW110559   6.658   5.476   6.921
 3220SOL    HW210560   6.511   5.410   6.895
 3221SOL     OW10561   4.363   0.358   2.151
 3221SOL    HW110562   4.433   0.347   2.221
 3221SOL    HW210563   4.274   0.331   2.187
 3222SOL     OW10564   2.888   1.477   2.485
 3222SOL    HW110565   2.846   1.552   2.536
 3222SOL    HW210566   2.984   1.498   2.468
 3223SOL     OW10567   1.568   6.592   0.944
 3223SOL    HW110568   1.618   6.621   0.863
 3223SOL    HW210569   1.474   6.626   0.940
 3224SOL     OW10570   4.327   2.327   4.885
 3224SOL    HW110571   4.262   2.340   4.960
 3224SOL    HW210572   4.389   2.405   4.880
 3225SOL     OW10573   4.125   0.551   3.988
 3225SOL    HW110574   4.078   0.469   4.020
 3225SOL    HW210575   4.193   0.579   4.056
 3226SOL     OW10576   1.141   0.216   2.024
 3226SOL    HW110577   1.059   0.269   2.003
 3226SOL    HW210578   1.152   0.208   2.123
 3227SOL     OW10579   4.206   2.999   6.053
 3227SOL    HW110580   4.173   3.072   5.994
 3227SOL    HW210581   4.181   3.019   6.148
 3228SOL     OW10582   0.916   4.388   0.639
 3228SOL    HW110583   0.931   4.387   0.738
 3228SOL    HW210584   0.818   4.377   0.620
 3229SOL     OW10585   2.716   1.719   6.285
 3229SOL    HW110586   2.717   1.818   6.296
 3229SOL    HW210587   2.775   1.677   6.354
 3230SOL     OW10588   2.880   5.585   5.436
 3230SOL    HW110589   2.932   5.516   5.386
 3230SOL    HW210590   2.888   5.569   5.535
 3231SOL     OW10591   2.970   1.197   2.428
 3231SOL    HW110592   3.012   1.165   2.343
 3231SOL    HW210593   3.008   1.285   2.453
 3232SOL     OW10594   3.938   5.617   4.309
 3232SOL    HW110595   3.999   5.572   4.244
 3232SOL    HW210596   3.856   5.562   4.321
 3233SOL     OW10597   0.741   2.483   6.950
 3233SOL    HW110598   0.672   2.415   6.978
 3233SOL    HW210599   0.758   2.546   7.026
 3234SOL     OW10600   2.414   3.225   0.969
 3234SOL    HW110601   2.416   3.234   1.068
 3234SOL    HW210602   2.490   3.276   0.929
 3235SOL     OW10603   6.728   6.156   2.141
 3235SOL    HW110604   6.687   6.248   2.137
 3235SOL    HW210605   6.818   6.162   2.184
 3236SOL     OW10606   2.789   4.143   0.709
 3236SOL    HW110607   2.696   4.179   0.697
 3236SOL    HW210608   2.796   4.100   0.799
 3237SOL     OW10609   6.105   1.260   5.144
 3237SOL    HW110610   6.163   1.338   5.168
 3237SOL    HW210611   6.017   1.268   5.191
 3238SOL     OW10612   6.400   5.223   0.664
 3238SOL    HW110613   6.382   5.253   0.570
 3238SOL    HW210614   6.468   5.283   0.705
 3239SOL     OW10615   0.445   0.274   3.504
 3239SOL    HW110616   0.380   0.199   3.495
 3239SOL    HW210617   0.396   0.359   3.522
 3240SOL     OW10618   0.338   0.318   6.330
 3240SOL    HW110619   0.329   0.398   6.389
 3240SOL    HW210620   0.435   0.302   6.310
 3241SOL     OW10621   5.397   1.453   6.519
 3241SOL    HW110622   5.488   1.495   6.517
 3241SOL    HW210623   5.352   1.474   6.606
 3242SOL     OW10624   4.677   4.243   5.436
 3242SOL    HW110625   4.652   4.293   5.519
 3242SOL    HW210626   4.722   4.305   5.372
 3243SOL     OW10627   4.446   5.135   6.144
 3243SOL    HW110628   4.432   5.043   6.179
 3243SOL    HW210629   4.502   5.132   6.061
 3244SOL     OW10630   5.560   6.611   6.477
 3244SOL    HW110631   5.556   6.638   6.381
 3244SOL    HW210632   5.542   6.690   6.536
 3245SOL     OW10633   4.353   1.747   3.916
 3245SOL    HW110634   4.368   1.846   3.909
 3245SOL    HW210635   4.393   1.702   3.836
 3246SOL     OW10636   0.650   0.234   2.498
 3246SOL    HW110637   0.664   0.233   2.597
 3246SOL    HW210638   0.714   0.171   2.455
 3247SOL     OW10639   0.194   4.254   2.412
 3247SOL    HW110640   0.240   4.310   2.481
 3247SOL    HW210641   0.258   4.184   2.377
 3248SOL     OW10642   5.430   2.078   3.018
 3248SOL    HW110643   5.447   1.979   3.014
 3248SOL    HW210644   5.510   2.123   3.060
 3249SOL     OW10645   3.703   3.573   3.833
 3249SOL    HW110646   3.794   3.567   3.792
 3249SOL    HW210647   3.671   3.667   3.829
 3250SOL     OW10648   5.260   5.791   2.467
 3250SOL    HW110649   5.196   5.758   2.537
 3250SOL    HW210650   5.260   5.728   2.389
 3251SOL     OW10651   2.533   0.897   4.746
 3251SOL    HW110652   2.591   0.839   4.803
 3251SOL    HW210653   2.452   0.925   4.797
 3252SOL     OW10654   2.863   1.362   3.770
 3252SOL    HW110655   2.854   1.269   3.805
 3252SOL    HW210656   2.939   1.365   3.704
 3253SOL     OW10657   6.316   3.047   1.030
 3253SOL    HW110658   6.293   3.081   0.939
 3253SOL    HW210659   6.326   3.124   1.093
 3254SOL     OW10660   6.230   0.880   0.309
 3254SOL    HW110661   6.199   0.908   0.400
 3254SOL    HW210662   6.238   0.781   0.306
 3255SOL     OW10663   6.082   4.672   1.443
 3255SOL    HW110664   6.131   4.727   1.510
 3255SOL    HW210665   5.987   4.702   1.438
 3256SOL     OW10666   4.631   2.337   1.524
 3256SOL    HW110667   4.553   2.398   1.541
 3256SOL    HW210668   4.621   2.294   1.434
 3257SOL     OW10669   2.820   2.297   2.591
 3257SOL    HW110670   2.759   2.263   2.519
 3257SOL    HW210671   2.808   2.395   2.600
 3258SOL     OW10672   2.834   6.056   3.512
 3258SOL    HW110673   2.901   6.035   3.440
 3258SOL    HW210674   2.743   6.031   3.481
 3259SOL     OW10675   5.419   4.282   4.136
 3259SOL    HW110676   5.498   4.264   4.076
 3259SOL    HW210677   5.451   4.323   4.222
 3260SOL     OW10678   2.025   4.392   1.369
 3260SOL    HW110679   1.964   4.315   1.357
 3260SOL    HW210680   1.976   4.477   1.349
 3261SOL     OW10681   4.710   0.735   3.153
 3261SOL    HW110682   4.725   0.812   3.091
 3261SOL    HW210683   4.724   0.765   3.247
 3262SOL     OW10684   3.653   2.097   2.773
 3262SOL    HW110685   3.683   2.150   2.693
 3262SOL    HW210686   3.690   2.138   2.856
 3263SOL     OW10687   2.384   1.399   3.124
 3263SOL    HW110688   2.455   1.370   3.059
 3263SOL    HW210689   2.359   1.494   3.104
 3264SOL     OW10690   2.252   5.334   0.205
 3264SOL    HW110691   2.230   5.326   0.108
 3264SOL    HW210692   2.256   5.431   0.231
 3265SOL     OW10693   5.952   5.517   5.812
 3265SOL    HW110694   5.989   5.600   5.771
 3265SOL    HW210695   5.986   5.508   5.906
 3266SOL     OW10696   3.101   4.740   0.417
 3266SOL    HW110697   3.072   4.705   0.328
 3266SOL    HW210698   3.047   4.822   0.439
 3267SOL     OW10699   4.534   0.156   1.239
 3267SOL    HW110700   4.547   0.180   1.142
 3267SOL    HW210701   4.612   0.191   1.292
 3268SOL     OW10702   6.857   4.941   1.389
 3268SOL    HW110703   6.760   4.914   1.383
 3268SOL    HW210704   6.872   4.990   1.475
 3269SOL     OW10705   1.143   5.046   2.401
 3269SOL    HW110706   1.093   5.015   2.320
 3269SOL    HW210707   1.133   4.977   2.474
 3270SOL     OW10708   0.818   2.452   5.310
 3270SOL    HW110709   0.813   2.431   5.212
 3270SOL    HW210710   0.750   2.397   5.359
 3271SOL     OW10711   0.040   3.304   1.945
 3271SOL    HW110712   0.010   3.394   1.913
 3271SOL    HW210713   0.097   3.262   1.875
 3272SOL     OW10714   4.309   5.976   0.263
 3272SOL    HW110715   4.295   6.022   0.350
 3272SOL    HW210716   4.390   6.014   0.218
 3273SOL     OW10717   4.344   3.744   5.957
 3273SOL    HW110718   4.339   3.840   5.987
 3273SOL    HW210719   4.394   3.739   5.871
 3274SOL     OW10720   6.076   0.962   0.100
 3274SOL    HW110721   6.136   0.935   0.175
 3274SOL    HW210722   5.982   0.938   0.122
 3275SOL     OW10723   4.702   0.554   0.964
 3275SOL    HW110724   4.632   0.624   0.976
 3275SOL    HW210725   4.734   0.523   1.054
 3276SOL     OW10726   5.076   0.046   0.326
 3276SOL    HW110727   5.001   0.081   0.271
 3276SOL    HW210728   5.152   0.111   0.326
 3277SOL     OW10729   2.958   1.675   1.964
 3277SOL    HW110730   3.051   1.709   1.954
 3277SOL    HW210731   2.894   1.753   1.967
 3278SOL     OW10732   0.404   0.554   6.779
 3278SOL    HW110733   0.322   0.598   6.744
 3278SOL    HW210734   0.481   0.574   6.719
 3279SOL     OW10735   4.504   6.543   1.449
 3279SOL    HW110736   4.420   6.570   1.401
 3279SOL    HW210737   4.511   6.595   1.534
 3280SOL     OW10738   5.579   3.397   4.429
 3280SOL    HW110739   5.493   3.350   4.452
 3280SOL    HW210740   5.638   3.334   4.380
 3281SOL     OW10741   6.863   4.283   1.862
 3281SOL    HW110742   6.809   4.326   1.935
 3281SOL    HW210743   6.952   4.327   1.857
 3282SOL     OW10744   0.284   3.808   5.161
 3282SOL    HW110745   0.346   3.886   5.159
 3282SOL    HW210746   0.333   3.726   5.133
 3283SOL     OW10747   3.323   1.117   1.341
 3283SOL    HW110748   3.369   1.038   1.300
 3283SOL    HW210749   3.391   1.175   1.387
 3284SOL     OW10750   1.869   5.788   4.922
 3284SOL    HW110751   1.848   5.886   4.914
 3284SOL    HW210752   1.802   5.735   4.871
 3285SOL     OW10753   5.390   0.813   4.543
 3285SOL    HW110754   5.471   0.868   4.560
 3285SOL    HW210755   5.355   0.832   4.451
 3286SOL     OW10756   3.318   2.007   1.631
 3286SOL    HW110757   3.402   1.955   1.646
 3286SOL    HW210758   3.298   2.011   1.533
 3287SOL     OW10759   1.212   0.065   6.492
 3287SOL    HW110760   1.244   6.996   6.493
 3287SOL    HW210761   1.271   0.118   6.431
 3288SOL     OW10762   1.825   6.473   0.526
 3288SOL    HW110763   1.923   6.487   0.510
 3288SOL    HW210764   1.773   6.541   0.474
 3289SOL     OW10765   2.957   1.327   6.616
 3289SOL    HW110766   3.054   1.338   6.633
 3289SOL    HW210767   2.932   1.375   6.531
 3290SOL     OW10768   6.611   5.353   0.893
 3290SOL    HW110769   6.704   5.390   0.893
 3290SOL    HW210770   6.611   5.260   0.856
 3291SOL     OW10771   4.535   6.749   5.856
 3291SOL    HW110772   4.568   6.826   5.910
 3291SOL    HW210773   4.603   6.675   5.857
 3292SOL     OW10774   0.463   1.712   0.681
 3292SOL    HW110775   0.402   1.706   0.761
 3292SOL    HW210776   0.558   1.700   0.711
 3293SOL     OW10777   6.203   5.123   2.629
 3293SOL    HW110778   6.250   5.131   2.541
 3293SOL    HW210779   6.219   5.032   2.667
 3294SOL     OW10780   5.214   2.371   5.494
 3294SOL    HW110781   5.172   2.445   5.547
 3294SOL    HW210782   5.174   2.369   5.402
 3295SOL     OW10783   1.680   2.863   0.867
 3295SOL    HW110784   1.750   2.921   0.907
 3295SOL    HW210785   1.590   2.889   0.902
 3296SOL     OW10786   0.046   6.991   5.379
 3296SOL    HW110787   0.022   6.994   5.476
 3296SOL    HW210788   0.092   0.051   5.354
 3297SOL     OW10789   3.067   1.940   5.369
 3297SOL    HW110790   2.998   1.986   5.425
 3297SOL    HW210791   3.158   1.970   5.397
 3298SOL     OW10792   6.106   3.679   4.850
 3298SOL    HW110793   6.131   3.594   4.897
 3298SOL    HW210794   6.057   3.658   4.766
 3299SOL     OW10795   3.609   4.897   3.580
 3299SOL    HW110796   3.606   4.989   3.540
 3299SOL    HW210797   3.517   4.866   3.601
 3300SOL     OW10798   2.068   7.021   5.260
 3300SOL    HW110799   2.065   0.064   5.187
 3300SOL    HW210800   1.987   6.963   5.254
 3301SOL     OW10801   1.679   3.313   2.610
 3301SOL    HW110802   1.760   3.293   2.665
 3301SOL    HW210803   1.705   3.362   2.528
 3302SOL     OW10804   2.206   5.150   5.622
 3302SOL    HW110805   2.162   5.156   5.532
 3302SOL    HW210806   2.296   5.106   5.613
 3303SOL     OW10807   3.507   2.774   0.391
 3303SOL    HW110808   3.440   2.796   0.320
 3303SOL    HW210809   3.484   2.687   0.434
 3304SOL     OW10810   2.435   4.835   6.392
 3304SOL    HW110811   2.512   4.773   6.408
 3304SOL    HW210812   2.351   4.796   6.429
 3305SOL     OW10813   3.528   0.428   1.252
 3305SOL    HW110814   3.523   0.421   1.152
 3305SOL    HW210815   3.477   0.508   1.284
 3306SOL     OW10816   1.349   0.066   0.044
 3306SOL    HW110817   1.261   0.073   0.090
 3306SOL    HW210818   1.371   0.154   0.001
 3307SOL     OW10819   1.307   0.044   5.038
 3307SOL    HW110820   1.271   0.130   5.002
 3307SOL    HW210821   1.398   0.026   5.001
 3308SOL     OW10822   3.895   4.373   1.239
 3308SOL    HW110823   3.798   4.395   1.239
 3308SOL    HW210824   3.942   4.428   1.308
 3309SOL     OW10825   5.108   4.414   3.874
 3309SOL    HW110826   5.185   4.355   3.901
 3309SOL    HW210827   5.056   4.370   3.801
 3310SOL     OW10828   0.523   4.972   4.562
 3310SOL    HW110829   0.482   5.060   4.538
 3310SOL    HW210830   0.562   4.978   4.654
 3311SOL     OW10831   3.276   3.500   0.488
 3311SOL    HW110832   3.229   3.451   0.414
 3311SOL    HW210833   3.268   3.449   0.573
 3312SOL     OW10834   5.247   2.589   6.300
 3312SOL    HW110835   5.248   2.649   6.220
 3312SOL    HW210836   5.196   2.633   6.374
 3313SOL     OW10837   0.992   0.644   2.927
 3313SOL    HW110838   1.025   0.697   3.005
 3313SOL    HW210839   1.021   0.687   2.842
 3314SOL     OW10840   2.539   0.020   3.441
 3314SOL    HW110841   2.519   0.093   3.376
 3314SOL    HW210842   2.588   0.058   3.520
 3315SOL     OW10843   0.124   5.343   5.066
 3315SOL    HW110844   0.158   5.314   5.155
 3315SOL    HW210845   0.039   5.394   5.078
 3316SOL     OW10846   2.675   1.013   6.626
 3316SOL    HW110847   2.631   0.928   6.655
 3316SOL    HW210848   2.716   1.000   6.536
 3317SOL     OW10849   5.257   2.833   1.948
 3317SOL    HW110850   5.341   2.849   2.000
 3317SOL    HW210851   5.182   2.886   1.987
 3318SOL     OW10852   2.864   2.381   7.016
 3318SOL    HW110853   2.802   2.450   0.029
 3318SOL    HW210854   2.832   2.355   6.925
 3319SOL     OW10855   6.689   6.856   2.851
 3319SOL    HW110856   6.746   6.935   2.872
 3319SOL    HW210857   6.745   6.784   2.809
 3320SOL     OW10858   6.335   0.553   1.034
 3320SOL    HW110859   6.296   0.645   1.022
 3320SOL    HW210860   6.404   0.556   1.107
 3321SOL     OW10861   6.016   1.456   0.875
 3321SOL    HW110862   6.111   1.431   0.859
 3321SOL    HW210863   5.970   1.471   0.788
 3322SOL     OW10864   6.440   3.464   0.918
 3322SOL    HW110865   6.529   3.419   0.926
 3322SOL    HW210866   6.452   3.563   0.918
 3323SOL     OW10867   2.423   1.845   1.641
 3323SOL    HW110868   2.428   1.935   1.686
 3323SOL    HW210869   2.458   1.852   1.548
 3324SOL     OW10870   4.825   5.597   5.964
 3324SOL    HW110871   4.773   5.548   6.034
 3324SOL    HW210872   4.861   5.682   6.003
 3325SOL     OW10873   1.279   3.655   6.739
 3325SOL    HW110874   1.321   3.715   6.808
 3325SOL    HW210875   1.315   3.677   6.649
 3326SOL     OW10876   5.546   1.011   3.026
 3326SOL    HW110877   5.479   1.001   2.952
 3326SOL    HW210878   5.614   0.939   3.019
 3327SOL     OW10879   1.465   6.006   1.257
 3327SOL    HW110880   1.394   5.992   1.189
 3327SOL    HW210881   1.546   5.952   1.233
 3328SOL     OW10882   3.350   1.466   0.925
 3328SOL    HW110883   3.340   1.478   1.024
 3328SOL    HW210884   3.261   1.476   0.881
 3329SOL     OW10885   6.860   5.824   5.662
 3329SOL    HW110886   6.921   5.898   5.634
 3329SOL    HW210887   6.806   5.854   5.741
 3330SOL     OW10888   6.241   2.706   2.278
 3330SOL    HW110889   6.256   2.690   2.180
 3330SOL    HW210890   6.208   2.622   2.321
 3331SOL     OW10891   1.404   2.223   1.121
 3331SOL    HW110892   1.482   2.286   1.123
 3331SOL    HW210893   1.400   2.172   1.207
 3332SOL     OW10894   5.541   4.396   0.251
 3332SOL    HW110895   5.622   4.455   0.245
 3332SOL    HW210896   5.507   4.396   0.345
 3333SOL     OW10897   4.126   5.155   6.562
 3333SOL    HW110898   4.049   5.216   6.545
 3333SOL    HW210899   4.096   5.060   6.558
 3334SOL     OW10900   3.382   3.300   1.379
 3334SOL    HW110901   3.410   3.209   1.410
 3334SOL    HW210902   3.407   3.369   1.447
 3335SOL     OW10903   4.968   4.923   5.527
 3335SOL    HW110904   4.921   5.009   5.547
 3335SOL    HW210905   4.997   4.881   5.612
 3336SOL     OW10906   2.896   5.519   6.356
 3336SOL    HW110907   2.912   5.478   6.266
 3336SOL    HW210908   2.931   5.613   6.356
 3337SOL     OW10909   3.541   1.830   1.705
 3337SOL    HW110910   3.489   1.797   1.784
 3337SOL    HW210911   3.602   1.903   1.733
 3338SOL     OW10912   6.883   4.196   1.270
 3338SOL    HW110913   6.869   4.186   1.172
 3338SOL    HW210914   6.870   4.107   1.314
 3339SOL     OW10915   6.625   6.001   6.946
 3339SOL    HW110916   6.594   5.995   6.851
 3339SOL    HW210917   6.602   6.091   6.983
 3340SOL     OW10918   3.272   6.650   2.006
 3340SOL    HW110919   3.295   6.593   1.927
 3340SOL    HW210920   3.193   6.610   2.054
 3341SOL     OW10921   0.657   6.821   2.843
 3341SOL    HW110922   0.711   6.819   2.760
 3341SOL    HW210923   0.713   6.855   2.919
 3342SOL     OW10924   1.799   6.931   4.135
 3342SOL    HW110925   1.701   6.920   4.118
 3342SOL    HW210926   1.851   6.878   4.068
 3343SOL     OW10927   4.765   2.600   0.864
 3343SOL    HW110928   4.824   2.679   0.849
 3343SOL    HW210929   4.671   2.623   0.836
 3344SOL     OW10930   5.580   3.938   4.934
 3344SOL    HW110931   5.630   3.954   5.019
 3344SOL    HW210932   5.538   4.023   4.903
 3345SOL     OW10933   3.020   3.951   5.774
 3345SOL    HW110934   2.932   3.989   5.744
 3345SOL    HW210935   3.078   3.934   5.694
 3346SOL     OW10936   0.550   1.108   1.950
 3346SOL    HW110937   0.513   1.024   1.988
 3346SOL    HW210938   0.542   1.182   2.017
 3347SOL     OW10939   6.444   3.676   4.195
 3347SOL    HW110940   6.440   3.729   4.279
 3347SOL    HW210941   6.366   3.699   4.137
 3348SOL     OW10942   3.222   3.420   3.924
 3348SOL    HW110943   3.298   3.473   3.963
 3348SOL    HW210944   3.156   3.483   3.884
 3349SOL     OW10945   6.685   3.724   3.927
 3349SOL    HW110946   6.609   3.671   3.889
 3349SOL    HW210947   6.771   3.676   3.910
 3350SOL     OW10948   1.891   1.223   6.691
 3350SOL    HW110949   1.926   1.202   6.783
 3350SOL    HW210950   1.961   1.203   6.623
 3351SOL     OW10951   5.529   1.055   1.077
 3351SOL    HW110952   5.511   1.039   1.174
 3351SOL    HW210953   5.535   1.153   1.059
 3352SOL     OW10954   0.772   4.198   0.861
 3352SOL    HW110955   0.786   4.099   0.874
 3352SOL    HW210956   0.801   4.224   0.770
 3353SOL     OW10957   1.646   0.003   6.662
 3353SOL    HW110958   1.610   6.936   6.651
 3353SOL    HW210959   1.663   0.021   6.759
 3354SOL     OW10960   6.866   2.319   3.522
 3354SOL    HW110961   6.794   2.387   3.513
 3354SOL    HW210962   6.902   2.296   3.432
 3355SOL     OW10963   0.388   2.216   1.283
 3355SOL    HW110964   0.291   2.242   1.280
 3355SOL    HW210965   0.422   2.222   1.376
 3356SOL     OW10966   2.700   3.702   6.941
 3356SOL    HW110967   2.760   3.771   6.899
 3356SOL    HW210968   2.605   3.721   6.916
 3357SOL     OW10969   2.548   5.238   1.350
 3357SOL    HW110970   2.609   5.280   1.284
 3357SOL    HW210971   2.479   5.183   1.303
 3358SOL     OW10972   4.817   6.640   2.263
 3358SOL    HW110973   4.768   6.595   2.188
 3358SOL    HW210974   4.897   6.688   2.227
 3359SOL     OW10975   0.599   0.527   2.840
 3359SOL    HW110976   0.675   0.463   2.847
 3359SOL    HW210977   0.615   0.605   2.900
 3360SOL     OW10978   0.662   1.014   0.377
 3360SOL    HW110979   0.685   1.085   0.444
 3360SOL    HW210980   0.742   0.955   0.364
 3361SOL     OW10981   6.306   5.549   3.028
 3361SOL    HW110982   6.372   5.611   3.072
 3361SOL    HW210983   6.292   5.577   2.933
 3362SOL     OW10984   3.270   1.132   4.672
 3362SOL    HW110985   3.362   1.152   4.638
 3362SOL    HW210986   3.212   1.213   4.662
 3363SOL     OW10987   0.290   1.856   6.594
 3363SOL    HW110988   0.325   1.877   6.502
 3363SOL    HW210989   0.313   1.762   6.618
 3364SOL     OW10990   0.868   5.799   5.974
 3364SOL    HW110991   0.883   5.777   5.878
 3364SOL    HW210992   0.926   5.877   5.999
 3365SOL     OW10993   0.131   2.437   4.678
 3365SOL    HW110994   0.056   2.453   4.741
 3365SOL    HW210995   0.126   2.343   4.643
 3366SOL     OW10996   5.340   0.875   5.128
 3366SOL    HW110997   5.354   0.973   5.118
 3366SOL    HW210998   5.421   0.826   5.096
 3367SOL     OW10999   1.536   2.565   2.224
 3367SOL    HW111000   1.554   2.636   2.155
 3367SOL    HW211001   1.564   2.476   2.188
 3368SOL     OW11002   6.333   5.341   6.527
 3368SOL    HW111003   6.390   5.347   6.446
 3368SOL    HW211004   6.244   5.302   6.503
 3369SOL     OW11005   3.632   0.521   0.392
 3369SOL    HW111006   3.593   0.571   0.314
 3369SOL    HW211007   3.635   0.423   0.369
 3370SOL     OW11008   6.508   6.645   5.150
 3370SOL    HW111009   6.599   6.660   5.113
 3370SOL    HW211010   6.515   6.602   5.240
 3371SOL     OW11011   0.991   4.730   1.905
 3371SOL    HW111012   0.955   4.798   1.969
 3371SOL    HW211013   0.967   4.755   1.812
 3372SOL     OW11014   0.516   0.748   2.354
 3372SOL    HW111015   0.483   0.657   2.329
 3372SOL    HW211016   0.496   0.812   2.280
 3373SOL     OW11017   5.966   1.302   4.582
 3373SOL    HW111018   5.933   1.235   4.515
 3373SOL    HW211019   5.915   1.388   4.571
 3374SOL     OW11020   3.418   6.043   5.318
 3374SOL    HW111021   3.371   5.992   5.389
 3374SOL    HW211022   3.490   6.099   5.359
 3375SOL     OW11023   4.590   4.404   5.016
 3375SOL    HW111024   4.614   4.350   4.935
 3375SOL    HW211025   4.495   4.435   5.010
 3376SOL     OW11026   3.327   2.886   2.548
 3376SOL    HW111027   3.315   2.889   2.647
 3376SOL    HW211028   3.422   2.863   2.526
 3377SOL     OW11029   1.424   6.552   5.078
 3377SOL    HW111030   1.410   6.553   4.979
 3377SOL    HW211031   1.504   6.495   5.100
 3378SOL     OW11032   6.788   1.176   1.300
 3378SOL    HW111033   6.884   1.170   1.271
 3378SOL    HW211034   6.785   1.200   1.397
 3379SOL     OW11035   0.689   4.853   5.716
 3379SOL    HW111036   0.656   4.759   5.729
 3379SOL    HW211037   0.783   4.850   5.681
 3380SOL     OW11038   6.858   4.611   6.628
 3380SOL    HW111039   6.833   4.583   6.536
 3380SOL    HW211040   6.941   4.563   6.656
 3381SOL     OW11041   2.888   2.592   0.605
 3381SOL    HW111042   2.888   2.538   0.521
 3381SOL    HW211043   2.811   2.655   0.604
 3382SOL     OW11044   0.346   1.953   6.905
 3382SOL    HW111045   0.365   1.922   6.812
 3382SOL    HW211046   0.404   1.902   6.969
 3383SOL     OW11047   6.063   4.535   2.764
 3383SOL    HW111048   6.097   4.600   2.833
 3383SOL    HW211049   6.029   4.453   2.810
 3384SOL     OW11050   3.232   3.230   4.877
 3384SOL    HW111051   3.330   3.250   4.887
 3384SOL    HW211052   3.194   3.286   4.803
 3385SOL     OW11053   6.435   3.686   3.782
 3385SOL    HW111054   6.440   3.782   3.755
 3385SOL    HW211055   6.377   3.677   3.864
 3386SOL     OW11056   6.195   4.221   4.418
 3386SOL    HW111057   6.266   4.291   4.426
 3386SOL    HW211058   6.134   4.244   4.343
 3387SOL     OW11059   2.454   2.609   2.571
 3387SOL    HW111060   2.448   2.593   2.472
 3387SOL    HW211061   2.458   2.521   2.618
 3388SOL     OW11062   5.822   2.291   1.339
 3388SOL    HW111063   5.826   2.345   1.423
 3388SOL    HW211064   5.784   2.348   1.266
 3389SOL     OW11065   4.721   4.278   3.928
 3389SOL    HW111066   4.674   4.341   3.866
 3389SOL    HW211067   4.718   4.314   4.021
 3390SOL     OW11068   4.923   2.610   5.792
 3390SOL    HW111069   4.913   2.511   5.803
 3390SOL    HW211070   4.834   2.654   5.804
 3391SOL     OW11071   3.788   1.855   4.939
 3391SOL    HW111072   3.804   1.937   4.995
 3391SOL    HW211073   3.831   1.776   4.983
 3392SOL     OW11074   2.477   0.574   3.908
 3392SOL    HW111075   2.468   0.477   3.931
 3392SOL    HW211076   2.467   0.629   3.990
 3393SOL     OW11077   6.828   6.645   0.543
 3393SOL    HW111078   6.862   6.703   0.618
 3393SOL    HW211079   6.766   6.699   0.486
 3394SOL     OW11080   5.765   2.657   0.835
 3394SOL    HW111081   5.692   2.588   0.837
 3394SOL    HW211082   5.848   2.618   0.875
 3395SOL     OW11083   0.243   3.378   4.152
 3395SOL    HW111084   0.159   3.351   4.199
 3395SOL    HW211085   0.318   3.319   4.183
 3396SOL     OW11086   0.150   3.350   3.196
 3396SOL    HW111087   0.195   3.309   3.117
 3396SOL    HW211088   0.182   3.445   3.207
 3397SOL     OW11089   3.728   0.241   5.750
 3397SOL    HW111090   3.748   0.339   5.755
 3397SOL    HW211091   3.629   0.227   5.756
 3398SOL     OW11092   0.886   0.304   4.210
 3398SOL    HW111093   0.927   0.214   4.200
 3398SOL    HW211094   0.902   0.338   4.303
 3399SOL     OW11095   4.426   4.590   4.484
 3399SOL    HW111096   4.356   4.638   4.536
 3399SOL    HW211097   4.494   4.656   4.451
 3400SOL     OW11098   5.069   2.274   5.991
 3400SOL    HW111099   4.977   2.289   5.956
 3400SOL    HW211100   5.101   2.184   5.962
 3401SOL     OW11101   0.059   3.388   0.207
 3401SOL    HW111102   0.025   3.439   0.129
 3401SOL    HW211103   0.109   3.449   0.268
 3402SOL     OW11104   5.548   5.626   1.081
 3402SOL    HW111105   5.498   5.679   1.150
 3402SOL    HW211106   5.534   5.528   1.098
 3403SOL     OW11107   3.905   0.255   4.828
 3403SOL    HW111108   3.815   0.213   4.837
 3403SOL    HW211109   3.970   0.209   4.889
 3404SOL     OW11110   3.959   1.199   0.614
 3404SOL    HW111111   3.881   1.249   0.652
 3404SOL    HW211112   3.955   1.202   0.515
 3405SOL     OW11113   6.433   3.833   6.302
 3405SOL    HW111114   6.369   3.881   6.241
 3405SOL    HW211115   6.382   3.777   6.367
 3406SOL     OW11116   2.524   4.370   1.895
 3406SOL    HW111117   2.481   4.390   1.983
 3406SOL    HW211118   2.589   4.443   1.873
 3407SOL     OW11119   1.737   5.553   1.847
 3407SOL    HW111120   1.676   5.496   1.793
 3407SOL    HW211121   1.698   5.645   1.857
 3408SOL     OW11122   4.823   3.932   3.279
 3408SOL    HW111123   4.814   3.934   3.179
 3408SOL    HW211124   4.799   4.021   3.317
 3409SOL     OW11125   3.771   0.137   6.185
 3409SOL    HW111126   3.794   0.233   6.201
 3409SOL    HW211127   3.798   0.082   6.264
 3410SOL     OW11128   5.986   5.255   6.740
 3410SOL    HW111129   6.037   5.172   6.720
 3410SOL    HW211130   5.901   5.230   6.787
 3411SOL     OW11131   5.049   2.357   2.113
 3411SOL    HW111132   5.141   2.386   2.138
 3411SOL    HW211133   4.991   2.357   2.194
 3412SOL     OW11134   4.268   3.390   6.981
 3412SOL    HW111135   4.207   3.437   0.020
 3412SOL    HW211136   4.320   3.458   6.930
 3413SOL     OW11137   4.295   1.528   2.918
 3413SOL    HW111138   4.393   1.510   2.925
 3413SOL    HW211139   4.249   1.494   3.000
 3414SOL     OW11140   2.952   1.807   4.733
 3414SOL    HW111141   2.951   1.877   4.805
 3414SOL    HW211142   3.017   1.833   4.662
 3415SOL     OW11143   1.091   5.011   4.013
 3415SOL    HW111144   1.153   5.027   3.936
 3415SOL    HW211145   1.134   4.948   4.078
 3416SOL     OW11146   0.296   4.225   5.833
 3416SOL    HW111147   0.303   4.306   5.775
 3416SOL    HW211148   0.339   4.242   5.921
 3417SOL     OW11149   6.870   6.345   2.440
 3417SOL    HW111150   6.950   6.395   2.473
 3417SOL    HW211151   6.892   6.248   2.434
 3418SOL     OW11152   3.357   1.457   4.898
 3418SOL    HW111153   3.291   1.523   4.863
 3418SOL    HW211154   3.448   1.479   4.864
 3419SOL     OW11155   4.398   4.809   6.561
 3419SOL    HW111156   4.351   4.880   6.614
 3419SOL    HW211157   4.444   4.746   6.622
 3420SOL     OW11158   5.162   1.602   3.806
 3420SOL    HW111159   5.196   1.657   3.730
 3420SOL    HW211160   5.210   1.630   3.890
 3421SOL     OW11161   6.627   0.574   5.757
 3421SOL    HW111162   6.672   0.491   5.726
 3421SOL    HW211163   6.614   0.636   5.680
 3422SOL     OW11164   3.563   0.122   0.842
 3422SOL    HW111165   3.625   0.122   0.921
 3422SOL    HW211166   3.539   0.216   0.818
 3423SOL     OW11167   2.056   0.369   0.279
 3423SOL    HW111168   1.964   0.387   0.313
 3423SOL    HW211169   2.119   0.360   0.356
 3424SOL     OW11170   3.535   1.388   2.486
 3424SOL    HW111171   3.528   1.378   2.387
 3424SOL    HW211172   3.473   1.461   2.517
 3425SOL     OW11173   5.225   4.578   2.091
 3425SOL    HW111174   5.207   4.674   2.069
 3425SOL    HW211175   5.145   4.523   2.069
 3426SOL     OW11176   3.660   3.448   0.480
 3426SOL    HW111177   3.603   3.524   0.449
 3426SOL    HW211178   3.756   3.477   0.480
 3427SOL     OW11179   6.573   6.834   0.047
 3427SOL    HW111180   6.579   6.845   6.974
 3427SOL    HW211181   6.514   6.905   0.085
 3428SOL     OW11182   3.861   4.949   1.933
 3428SOL    HW111183   3.796   4.876   1.955
 3428SOL    HW211184   3.881   4.948   1.836
 3429SOL     OW11185   1.070   2.324   6.596
 3429SOL    HW111186   1.003   2.374   6.652
 3429SOL    HW211187   1.117   2.388   6.535
 3430SOL     OW11188   1.128   6.853   6.720
 3430SOL    HW111189   1.137   6.772   6.778
 3430SOL    HW211190   1.138   6.935   6.776
 3431SOL     OW11191   1.921   6.235   1.142
 3431SOL    HW111192   1.829   6.200   1.127
 3431SOL    HW211193   1.930   6.326   1.101
 3432SOL     OW11194   2.826   2.311   5.143
 3432SOL    HW111195   2.742   2.298   5.196
 3432SOL    HW211196   2.881   2.228   5.147
 3433SOL     OW11197   2.532   0.962   6.064
 3433SOL    HW111198   2.618   0.910   6.072
 3433SOL    HW211199   2.460   0.915   6.116
 3434SOL     OW11200   3.749   2.744   0.772
 3434SOL    HW111201   3.679   2.816   0.773
 3434SOL    HW211202   3.791   2.738   0.863
 3435SOL     OW11203   0.105   2.476   1.821
 3435SOL    HW111204   0.023   2.420   1.833
 3435SOL    HW211205   0.175   2.447   1.887
 3436SOL     OW11206   4.290   6.701   5.083
 3436SOL    HW111207   4.384   6.674   5.104
 3436SOL    HW211208   4.241   6.623   5.045
 3437SOL     OW11209   4.541   7.009   5.935
 3437SOL    HW111210   4.628   7.012   5.983
 3437SOL    HW211211   4.532   0.064   5.878
 3438SOL     OW11212   2.067   2.834   6.831
 3438SOL    HW111213   2.086   2.890   6.750
 3438SOL    HW211214   2.026   2.892   6.902
 3439SOL     OW11215   2.865   0.009   5.291
 3439SOL    HW111216   2.772   0.047   5.289
 3439SOL    HW211217   2.860   6.935   5.284
 3440SOL     OW11218   4.512   3.528   1.048
 3440SOL    HW111219   4.588   3.470   1.018
 3440SOL    HW211220   4.535   3.624   1.031
 3441SOL     OW11221   4.096   6.580   3.981
 3441SOL    HW111222   4.058   6.614   3.895
 3441SOL    HW211223   4.186   6.538   3.963
 3442SOL     OW11224   2.026   5.210   3.305
 3442SOL    HW111225   2.100   5.179   3.244
 3442SOL    HW211226   1.981   5.290   3.264
 3443SOL     OW11227   5.721   1.658   3.353
 3443SOL    HW111228   5.650   1.591   3.335
 3443SOL    HW211229   5.687   1.727   3.416
 3444SOL     OW11230   4.924   5.900   6.293
 3444SOL    HW111231   4.857   5.833   6.324
 3444SOL    HW211232   4.906   5.988   6.336
 3445SOL     OW11233   6.740   3.842   4.175
 3445SOL    HW111234   6.839   3.839   4.184
 3445SOL    HW211235   6.711   3.783   4.100
 3446SOL     OW11236   4.458   1.303   2.799
 3446SOL    HW111237   4.489   1.225   2.744
 3446SOL    HW211238   4.387   1.273   2.862
 3447SOL     OW11239   5.624   5.086   0.139
 3447SOL    HW111240   5.611   5.067   0.042
 3447SOL    HW211241   5.620   5.001   0.191
 3448SOL     OW11242   3.841   6.741   0.897
 3448SOL    HW111243   3.914   6.795   0.854
 3448SOL    HW211244   3.879   6.656   0.933
 3449SOL     OW11245   6.397   6.653   2.345
 3449SOL    HW111246   6.449   6.572   2.373
 3449SOL    HW211247   6.461   6.729   2.329
 3450SOL     OW11248   0.800   1.962   1.302
 3450SOL    HW111249   0.718   1.990   1.252
 3450SOL    HW211250   0.881   1.981   1.247
 3451SOL     OW11251   0.931   6.003   3.651
 3451SOL    HW111252   0.860   5.950   3.605
 3451SOL    HW211253   0.897   6.035   3.740
 3452SOL     OW11254   6.881   0.656   6.869
 3452SOL    HW111255   6.938   0.607   6.935
 3452SOL    HW211256   6.805   0.598   6.841
 3453SOL     OW11257   5.733   5.587   5.046
 3453SOL    HW111258   5.706   5.615   4.954
 3453SOL    HW211259   5.832   5.595   5.057
 3454SOL     OW11260   1.861   1.467   6.916
 3454SOL    HW111261   1.879   1.560   6.884
 3454SOL    HW211262   1.835   1.410   6.839
 3455SOL     OW11263   1.329   3.206   4.761
 3455SOL    HW111264   1.284   3.196   4.850
 3455SOL    HW211265   1.363   3.300   4.752
 3456SOL     OW11266   6.021   6.070   2.165
 3456SOL    HW111267   5.927   6.038   2.179
 3456SOL    HW211268   6.079   5.993   2.142
 3457SOL     OW11269   2.659   5.105   4.081
 3457SOL    HW111270   2.575   5.158   4.091
 3457SOL    HW211271   2.646   5.034   4.013
 3458SOL     OW11272   6.052   0.185   0.334
 3458SOL    HW111273   6.131   0.123   0.342
 3458SOL    HW211274   5.996   0.158   0.257
 3459SOL     OW11275   0.532   3.363   3.294
 3459SOL    HW111276   0.494   3.331   3.380
 3459SOL    HW211277   0.575   3.452   3.307
 3460SOL     OW11278   3.309   3.199   0.617
 3460SOL    HW111279   3.270   3.155   0.535
 3460SOL    HW211280   3.235   3.229   0.677
 3461SOL     OW11281   3.566   5.297   4.105
 3461SOL    HW111282   3.605   5.349   4.181
 3461SOL    HW211283   3.467   5.300   4.110
 3462SOL     OW11284   5.932   2.758   2.165
 3462SOL    HW111285   5.964   2.846   2.198
 3462SOL    HW211286   5.991   2.727   2.090
 3463SOL     OW11287   0.253   3.031   2.457
 3463SOL    HW111288   0.287   3.111   2.408
 3463SOL    HW211289   0.256   3.049   2.555
 3464SOL     OW11290   5.790   2.437   0.003
 3464SOL    HW111291   5.762   2.359   6.974
 3464SOL    HW211292   5.745   2.432   0.093
 3465SOL     OW11293   2.176   3.531   1.384
 3465SOL    HW111294   2.235   3.612   1.376
 3465SOL    HW211295   2.109   3.545   1.457
 3466SOL     OW11296   5.385   5.014   5.775
 3466SOL    HW111297   5.328   5.060   5.707
 3466SOL    HW211298   5.368   5.053   5.865
 3467SOL     OW11299   3.109   1.513   0.803
 3467SOL    HW111300   3.024   1.462   0.788
 3467SOL    HW211301   3.154   1.529   0.715
 3468SOL     OW11302   4.770   1.530   2.085
 3468SOL    HW111303   4.694   1.547   2.147
 3468SOL    HW211304   4.855   1.564   2.126
 3469SOL     OW11305   4.955   0.273   6.299
 3469SOL    HW111306   4.951   0.291   6.398
 3469SOL    HW211307   5.001   0.349   6.254
 3470SOL     OW11308   0.593   2.725   1.614
 3470SOL    HW111309   0.667   2.662   1.589
 3470SOL    HW211310   0.630   2.801   1.667
 3471SOL     OW11311   4.835   4.239   3.383
 3471SOL    HW111312   4.919   4.294   3.385
 3471SOL    HW211313   4.773   4.271   3.454
 3472SOL     OW11314   4.228   1.863   2.679
 3472SOL    HW111315   4.309   1.805   2.675
 3472SOL    HW211316   4.197   1.883   2.585
 3473SOL     OW11317   6.948   3.655   3.499
 3473SOL    HW111318   6.879   3.713   3.454
 3473SOL    HW211319   6.920   3.560   3.493
 3474SOL     OW11320   0.149   4.272   3.925
 3474SOL    HW111321   0.102   4.186   3.905
 3474SOL    HW211322   0.214   4.259   3.999
 3475SOL     OW11323   0.829   5.074   3.958
 3475SOL    HW111324   0.916   5.028   3.972
 3475SOL    HW211325   0.756   5.007   3.948
 3476SOL     OW11326   1.890   1.455   3.578
 3476SOL    HW111327   1.846   1.378   3.623
 3476SOL    HW211328   1.836   1.538   3.592
 3477SOL     OW11329   0.954   3.502   0.257
 3477SOL    HW111330   1.008   3.563   0.198
 3477SOL    HW211331   1.016   3.444   0.310
 3478SOL     OW11332   2.342   6.995   6.830
 3478SOL    HW111333   2.384   6.968   6.917
 3478SOL    HW211334   2.341   0.068   6.823
 3479SOL     OW11335   0.721   2.205   4.035
 3479SOL    HW111336   0.728   2.126   3.974
 3479SOL    HW211337   0.682   2.282   3.984
 3480SOL     OW11338   1.210   6.076   6.545
 3480SOL    HW111339   1.133   6.063   6.607
 3480SOL    HW211340   1.277   6.004   6.560
 3481SOL     OW11341   5.354   1.006   0.611
 3481SOL    HW111342   5.355   0.909   0.632
 3481SOL    HW211343   5.428   1.052   0.660
 3482SOL     OW11344   6.109   1.743   3.024
 3482SOL    HW111345   6.026   1.688   3.039
 3482SOL    HW211346   6.162   1.748   3.109
 3483SOL     OW11347   5.672   2.380   2.981
 3483SOL    HW111348   5.709   2.289   3.000
 3483SOL    HW211349   5.628   2.416   3.063
 3484SOL     OW11350   1.611   3.348   6.691
 3484SOL    HW111351   1.596   3.429   6.748
 3484SOL    HW211352   1.606   3.374   6.594
 3485SOL     OW11353   0.329   2.364   5.326
 3485SOL    HW111354   0.298   2.269   5.319
 3485SOL    HW211355   0.293   2.416   5.248
 3486SOL     OW11356   2.078   0.171   4.139
 3486SOL    HW111357   2.050   0.267   4.136
 3486SOL    HW211358   2.050   0.126   4.055
 3487SOL     OW11359   6.562   2.152   6.824
 3487SOL    HW111360   6.511   2.067   6.832
 3487SOL    HW211361   6.550   2.206   6.908
 3488SOL     OW11362   5.416   0.650   4.970
 3488SOL    HW111363   5.512   0.625   4.985
 3488SOL    HW211364   5.412   0.728   4.907
 3489SOL     OW11365   3.398   6.745   1.203
 3489SOL    HW111366   3.423   6.842   1.211
 3489SOL    HW211367   3.319   6.727   1.261
 3490SOL     OW11368   3.987   4.997   1.419
 3490SOL    HW111369   3.902   4.947   1.400
 3490SOL    HW211370   4.026   5.029   1.333
 3491SOL     OW11371   4.417   4.130   6.209
 3491SOL    HW111372   4.440   4.225   6.228
 3491SOL    HW211373   4.478   4.070   6.261
 3492SOL     OW11374   6.508   4.219   1.167
 3492SOL    HW111375   6.504   4.153   1.092
 3492SOL    HW211376   6.528   4.310   1.131
 3493SOL     OW11377   6.406   3.974   3.687
 3493SOL    HW111378   6.465   4.053   3.672
 3493SOL    HW211379   6.314   4.006   3.712
 3494SOL     OW11380   2.847   1.094   2.079
 3494SOL    HW111381   2.871   1.190   2.091
 3494SOL    HW211382   2.930   1.039   2.071
 3495SOL     OW11383   0.755   3.895   2.285
 3495SOL    HW111384   0.754   3.863   2.191
 3495SOL    HW211385   0.830   3.961   2.297
 3496SOL     OW11386   5.759   4.993   1.005
 3496SOL    HW111387   5.690   4.962   0.940
 3496SOL    HW211388   5.838   5.029   0.956
 3497SOL     OW11389   3.275   1.071   3.667
 3497SOL    HW111390   3.327   1.023   3.597
 3497SOL    HW211391   3.331   1.078   3.750
 3498SOL     OW11392   2.976   1.429   2.143
 3498SOL    HW111393   2.881   1.414   2.169
 3498SOL    HW211394   2.981   1.453   2.046
 3499SOL     OW11395   6.414   5.616   4.900
 3499SOL    HW111396   6.358   5.535   4.884
 3499SOL    HW211397   6.508   5.588   4.920
 3500SOL     OW11398   2.002   2.853   4.232
 3500SOL    HW111399   1.953   2.793   4.169
 3500SOL    HW211400   2.099   2.827   4.234
 3501SOL     OW11401   2.633   6.947   6.102
 3501SOL    HW111402   2.584   6.930   6.188
 3501SOL    HW211403   2.648   6.860   6.055
 3502SOL     OW11404   6.073   3.347   1.368
 3502SOL    HW111405   6.102   3.411   1.438
 3502SOL    HW211406   6.117   3.258   1.383
 3503SOL     OW11407   6.843   6.463   5.990
 3503SOL    HW111408   6.825   6.551   6.035
 3503SOL    HW211409   6.853   6.477   5.891
 3504SOL     OW11410   1.875   0.913   2.275
 3504SOL    HW111411   1.959   0.959   2.247
 3504SOL    HW211412   1.841   0.954   2.360
 3505SOL     OW11413   5.998   5.662   5.503
 3505SOL    HW111414   6.084   5.700   5.470
 3505SOL    HW211415   5.929   5.735   5.507
 3506SOL     OW11416   5.689   4.320   4.800
 3506SOL    HW111417   5.664   4.286   4.891
 3506SOL    HW211418   5.778   4.283   4.775
 3507SOL     OW11419   2.386   6.530   0.323
 3507SOL    HW111420   2.390   6.478   0.408
 3507SOL    HW211421   2.479   6.548   0.290
 3508SOL     OW11422   3.049   2.439   6.673
 3508SOL    HW111423   2.963   2.484   6.649
 3508SOL    HW211424   3.115   2.451   6.598
 3509SOL     OW11425   5.482   6.489   0.316
 3509SOL    HW111426   5.536   6.424   0.261
 3509SOL    HW211427   5.408   6.527   0.261
 3510SOL     OW11428   1.775   0.561   1.115
 3510SOL    HW111429   1.697   0.533   1.170
 3510SOL    HW211430   1.854   0.578   1.174
 3511SOL     OW11431   1.656   4.246   1.433
 3511SOL    HW111432   1.738   4.197   1.463
 3511SOL    HW211433   1.647   4.238   1.333
 3512SOL     OW11434   1.122   3.367   0.658
 3512SOL    HW111435   1.132   3.282   0.708
 3512SOL    HW211436   1.156   3.355   0.564
 3513SOL     OW11437   5.913   1.869   1.379
 3513SOL    HW111438   5.828   1.911   1.411
 3513SOL    HW211439   5.899   1.771   1.368
 3514SOL     OW11440   5.711   0.562   2.319
 3514SOL    HW111441   5.678   0.530   2.230
 3514SOL    HW211442   5.648   0.531   2.390
 3515SOL     OW11443   5.283   6.079   3.985
 3515SOL    HW111444   5.213   6.042   4.047
 3515SOL    HW211445   5.290   6.178   3.998
 3516SOL     OW11446   5.227   6.311   0.961
 3516SOL    HW111447   5.178   6.273   0.883
 3516SOL    HW211448   5.215   6.252   1.041
 3517SOL     OW11449   0.503   1.507   1.737
 3517SOL    HW111450   0.527   1.593   1.692
 3517SOL    HW211451   0.566   1.435   1.707
 3518SOL     OW11452   5.063   1.803   5.116
 3518SOL    HW111453   5.067   1.881   5.054
 3518SOL    HW211454   5.048   1.835   5.209
 3519SOL     OW11455   2.138   0.910   6.089
 3519SOL    HW111456   2.055   0.884   6.139
 3519SOL    HW211457   2.117   0.984   6.025
 3520SOL     OW11458   3.190   6.914   0.113
 3520SOL    HW111459   3.175   6.913   0.212
 3520SOL    HW211460   3.216   7.006   0.084
 3521SOL     OW11461   4.015   2.842   6.624
 3521SOL    HW111462   3.965   2.849   6.538
 3521SOL    HW211463   3.951   2.824   6.699
 3522SOL     OW11464   6.337   5.037   6.760
 3522SOL    HW111465   6.421   5.027   6.706
 3522SOL    HW211466   6.258   5.034   6.698
 3523SOL     OW11467   1.470   4.511   5.273
 3523SOL    HW111468   1.384   4.461   5.282
 3523SOL    HW211469   1.534   4.456   5.219
 3524SOL     OW11470   5.237   2.138   2.359
 3524SOL    HW111471   5.314   2.098   2.409
 3524SOL    HW211472   5.161   2.154   2.421
 3525SOL     OW11473   6.091   3.272   4.376
 3525SOL    HW111474   5.993   3.255   4.390
 3525SOL    HW211475   6.123   3.340   4.442
 3526SOL     OW11476   2.058   6.796   3.252
 3526SOL    HW111477   2.026   6.817   3.344
 3526SOL    HW211478   2.133   6.858   3.227
 3527SOL     OW11479   5.698   3.187   6.390
 3527SOL    HW111480   5.605   3.171   6.421
 3527SOL    HW211481   5.720   3.124   6.315
 3528SOL     OW11482   2.257   6.051   4.891
 3528SOL    HW111483   2.176   6.013   4.937
 3528SOL    HW211484   2.285   5.990   4.817
 3529SOL     OW11485   4.066   6.892   0.420
 3529SOL    HW111486   4.087   6.870   0.324
 3529SOL    HW211487   3.996   6.828   0.453
 3530SOL     OW11488   6.914   5.065   1.629
 3530SOL    HW111489   6.845   5.067   1.701
 3530SOL    HW211490   6.976   5.143   1.640
 3531SOL     OW11491   6.002   2.693   1.200
 3531SOL    HW111492   6.088   2.745   1.202
 3531SOL    HW211493   5.981   2.660   1.292
 3532SOL     OW11494   2.597   1.169   1.590
 3532SOL    HW111495   2.670   1.120   1.638
 3532SOL    HW211496   2.556   1.236   1.651
 3533SOL     OW11497   0.726   1.419   2.581
 3533SOL    HW111498   0.692   1.431   2.674
 3533SOL    HW211499   0.709   1.502   2.528
 3534SOL     OW11500   0.968   2.208   2.062
 3534SOL    HW111501   1.040   2.150   2.024
 3534SOL    HW211502   0.916   2.249   1.987
 3535SOL     OW11503   1.781   5.627   5.725
 3535SOL    HW111504   1.702   5.626   5.664
 3535SOL    HW211505   1.862   5.655   5.674
 3536SOL     OW11506   3.276   2.167   3.618
 3536SOL    HW111507   3.215   2.179   3.540
 3536SOL    HW211508   3.228   2.118   3.691
 3537SOL     OW11509   1.981   5.586   1.716
 3537SOL    HW111510   1.900   5.557   1.767
 3537SOL    HW211511   1.959   5.665   1.660
 3538SOL     OW11512   2.558   5.434   5.636
 3538SOL    HW111513   2.476   5.398   5.591
 3538SOL    HW211514   2.554   5.533   5.639
 3539SOL     OW11515   3.344   3.375   4.422
 3539SOL    HW111516   3.424   3.316   4.432
 3539SOL    HW211517   3.319   3.381   4.325
 3540SOL     OW11518   1.869   2.362   4.729
 3540SOL    HW111519   1.829   2.285   4.680
 3540SOL    HW211520   1.807   2.392   4.801
 3541SOL     OW11521   2.738   2.524   5.763
 3541SOL    HW111522   2.827   2.567   5.744
 3541SOL    HW211523   2.668   2.595   5.770
 3542SOL     OW11524   1.351   4.960   2.881
 3542SOL    HW111525   1.367   4.999   2.972
 3542SOL    HW211526   1.415   5.001   2.816
 3543SOL     OW11527   6.278   2.656   3.444
 3543SOL    HW111528   6.264   2.591   3.370
 3543SOL    HW211529   6.193   2.705   3.461
 3544SOL     OW11530   2.116   4.264   6.550
 3544SOL    HW111531   2.083   4.211   6.472
 3544SOL    HW211532   2.102   4.211   6.634
 3545SOL     OW11533   3.808   6.359   6.621
 3545SOL    HW111534   3.721   6.409   6.622
 3545SOL    HW211535   3.881   6.419   6.654
 3546SOL     OW11536   0.326   4.334   3.418
 3546SOL    HW111537   0.312   4.366   3.324
 3546SOL    HW211538   0.417   4.359   3.449
 3547SOL     OW11539   4.546   4.839   3.904
 3547SOL    HW111540   4.515   4.926   3.942
 3547SOL    HW211541   4.637   4.817   3.940
 3548SOL     OW11542   5.025   1.652   5.963
 3548SOL    HW111543   5.094   1.594   6.007
 3548SOL    HW211544   5.060   1.683   5.874
 3549SOL     OW11545   6.692   4.670   4.702
 3549SOL    HW111546   6.663   4.761   4.730
 3549SOL    HW211547   6.756   4.677   4.626
 3550SOL     OW11548   4.952   2.919   2.541
 3550SOL    HW111549   4.878   2.865   2.502
 3550SOL    HW211550   4.983   2.877   2.627
 3551SOL     OW11551   3.708   6.130   3.117
 3551SOL    HW111552   3.652   6.071   3.058
 3551SOL    HW211553   3.656   6.212   3.140
 3552SOL     OW11554   4.658   6.189   2.523
 3552SOL    HW111555   4.700   6.208   2.434
 3552SOL    HW211556   4.577   6.246   2.535
 3553SOL     OW11557   5.870   3.174   1.282
 3553SOL    HW111558   5.930   3.242   1.324
 3553SOL    HW211559   5.809   3.219   1.217
 3554SOL     OW11560   3.565   3.245   0.634
 3554SOL    HW111561   3.466   3.241   0.646
 3554SOL    HW211562   3.588   3.318   0.569
 3555SOL     OW11563   0.718   3.103   2.805
 3555SOL    HW111564   0.713   3.167   2.881
 3555SOL    HW211565   0.678   3.144   2.723
 3556SOL     OW11566   3.717   0.528   5.307
 3556SOL    HW111567   3.787   0.466   5.271
 3556SOL    HW211568   3.695   0.596   5.237
 3557SOL     OW11569   0.698   0.458   4.061
 3557SOL    HW111570   0.750   0.515   4.124
 3557SOL    HW211571   0.727   0.363   4.070
 3558SOL     OW11572   0.123   5.876   1.752
 3558SOL    HW111573   0.169   5.794   1.718
 3558SOL    HW211574   0.190   5.941   1.788
 3559SOL     OW11575   0.529   6.906   4.585
 3559SOL    HW111576   0.566   6.819   4.552
 3559SOL    HW211577   0.431   6.911   4.564
 3560SOL     OW11578   1.675   5.826   1.174
 3560SOL    HW111579   1.770   5.856   1.185
 3560SOL    HW211580   1.672   5.750   1.110
 3561SOL     OW11581   5.212   5.156   5.604
 3561SOL    HW111582   5.202   5.251   5.636
 3561SOL    HW211583   5.246   5.156   5.510
 3562SOL     OW11584   4.604   0.690   4.437
 3562SOL    HW111585   4.618   0.698   4.535
 3562SOL    HW211586   4.537   0.619   4.418
 3563SOL     OW11587   5.159   1.107   1.836
 3563SOL    HW111588   5.100   1.170   1.786
 3563SOL    HW211589   5.172   1.140   1.929
 3564SOL     OW11590   1.552   4.384   4.003
 3564SOL    HW111591   1.645   4.374   3.969
 3564SOL    HW211592   1.491   4.323   3.953
 3565SOL     OW11593   3.433   6.625   4.933
 3565SOL    HW111594   3.406   6.532   4.908
 3565SOL    HW211595   3.531   6.626   4.955
 3566SOL     OW11596   0.220   3.196   5.949
 3566SOL    HW111597   0.263   3.140   6.019
 3566SOL    HW211598   0.169   3.137   5.886
 3567SOL     OW11599   1.584   2.107   0.497
 3567SOL    HW111600   1.603   2.203   0.514
 3567SOL    HW211601   1.663   2.065   0.453
 3568SOL     OW11602   5.377   5.226   2.783
 3568SOL    HW111603   5.425   5.214   2.696
 3568SOL    HW211604   5.286   5.264   2.765
 3569SOL     OW11605   2.931   3.053   5.236
 3569SOL    HW111606   2.962   2.970   5.283
 3569SOL    HW211607   2.959   3.049   5.140
 3570SOL     OW11608   5.566   0.900   5.450
 3570SOL    HW111609   5.543   0.865   5.359
 3570SOL    HW211610   5.481   0.915   5.501
 3571SOL     OW11611   1.596   0.760   4.930
 3571SOL    HW111612   1.631   0.794   4.843
 3571SOL    HW211613   1.546   0.675   4.915
 3572SOL     OW11614   5.162   3.874   2.332
 3572SOL    HW111615   5.186   3.824   2.249
 3572SOL    HW211616   5.064   3.893   2.333
 3573SOL     OW11617   0.000   4.551   2.501
 3573SOL    HW111618   0.040   4.592   2.419
 3573SOL    HW211619   6.983   4.464   2.477
 3574SOL     OW11620   2.331   3.155   6.482
 3574SOL    HW111621   2.326   3.254   6.490
 3574SOL    HW211622   2.318   3.128   6.387
 3575SOL     OW11623   4.988   5.638   0.912
 3575SOL    HW111624   5.060   5.672   0.851
 3575SOL    HW211625   5.027   5.616   1.001
 3576SOL     OW11626   0.373   2.577   0.101
 3576SOL    HW111627   0.325   2.587   0.189
 3576SOL    HW211628   0.306   2.576   0.027
 3577SOL     OW11629   2.360   3.276   5.512
 3577SOL    HW111630   2.429   3.285   5.584
 3577SOL    HW211631   2.365   3.185   5.472
 3578SOL     OW11632   3.887   3.336   1.225
 3578SOL    HW111633   3.819   3.322   1.297
 3578SOL    HW211634   3.971   3.287   1.250
 3579SOL     OW11635   0.390   3.008   2.865
 3579SOL    HW111636   0.480   2.985   2.829
 3579SOL    HW211637   0.331   3.038   2.790
 3580SOL     OW11638   0.196   3.487   1.429
 3580SOL    HW111639   0.284   3.450   1.402
 3580SOL    HW211640   0.209   3.553   1.503
 3581SOL     OW11641   0.903   6.688   3.309
 3581SOL    HW111642   0.854   6.601   3.317
 3581SOL    HW211643   0.954   6.690   3.223
 3582SOL     OW11644   3.337   5.085   5.900
 3582SOL    HW111645   3.285   5.062   5.818
 3582SOL    HW211646   3.347   5.004   5.958
 3583SOL     OW11647   0.445   4.026   0.775
 3583SOL    HW111648   0.431   4.072   0.862
 3583SOL    HW211649   0.470   3.931   0.791
 3584SOL     OW11650   6.152   4.382   5.663
 3584SOL    HW111651   6.120   4.381   5.569
 3584SOL    HW211652   6.209   4.302   5.680
 3585SOL     OW11653   3.016   2.028   4.900
 3585SOL    HW111654   3.110   2.044   4.870
 3585SOL    HW211655   3.003   2.070   4.991
 3586SOL     OW11656   6.326   2.927   4.168
 3586SOL    HW111657   6.227   2.914   4.179
 3586SOL    HW211658   6.342   2.993   4.094
 3587SOL     OW11659   3.674   6.077   6.713
 3587SOL    HW111660   3.733   6.040   6.785
 3587SOL    HW211661   3.653   6.004   6.648
 3588SOL     OW11662   6.404   4.521   3.866
 3588SOL    HW111663   6.489   4.565   3.892
 3588SOL    HW211664   6.372   4.557   3.778
 3589SOL     OW11665   0.007   0.105   5.898
 3589SOL    HW111666   0.081   0.127   5.960
 3589SOL    HW211667   6.946   0.133   5.939
 3590SOL     OW11668   0.267   4.206   0.624
 3590SOL    HW111669   0.356   4.174   0.657
 3590SOL    HW211670   0.279   4.255   0.538
 3591SOL     OW11671   6.077   2.344   0.345
 3591SOL    HW111672   6.055   2.251   0.314
 3591SOL    HW211673   6.104   2.399   0.266
 3592SOL     OW11674   1.096   0.483   2.319
 3592SOL    HW111675   1.037   0.537   2.258
 3592SOL    HW211676   1.111   0.534   2.403
 3593SOL     OW11677   0.341   4.821   5.626
 3593SOL    HW111678   0.271   4.756   5.596
 3593SOL    HW211679   0.317   4.913   5.597
 3594SOL     OW11680   4.234   6.060   5.234
 3594SOL    HW111681   4.182   6.144   5.248
 3594SOL    HW211682   4.297   6.072   5.158
 3595SOL     OW11683   6.346   6.147   0.046
 3595SOL    HW111684   6.309   6.238   0.061
 3595SOL    HW211685   6.324   6.088   0.124
 3596SOL     OW11686   4.638   2.005   2.978
 3596SOL    HW111687   4.558   2.013   2.919
 3596SOL    HW211688   4.640   2.083   3.041
 3597SOL     OW11689   2.125   3.386   5.505
 3597SOL    HW111690   2.219   3.354   5.514
 3597SOL    HW211691   2.071   3.317   5.456
 3598SOL     OW11692   1.745   6.581   5.689
 3598SOL    HW111693   1.655   6.616   5.717
 3598SOL    HW211694   1.734   6.490   5.648
 3599SOL     OW11695   4.675   1.573   6.382
 3599SOL    HW111696   4.676   1.486   6.333
 3599SOL    HW211697   4.596   1.575   6.444
 3600SOL     OW11698   2.215   3.110   0.856
 3600SOL    HW111699   2.287   3.159   0.905
 3600SOL    HW211700   2.130   3.162   0.862
 3601SOL     OW11701   4.826   1.086   5.685
 3601SOL    HW111702   4.885   1.154   5.728
 3601SOL    HW211703   4.829   1.001   5.739
 3602SOL     OW11704   1.991   2.673   1.530
 3602SOL    HW111705   1.950   2.582   1.534
 3602SOL    HW211706   2.037   2.692   1.617
 3603SOL     OW11707   3.113   1.041   6.537
 3603SOL    HW111708   3.160   1.062   6.451
 3603SOL    HW211709   3.076   1.125   6.576
 3604SOL     OW11710   6.828   0.783   3.411
 3604SOL    HW111711   6.916   0.750   3.446
 3604SOL    HW211712   6.776   0.707   3.372
 3605SOL     OW11713   1.359   5.321   3.760
 3605SOL    HW111714   1.442   5.378   3.762
 3605SOL    HW211715   1.284   5.370   3.804
 3606SOL     OW11716   1.606   6.229   1.177
 3606SOL    HW111717   1.547   6.154   1.209
 3606SOL    HW211718   1.629   6.288   1.255
 3607SOL     OW11719   5.490   2.688   2.267
 3607SOL    HW111720   5.521   2.655   2.356
 3607SOL    HW211721   5.414   2.752   2.279
 3608SOL     OW11722   5.090   2.020   3.953
 3608SOL    HW111723   5.072   2.006   4.050
 3608SOL    HW211724   5.036   1.955   3.899
 3609SOL     OW11725   2.303   6.197   4.431
 3609SOL    HW111726   2.236   6.213   4.503
 3609SOL    HW211727   2.327   6.285   4.389
 3610SOL     OW11728   1.830   0.219   5.472
 3610SOL    HW111729   1.732   0.234   5.455
 3610SOL    HW211730   1.882   0.297   5.438
 3611SOL     OW11731   4.617   4.386   4.558
 3611SOL    HW111732   4.701   4.438   4.547
 3611SOL    HW211733   4.541   4.437   4.517
 3612SOL     OW11734   6.617   1.454   6.527
 3612SOL    HW111735   6.654   1.481   6.616
 3612SOL    HW211736   6.523   1.423   6.538
 3613SOL     OW11737   4.189   5.485   1.566
 3613SOL    HW111738   4.147   5.462   1.479
 3613SOL    HW211739   4.211   5.400   1.616
 3614SOL     OW11740   3.676   3.851   0.006
 3614SOL    HW111741   3.752   3.889   0.059
 3614SOL    HW211742   3.687   3.876   6.936
 3615SOL     OW11743   5.813   3.043   5.857
 3615SOL    HW111744   5.720   3.068   5.831
 3615SOL    HW211745   5.877   3.075   5.787
 3616SOL     OW11746   1.973   2.052   6.329
 3616SOL    HW111747   2.018   2.141   6.332
 3616SOL    HW211748   2.041   1.981   6.307
 3617SOL     OW11749   4.266   6.655   5.936
 3617SOL    HW111750   4.352   6.675   5.889
 3617SOL    HW211751   4.218   6.741   5.956
 3618SOL     OW11752   2.040   3.623   4.904
 3618SOL    HW111753   1.950   3.616   4.862
 3618SOL    HW211754   2.054   3.716   4.938
 3619SOL     OW11755   5.799   3.103   0.641
 3619SOL    HW111756   5.813   3.030   0.574
 3619SOL    HW211757   5.856   3.086   0.721
 3620SOL     OW11758   6.014   6.044   4.560
 3620SOL    HW111759   6.057   6.124   4.600
 3620SOL    HW211760   6.030   6.044   4.461
 3621SOL     OW11761   3.509   3.140   3.915
 3621SOL    HW111762   3.511   3.060   3.855
 3621SOL    HW211763   3.451   3.120   3.994
 3622SOL     OW11764   0.635   0.671   1.310
 3622SOL    HW111765   0.695   0.630   1.241
 3622SOL    HW211766   0.649   0.626   1.398
 3623SOL     OW11767   0.654   5.601   6.454
 3623SOL    HW111768   0.583   5.654   6.501
 3623SOL    HW211769   0.625   5.584   6.360
 3624SOL     OW11770   2.381   0.597   1.699
 3624SOL    HW111771   2.309   0.654   1.739
 3624SOL    HW211772   2.376   0.602   1.600
 3625SOL     OW11773   6.584   2.726   6.683
 3625SOL    HW111774   6.582   2.820   6.650
 3625SOL    HW211775   6.633   2.669   6.617
 3626SOL     OW11776   7.016   3.848   4.166
 3626SOL    HW111777   0.037   3.880   4.248
 3626SOL    HW211778   0.038   3.768   4.129
 3627SOL     OW11779   4.583   2.914   1.248
 3627SOL    HW111780   4.578   2.845   1.321
 3627SOL    HW211781   4.510   2.981   1.261
 3628SOL     OW11782   1.391   1.867   1.802
 3628SOL    HW111783   1.472   1.827   1.760
 3628SOL    HW211784   1.312   1.807   1.787
 3629SOL     OW11785   1.077   1.223   3.749
 3629SOL    HW111786   0.982   1.252   3.733
 3629SOL    HW211787   1.082   1.174   3.836
 3630SOL     OW11788   6.870   2.587   2.800
 3630SOL    HW111789   6.853   2.630   2.889
 3630SOL    HW211790   6.784   2.577   2.751
 3631SOL     OW11791   1.699   7.002   3.135
 3631SOL    HW111792   1.767   0.024   3.190
 3631SOL    HW211793   1.626   0.040   3.110
 3632SOL     OW11794   4.236   3.617   0.658
 3632SOL    HW111795   4.250   3.561   0.740
 3632SOL    HW211796   4.265   3.710   0.676
 3633SOL     OW11797   3.286   2.518   5.787
 3633SOL    HW111798   3.232   2.575   5.725
 3633SOL    HW211799   3.371   2.565   5.810
 3634SOL     OW11800   2.856   6.077   5.776
 3634SOL    HW111801   2.806   6.159   5.807
 3634SOL    HW211802   2.838   6.062   5.679
 3635SOL     OW11803   2.785   1.040   1.767
 3635SOL    HW111804   2.763   0.942   1.762
 3635SOL    HW211805   2.775   1.072   1.861
 3636SOL     OW11806   6.839   5.494   0.971
 3636SOL    HW111807   6.860   5.591   0.984
 3636SOL    HW211808   6.850   5.446   1.059
 3637SOL     OW11809   0.881   2.973   6.389
 3637SOL    HW111810   0.801   3.024   6.357
 3637SOL    HW211811   0.879   2.880   6.351
 3638SOL     OW11812   6.239   4.173   3.054
 3638SOL    HW111813   6.306   4.116   3.006
 3638SOL    HW211814   6.181   4.219   2.986
 3639SOL     OW11815   3.838   4.133   5.039
 3639SOL    HW111816   3.825   4.042   5.077
 3639SOL    HW211817   3.892   4.188   5.102
 3640SOL     OW11818   5.604   2.452   0.219
 3640SOL    HW111819   5.685   2.481   0.269
 3640SOL    HW211820   5.554   2.383   0.272
 3641SOL     OW11821   6.105   4.232   0.857
 3641SOL    HW111822   6.163   4.151   0.871
 3641SOL    HW211823   6.049   4.220   0.775
 3642SOL     OW11824   5.824   2.075   6.624
 3642SOL    HW111825   5.904   2.016   6.635
 3642SOL    HW211826   5.841   2.163   6.669
 3643SOL     OW11827   4.666   6.149   6.093
 3643SOL    HW111828   4.639   6.102   6.177
 3643SOL    HW211829   4.596   6.216   6.068
 3644SOL     OW11830   2.874   0.611   2.201
 3644SOL    HW111831   2.954   0.617   2.140
 3644SOL    HW211832   2.905   0.612   2.296
 3645SOL     OW11833   1.588   4.037   4.521
 3645SOL    HW111834   1.604   3.942   4.493
 3645SOL    HW211835   1.578   4.095   4.440
 3646SOL     OW11836   2.726   4.689   4.681
 3646SOL    HW111837   2.721   4.717   4.585
 3646SOL    HW211838   2.721   4.589   4.686
 3647SOL     OW11839   1.691   6.579   0.104
 3647SOL    HW111840   1.688   6.663   0.050
 3647SOL    HW211841   1.712   6.502   0.045
 3648SOL     OW11842   5.329   5.469   3.559
 3648SOL    HW111843   5.336   5.495   3.462
 3648SOL    HW211844   5.244   5.420   3.574
 3649SOL     OW11845   5.828   3.312   6.785
 3649SOL    HW111846   5.805   3.320   6.688
 3649SOL    HW211847   5.788   3.229   6.823
 3650SOL     OW11848   4.850   4.544   1.236
 3650SOL    HW111849   4.805   4.520   1.322
 3650SOL    HW211850   4.844   4.467   1.173
 3651SOL     OW11851   1.644   2.563   5.735
 3651SOL    HW111852   1.629   2.518   5.647
 3651SOL    HW211853   1.731   2.613   5.733
 3652SOL     OW11854   5.377   0.767   2.323
 3652SOL    HW111855   5.460   0.806   2.362
 3652SOL    HW211856   5.395   0.736   2.229
 3653SOL     OW11857   1.681   1.209   2.385
 3653SOL    HW111858   1.616   1.274   2.423
 3653SOL    HW211859   1.698   1.230   2.289
 3654SOL     OW11860   5.192   6.568   1.075
 3654SOL    HW111861   5.198   6.473   1.043
 3654SOL    HW211862   5.115   6.613   1.031
 3655SOL     OW11863   2.559   1.257   4.040
 3655SOL    HW111864   2.517   1.245   3.950
 3655SOL    HW211865   2.487   1.260   4.109
 3656SOL     OW11866   0.886   5.524   2.020
 3656SOL    HW111867   0.975   5.547   2.060
 3656SOL    HW211868   0.867   5.427   2.032
 3657SOL     OW11869   5.121   6.514   5.435
 3657SOL    HW111870   5.217   6.492   5.415
 3657SOL    HW211871   5.109   6.613   5.435
 3658SOL     OW11872   1.091   5.289   6.464
 3658SOL    HW111873   1.173   5.334   6.498
 3658SOL    HW211874   1.010   5.327   6.511
 3659SOL     OW11875   6.966   2.136   6.168
 3659SOL    HW111876   0.016   2.085   6.208
 3659SOL    HW211877   6.884   2.078   6.168
 3660SOL     OW11878   5.216   5.468   5.613
 3660SOL    HW111879   5.232   5.505   5.521
 3660SOL    HW211880   5.136   5.511   5.653
 3661SOL     OW11881   6.950   1.525   5.036
 3661SOL    HW111882   6.981   1.498   4.945
 3661SOL    HW211883   7.025   1.571   5.084
 3662SOL     OW11884   3.682   0.889   5.802
 3662SOL    HW111885   3.602   0.863   5.749
 3662SOL    HW211886   3.669   0.980   5.841
 3663SOL     OW11887   2.559   3.300   0.000
 3663SOL    HW111888   2.555   3.203   0.021
 3663SOL    HW211889   2.485   3.324   6.963
 3664SOL     OW11890   4.342   1.553   2.082
 3664SOL    HW111891   4.431   1.580   2.121
 3664SOL    HW211892   4.283   1.517   2.154
 3665SOL     OW11893   0.311   6.740   5.751
 3665SOL    HW111894   0.342   6.720   5.844
 3665SOL    HW211895   0.212   6.727   5.746
 3666SOL     OW11896   1.453   2.542   4.147
 3666SOL    HW111897   1.417   2.581   4.232
 3666SOL    HW211898   1.386   2.554   4.074
 3667SOL     OW11899   1.735   1.642   2.389
 3667SOL    HW111900   1.726   1.708   2.464
 3667SOL    HW211901   1.646   1.601   2.370
 3668SOL     OW11902   1.043   0.131   1.668
 3668SOL    HW111903   1.132   0.174   1.684
 3668SOL    HW211904   1.033   0.052   1.728
 3669SOL     OW11905   6.546   2.518   3.990
 3669SOL    HW111906   6.538   2.589   4.060
 3669SOL    HW211907   6.600   2.553   3.914
 3670SOL     OW11908   3.354   5.119   1.219
 3670SOL    HW111909   3.438   5.120   1.272
 3670SOL    HW211910   3.299   5.200   1.241
 3671SOL     OW11911   6.911   0.381   3.733
 3671SOL    HW111912   6.953   0.467   3.703
 3671SOL    HW211913   6.958   0.346   3.814
 3672SOL     OW11914   4.877   0.925   2.981
 3672SOL    HW111915   4.910   0.975   3.061
 3672SOL    HW211916   4.954   0.901   2.922
 3673SOL     OW11917   4.908   5.785   0.554
 3673SOL    HW111918   4.875   5.879   0.548
 3673SOL    HW211919   4.902   5.742   0.464
 3674SOL     OW11920   1.553   5.836   5.677
 3674SOL    HW111921   1.607   5.917   5.698
 3674SOL    HW211922   1.456   5.855   5.693
 3675SOL     OW11923   0.159   1.759   3.944
 3675SOL    HW111924   0.173   1.791   3.850
 3675SOL    HW211925   0.063   1.770   3.969
 3676SOL     OW11926   4.859   2.588   2.909
 3676SOL    HW111927   4.867   2.656   2.982
 3676SOL    HW211928   4.950   2.569   2.871
 3677SOL     OW11929   2.127   0.692   4.073
 3677SOL    HW111930   2.226   0.683   4.082
 3677SOL    HW211931   2.105   0.758   4.002
 3678SOL     OW11932   1.540   0.490   3.769
 3678SOL    HW111933   1.591   0.489   3.855
 3678SOL    HW211934   1.456   0.436   3.779
 3679SOL     OW11935   4.797   0.571   2.882
 3679SOL    HW111936   4.726   0.632   2.849
 3679SOL    HW211937   4.791   0.564   2.982
 3680SOL     OW11938   4.606   1.592   3.469
 3680SOL    HW111939   4.625   1.596   3.371
 3680SOL    HW211940   4.682   1.631   3.520
 3681SOL     OW11941   1.332   0.631   4.686
 3681SOL    HW111942   1.264   0.559   4.672
 3681SOL    HW211943   1.286   0.713   4.721
 3682SOL     OW11944   5.817   2.189   0.927
 3682SOL    HW111945   5.817   2.173   1.026
 3682SOL    HW211946   5.910   2.180   0.892
 3683SOL     OW11947   6.870   0.841   5.143
 3683SOL    HW111948   6.895   0.745   5.155
 3683SOL    HW211949   6.818   0.852   5.058
 3684SOL     OW11950   1.766   6.906   5.525
 3684SOL    HW111951   1.770   7.005   5.533
 3684SOL    HW211952   1.858   6.868   5.530
 3685SOL     OW11953   2.367   6.089   5.705
 3685SOL    HW111954   2.393   6.014   5.644
 3685SOL    HW211955   2.275   6.073   5.741
 3686SOL     OW11956   6.766   3.793   3.324
 3686SOL    HW111957   6.700   3.843   3.269
 3686SOL    HW211958   6.779   3.702   3.285
 3687SOL     OW11959   4.434   6.056   3.383
 3687SOL    HW111960   4.487   5.983   3.340
 3687SOL    HW211961   4.377   6.101   3.314
 3688SOL     OW11962   5.759   2.725   0.145
 3688SOL    HW111963   5.660   2.739   0.135
 3688SOL    HW211964   5.776   2.643   0.200
 3689SOL     OW11965   1.853   1.091   5.415
 3689SOL    HW111966   1.910   1.069   5.336
 3689SOL    HW211967   1.759   1.104   5.386
 3690SOL     OW11968   5.291   5.054   0.904
 3690SOL    HW111969   5.345   5.108   0.968
 3690SOL    HW211970   5.266   4.967   0.946
 3691SOL     OW11971   2.796   1.427   0.030
 3691SOL    HW111972   2.851   1.473   6.985
 3691SOL    HW211973   2.701   1.421   7.025
 3692SOL     OW11974   0.599   3.666   6.301
 3692SOL    HW111975   0.500   3.656   6.303
 3692SOL    HW211976   0.642   3.578   6.323
 3693SOL     OW11977   0.957   1.937   2.586
 3693SOL    HW111978   1.053   1.910   2.592
 3693SOL    HW211979   0.942   1.989   2.502
 3694SOL     OW11980   0.691   0.605   1.832
 3694SOL    HW111981   0.631   0.636   1.905
 3694SOL    HW211982   0.744   0.526   1.863
 3695SOL     OW11983   6.551   2.449   2.790
 3695SOL    HW111984   6.521   2.428   2.697
 3695SOL    HW211985   6.523   2.542   2.813
 3696SOL     OW11986   4.848   0.743   5.002
 3696SOL    HW111987   4.946   0.729   4.986
 3696SOL    HW211988   4.804   0.654   5.014
 3697SOL     OW11989   6.320   6.045   3.594
 3697SOL    HW111990   6.418   6.033   3.578
 3697SOL    HW211991   6.298   6.143   3.597
 3698SOL     OW11992   1.966   0.379   2.933
 3698SOL    HW111993   1.992   0.286   2.909
 3698SOL    HW211994   1.935   0.382   3.028
 3699SOL     OW11995   2.620   2.116   4.138
 3699SOL    HW111996   2.642   2.061   4.057
 3699SOL    HW211997   2.651   2.210   4.124
 3700SOL     OW11998   1.328   5.223   4.768
 3700SOL    HW111999   1.419   5.190   4.793
 3700SOL    HW212000   1.336   5.299   4.704
 3701SOL     OW12001   1.086   6.684   3.055
 3701SOL    HW112002   1.164   6.745   3.037
 3701SOL    HW212003   1.111   6.617   3.125
 3702SOL     OW12004   5.125   4.889   3.580
 3702SOL    HW112005   5.208   4.920   3.627
 3702SOL    HW212006   5.073   4.828   3.640
 3703SOL     OW12007   1.561   1.829   5.731
 3703SOL    HW112008   1.606   1.741   5.741
 3703SOL    HW212009   1.465   1.815   5.704
 3704SOL     OW12010   6.487   2.576   1.343
 3704SOL    HW112011   6.404   2.616   1.383
 3704SOL    HW212012   6.550   2.650   1.320
 3705SOL     OW12013   4.800   4.676   3.688
 3705SOL    HW112014   4.872   4.612   3.662
 3705SOL    HW212015   4.714   4.626   3.700
 3706SOL     OW12016   0.942   3.729   0.492
 3706SOL    HW112017   0.961   3.672   0.412
 3706SOL    HW212018   0.903   3.816   0.463
 3707SOL     OW12019   2.465   4.798   3.678
 3707SOL    HW112020   2.523   4.716   3.674
 3707SOL    HW212021   2.449   4.833   3.586
 3708SOL     OW12022   3.684   6.893   1.135
 3708SOL    HW112023   3.703   6.833   1.057
 3708SOL    HW212024   3.701   6.988   1.109
 3709SOL     OW12025   1.825   0.357   2.248
 3709SOL    HW112026   1.774   0.272   2.262
 3709SOL    HW212027   1.768   0.422   2.198
 3710SOL     OW12028   0.246   5.308   5.305
 3710SOL    HW112029   0.324   5.254   5.336
 3710SOL    HW212030   0.218   5.370   5.379
 3711SOL     OW12031   1.917   6.068   4.726
 3711SOL    HW112032   1.977   5.992   4.703
 3711SOL    HW212033   1.880   6.107   4.642
 3712SOL     OW12034   1.959   5.722   5.175
 3712SOL    HW112035   2.046   5.675   5.163
 3712SOL    HW212036   1.919   5.742   5.086
 3713SOL     OW12037   6.768   6.756   5.247
 3713SOL    HW112038   6.714   6.718   5.322
 3713SOL    HW212039   6.743   6.852   5.234
 3714SOL     OW12040   1.236   5.008   0.415
 3714SOL    HW112041   1.269   5.089   0.463
 3714SOL    HW212042   1.225   5.030   0.318
 3715SOL     OW12043   6.948   5.927   3.096
 3715SOL    HW112044   6.973   5.830   3.094
 3715SOL    HW212045   6.926   5.954   3.189
 3716SOL     OW12046   5.439   5.696   4.078
 3716SOL    HW112047   5.510   5.634   4.044
 3716SOL    HW212048   5.414   5.761   4.007
 3717SOL     OW12049   4.625   1.346   1.288
 3717SOL    HW112050   4.612   1.428   1.344
 3717SOL    HW212051   4.610   1.264   1.344
 3718SOL     OW12052   0.142   6.662   6.638
 3718SOL    HW112053   0.118   6.655   6.542
 3718SOL    HW212054   0.079   6.608   6.693
 3719SOL     OW12055   4.620   3.848   6.642
 3719SOL    HW112056   4.713   3.813   6.652
 3719SOL    HW212057   4.564   3.780   6.594
 3720SOL     OW12058   6.726   3.347   0.882
 3720SOL    HW112059   6.769   3.361   0.970
 3720SOL    HW212060   6.722   3.249   0.862
 3721SOL     OW12061   6.619   4.636   6.793
 3721SOL    HW112062   6.676   4.691   6.854
 3721SOL    HW212063   6.673   4.609   6.713
 3722SOL     OW12064   3.826   0.085   2.594
 3722SOL    HW112065   3.870   0.164   2.636
 3722SOL    HW212066   3.741   0.112   2.551
 3723SOL     OW12067   4.105   5.423   0.179
 3723SOL    HW112068   4.151   5.492   0.236
 3723SOL    HW212069   4.096   5.458   0.086
 3724SOL     OW12070   1.575   5.177   4.872
 3724SOL    HW112071   1.609   5.083   4.872
 3724SOL    HW212072   1.598   5.220   4.959
 3725SOL     OW12073   0.197   6.592   0.196
 3725SOL    HW112074   0.120   6.601   0.258
 3725SOL    HW212075   0.201   6.498   0.161
 3726SOL     OW12076   5.706   3.737   3.763
 3726SOL    HW112077   5.713   3.637   3.765
 3726SOL    HW212078   5.613   3.763   3.737
 3727SOL     OW12079   7.019   2.799   4.024
 3727SOL    HW112080   7.016   2.772   4.120
 3727SOL    HW212081   0.075   2.855   4.008
 3728SOL     OW12082   2.972   3.861   0.060
 3728SOL    HW112083   2.984   3.798   0.137
 3728SOL    HW212084   3.030   3.832   7.010
 3729SOL     OW12085   0.719   0.103   5.475
 3729SOL    HW112086   0.673   0.026   5.431
 3729SOL    HW212087   0.816   0.103   5.449
 3730SOL     OW12088   4.375   6.202   5.912
 3730SOL    HW112089   4.400   6.141   5.837
 3730SOL    HW212090   4.317   6.276   5.876
 3731SOL     OW12091   0.146   1.986   6.310
 3731SOL    HW112092   0.117   2.037   6.391
 3731SOL    HW212093   0.237   2.017   6.282
 3732SOL     OW12094   2.652   1.785   0.047
 3732SOL    HW112095   2.621   1.868   0.001
 3732SOL    HW212096   2.671   1.805   0.143
 3733SOL     OW12097   1.891   2.680   3.692
 3733SOL    HW112098   1.808   2.701   3.744
 3733SOL    HW212099   1.866   2.628   3.610
 3734SOL     OW12100   3.982   6.968   1.671
 3734SOL    HW112101   3.909   6.968   1.740
 3734SOL    HW212102   3.945   6.938   1.583
 3735SOL     OW12103   4.312   0.096   2.543
 3735SOL    HW112104   4.213   0.084   2.543
 3735SOL    HW212105   4.356   0.006   2.547
 3736SOL     OW12106   6.675   1.191   1.551
 3736SOL    HW112107   6.729   1.253   1.608
 3736SOL    HW212108   6.665   1.103   1.599
 3737SOL     OW12109   0.346   2.370   3.488
 3737SOL    HW112110   0.306   2.410   3.406
 3737SOL    HW212111   0.390   2.441   3.543
 3738SOL     OW12112   6.798   6.358   0.490
 3738SOL    HW112113   6.880   6.398   0.449
 3738SOL    HW212114   6.754   6.426   0.549
 3739SOL     OW12115   2.888   4.585   1.344
 3739SOL    HW112116   2.864   4.682   1.342
 3739SOL    HW212117   2.874   4.549   1.436
 3740SOL     OW12118   5.483   5.538   6.910
 3740SOL    HW112119   5.455   5.467   6.846
 3740SOL    HW212120   5.432   5.622   6.891
 3741SOL     OW12121   5.436   2.285   0.363
 3741SOL    HW112122   5.350   2.235   0.350
 3741SOL    HW212123   5.508   2.220   0.387
 3742SOL     OW12124   4.250   5.614   0.305
 3742SOL    HW112125   4.275   5.701   0.262
 3742SOL    HW212126   4.265   5.620   0.404
 3743SOL     OW12127   4.015   3.577   1.360
 3743SOL    HW112128   4.056   3.621   1.440
 3743SOL    HW212129   4.041   3.481   1.357
 3744SOL     OW12130   0.847   6.119   2.147
 3744SOL    HW112131   0.761   6.090   2.104
 3744SOL    HW212132   0.905   6.039   2.164
 3745SOL     OW12133   4.859   3.805   2.456
 3745SOL    HW112134   4.926   3.755   2.510
 3745SOL    HW212135   4.843   3.757   2.370
 3746SOL     OW12136   6.458   0.399   3.522
 3746SOL    HW112137   6.534   0.378   3.582
 3746SOL    HW212138   6.422   0.315   3.482
 3747SOL     OW12139   4.677   6.620   6.563
 3747SOL    HW112140   4.767   6.577   6.554
 3747SOL    HW212141   4.650   6.618   6.660
 3748SOL     OW12142   5.256   1.269   2.873
 3748SOL    HW112143   5.171   1.230   2.907
 3748SOL    HW212144   5.243   1.303   2.779
 3749SOL     OW12145   0.715   5.222   2.770
 3749SOL    HW112146   0.651   5.214   2.846
 3749SOL    HW212147   0.775   5.301   2.784
 3750SOL     OW12148   5.709   4.129   7.013
 3750SOL    HW112149   5.808   4.122   0.003
 3750SOL    HW212150   5.661   4.059   0.040
 3751SOL     OW12151   1.804   3.211   0.901
 3751SOL    HW112152   1.813   3.127   0.954
 3751SOL    HW212153   1.820   3.290   0.960
 3752SOL     OW12154   0.421   0.025   6.628
 3752SOL    HW112155   0.519   0.025   6.605
 3752SOL    HW212156   0.406   6.995   6.710
 3753SOL     OW12157   0.220   6.383   4.467
 3753SOL    HW112158   0.269   6.450   4.413
 3753SOL    HW212159   0.237   6.399   4.564
 3754SOL     OW12160   5.730   6.691   1.029
 3754SOL    HW112161   5.631   6.691   1.039
 3754SOL    HW212162   5.759   6.772   0.978
 3755SOL     OW12163   5.194   4.628   3.502
 3755SOL    HW112164   5.249   4.660   3.579
 3755SOL    HW212165   5.199   4.694   3.427
 3756SOL     OW12166   1.907   2.318   6.149
 3756SOL    HW112167   1.973   2.359   6.211
 3756SOL    HW212168   1.892   2.379   6.071
 3757SOL     OW12169   3.009   5.920   5.928
 3757SOL    HW112170   2.952   5.976   5.867
 3757SOL    HW212171   2.972   5.827   5.932
 3758SOL     OW12172   2.642   1.157   4.744
 3758SOL    HW112173   2.741   1.152   4.731
 3758SOL    HW212174   2.600   1.071   4.717
 3759SOL     OW12175   5.040   5.065   5.810
 3759SOL    HW112176   5.055   4.966   5.815
 3759SOL    HW212177   5.095   5.104   5.736
 3760SOL     OW12178   1.364   3.175   4.232
 3760SOL    HW112179   1.440   3.120   4.198
 3760SOL    HW212180   1.395   3.229   4.311
 3761SOL     OW12181   0.862   6.484   5.118
 3761SOL    HW112182   0.864   6.438   5.029
 3761SOL    HW212183   0.772   6.525   5.132
 3762SOL     OW12184   0.559   3.894   0.278
 3762SOL    HW112185   0.529   3.802   0.251
 3762SOL    HW212186   0.547   3.906   0.376
 3763SOL     OW12187   5.954   3.402   6.222
 3763SOL    HW112188   5.869   3.349   6.216
 3763SOL    HW212189   6.012   3.381   6.143
 3764SOL     OW12190   2.514   0.224   4.266
 3764SOL    HW112191   2.418   0.222   4.293
 3764SOL    HW212192   2.557   0.307   4.302
 3765SOL     OW12193   4.848   0.714   3.880
 3765SOL    HW112194   4.757   0.704   3.920
 3765SOL    HW212195   4.862   0.808   3.850
 3766SOL     OW12196   0.581   0.917   3.885
 3766SOL    HW112197   0.666   0.911   3.937
 3766SOL    HW212198   0.554   0.825   3.855
 3767SOL     OW12199   1.313   5.083   6.689
 3767SOL    HW112200   1.393   5.138   6.665
 3767SOL    HW212201   1.310   5.001   6.632
 3768SOL     OW12202   4.308   6.541   6.878
 3768SOL    HW112203   4.251   6.539   6.960
 3768SOL    HW212204   4.265   6.485   6.807
 3769SOL     OW12205   5.592   6.144   4.730
 3769SOL    HW112206   5.593   6.074   4.658
 3769SOL    HW212207   5.683   6.185   4.738
 3770SOL     OW12208   2.000   1.688   6.093
 3770SOL    HW112209   2.090   1.715   6.059
 3770SOL    HW212210   2.011   1.624   6.169
 3771SOL     OW12211   4.811   2.406   0.587
 3771SOL    HW112212   4.831   2.309   0.596
 3771SOL    HW212213   4.887   2.460   0.625
 3772SOL     OW12214   5.853   0.915   1.468
 3772SOL    HW112215   5.837   1.012   1.452
 3772SOL    HW212216   5.932   0.885   1.414
 3773SOL     OW12217   5.705   3.166   5.522
 3773SOL    HW112218   5.652   3.222   5.458
 3773SOL    HW212219   5.646   3.138   5.599
 3774SOL     OW12220   1.121   0.450   6.676
 3774SOL    HW112221   1.138   0.437   6.774
 3774SOL    HW212222   1.208   0.448   6.626
 3775SOL     OW12223   5.357   3.748   2.957
 3775SOL    HW112224   5.290   3.745   3.031
 3775SOL    HW212225   5.325   3.693   2.880
 3776SOL     OW12226   2.228   2.671   1.395
 3776SOL    HW112227   2.260   2.576   1.395
 3776SOL    HW212228   2.138   2.675   1.439
 3777SOL     OW12229   2.965   5.165   4.619
 3777SOL    HW112230   2.871   5.135   4.638
 3777SOL    HW212231   2.999   5.219   4.696
 3778SOL     OW12232   2.971   5.834   2.643
 3778SOL    HW112233   2.997   5.923   2.607
 3778SOL    HW212234   3.033   5.809   2.718
 3779SOL     OW12235   2.476   4.325   0.050
 3779SOL    HW112236   2.567   4.291   0.027
 3779SOL    HW212237   2.457   4.309   0.146
 3780SOL     OW12238   3.203   5.478   5.228
 3780SOL    HW112239   3.219   5.554   5.291
 3780SOL    HW212240   3.288   5.427   5.214
 3781SOL     OW12241   3.401   0.126   4.341
 3781SOL    HW112242   3.468   0.115   4.267
 3781SOL    HW212243   3.442   0.096   4.427
 3782SOL     OW12244   2.338   1.613   4.321
 3782SOL    HW112245   2.319   1.619   4.419
 3782SOL    HW212246   2.300   1.527   4.285
 3783SOL     OW12247   5.802   6.200   5.087
 3783SOL    HW112248   5.809   6.235   4.993
 3783SOL    HW212249   5.709   6.217   5.122
 3784SOL     OW12250   5.717   1.090   3.420
 3784SOL    HW112251   5.619   1.110   3.423
 3784SOL    HW212252   5.744   1.046   3.506
 3785SOL     OW12253   2.507   2.252   1.005
 3785SOL    HW112254   2.552   2.303   1.078
 3785SOL    HW212255   2.505   2.308   0.922
 3786SOL     OW12256   2.778   4.755   3.518
 3786SOL    HW112257   2.751   4.838   3.470
 3786SOL    HW212258   2.861   4.771   3.570
 3787SOL     OW12259   5.170   1.352   4.273
 3787SOL    HW112260   5.145   1.411   4.350
 3787SOL    HW212261   5.160   1.402   4.187
 3788SOL     OW12262   6.393   2.911   3.618
 3788SOL    HW112263   6.478   2.965   3.623
 3788SOL    HW212264   6.415   2.814   3.628
 3789SOL     OW12265   1.315   4.478   4.329
 3789SOL    HW112266   1.347   4.453   4.238
 3789SOL    HW212267   1.387   4.528   4.378
 3790SOL     OW12268   2.128   3.509   4.643
 3790SOL    HW112269   2.053   3.445   4.659
 3790SOL    HW212270   2.164   3.540   4.731
 3791SOL     OW12271   5.363   6.755   1.358
 3791SOL    HW112272   5.362   6.674   1.299
 3791SOL    HW212273   5.306   6.737   1.439
 3792SOL     OW12274   6.312   6.837   5.182
 3792SOL    HW112275   6.239   6.820   5.248
 3792SOL    HW212276   6.365   6.754   5.168
 3793SOL     OW12277   2.163   1.278   2.254
 3793SOL    HW112278   2.078   1.293   2.304
 3793SOL    HW212279   2.183   1.357   2.197
 3794SOL     OW12280   4.083   5.860   1.458
 3794SOL    HW112281   4.025   5.922   1.512
 3794SOL    HW212282   4.146   5.812   1.519
 3795SOL     OW12283   5.447   0.649   0.074
 3795SOL    HW112284   5.529   0.702   0.095
 3795SOL    HW212285   5.367   0.697   0.109
 3796SOL     OW12286   1.281   2.102   1.383
 3796SOL    HW112287   1.295   2.196   1.413
 3796SOL    HW212288   1.208   2.098   1.315
 3797SOL     OW12289   1.048   5.287   2.163
 3797SOL    HW112290   1.127   5.258   2.109
 3797SOL    HW212291   0.966   5.243   2.130
 3798SOL     OW12292   2.449   4.812   3.052
 3798SOL    HW112293   2.487   4.904   3.055
 3798SOL    HW212294   2.515   4.747   3.089
 3799SOL     OW12295   0.904   1.186   4.966
 3799SOL    HW112296   0.884   1.128   4.887
 3799SOL    HW212297   0.863   1.276   4.953
 3800SOL     OW12298   5.108   2.172   4.707
 3800SOL    HW112299   5.046   2.175   4.629
 3800SOL    HW212300   5.096   2.254   4.763
 3801SOL     OW12301   6.638   6.576   5.409
 3801SOL    HW112302   6.689   6.607   5.489
 3801SOL    HW212303   6.689   6.503   5.363
 3802SOL     OW12304   0.862   1.748   4.814
 3802SOL    HW112305   0.829   1.696   4.734
 3802SOL    HW212306   0.906   1.832   4.783
 3803SOL     OW12307   4.224   0.078   1.708
 3803SOL    HW112308   4.132   0.044   1.689
 3803SOL    HW212309   4.227   0.177   1.693
 3804SOL     OW12310   4.219   1.937   4.466
 3804SOL    HW112311   4.122   1.916   4.464
 3804SOL    HW212312   4.234   2.026   4.422
 3805SOL     OW12313   3.068   4.282   1.729
 3805SOL    HW112314   3.017   4.348   1.784
 3805SOL    HW212315   3.039   4.289   1.633
 3806SOL     OW12316   2.975   3.068   0.059
 3806SOL    HW112317   2.905   3.020   0.005
 3806SOL    HW212318   3.065   3.029   0.037
 3807SOL     OW12319   0.897   6.980   3.914
 3807SOL    HW112320   0.967   6.954   3.848
 3807SOL    HW212321   0.814   6.927   3.897
 3808SOL     OW12322   3.030   0.355   2.143
 3808SOL    HW112323   3.083   0.286   2.093
 3808SOL    HW212324   2.947   0.376   2.092
 3809SOL     OW12325   6.312   1.703   6.693
 3809SOL    HW112326   6.400   1.676   6.733
 3809SOL    HW212327   6.291   1.797   6.720
 3810SOL     OW12328   3.323   3.098   5.344
 3810SOL    HW112329   3.302   3.060   5.255
 3810SOL    HW212330   3.242   3.096   5.402
 3811SOL     OW12331   0.625   4.624   4.288
 3811SOL    HW112332   0.654   4.611   4.383
 3811SOL    HW212333   0.615   4.722   4.270
 3812SOL     OW12334   6.282   2.027   5.809
 3812SOL    HW112335   6.247   2.043   5.717
 3812SOL    HW212336   6.213   1.978   5.863
 3813SOL     OW12337   3.366   5.582   0.625
 3813SOL    HW112338   3.382   5.488   0.598
 3813SOL    HW212339   3.302   5.625   0.562
 3814SOL     OW12340   6.264   6.134   1.602
 3814SOL    HW112341   6.363   6.129   1.607
 3814SOL    HW212342   6.226   6.154   1.692
 3815SOL     OW12343   5.475   2.243   1.400
 3815SOL    HW112344   5.383   2.271   1.371
 3815SOL    HW212345   5.485   2.257   1.498
 3816SOL     OW12346   0.197   6.541   1.918
 3816SOL    HW112347   0.218   6.465   1.856
 3816SOL    HW212348   0.203   6.627   1.868
 3817SOL     OW12349   4.408   2.380   4.261
 3817SOL    HW112350   4.459   2.352   4.342
 3817SOL    HW212351   4.469   2.425   4.196
 3818SOL     OW12352   4.014   5.764   2.857
 3818SOL    HW112353   4.002   5.673   2.818
 3818SOL    HW212354   4.078   5.816   2.801
 3819SOL     OW12355   5.226   5.440   0.679
 3819SOL    HW112356   5.146   5.389   0.646
 3819SOL    HW212357   5.233   5.430   0.778
 3820SOL     OW12358   4.414   5.882   4.837
 3820SOL    HW112359   4.328   5.866   4.887
 3820SOL    HW212360   4.398   5.948   4.764
 3821SOL     OW12361   1.855   3.839   2.026
 3821SOL    HW112362   1.822   3.748   2.053
 3821SOL    HW212363   1.879   3.892   2.107
 3822SOL     OW12364   2.365   4.978   1.670
 3822SOL    HW112365   2.358   4.902   1.735
 3822SOL    HW212366   2.441   5.037   1.697
 3823SOL     OW12367   3.679   2.260   5.782
 3823SOL    HW112368   3.667   2.346   5.732
 3823SOL    HW212369   3.775   2.249   5.808
 3824SOL     OW12370   5.980   1.927   6.257
 3824SOL    HW112371   6.063   1.962   6.215
 3824SOL    HW212372   5.978   1.954   6.353
 3825SOL     OW12373   0.289   0.282   6.680
 3825SOL    HW112374   0.347   0.359   6.706
 3825SOL    HW212375   0.343   0.198   6.677
 3826SOL     OW12376   0.078   3.695   0.697
 3826SOL    HW112377   7.005   3.705   0.689
 3826SOL    HW212378   0.108   3.618   0.641
 3827SOL     OW12379   3.529   3.885   0.537
 3827SOL    HW112380   3.621   3.875   0.499
 3827SOL    HW212381   3.528   3.958   0.605
 3828SOL     OW12382   4.515   2.570   1.836
 3828SOL    HW112383   4.428   2.602   1.798
 3828SOL    HW212384   4.585   2.639   1.818
 3829SOL     OW12385   2.006   5.255   3.616
 3829SOL    HW112386   1.982   5.286   3.524
 3829SOL    HW212387   2.088   5.197   3.610
 3830SOL     OW12388   2.347   0.036   5.207
 3830SOL    HW112389   2.311   0.104   5.143
 3830SOL    HW212390   2.280   6.990   5.222
 3831SOL     OW12391   4.169   1.954   2.403
 3831SOL    HW112392   4.073   1.951   2.376
 3831SOL    HW212393   4.220   2.013   2.340
 3832SOL     OW12394   6.494   0.844   1.581
 3832SOL    HW112395   6.511   0.902   1.501
 3832SOL    HW212396   6.421   0.780   1.561
 3833SOL     OW12397   0.627   5.001   1.105
 3833SOL    HW112398   0.591   4.997   1.198
 3833SOL    HW212399   0.654   5.095   1.084
 3834SOL     OW12400   3.123   2.019   0.874
 3834SOL    HW112401   3.151   1.924   0.892
 3834SOL    HW212402   3.031   2.034   0.909
 3835SOL     OW12403   3.790   5.741   6.084
 3835SOL    HW112404   3.886   5.763   6.099
 3835SOL    HW212405   3.734   5.788   6.152
 3836SOL     OW12406   1.416   4.196   5.908
 3836SOL    HW112407   1.319   4.209   5.929
 3836SOL    HW212408   1.472   4.251   5.970
 3837SOL     OW12409   4.881   3.894   6.961
 3837SOL    HW112410   4.807   3.961   6.956
 3837SOL    HW212411   4.910   3.883   0.030
 3838SOL     OW12412   5.883   2.230   4.193
 3838SOL    HW112413   5.902   2.315   4.242
 3838SOL    HW212414   5.805   2.184   4.235
 3839SOL     OW12415   5.783   6.979   5.573
 3839SOL    HW112416   5.757   6.954   5.480
 3839SOL    HW212417   5.875   7.018   5.572
 3840SOL     OW12418   1.900   1.199   3.915
 3840SOL    HW112419   1.863   1.213   3.823
 3840SOL    HW212420   1.848   1.126   3.961
 3841SOL     OW12421   1.165   3.566   5.163
 3841SOL    HW112422   1.238   3.518   5.212
 3841SOL    HW212423   1.104   3.610   5.229
 3842SOL     OW12424   0.709   5.404   0.257
 3842SOL    HW112425   0.620   5.363   0.240
 3842SOL    HW212426   0.698   5.498   0.289
 3843SOL     OW12427   6.237   3.241   0.452
 3843SOL    HW112428   6.304   3.293   0.504
 3843SOL    HW212429   6.279   3.205   0.369
 3844SOL     OW12430   1.888   4.818   5.745
 3844SOL    HW112431   1.957   4.851   5.809
 3844SOL    HW212432   1.877   4.884   5.671
 3845SOL     OW12433   3.380   3.605   2.898
 3845SOL    HW112434   3.328   3.550   2.833
 3845SOL    HW212435   3.434   3.545   2.957
 3846SOL     OW12436   0.241   4.290   4.382
 3846SOL    HW112437   0.290   4.376   4.364
 3846SOL    HW212438   0.146   4.300   4.354
 3847SOL     OW12439   6.808   0.401   6.212
 3847SOL    HW112440   6.802   0.338   6.134
 3847SOL    HW212441   6.822   0.349   6.296
 3848SOL     OW12442   2.958   4.850   1.593
 3848SOL    HW112443   3.023   4.922   1.567
 3848SOL    HW212444   2.924   4.866   1.685
 3849SOL     OW12445   0.890   1.948   5.964
 3849SOL    HW112446   0.927   1.987   5.880
 3849SOL    HW212447   0.947   1.872   5.993
 3850SOL     OW12448   3.230   3.832   1.786
 3850SOL    HW112449   3.203   3.925   1.814
 3850SOL    HW212450   3.326   3.817   1.808
 3851SOL     OW12451   1.929   3.123   3.117
 3851SOL    HW112452   1.959   3.089   3.206
 3851SOL    HW212453   2.008   3.143   3.060
 3852SOL     OW12454   4.234   0.680   4.616
 3852SOL    HW112455   4.148   0.723   4.640
 3852SOL    HW212456   4.302   0.697   4.688
 3853SOL     OW12457   0.876   3.681   2.635
 3853SOL    HW112458   0.925   3.759   2.672
 3853SOL    HW212459   0.900   3.668   2.539
 3854SOL     OW12460   0.839   3.602   4.472
 3854SOL    HW112461   0.766   3.654   4.427
 3854SOL    HW212462   0.849   3.633   4.566
 3855SOL     OW12463   6.032   3.503   5.649
 3855SOL    HW112464   6.118   3.536   5.609
 3855SOL    HW212465   5.958   3.566   5.627
 3856SOL     OW12466   6.694   6.726   5.747
 3856SOL    HW112467   6.683   6.796   5.676
 3856SOL    HW212468   6.655   6.640   5.716
 3857SOL     OW12469   1.168   6.581   4.710
 3857SOL    HW112470   1.233   6.640   4.759
 3857SOL    HW212471   1.121   6.523   4.776
 3858SOL     OW12472   1.889   5.844   6.340
 3858SOL    HW112473   1.887   5.933   6.386
 3858SOL    HW212474   1.888   5.771   6.409
 3859SOL     OW12475   0.126   3.162   2.763
 3859SOL    HW112476   0.165   3.254   2.766
 3859SOL    HW212477   0.027   3.168   2.777
 3860SOL     OW12478   2.382   6.687   5.426
 3860SOL    HW112479   2.338   6.646   5.347
 3860SOL    HW212480   2.476   6.712   5.403
 3861SOL     OW12481   4.557   4.563   1.340
 3861SOL    HW112482   4.534   4.642   1.398
 3861SOL    HW212483   4.569   4.482   1.398
 3862SOL     OW12484   0.885   6.025   5.712
 3862SOL    HW112485   0.812   6.054   5.774
 3862SOL    HW212486   0.889   5.925   5.710
 3863SOL     OW12487   3.211   3.698   1.548
 3863SOL    HW112488   3.146   3.626   1.570
 3863SOL    HW212489   3.214   3.765   1.623
 3864SOL     OW12490   3.233   1.979   0.152
 3864SOL    HW112491   3.315   1.926   0.129
 3864SOL    HW212492   3.152   1.920   0.146
 3865SOL     OW12493   4.560   0.339   2.368
 3865SOL    HW112494   4.638   0.275   2.370
 3865SOL    HW212495   4.526   0.354   2.461
 3866SOL     OW12496   4.017   0.181   0.487
 3866SOL    HW112497   4.085   0.119   0.447
 3866SOL    HW212498   3.933   0.130   0.505
 3867SOL     OW12499   2.077   3.420   3.388
 3867SOL    HW112500   2.107   3.361   3.463
 3867SOL    HW212501   2.126   3.397   3.305
 3868SOL     OW12502   2.433   6.778   2.663
 3868SOL    HW112503   2.453   6.847   2.593
 3868SOL    HW212504   2.334   6.759   2.663
 3869SOL     OW12505   0.735   3.129   3.239
 3869SOL    HW112506   0.697   3.217   3.210
 3869SOL    HW212507   0.773   3.138   3.331
 3870SOL     OW12508   2.872   5.249   0.550
 3870SOL    HW112509   2.945   5.290   0.604
 3870SOL    HW212510   2.798   5.315   0.539
 3871SOL     OW12511   2.689   0.179   3.612
 3871SOL    HW112512   2.698   0.243   3.536
 3871SOL    HW212513   2.768   0.189   3.673
 3872SOL     OW12514   4.270   3.526   0.916
 3872SOL    HW112515   4.350   3.513   0.975
 3872SOL    HW212516   4.188   3.535   0.973
 3873SOL     OW12517   5.795   4.409   1.714
 3873SOL    HW112518   5.872   4.471   1.703
 3873SOL    HW212519   5.799   4.337   1.644
 3874SOL     OW12520   4.426   0.532   7.025
 3874SOL    HW112521   4.327   0.517   0.001
 3874SOL    HW212522   4.459   0.525   6.931
 3875SOL     OW12523   1.318   4.631   1.239
 3875SOL    HW112524   1.277   4.581   1.315
 3875SOL    HW212525   1.268   4.610   1.155
 3876SOL     OW12526   5.046   3.756   3.686
 3876SOL    HW112527   4.986   3.676   3.686
 3876SOL    HW212528   5.130   3.735   3.637
 3877SOL     OW12529   6.259   1.251   2.350
 3877SOL    HW112530   6.178   1.244   2.293
 3877SOL    HW212531   6.248   1.326   2.415
 3878SOL     OW12532   3.893   6.517   5.808
 3878SOL    HW112533   3.858   6.452   5.874
 3878SOL    HW212534   3.900   6.608   5.851
 3879SOL     OW12535   4.233   5.559   1.982
 3879SOL    HW112536   4.295   5.481   1.988
 3879SOL    HW212537   4.280   5.642   2.012
 3880SOL     OW12538   5.210   3.381   3.297
 3880SOL    HW112539   5.163   3.382   3.209
 3880SOL    HW212540   5.152   3.335   3.365
 3881SOL     OW12541   1.105   3.809   0.799
 3881SOL    HW112542   1.173   3.739   0.819
 3881SOL    HW212543   1.059   3.787   0.713
 3882SOL     OW12544   0.060   0.758   5.485
 3882SOL    HW112545   0.140   0.770   5.544
 3882SOL    HW212546   0.043   0.842   5.434
 3883SOL     OW12547   3.785   0.503   5.741
 3883SOL    HW112548   3.784   0.551   5.829
 3883SOL    HW212549   3.790   0.570   5.667
 3884SOL     OW12550   1.572   5.592   6.200
 3884SOL    HW112551   1.546   5.599   6.104
 3884SOL    HW212552   1.506   5.534   6.248
 3885SOL     OW12553   6.993   1.272   4.053
 3885SOL    HW112554   6.952   1.349   4.004
 3885SOL    HW212555   6.954   1.268   4.145
 3886SOL     OW12556   6.387   6.648   5.504
 3886SOL    HW112557   6.362   6.634   5.600
 3886SOL    HW212558   6.471   6.598   5.483
 3887SOL     OW12559   4.204   2.162   5.641
 3887SOL    HW112560   4.249   2.206   5.564
 3887SOL    HW212561   4.154   2.081   5.609
 3888SOL     OW12562   7.014   2.245   0.930
 3888SOL    HW112563   6.914   2.246   0.924
 3888SOL    HW212564   0.025   2.173   0.870
 3889SOL     OW12565   0.943   6.379   6.355
 3889SOL    HW112566   0.913   6.430   6.274
 3889SOL    HW212567   0.873   6.384   6.426
 3890SOL     OW12568   5.595   4.123   3.150
 3890SOL    HW112569   5.593   4.042   3.090
 3890SOL    HW212570   5.511   4.175   3.139
 3891SOL     OW12571   5.322   4.956   4.823
 3891SOL    HW112572   5.398   5.019   4.841
 3891SOL    HW212573   5.356   4.862   4.821
 3892SOL     OW12574   4.964   6.942   3.046
 3892SOL    HW112575   4.916   6.854   3.052
 3892SOL    HW212576   4.924   6.997   2.972
 3893SOL     OW12577   2.986   5.971   4.027
 3893SOL    HW112578   2.974   5.975   3.928
 3893SOL    HW212579   3.073   5.925   4.049
 3894SOL     OW12580   5.137   3.959   6.816
 3894SOL    HW112581   5.043   3.941   6.847
 3894SOL    HW212582   5.196   3.973   6.894
 3895SOL     OW12583   2.996   2.252   5.622
 3895SOL    HW112584   3.095   2.252   5.634
 3895SOL    HW212585   2.971   2.322   5.555
 3896SOL     OW12586   6.179   3.000   5.532
 3896SOL    HW112587   6.171   2.907   5.498
 3896SOL    HW212588   6.146   3.004   5.626
 3897SOL     OW12589   3.773   6.929   2.097
 3897SOL    HW112590   3.712   7.008   2.086
 3897SOL    HW212591   3.854   6.956   2.150
 3898SOL     OW12592   3.631   4.183   4.399
 3898SOL    HW112593   3.615   4.262   4.338
 3898SOL    HW212594   3.574   4.191   4.480
 3899SOL     OW12595   4.182   1.451   5.157
 3899SOL    HW112596   4.108   1.452   5.225
 3899SOL    HW212597   4.218   1.358   5.150
 3900SOL     OW12598   6.842   2.638   3.344
 3900SOL    HW112599   6.794   2.609   3.427
 3900SOL    HW212600   6.866   2.735   3.351
 3901SOL     OW12601   1.498   6.358   5.650
 3901SOL    HW112602   1.508   6.397   5.559
 3901SOL    HW212603   1.444   6.273   5.645
 3902SOL     OW12604   4.303   4.926   1.568
 3902SOL    HW112605   4.206   4.924   1.591
 3902SOL    HW212606   4.314   4.925   1.469
 3903SOL     OW12607   4.129   2.563   6.678
 3903SOL    HW112608   4.150   2.467   6.699
 3903SOL    HW212609   4.049   2.592   6.731
 3904SOL     OW12610   1.160   6.677   1.101
 3904SOL    HW112611   1.175   6.587   1.060
 3904SOL    HW212612   1.113   6.665   1.189
 3905SOL     OW12613   6.576   0.282   4.880
 3905SOL    HW112614   6.633   0.352   4.836
 3905SOL    HW212615   6.621   0.252   4.965
 3906SOL     OW12616   0.925   5.567   3.760
 3906SOL    HW112617   1.011   5.587   3.713
 3906SOL    HW212618   0.881   5.490   3.715
 3907SOL     OW12619   0.438   0.903   4.547
 3907SOL    HW112620   0.435   0.811   4.508
 3907SOL    HW212621   0.407   0.899   4.642
 3908SOL     OW12622   1.501   0.778   4.549
 3908SOL    HW112623   1.444   0.733   4.618
 3908SOL    HW212624   1.573   0.830   4.595
 3909SOL     OW12625   5.778   2.420   6.547
 3909SOL    HW112626   5.851   2.451   6.607
 3909SOL    HW212627   5.698   2.395   6.602
 3910SOL     OW12628   3.437   1.789   0.105
 3910SOL    HW112629   3.400   1.718   0.165
 3910SOL    HW212630   3.516   1.832   0.150
 3911SOL     OW12631   0.143   1.506   0.721
 3911SOL    HW112632   0.165   1.506   0.624
 3911SOL    HW212633   0.204   1.443   0.770
 3912SOL     OW12634   3.658   1.986   0.300
 3912SOL    HW112635   3.755   1.999   0.319
 3912SOL    HW212636   3.610   1.964   0.385
 3913SOL     OW12637   5.531   5.028   1.161
 3913SOL    HW112638   5.615   4.996   1.117
 3913SOL    HW212639   5.491   4.953   1.213
 3914SOL     OW12640   6.603   1.707   0.141
 3914SOL    HW112641   6.644   1.616   0.149
 3914SOL    HW212642   6.504   1.698   0.134
 3915SOL     OW12643   4.813   5.512   6.808
 3915SOL    HW112644   4.827   5.419   6.843
 3915SOL    HW212645   4.808   5.510   6.708
 3916SOL     OW12646   2.386   2.050   2.183
 3916SOL    HW112647   2.405   2.036   2.086
 3916SOL    HW212648   2.296   2.013   2.206
 3917SOL     OW12649   3.357   5.173   1.643
 3917SOL    HW112650   3.446   5.136   1.615
 3917SOL    HW212651   3.354   5.180   1.743
 3918SOL     OW12652   5.172   1.016   0.817
 3918SOL    HW112653   5.109   1.090   0.792
 3918SOL    HW212654   5.245   1.011   0.749
 3919SOL     OW12655   3.312   0.251   2.303
 3919SOL    HW112656   3.345   0.282   2.214
 3919SOL    HW212657   3.322   0.325   2.370
 3920SOL     OW12658   2.979   1.427   5.699
 3920SOL    HW112659   3.053   1.428   5.767
 3920SOL    HW212660   2.913   1.498   5.721
 3921SOL     OW12661   6.707   2.910   6.156
 3921SOL    HW112662   6.721   2.823   6.204
 3921SOL    HW212663   6.772   2.918   6.081
 3922SOL     OW12664   5.448   4.241   2.584
 3922SOL    HW112665   5.405   4.162   2.542
 3922SOL    HW212666   5.411   4.254   2.676
 3923SOL     OW12667   5.151   0.869   1.394
 3923SOL    HW112668   5.131   0.826   1.483
 3923SOL    HW212669   5.228   0.822   1.351
 3924SOL     OW12670   5.543   4.842   4.011
 3924SOL    HW112671   5.522   4.896   4.093
 3924SOL    HW212672   5.515   4.893   3.930
 3925SOL     OW12673   5.037   3.989   0.435
 3925SOL    HW112674   4.944   3.978   0.470
 3925SOL    HW212675   5.098   4.017   0.509
 3926SOL     OW12676   0.529   6.512   6.303
 3926SOL    HW112677   0.576   6.424   6.303
 3926SOL    HW212678   0.442   6.504   6.253
 3927SOL     OW12679   5.798   2.322   5.788
 3927SOL    HW112680   5.715   2.370   5.816
 3927SOL    HW212681   5.783   2.224   5.792
 3928SOL     OW12682   3.243   5.625   2.147
 3928SOL    HW112683   3.147   5.644   2.169
 3928SOL    HW212684   3.299   5.641   2.228
 3929SOL     OW12685   0.043   2.205   5.014
 3929SOL    HW112686   0.092   2.187   5.099
 3929SOL    HW212687   0.045   2.123   4.956
 3930SOL     OW12688   1.279   4.800   4.143
 3930SOL    HW112689   1.361   4.784   4.197
 3930SOL    HW212690   1.241   4.712   4.113
 3931SOL     OW12691   2.064   2.402   1.701
 3931SOL    HW112692   2.010   2.322   1.675
 3931SOL    HW212693   2.031   2.438   1.788
 3932SOL     OW12694   2.346   5.142   3.680
 3932SOL    HW112695   2.303   5.056   3.707
 3932SOL    HW212696   2.331   5.210   3.753
 3933SOL     OW12697   2.167   5.720   1.187
 3933SOL    HW112698   2.178   5.815   1.216
 3933SOL    HW212699   2.106   5.673   1.251
 3934SOL     OW12700   0.207   1.365   1.577
 3934SOL    HW112701   0.288   1.368   1.636
 3934SOL    HW212702   0.225   1.305   1.499
 3935SOL     OW12703   6.543   3.356   6.337
 3935SOL    HW112704   6.607   3.279   6.348
 3935SOL    HW212705   6.456   3.333   6.380
 3936SOL     OW12706   0.313   5.058   5.533
 3936SOL    HW112707   0.252   5.024   5.462
 3936SOL    HW212708   0.276   5.143   5.571
 3937SOL     OW12709   0.582   6.745   1.824
 3937SOL    HW112710   0.643   6.740   1.745
 3937SOL    HW212711   0.588   6.660   1.876
 3938SOL     OW12712   0.663   3.474   2.633
 3938SOL    HW112713   0.709   3.396   2.675
 3938SOL    HW212714   0.725   3.553   2.634
 3939SOL     OW12715   1.839   1.062   2.558
 3939SOL    HW112716   1.756   1.098   2.516
 3939SOL    HW212717   1.909   1.134   2.562
 3940SOL     OW12718   3.220   5.603   1.009
 3940SOL    HW112719   3.266   5.668   0.948
 3940SOL    HW212720   3.217   5.641   1.102
 3941SOL     OW12721   5.350   5.751   3.328
 3941SOL    HW112722   5.289   5.819   3.288
 3941SOL    HW212723   5.322   5.660   3.300
 3942SOL     OW12724   6.471   5.957   5.682
 3942SOL    HW112725   6.518   6.041   5.654
 3942SOL    HW212726   6.377   5.957   5.648
 3943SOL     OW12727   1.537   2.797   0.256
 3943SOL    HW112728   1.631   2.814   0.287
 3943SOL    HW212729   1.537   2.724   0.188
 3944SOL     OW12730   5.553   2.378   6.725
 3944SOL    HW112731   5.582   2.320   6.801
 3944SOL    HW212732   5.474   2.337   6.679
 3945SOL     OW12733   6.533   0.834   3.497
 3945SOL    HW112734   6.599   0.788   3.437
 3945SOL    HW212735   6.484   0.766   3.552
 3946SOL     OW12736   1.306   2.966   0.276
 3946SOL    HW112737   1.336   3.047   0.226
 3946SOL    HW212738   1.385   2.909   0.299
 3947SOL     OW12739   6.306   4.777   2.500
 3947SOL    HW112740   6.355   4.698   2.537
 3947SOL    HW212741   6.252   4.820   2.572
 3948SOL     OW12742   0.948   2.715   6.284
 3948SOL    HW112743   0.929   2.643   6.217
 3948SOL    HW212744   0.914   2.686   6.374
 3949SOL     OW12745   6.099   0.108   1.598
 3949SOL    HW112746   6.177   0.091   1.538
 3949SOL    HW212747   6.055   0.021   1.621
 3950SOL     OW12748   3.089   4.616   1.656
 3950SOL    HW112749   3.022   4.584   1.724
 3950SOL    HW212750   3.046   4.683   1.596
 3951SOL     OW12751   0.971   2.009   4.790
 3951SOL    HW112752   1.049   2.011   4.853
 3951SOL    HW212753   1.002   2.037   4.699
 3952SOL     OW12754   5.775   3.412   6.517
 3952SOL    HW112755   5.841   3.461   6.461
 3952SOL    HW212756   5.746   3.329   6.470
 3953SOL     OW12757   2.790   4.261   6.421
 3953SOL    HW112758   2.886   4.246   6.446
 3953SOL    HW212759   2.763   4.198   6.349
 3954SOL     OW12760   0.482   3.220   5.212
 3954SOL    HW112761   0.535   3.179   5.138
 3954SOL    HW212762   0.385   3.217   5.188
 3955SOL     OW12763   6.829   4.238   0.249
 3955SOL    HW112764   6.789   4.154   0.212
 3955SOL    HW212765   6.926   4.224   0.266
 3956SOL     OW12766   1.016   3.068   5.655
 3956SOL    HW112767   1.073   3.008   5.710
 3956SOL    HW212768   1.072   3.113   5.585
 3957SOL     OW12769   1.153   1.707   3.318
 3957SOL    HW112770   1.131   1.625   3.371
 3957SOL    HW212771   1.212   1.682   3.241
 3958SOL     OW12772   5.947   6.101   6.035
 3958SOL    HW112773   5.889   6.037   6.085
 3958SOL    HW212774   5.954   6.187   6.086
 3959SOL     OW12775   2.529   4.948   0.791
 3959SOL    HW112776   2.572   5.037   0.780
 3959SOL    HW212777   2.567   4.903   0.872
 3960SOL     OW12778   4.617   3.666   0.536
 3960SOL    HW112779   4.556   3.742   0.561
 3960SOL    HW212780   4.574   3.579   0.562
 3961SOL     OW12781   5.517   0.585   2.554
 3961SOL    HW112782   5.549   0.510   2.611
 3961SOL    HW212783   5.418   0.596   2.566
 3962SOL     OW12784   0.442   6.986   5.829
 3962SOL    HW112785   0.514   6.959   5.892
 3962SOL    HW212786   0.395   6.905   5.794
 3963SOL     OW12787   4.920   5.415   3.137
 3963SOL    HW112788   4.915   5.322   3.174
 3963SOL    HW212789   4.867   5.476   3.195
 3964SOL     OW12790   5.666   6.335   6.109
 3964SOL    HW112791   5.651   6.277   6.189
 3964SOL    HW212792   5.759   6.371   6.111
 3965SOL     OW12793   3.922   3.398   0.152
 3965SOL    HW112794   3.995   3.355   0.206
 3965SOL    HW212795   3.850   3.331   0.134
 3966SOL     OW12796   5.585   4.279   5.086
 3966SOL    HW112797   5.592   4.218   5.165
 3966SOL    HW212798   5.535   4.235   5.012
 3967SOL     OW12799   0.908   5.502   6.512
 3967SOL    HW112800   0.818   5.543   6.501
 3967SOL    HW212801   0.969   5.566   6.559
 3968SOL     OW12802   5.604   0.656   1.536
 3968SOL    HW112803   5.569   0.738   1.581
 3968SOL    HW212804   5.582   0.660   1.439
 3969SOL     OW12805   0.475   5.449   1.602
 3969SOL    HW112806   0.381   5.459   1.635
 3969SOL    HW212807   0.538   5.467   1.677
 3970SOL     OW12808   4.420   4.600   3.411
 3970SOL    HW112809   4.328   4.630   3.438
 3970SOL    HW212810   4.488   4.662   3.449
 3971SOL     OW12811   1.813   5.567   3.981
 3971SOL    HW112812   1.797   5.619   4.064
 3971SOL    HW212813   1.837   5.629   3.906
 3972SOL     OW12814   1.576   0.253   0.203
 3972SOL    HW112815   1.581   0.156   0.227
 3972SOL    HW212816   1.563   0.262   0.104
 3973SOL     OW12817   3.325   3.312   3.265
 3973SOL    HW112818   3.233   3.286   3.293
 3973SOL    HW212819   3.341   3.283   3.171
 3974SOL     OW12820   6.349   1.445   6.609
 3974SOL    HW112821   6.294   1.430   6.527
 3974SOL    HW212822   6.336   1.539   6.642
 3975SOL     OW12823   6.693   0.818   5.909
 3975SOL    HW112824   6.628   0.828   5.985
 3975SOL    HW212825   6.686   0.726   5.871
 3976SOL     OW12826   0.991   3.757   6.740
 3976SOL    HW112827   1.073   3.701   6.736
 3976SOL    HW212828   0.936   3.731   6.819
 3977SOL     OW12829   4.008   6.649   6.475
 3977SOL    HW112830   4.050   6.713   6.540
 3977SOL    HW212831   3.997   6.560   6.519
 3978SOL     OW12832   5.503   3.099   6.081
 3978SOL    HW112833   5.498   3.004   6.112
 3978SOL    HW212834   5.594   3.135   6.099
 3979SOL     OW12835   1.096   0.203   3.124
 3979SOL    HW112836   1.001   0.178   3.142
 3979SOL    HW212837   1.156   0.153   3.186
 3980SOL     OW12838   5.138   3.330   5.062
 3980SOL    HW112839   5.221   3.373   5.098
 3980SOL    HW212840   5.093   3.392   4.998
 3981SOL     OW12841   6.302   1.714   5.555
 3981SOL    HW112842   6.249   1.706   5.639
 3981SOL    HW212843   6.327   1.623   5.522
 3982SOL     OW12844   3.584   1.573   4.041
 3982SOL    HW112845   3.619   1.510   3.972
 3982SOL    HW212846   3.534   1.647   3.997
 3983SOL     OW12847   3.513   6.448   3.773
 3983SOL    HW112848   3.536   6.351   3.762
 3983SOL    HW212849   3.466   6.462   3.860
 3984SOL     OW12850   1.417   6.568   1.437
 3984SOL    HW112851   1.389   6.651   1.389
 3984SOL    HW212852   1.449   6.592   1.529
 3985SOL     OW12853   1.557   3.618   1.869
 3985SOL    HW112854   1.642   3.564   1.866
 3985SOL    HW212855   1.579   3.714   1.887
 3986SOL     OW12856   0.875   3.239   2.424
 3986SOL    HW112857   0.902   3.221   2.519
 3986SOL    HW212858   0.952   3.279   2.374
 3987SOL     OW12859   2.605   4.903   6.966
 3987SOL    HW112860   2.677   4.930   6.902
 3987SOL    HW212861   2.573   4.810   6.944
 3988SOL     OW12862   4.152   2.283   0.542
 3988SOL    HW112863   4.136   2.254   0.636
 3988SOL    HW212864   4.064   2.289   0.494
 3989SOL     OW12865   4.439   0.562   6.740
 3989SOL    HW112866   4.519   0.535   6.686
 3989SOL    HW212867   4.358   0.564   6.681
 3990SOL     OW12868   1.146   3.150   3.819
 3990SOL    HW112869   1.107   3.157   3.911
 3990SOL    HW212870   1.080   3.109   3.757
 3991SOL     OW12871   0.373   1.713   4.099
 3991SOL    HW112872   0.368   1.800   4.147
 3991SOL    HW212873   0.320   1.718   4.015
 3992SOL     OW12874   4.739   4.050   6.125
 3992SOL    HW112875   4.688   3.999   6.195
 3992SOL    HW212876   4.826   4.003   6.108
 3993SOL     OW12877   2.248   1.864   3.316
 3993SOL    HW112878   2.294   1.837   3.401
 3993SOL    HW212879   2.179   1.934   3.336
 3994SOL     OW12880   2.560   2.029   3.887
 3994SOL    HW112881   2.461   2.034   3.879
 3994SOL    HW212882   2.590   1.934   3.884
 3995SOL     OW12883   1.528   3.849   2.793
 3995SOL    HW112884   1.455   3.781   2.788
 3995SOL    HW212885   1.611   3.813   2.750
 3996SOL     OW12886   5.781   6.988   3.351
 3996SOL    HW112887   5.683   6.987   3.330
 3996SOL    HW212888   5.804   6.912   3.411
 3997SOL     OW12889   5.547   3.745   2.568
 3997SOL    HW112890   5.572   3.841   2.554
 3997SOL    HW212891   5.473   3.720   2.506
 3998SOL     OW12892   6.157   2.171   3.223
 3998SOL    HW112893   6.167   2.111   3.143
 3998SOL    HW212894   6.180   2.121   3.306
 3999SOL     OW12895   5.254   2.777   1.663
 3999SOL    HW112896   5.247   2.812   1.756
 3999SOL    HW212897   5.173   2.806   1.611
 4000SOL     OW12898   3.415   5.364   2.415
 4000SOL    HW112899   3.411   5.455   2.372
 4000SOL    HW212900   3.382   5.371   2.509
 4001SOL     OW12901   1.897   4.255   5.015
 4001SOL    HW112902   1.959   4.211   5.079
 4001SOL    HW212903   1.914   4.221   4.922
 4002SOL     OW12904   3.598   3.323   3.728
 4002SOL    HW112905   3.601   3.416   3.764
 4002SOL    HW212906   3.560   3.262   3.797
 4003SOL     OW12907   2.442   0.640   4.943
 4003SOL    HW112908   2.417   0.715   5.003
 4003SOL    HW212909   2.540   0.641   4.926
 4004SOL     OW12910   0.303   4.044   3.279
 4004SOL    HW112911   0.342   4.056   3.370
 4004SOL    HW212912   0.228   3.978   3.283
 4005SOL     OW12913   5.206   2.764   1.093
 4005SOL    HW112914   5.114   2.800   1.106
 4005SOL    HW212915   5.270   2.840   1.080
 4006SOL     OW12916   5.394   5.092   3.245
 4006SOL    HW112917   5.430   5.164   3.187
 4006SOL    HW212918   5.421   5.108   3.340
 4007SOL     OW12919   6.744   1.449   2.917
 4007SOL    HW112920   6.784   1.413   2.833
 4007SOL    HW212921   6.796   1.530   2.946
 4008SOL     OW12922   2.867   0.345   1.145
 4008SOL    HW112923   2.856   0.275   1.215
 4008SOL    HW212924   2.780   0.357   1.096
 4009SOL     OW12925   3.988   1.807   1.280
 4009SOL    HW112926   3.986   1.862   1.197
 4009SOL    HW212927   4.044   1.853   1.349
 4010SOL     OW12928   2.102   5.174   1.640
 4010SOL    HW112929   2.110   5.232   1.560
 4010SOL    HW212930   2.193   5.142   1.668
 4011SOL     OW12931   6.325   6.150   6.779
 4011SOL    HW112932   6.354   6.244   6.763
 4011SOL    HW212933   6.312   6.136   6.877
 4012SOL     OW12934   3.982   7.023   2.215
 4012SOL    HW112935   4.008   7.018   2.119
 4012SOL    HW212936   3.940   0.086   2.234
 4013SOL     OW12937   0.879   1.089   6.558
 4013SOL    HW112938   0.941   1.017   6.591
 4013SOL    HW212939   0.921   1.179   6.574
 4014SOL     OW12940   2.637   5.362   2.978
 4014SOL    HW112941   2.632   5.461   2.961
 4014SOL    HW212942   2.670   5.316   2.895
 4015SOL     OW12943   4.217   5.293   6.060
 4015SOL    HW112944   4.174   5.237   5.990
 4015SOL    HW212945   4.303   5.250   6.089
 4016SOL     OW12946   4.257   5.730   5.906
 4016SOL    HW112947   4.275   5.807   5.967
 4016SOL    HW212948   4.319   5.733   5.828
 4017SOL     OW12949   1.056   4.959   5.970
 4017SOL    HW112950   1.146   5.002   5.958
 4017SOL    HW212951   1.026   4.919   5.884
 4018SOL     OW12952   4.427   6.283   2.108
 4018SOL    HW112953   4.450   6.278   2.011
 4018SOL    HW212954   4.485   6.219   2.159
 4019SOL     OW12955   5.088   3.309   3.038
 4019SOL    HW112956   5.103   3.298   2.940
 4019SOL    HW212957   5.057   3.222   3.077
 4020SOL     OW12958   6.603   4.528   4.306
 4020SOL    HW112959   6.588   4.602   4.371
 4020SOL    HW212960   6.664   4.559   4.233
 4021SOL     OW12961   3.245   3.531   5.474
 4021SOL    HW112962   3.171   3.537   5.407
 4021SOL    HW212963   3.333   3.525   5.425
 4022SOL     OW12964   2.510   0.267   0.567
 4022SOL    HW112965   2.491   0.172   0.545
 4022SOL    HW212966   2.525   0.319   0.483
 4023SOL     OW12967   0.432   2.434   5.604
 4023SOL    HW112968   0.412   2.417   5.507
 4023SOL    HW212969   0.530   2.419   5.620
 4024SOL     OW12970   0.647   4.554   4.026
 4024SOL    HW112971   0.585   4.481   3.998
 4024SOL    HW212972   0.638   4.569   4.125
 4025SOL     OW12973   1.215   5.899   3.760
 4025SOL    HW112974   1.132   5.955   3.749
 4025SOL    HW212975   1.283   5.928   3.692
 4026SOL     OW12976   6.638   6.140   3.371
 4026SOL    HW112977   6.547   6.127   3.331
 4026SOL    HW212978   6.664   6.237   3.363
 4027SOL     OW12979   2.625   3.815   5.661
 4027SOL    HW112980   2.631   3.915   5.651
 4027SOL    HW212981   2.646   3.772   5.573
 4028SOL     OW12982   4.685   1.864   2.529
 4028SOL    HW112983   4.671   1.948   2.581
 4028SOL    HW212984   4.782   1.839   2.531
 4029SOL     OW12985   2.532   5.037   6.686
 4029SOL    HW112986   2.501   5.120   6.639
 4029SOL    HW212987   2.612   5.000   6.640
 4030SOL     OW12988   0.847   1.183   2.720
 4030SOL    HW112989   0.786   1.103   2.719
 4030SOL    HW212990   0.795   1.264   2.692
 4031SOL     OW12991   5.421   0.008   1.439
 4031SOL    HW112992   5.348   0.057   1.391
 4031SOL    HW212993   5.432   6.943   1.399
 4032SOL     OW12994   6.161   0.452   1.454
 4032SOL    HW112995   6.072   0.412   1.432
 4032SOL    HW212996   6.233   0.397   1.412
 4033SOL     OW12997   2.928   2.124   2.804
 4033SOL    HW112998   2.918   2.186   2.726
 4033SOL    HW212999   3.023   2.096   2.812
 4034SOL     OW13000   0.025   3.575   4.939
 4034SOL    HW113001   6.991   3.496   4.927
 4034SOL    HW213002   0.108   3.563   4.885
 4035SOL     OW13003   6.668   1.848   1.043
 4035SOL    HW113004   6.656   1.757   1.083
 4035SOL    HW213005   6.716   1.839   0.956
 4036SOL     OW13006   2.616   5.344   3.798
 4036SOL    HW113007   2.566   5.366   3.714
 4036SOL    HW213008   2.689   5.278   3.777
 4037SOL     OW13009   1.551   0.565   5.420
 4037SOL    HW113010   1.479   0.633   5.436
 4037SOL    HW213011   1.571   0.517   5.506
 4038SOL     OW13012   3.532   4.655   5.894
 4038SOL    HW113013   3.463   4.593   5.856
 4038SOL    HW213014   3.622   4.632   5.857
 4039SOL     OW13015   5.628   4.559   1.458
 4039SOL    HW113016   5.702   4.601   1.510
 4039SOL    HW213017   5.587   4.485   1.512
 4040SOL     OW13018   3.891   5.094   5.411
 4040SOL    HW113019   3.824   5.093   5.485
 4040SOL    HW213020   3.945   5.179   5.417
 4041SOL     OW13021   1.948   6.622   1.363
 4041SOL    HW113022   2.026   6.684   1.360
 4041SOL    HW213023   1.933   6.584   1.272
 4042SOL     OW13024   6.644   0.574   3.365
 4042SOL    HW113025   6.581   0.537   3.434
 4042SOL    HW213026   6.701   0.501   3.329
 4043SOL     OW13027   5.374   3.391   6.261
 4043SOL    HW113028   5.405   3.302   6.296
 4043SOL    HW213029   5.274   3.394   6.262
 4044SOL     OW13030   4.137   4.871   3.275
 4044SOL    HW113031   4.108   4.883   3.370
 4044SOL    HW213032   4.236   4.878   3.269
 4045SOL     OW13033   5.198   6.939   6.131
 4045SOL    HW113034   5.182   7.002   6.207
 4045SOL    HW213035   5.152   6.973   6.049
 4046SOL     OW13036   0.273   1.701   3.511
 4046SOL    HW113037   0.177   1.684   3.488
 4046SOL    HW213038   0.308   1.776   3.455
 4047SOL     OW13039   2.873   3.066   6.811
 4047SOL    HW113040   2.909   3.144   6.864
 4047SOL    HW213041   2.853   3.097   6.718
 4048SOL     OW13042   4.965   1.124   2.159
 4048SOL    HW113043   4.930   1.031   2.159
 4048SOL    HW213044   5.063   1.123   2.174
 4049SOL     OW13045   3.797   5.852   6.883
 4049SOL    HW113046   3.711   5.812   6.913
 4049SOL    HW213047   3.859   5.780   6.853
 4050SOL     OW13048   0.700   5.849   2.729
 4050SOL    HW113049   0.719   5.820   2.635
 4050SOL    HW213050   0.607   5.887   2.735
 4051SOL     OW13051   4.855   1.151   6.542
 4051SOL    HW113052   4.770   1.179   6.587
 4051SOL    HW213053   4.876   1.215   6.468
 4052SOL     OW13054   6.291   1.728   3.294
 4052SOL    HW113055   6.354   1.762   3.363
 4052SOL    HW213056   6.334   1.652   3.245
 4053SOL     OW13057   1.252   5.555   4.790
 4053SOL    HW113058   1.167   5.502   4.792
 4053SOL    HW213059   1.311   5.520   4.718
 4054SOL     OW13060   4.588   4.163   1.094
 4054SOL    HW113061   4.526   4.241   1.083
 4054SOL    HW213062   4.655   4.163   1.020
 4055SOL     OW13063   1.158   3.921   1.825
 4055SOL    HW113064   1.167   3.843   1.762
 4055SOL    HW213065   1.205   3.900   1.911
 4056SOL     OW13066   5.350   3.180   0.864
 4056SOL    HW113067   5.303   3.207   0.780
 4056SOL    HW213068   5.291   3.200   0.943
 4057SOL     OW13069   6.313   3.438   6.501
 4057SOL    HW113070   6.322   3.511   6.434
 4057SOL    HW213071   6.235   3.458   6.561
 4058SOL     OW13072   3.005   5.374   4.821
 4058SOL    HW113073   2.952   5.379   4.906
 4058SOL    HW213074   3.097   5.409   4.838
 4059SOL     OW13075   0.698   1.978   4.247
 4059SOL    HW113076   0.759   1.907   4.211
 4059SOL    HW213077   0.700   2.057   4.185
 4060SOL     OW13078   6.665   5.573   5.060
 4060SOL    HW113079   6.622   5.655   5.098
 4060SOL    HW213080   6.644   5.494   5.117
 4061SOL     OW13081   2.460   5.413   2.012
 4061SOL    HW113082   2.499   5.501   2.039
 4061SOL    HW213083   2.503   5.340   2.065
 4062SOL     OW13084   2.413   1.729   1.888
 4062SOL    HW113085   2.429   1.770   1.799
 4062SOL    HW213086   2.470   1.648   1.898
 4063SOL     OW13087   5.550   0.429   1.190
 4063SOL    HW113088   5.510   0.388   1.108
 4063SOL    HW213089   5.616   0.365   1.231
 4064SOL     OW13090   1.896   2.191   4.371
 4064SOL    HW113091   1.970   2.236   4.421
 4064SOL    HW213092   1.809   2.212   4.414
 4065SOL     OW13093   1.563   6.988   0.246
 4065SOL    HW113094   1.613   7.017   0.164
 4065SOL    HW213095   1.501   6.913   0.223
 4066SOL     OW13096   6.659   4.290   3.084
 4066SOL    HW113097   6.583   4.245   3.132
 4066SOL    HW213098   6.745   4.268   3.131
 4067SOL     OW13099   5.942   3.877   2.527
 4067SOL    HW113100   5.847   3.878   2.558
 4067SOL    HW213101   5.979   3.970   2.534
 4068SOL     OW13102   1.759   2.729   5.014
 4068SOL    HW113103   1.711   2.686   5.091
 4068SOL    HW213104   1.857   2.728   5.031
 4069SOL     OW13105   3.985   6.538   6.741
 4069SOL    HW113106   4.018   6.465   6.801
 4069SOL    HW213107   4.007   6.627   6.782
 4070SOL     OW13108   1.055   3.307   3.055
 4070SOL    HW113109   1.002   3.223   3.043
 4070SOL    HW213110   1.093   3.309   3.147
 4071SOL     OW13111   1.021   0.414   3.958
 4071SOL    HW113112   0.962   0.346   3.915
 4071SOL    HW213113   1.025   0.397   4.056
 4072SOL     OW13114   1.366   5.782   4.478
 4072SOL    HW113115   1.372   5.729   4.393
 4072SOL    HW213116   1.272   5.779   4.512
 4073SOL     OW13117   2.203   5.312   0.548
 4073SOL    HW113118   2.137   5.378   0.515
 4073SOL    HW213119   2.218   5.325   0.646
 4074SOL     OW13120   1.493   4.928   1.981
 4074SOL    HW113121   1.394   4.933   1.992
 4074SOL    HW213122   1.526   4.839   2.013
 4075SOL     OW13123   5.017   0.874   0.563
 4075SOL    HW113124   5.054   0.901   0.652
 4075SOL    HW213125   5.088   0.829   0.509
 4076SOL     OW13126   3.173   3.110   5.569
 4076SOL    HW113127   3.083   3.094   5.608
 4076SOL    HW213128   3.201   3.204   5.585
 4077SOL     OW13129   4.306   1.880   1.648
 4077SOL    HW113130   4.383   1.827   1.613
 4077SOL    HW213131   4.314   1.975   1.617
 4078SOL     OW13132   2.765   4.847   2.620
 4078SOL    HW113133   2.857   4.885   2.610
 4078SOL    HW213134   2.702   4.895   2.559
 4079SOL     OW13135   1.381   2.315   4.285
 4079SOL    HW113136   1.407   2.402   4.244
 4079SOL    HW213137   1.348   2.253   4.214
 4080SOL     OW13138   4.750   2.140   5.142
 4080SOL    HW113139   4.843   2.150   5.106
 4080SOL    HW213140   4.687   2.124   5.066
 4081SOL     OW13141   1.858   3.098   4.260
 4081SOL    HW113142   1.905   3.010   4.246
 4081SOL    HW213143   1.859   3.120   4.358
 4082SOL     OW13144   1.438   3.192   0.801
 4082SOL    HW113145   1.443   3.271   0.862
 4082SOL    HW213146   1.481   3.214   0.714
 4083SOL     OW13147   5.761   2.906   3.631
 4083SOL    HW113148   5.844   2.908   3.688
 4083SOL    HW213149   5.750   2.814   3.593
 4084SOL     OW13150   6.206   1.878   4.080
 4084SOL    HW113151   6.145   1.832   4.015
 4084SOL    HW213152   6.152   1.934   4.143
 4085SOL     OW13153   4.476   6.256   0.701
 4085SOL    HW113154   4.391   6.283   0.748
 4085SOL    HW213155   4.540   6.333   0.703
 4086SOL     OW13156   1.905   5.059   1.318
 4086SOL    HW113157   1.904   5.014   1.229
 4086SOL    HW213158   1.860   5.001   1.386
 4087SOL     OW13159   2.243   2.503   3.481
 4087SOL    HW113160   2.339   2.475   3.476
 4087SOL    HW213161   2.235   2.582   3.543
 4088SOL     OW13162   6.426   1.774   1.507
 4088SOL    HW113163   6.430   1.698   1.442
 4088SOL    HW213164   6.351   1.759   1.571
 4089SOL     OW13165   0.668   0.130   3.532
 4089SOL    HW113166   0.579   0.175   3.539
 4089SOL    HW213167   0.737   0.196   3.503
 4090SOL     OW13168   2.911   4.398   6.753
 4090SOL    HW113169   2.949   4.311   6.721
 4090SOL    HW213170   2.823   4.381   6.797
 4091SOL     OW13171   5.382   6.743   0.101
 4091SOL    HW113172   5.347   6.673   0.039
 4091SOL    HW213173   5.473   6.773   0.071
 4092SOL     OW13174   0.120   2.995   5.229
 4092SOL    HW113175   0.035   3.006   5.281
 4092SOL    HW213176   0.191   2.958   5.288
 4093SOL     OW13177   5.281   0.374   3.784
 4093SOL    HW113178   5.342   0.429   3.841
 4093SOL    HW213179   5.335   0.312   3.727
 4094SOL     OW13180   1.874   4.528   5.172
 4094SOL    HW113181   1.887   4.435   5.137
 4094SOL    HW213182   1.944   4.548   5.241
 4095SOL     OW13183   1.107   3.706   5.990
 4095SOL    HW113184   1.139   3.613   5.973
 4095SOL    HW213185   1.007   3.708   5.989
 4096SOL     OW13186   5.054   5.289   0.937
 4096SOL    HW113187   5.147   5.325   0.945
 4096SOL    HW213188   5.017   5.271   1.029
 4097SOL     OW13189   3.118   4.343   6.007
 4097SOL    HW113190   3.071   4.257   6.024
 4097SOL    HW213191   3.057   4.419   6.028
 4098SOL     OW13192   0.508   2.880   2.611
 4098SOL    HW113193   0.460   2.825   2.542
 4098SOL    HW213194   0.572   2.823   2.661
 4099SOL     OW13195   3.001   5.314   1.624
 4099SOL    HW113196   2.904   5.332   1.614
 4099SOL    HW213197   3.035   5.356   1.709
 4100SOL     OW13198   4.749   5.554   4.013
 4100SOL    HW113199   4.748   5.478   3.948
 4100SOL    HW213200   4.831   5.610   3.997
 4101SOL     OW13201   5.686   1.357   0.394
 4101SOL    HW113202   5.738   1.277   0.425
 4101SOL    HW213203   5.673   1.419   0.471
 4102SOL     OW13204   6.555   0.522   1.222
 4102SOL    HW113205   6.623   0.532   1.149
 4102SOL    HW213206   6.565   0.596   1.288
 4103SOL     OW13207   0.823   1.003   1.984
 4103SOL    HW113208   0.891   0.999   2.057
 4103SOL    HW213209   0.757   1.076   2.004
 4104SOL     OW13210   1.655   4.100   2.694
 4104SOL    HW113211   1.748   4.131   2.716
 4104SOL    HW213212   1.597   4.108   2.775
 4105SOL     OW13213   4.375   5.810   0.733
 4105SOL    HW113214   4.276   5.820   0.740
 4105SOL    HW213215   4.400   5.794   0.637
 4106SOL     OW13216   0.042   3.758   4.625
 4106SOL    HW113217   0.096   3.764   4.709
 4106SOL    HW213218   6.971   3.749   4.648
 4107SOL     OW13219   0.341   6.144   1.237
 4107SOL    HW113220   0.273   6.179   1.301
 4107SOL    HW213221   0.319   6.050   1.212
 4108SOL     OW13222   6.799   4.874   6.564
 4108SOL    HW113223   6.835   4.787   6.599
 4108SOL    HW213224   6.780   4.866   6.466
 4109SOL     OW13225   4.103   6.233   4.099
 4109SOL    HW113226   4.004   6.231   4.084
 4109SOL    HW213227   4.150   6.227   4.011
 4110SOL     OW13228   3.586   4.042   6.374
 4110SOL    HW113229   3.523   4.000   6.310
 4110SOL    HW213230   3.537   4.065   6.459
 4111SOL     OW13231   3.736   3.197   7.014
 4111SOL    HW113232   3.680   3.239   0.059
 4111SOL    HW213233   3.741   3.258   6.935
 4112SOL     OW13234   4.568   1.419   5.212
 4112SOL    HW113235   4.551   1.511   5.249
 4112SOL    HW213236   4.640   1.375   5.265
 4113SOL     OW13237   3.528   5.516   5.073
 4113SOL    HW113238   3.485   5.430   5.098
 4113SOL    HW213239   3.579   5.504   4.988
 4114SOL     OW13240   3.179   1.281   4.018
 4114SOL    HW113241   3.183   1.371   4.062
 4114SOL    HW213242   3.164   1.293   3.920
 4115SOL     OW13243   4.764   6.219   2.275
 4115SOL    HW113244   4.737   6.126   2.253
 4115SOL    HW213245   4.799   6.264   2.193
 4116SOL     OW13246   3.841   1.621   1.449
 4116SOL    HW113247   3.894   1.684   1.392
 4116SOL    HW213248   3.866   1.635   1.545
 4117SOL     OW13249   0.924   5.517   1.332
 4117SOL    HW113250   0.998   5.538   1.397
 4117SOL    HW213251   0.860   5.593   1.328
 4118SOL     OW13252   0.977   6.836   0.876
 4118SOL    HW113253   0.907   6.765   0.865
 4118SOL    HW213254   1.025   6.823   0.962
 4119SOL     OW13255   3.675   1.407   4.407
 4119SOL    HW113256   3.727   1.322   4.404
 4119SOL    HW213257   3.589   1.395   4.358
 4120SOL     OW13258   4.140   6.685   2.325
 4120SOL    HW113259   4.046   6.650   2.328
 4120SOL    HW213260   4.183   6.673   2.414
 4121SOL     OW13261   6.438   2.000   4.528
 4121SOL    HW113262   6.410   1.954   4.612
 4121SOL    HW213263   6.473   1.933   4.463
 4122SOL     OW13264   0.248   6.253   5.272
 4122SOL    HW113265   0.311   6.178   5.249
 4122SOL    HW213266   0.299   6.328   5.313
 4123SOL     OW13267   5.724   4.424   5.964
 4123SOL    HW113268   5.824   4.423   5.960
 4123SOL    HW213269   5.691   4.332   5.986
 4124SOL     OW13270   5.629   5.954   4.539
 4124SOL    HW113271   5.691   5.987   4.468
 4124SOL    HW213272   5.636   5.854   4.545
 4125SOL     OW13273   4.744   0.500   1.947
 4125SOL    HW113274   4.668   0.543   1.898
 4125SOL    HW213275   4.717   0.480   2.041
 4126SOL     OW13276   1.284   4.172   4.326
 4126SOL    HW113277   1.321   4.263   4.342
 4126SOL    HW213278   1.358   4.110   4.298
 4127SOL     OW13279   5.223   3.279   4.139
 4127SOL    HW113280   5.267   3.353   4.190
 4127SOL    HW213281   5.291   3.208   4.118
 4128SOL     OW13282   2.146   3.915   2.602
 4128SOL    HW113283   2.217   3.897   2.670
 4128SOL    HW213284   2.056   3.895   2.642
 4129SOL     OW13285   5.269   1.765   6.187
 4129SOL    HW113286   5.186   1.818   6.172
 4129SOL    HW213287   5.342   1.827   6.219
 4130SOL     OW13288   6.986   3.266   5.792
 4130SOL    HW113289   0.053   3.271   5.828
 4130SOL    HW213290   6.933   3.345   5.822
 4131SOL     OW13291   0.449   5.923   4.056
 4131SOL    HW113292   0.454   5.857   4.131
 4131SOL    HW213293   0.384   5.995   4.080
 4132SOL     OW13294   5.451   3.473   3.350
 4132SOL    HW113295   5.484   3.510   3.263
 4132SOL    HW213296   5.363   3.429   3.337
 4133SOL     OW13297   3.268   0.416   0.889
 4133SOL    HW113298   3.306   0.390   0.800
 4133SOL    HW213299   3.198   0.350   0.916
 4134SOL     OW13300   2.170   2.188   0.834
 4134SOL    HW113301   2.079   2.146   0.838
 4134SOL    HW213302   2.205   2.184   0.741
 4135SOL     OW13303   1.861   0.605   1.983
 4135SOL    HW113304   1.801   0.602   2.063
 4135SOL    HW213305   1.909   0.518   1.974
 4136SOL     OW13306   0.206   2.180   3.605
 4136SOL    HW113307   0.151   2.148   3.528
 4136SOL    HW213308   0.282   2.235   3.571
 4137SOL     OW13309   2.873   4.085   0.441
 4137SOL    HW113310   2.905   3.991   0.427
 4137SOL    HW213311   2.854   4.100   0.538
 4138SOL     OW13312   4.301   4.743   4.141
 4138SOL    HW113313   4.354   4.828   4.141
 4138SOL    HW213314   4.236   4.745   4.216
 4139SOL     OW13315   2.083   2.059   6.051
 4139SOL    HW113316   2.060   2.132   6.114
 4139SOL    HW213317   2.035   2.073   5.964
 4140SOL     OW13318   3.595   1.022   5.515
 4140SOL    HW113319   3.609   1.103   5.573
 4140SOL    HW213320   3.513   1.035   5.460
 4141SOL     OW13321   5.179   5.181   1.275
 4141SOL    HW113322   5.151   5.097   1.230
 4141SOL    HW213323   5.228   5.159   1.360
 4142SOL     OW13324   6.728   5.466   1.375
 4142SOL    HW113325   6.683   5.471   1.465
 4142SOL    HW213326   6.659   5.447   1.305
 4143SOL     OW13327   6.987   3.068   0.394
 4143SOL    HW113328   0.015   3.045   0.475
 4143SOL    HW213329   0.021   3.075   0.314
 4144SOL     OW13330   5.848   1.770   1.073
 4144SOL    HW113331   5.847   1.862   1.111
 4144SOL    HW213332   5.942   1.741   1.056
 4145SOL     OW13333   7.013   6.486   1.673
 4145SOL    HW113334   6.954   6.565   1.659
 4145SOL    HW213335   0.080   6.509   1.646
 4146SOL     OW13336   5.756   0.489   6.253
 4146SOL    HW113337   5.806   0.404   6.271
 4146SOL    HW213338   5.689   0.505   6.326
 4147SOL     OW13339   3.038   2.057   6.457
 4147SOL    HW113340   3.053   2.151   6.429
 4147SOL    HW213341   3.108   1.998   6.416
 4148SOL     OW13342   0.525   0.702   4.129
 4148SOL    HW113343   0.575   0.618   4.109
 4148SOL    HW213344   0.538   0.767   4.055
 4149SOL     OW13345   6.650   3.069   0.181
 4149SOL    HW113346   6.655   2.969   0.185
 4149SOL    HW213347   6.718   3.108   0.243
 4150SOL     OW13348   5.961   0.654   6.440
 4150SOL    HW113349   5.874   0.681   6.399
 4150SOL    HW213350   6.010   0.735   6.472
 4151SOL     OW13351   5.720   6.324   0.028
 4151SOL    HW113352   5.684   6.417   0.022
 4151SOL    HW213353   5.819   6.328   0.042
 4152SOL     OW13354   3.507   4.949   2.108
 4152SOL    HW113355   3.554   5.017   2.165
 4152SOL    HW213356   3.575   4.891   2.064
 4153SOL     OW13357   5.301   5.149   5.994
 4153SOL    HW113358   5.247   5.232   6.009
 4153SOL    HW213359   5.263   5.074   6.049
 4154SOL     OW13360   6.573   3.873   4.942
 4154SOL    HW113361   6.489   3.822   4.922
 4154SOL    HW213362   6.649   3.831   4.893
 4155SOL     OW13363   0.441   3.476   2.787
 4155SOL    HW113364   0.364   3.454   2.727
 4155SOL    HW213365   0.520   3.503   2.732
 4156SOL     OW13366   5.776   0.035   4.921
 4156SOL    HW113367   5.830   0.119   4.925
 4156SOL    HW213368   5.774   0.001   4.827
 4157SOL     OW13369   3.678   0.317   4.057
 4157SOL    HW113370   3.607   0.382   4.031
 4157SOL    HW213371   3.712   0.271   3.975
 4158SOL     OW13372   0.455   5.132   3.726
 4158SOL    HW113373   0.547   5.106   3.698
 4158SOL    HW213374   0.455   5.155   3.823
 4159SOL     OW13375   1.926   2.963   3.865
 4159SOL    HW113376   1.903   2.895   3.934
 4159SOL    HW213377   1.900   2.929   3.774
 4160SOL     OW13378   6.251   0.691   1.500
 4160SOL    HW113379   6.223   0.596   1.485
 4160SOL    HW213380   6.268   0.735   1.411
 4161SOL     OW13381   1.647   0.782   6.348
 4161SOL    HW113382   1.738   0.792   6.389
 4161SOL    HW213383   1.627   0.862   6.291
 4162SOL     OW13384   6.050   0.519   4.996
 4162SOL    HW113385   6.081   0.557   4.909
 4162SOL    HW213386   6.029   0.594   5.059
 4163SOL     OW13387   5.908   1.289   3.303
 4163SOL    HW113388   5.974   1.348   3.349
 4163SOL    HW213389   5.861   1.232   3.370
 4164SOL     OW13390   1.505   0.475   6.734
 4164SOL    HW113391   1.452   0.540   6.788
 4164SOL    HW213392   1.451   0.443   6.656
 4165SOL     OW13393   4.337   6.609   0.918
 4165SOL    HW113394   4.411   6.563   0.869
 4165SOL    HW213395   4.262   6.629   0.855
 4166SOL     OW13396   4.345   2.655   1.029
 4166SOL    HW113397   4.263   2.712   1.021
 4166SOL    HW213398   4.403   2.691   1.102
 4167SOL     OW13399   2.529   2.546   1.345
 4167SOL    HW113400   2.518   2.639   1.310
 4167SOL    HW213401   2.559   2.550   1.441
 4168SOL     OW13402   0.081   5.290   1.712
 4168SOL    HW113403   0.122   5.333   1.793
 4168SOL    HW213404   0.045   5.361   1.652
 4169SOL     OW13405   4.867   3.928   4.202
 4169SOL    HW113406   4.938   3.858   4.208
 4169SOL    HW213407   4.849   3.948   4.105
 4170SOL     OW13408   4.004   2.535   5.680
 4170SOL    HW113409   3.906   2.530   5.665
 4170SOL    HW213410   4.023   2.552   5.777
 4171SOL     OW13411   5.225   3.552   0.927
 4171SOL    HW113412   5.141   3.591   0.966
 4171SOL    HW213413   5.257   3.610   0.853
 4172SOL     OW13414   0.161   2.216   0.174
 4172SOL    HW113415   0.160   2.311   0.141
 4172SOL    HW213416   0.253   2.192   0.204
 4173SOL     OW13417   5.801   2.934   5.433
 4173SOL    HW113418   5.893   2.934   5.393
 4173SOL    HW213419   5.777   3.027   5.462
 4174SOL     OW13420   4.645   0.234   4.079
 4174SOL    HW113421   4.653   0.186   4.166
 4174SOL    HW213422   4.548   0.253   4.061
 4175SOL     OW13423   3.491   6.877   3.933
 4175SOL    HW113424   3.543   6.793   3.950
 4175SOL    HW213425   3.395   6.861   3.957
 4176SOL     OW13426   4.389   0.376   2.609
 4176SOL    HW113427   4.361   0.281   2.599
 4176SOL    HW213428   4.374   0.406   2.703
 4177SOL     OW13429   0.370   5.488   4.579
 4177SOL    HW113430   0.359   5.462   4.675
 4177SOL    HW213431   0.451   5.546   4.569
 4178SOL     OW13432   3.213   1.270   6.093
 4178SOL    HW113433   3.150   1.193   6.086
 4178SOL    HW213434   3.217   1.318   6.006
 4179SOL     OW13435   5.430   3.455   4.760
 4179SOL    HW113436   5.491   3.447   4.838
 4179SOL    HW213437   5.346   3.502   4.786
 4180SOL     OW13438   5.600   4.068   1.860
 4180SOL    HW113439   5.571   3.983   1.814
 4180SOL    HW213440   5.539   4.142   1.833
 4181SOL     OW13441   0.997   2.029   6.335
 4181SOL    HW113442   1.051   2.009   6.254
 4181SOL    HW213443   1.057   2.030   6.415
 4182SOL     OW13444   0.505   0.091   2.759
 4182SOL    HW113445   0.434   0.157   2.736
 4182SOL    HW213446   0.547   0.116   2.846
 4183SOL     OW13447   2.712   1.822   1.772
 4183SOL    HW113448   2.744   1.912   1.745
 4183SOL    HW213449   2.688   1.823   1.869
 4184SOL     OW13450   3.874   5.312   1.122
 4184SOL    HW113451   3.890   5.367   1.204
 4184SOL    HW213452   3.777   5.319   1.096
 4185SOL     OW13453   0.563   6.170   3.078
 4185SOL    HW113454   0.485   6.195   3.021
 4185SOL    HW213455   0.567   6.070   3.087
 4186SOL     OW13456   2.259   3.875   6.868
 4186SOL    HW113457   2.216   3.905   6.953
 4186SOL    HW213458   2.342   3.823   6.888
 4187SOL     OW13459   3.640   3.400   6.484
 4187SOL    HW113460   3.733   3.379   6.456
 4187SOL    HW213461   3.590   3.439   6.406
 4188SOL     OW13462   4.807   0.507   4.671
 4188SOL    HW113463   4.744   0.582   4.652
 4188SOL    HW213464   4.894   0.525   4.624
 4189SOL     OW13465   2.928   1.159   4.700
 4189SOL    HW113466   3.016   1.160   4.748
 4189SOL    HW213467   2.938   1.206   4.612
 4190SOL     OW13468   2.274   0.475   6.441
 4190SOL    HW113469   2.300   0.380   6.424
 4190SOL    HW213470   2.192   0.478   6.498
 4191SOL     OW13471   6.106   3.006   2.919
 4191SOL    HW113472   6.196   2.968   2.897
 4191SOL    HW213473   6.087   2.994   3.016
 4192SOL     OW13474   5.851   1.250   3.000
 4192SOL    HW113475   5.928   1.311   2.979
 4192SOL    HW213476   5.847   1.234   3.098
 4193SOL     OW13477   2.230   6.986   1.991
 4193SOL    HW113478   2.170   0.037   2.016
 4193SOL    HW213479   2.185   6.900   2.014
 4194SOL     OW13480   7.024   1.998   4.302
 4194SOL    HW113481   6.947   2.061   4.288
 4194SOL    HW213482   0.060   2.004   4.224
 4195SOL     OW13483   4.452   0.485   1.198
 4195SOL    HW113484   4.515   0.444   1.131
 4195SOL    HW213485   4.505   0.522   1.274
 4196SOL     OW13486   5.269   2.663   3.946
 4196SOL    HW113487   5.314   2.738   3.898
 4196SOL    HW213488   5.239   2.695   4.036
 4197SOL     OW13489   5.166   4.476   4.520
 4197SOL    HW113490   5.150   4.510   4.613
 4197SOL    HW213491   5.259   4.439   4.514
 4198SOL     OW13492   6.043   3.017   0.074
 4198SOL    HW113493   5.982   3.089   0.041
 4198SOL    HW213494   5.995   2.929   0.074
 4199SOL     OW13495   3.100   3.504   5.246
 4199SOL    HW113496   3.040   3.548   5.179
 4199SOL    HW213497   3.170   3.450   5.199
 4200SOL     OW13498   2.151   6.695   5.850
 4200SOL    HW113499   2.173   6.776   5.905
 4200SOL    HW213500   2.229   6.673   5.791
 4201SOL     OW13501   6.275   6.632   2.983
 4201SOL    HW113502   6.264   6.721   3.027
 4201SOL    HW213503   6.185   6.597   2.957
 4202SOL     OW13504   5.096   4.686   5.416
 4202SOL    HW113505   5.195   4.677   5.413
 4202SOL    HW213506   5.072   4.764   5.474
 4203SOL     OW13507   5.024   5.826   3.213
 4203SOL    HW113508   4.990   5.797   3.302
 4203SOL    HW213509   5.044   5.924   3.215
 4204SOL     OW13510   3.187   3.145   1.240
 4204SOL    HW113511   3.218   3.221   1.297
 4204SOL    HW213512   3.243   3.064   1.259
 4205SOL     OW13513   3.137   5.154   5.043
 4205SOL    HW113514   3.155   5.081   4.977
 4205SOL    HW213515   3.040   5.177   5.042
 4206SOL     OW13516   4.580   0.014   5.165
 4206SOL    HW113517   4.550   7.008   5.075
 4206SOL    HW213518   4.511   0.075   5.203
 4207SOL     OW13519   1.175   1.128   2.080
 4207SOL    HW113520   1.151   1.203   2.019
 4207SOL    HW213521   1.202   1.164   2.169
 4208SOL     OW13522   1.595   2.718   1.094
 4208SOL    HW113523   1.635   2.738   1.005
 4208SOL    HW213524   1.527   2.646   1.085
 4209SOL     OW13525   1.957   7.012   4.711
 4209SOL    HW113526   1.969   6.927   4.762
 4209SOL    HW213527   2.043   0.010   4.665
 4210SOL     OW13528   3.736   3.355   1.475
 4210SOL    HW113529   3.733   3.446   1.517
 4210SOL    HW213530   3.674   3.293   1.524
 4211SOL     OW13531   4.896   4.825   5.029
 4211SOL    HW113532   4.824   4.765   4.994
 4211SOL    HW213533   4.961   4.770   5.082
 4212SOL     OW13534   6.322   1.035   2.499
 4212SOL    HW113535   6.252   1.004   2.563
 4212SOL    HW213536   6.282   1.106   2.440
 4213SOL     OW13537   1.656   0.871   2.135
 4213SOL    HW113538   1.747   0.872   2.177
 4213SOL    HW213539   1.589   0.910   2.199
 4214SOL     OW13540   0.931   3.383   5.699
 4214SOL    HW113541   0.877   3.456   5.659
 4214SOL    HW213542   0.954   3.315   5.629
 4215SOL     OW13543   0.886   5.591   4.597
 4215SOL    HW113544   0.818   5.610   4.667
 4215SOL    HW213545   0.842   5.595   4.507
 4216SOL     OW13546   1.043   2.439   4.659
 4216SOL    HW113547   0.989   2.505   4.607
 4216SOL    HW213548   1.135   2.433   4.621
 4217SOL     OW13549   0.401   0.351   2.493
 4217SOL    HW113550   0.490   0.307   2.479
 4217SOL    HW213551   0.336   0.284   2.529
 4218SOL     OW13552   4.749   0.207   1.998
 4218SOL    HW113553   4.689   0.265   1.944
 4218SOL    HW213554   4.842   0.210   1.960
 4219SOL     OW13555   3.847   4.920   5.214
 4219SOL    HW113556   3.839   5.002   5.271
 4219SOL    HW213557   3.755   4.885   5.193
 4220SOL     OW13558   6.853   3.381   3.576
 4220SOL    HW113559   6.775   3.377   3.639
 4220SOL    HW213560   6.826   3.341   3.488
 4221SOL     OW13561   5.190   5.214   6.405
 4221SOL    HW113562   5.236   5.218   6.494
 4221SOL    HW213563   5.190   5.305   6.364
 4222SOL     OW13564   5.499   2.308   1.676
 4222SOL    HW113565   5.494   2.408   1.676
 4222SOL    HW213566   5.460   2.273   1.761
 4223SOL     OW13567   3.288   4.081   2.474
 4223SOL    HW113568   3.349   4.122   2.406
 4223SOL    HW213569   3.210   4.040   2.427
 4224SOL     OW13570   4.538   2.547   4.919
 4224SOL    HW113571   4.575   2.638   4.941
 4224SOL    HW213572   4.548   2.530   4.821
 4225SOL     OW13573   6.198   0.642   4.420
 4225SOL    HW113574   6.298   0.636   4.423
 4225SOL    HW213575   6.160   0.550   4.432
 4226SOL     OW13576   0.801   1.289   3.674
 4226SOL    HW113577   0.708   1.268   3.705
 4226SOL    HW213578   0.809   1.387   3.654
 4227SOL     OW13579   3.985   4.943   0.283
 4227SOL    HW113580   3.974   4.965   0.186
 4227SOL    HW213581   3.910   4.884   0.312
 4228SOL     OW13582   5.948   5.538   3.712
 4228SOL    HW113583   6.017   5.599   3.673
 4228SOL    HW213584   5.857   5.577   3.697
 4229SOL     OW13585   4.450   4.900   6.321
 4229SOL    HW113586   4.550   4.897   6.319
 4229SOL    HW213587   4.418   4.880   6.413
 4230SOL     OW13588   3.143   0.417   5.177
 4230SOL    HW113589   3.121   0.457   5.266
 4230SOL    HW213590   3.144   0.318   5.184
 4231SOL     OW13591   4.793   6.660   5.129
 4231SOL    HW113592   4.882   6.616   5.142
 4231SOL    HW213593   4.776   6.724   5.204
 4232SOL     OW13594   1.786   5.425   2.786
 4232SOL    HW113595   1.801   5.507   2.731
 4232SOL    HW213596   1.688   5.403   2.788
 4233SOL     OW13597   6.589   0.305   6.508
 4233SOL    HW113598   6.506   0.308   6.564
 4233SOL    HW213599   6.667   0.334   6.563
 4234SOL     OW13600   3.114   5.461   6.651
 4234SOL    HW113601   3.105   5.409   6.566
 4234SOL    HW213602   3.051   5.539   6.650
 4235SOL     OW13603   6.019   4.122   5.509
 4235SOL    HW113604   5.945   4.188   5.523
 4235SOL    HW213605   6.061   4.100   5.597
 4236SOL     OW13606   0.432   2.517   3.861
 4236SOL    HW113607   0.343   2.474   3.848
 4236SOL    HW213608   0.445   2.538   3.958
 4237SOL     OW13609   5.236   4.063   5.054
 4237SOL    HW113610   5.232   3.986   5.117
 4237SOL    HW213611   5.177   4.137   5.086
 4238SOL     OW13612   4.153   5.036   3.990
 4238SOL    HW113613   4.133   5.096   4.068
 4238SOL    HW213614   4.105   4.949   4.001
 4239SOL     OW13615   4.381   6.839   5.664
 4239SOL    HW113616   4.335   6.924   5.687
 4239SOL    HW213617   4.435   6.808   5.743
 4240SOL     OW13618   2.550   4.917   0.256
 4240SOL    HW113619   2.551   4.820   0.283
 4240SOL    HW213620   2.580   4.925   0.161
 4241SOL     OW13621   5.132   0.347   1.071
 4241SOL    HW113622   5.051   0.293   1.052
 4241SOL    HW213623   5.120   0.439   1.034
 4242SOL     OW13624   2.266   0.053   2.507
 4242SOL    HW113625   2.230   7.008   2.446
 4242SOL    HW213626   2.253   0.142   2.465
 4243SOL     OW13627   0.679   3.831   2.524
 4243SOL    HW113628   0.717   3.836   2.431
 4243SOL    HW213629   0.735   3.769   2.579
 4244SOL     OW13630   4.924   6.654   1.013
 4244SOL    HW113631   4.882   6.664   0.923
 4244SOL    HW213632   4.853   6.659   1.083
 4245SOL     OW13633   6.637   3.068   0.839
 4245SOL    HW113634   6.613   2.976   0.868
 4245SOL    HW213635   6.557   3.115   0.802
 4246SOL     OW13636   4.935   2.265   3.598
 4246SOL    HW113637   5.000   2.240   3.527
 4246SOL    HW213638   4.985   2.285   3.683
 4247SOL     OW13639   1.675   4.741   5.114
 4247SOL    HW113640   1.748   4.701   5.170
 4247SOL    HW213641   1.662   4.686   5.032
 4248SOL     OW13642   2.057   0.915   2.656
 4248SOL    HW113643   1.995   0.875   2.723
 4248SOL    HW213644   2.004   0.972   2.592
 4249SOL     OW13645   7.010   0.719   4.862
 4249SOL    HW113646   6.946   0.791   4.888
 4249SOL    HW213647   0.060   0.716   4.927
 4250SOL     OW13648   6.770   6.159   4.167
 4250SOL    HW113649   6.822   6.116   4.094
 4250SOL    HW213650   6.755   6.094   4.241
 4251SOL     OW13651   6.158   2.195   6.143
 4251SOL    HW113652   6.173   2.235   6.233
 4251SOL    HW213653   6.085   2.245   6.096
 4252SOL     OW13654   6.539   6.338   5.907
 4252SOL    HW113655   6.610   6.300   5.967
 4252SOL    HW213656   6.457   6.280   5.911
 4253SOL     OW13657   4.167   5.714   2.596
 4253SOL    HW113658   4.128   5.666   2.517
 4253SOL    HW213659   4.189   5.648   2.667
 4254SOL     OW13660   2.303   3.427   6.557
 4254SOL    HW113661   2.231   3.418   6.626
 4254SOL    HW213662   2.313   3.522   6.530
 4255SOL     OW13663   0.380   3.724   2.571
 4255SOL    HW113664   0.457   3.777   2.535
 4255SOL    HW213665   0.341   3.669   2.497
 4256SOL     OW13666   0.672   5.127   2.249
 4256SOL    HW113667   0.631   5.208   2.207
 4256SOL    HW213668   0.749   5.156   2.307
 4257SOL     OW13669   5.983   1.089   4.948
 4257SOL    HW113670   6.013   1.175   4.989
 4257SOL    HW213671   6.048   1.016   4.972
 4258SOL     OW13672   3.957   5.986   0.372
 4258SOL    HW113673   3.857   5.990   0.375
 4258SOL    HW213674   3.994   6.078   0.371
 4259SOL     OW13675   0.929   6.492   2.337
 4259SOL    HW113676   0.992   6.414   2.339
 4259SOL    HW213677   0.930   6.537   2.426
 4260SOL     OW13678   5.367   6.932   4.983
 4260SOL    HW113679   5.357   0.006   4.988
 4260SOL    HW213680   5.458   6.907   5.015
 4261SOL     OW13681   1.823   0.019   3.702
 4261SOL    HW113682   1.744   0.066   3.739
 4261SOL    HW213683   1.896   0.016   3.770
 4262SOL     OW13684   1.500   4.519   6.574
 4262SOL    HW113685   1.470   4.540   6.667
 4262SOL    HW213686   1.576   4.455   6.576
 4263SOL     OW13687   2.930   1.959   3.746
 4263SOL    HW113688   2.910   1.955   3.648
 4263SOL    HW213689   3.011   2.015   3.762
 4264SOL     OW13690   5.653   1.328   4.235
 4264SOL    HW113691   5.613   1.413   4.200
 4264SOL    HW213692   5.580   1.271   4.274
 4265SOL     OW13693   3.060   0.248   0.938
 4265SOL    HW113694   3.056   0.183   0.862
 4265SOL    HW213695   2.968   0.274   0.964
 4266SOL     OW13696   1.166   6.358   0.314
 4266SOL    HW113697   1.225   6.406   0.249
 4266SOL    HW213698   1.192   6.262   0.317
 4267SOL     OW13699   1.679   4.249   4.694
 4267SOL    HW113700   1.680   4.181   4.621
 4267SOL    HW213701   1.616   4.220   4.765
 4268SOL     OW13702   1.214   4.529   6.521
 4268SOL    HW113703   1.306   4.515   6.557
 4268SOL    HW213704   1.202   4.475   6.438
 4269SOL     OW13705   3.098   1.945   4.547
 4269SOL    HW113706   3.103   2.043   4.525
 4269SOL    HW213707   3.180   1.899   4.514
 4270SOL     OW13708   3.631   2.358   0.719
 4270SOL    HW113709   3.596   2.385   0.809
 4270SOL    HW213710   3.696   2.427   0.687
 4271SOL     OW13711   6.707   0.416   0.885
 4271SOL    HW113712   6.740   0.488   0.947
 4271SOL    HW213713   6.773   0.341   0.883
 4272SOL     OW13714   6.307   2.344   5.925
 4272SOL    HW113715   6.331   2.422   5.984
 4272SOL    HW213716   6.269   2.270   5.981
 4273SOL     OW13717   4.134   5.421   5.023
 4273SOL    HW113718   4.174   5.466   4.944
 4273SOL    HW213719   4.040   5.393   5.001
 4274SOL     OW13720   6.815   0.349   1.870
 4274SOL    HW113721   6.805   0.273   1.935
 4274SOL    HW213722   6.749   0.420   1.892
 4275SOL     OW13723   0.958   2.716   3.184
 4275SOL    HW113724   0.878   2.773   3.202
 4275SOL    HW213725   0.989   2.731   3.090
 4276SOL     OW13726   2.908   5.992   3.759
 4276SOL    HW113727   2.837   5.921   3.765
 4276SOL    HW213728   2.899   6.042   3.673
 4277SOL     OW13729   6.149   5.557   3.886
 4277SOL    HW113730   6.063   5.558   3.835
 4277SOL    HW213731   6.190   5.466   3.883
 4278SOL     OW13732   1.270   6.796   1.738
 4278SOL    HW113733   1.353   6.761   1.780
 4278SOL    HW213734   1.232   6.869   1.795
 4279SOL     OW13735   2.070   2.440   3.264
 4279SOL    HW113736   2.116   2.457   3.351
 4279SOL    HW213737   2.124   2.479   3.189
 4280SOL     OW13738   6.793   0.192   6.034
 4280SOL    HW113739   6.814   0.114   6.092
 4280SOL    HW213740   6.710   0.174   5.981
 4281SOL     OW13741   4.378   5.555   4.000
 4281SOL    HW113742   4.421   5.645   4.015
 4281SOL    HW213743   4.347   5.548   3.906
 4282SOL     OW13744   3.623   4.084   1.081
 4282SOL    HW113745   3.636   4.057   0.986
 4282SOL    HW213746   3.712   4.093   1.125
 4283SOL     OW13747   5.067   1.128   3.945
 4283SOL    HW113748   5.043   1.137   3.848
 4283SOL    HW213749   4.991   1.088   3.995
 4284SOL     OW13750   5.010   5.800   6.708
 4284SOL    HW113751   5.042   5.760   6.793
 4284SOL    HW213752   5.085   5.805   6.642
 4285SOL     OW13753   3.057   0.584   6.130
 4285SOL    HW113754   3.026   0.622   6.043
 4285SOL    HW213755   3.031   0.488   6.136
 4286SOL     OW13756   6.541   1.175   6.715
 4286SOL    HW113757   6.496   1.263   6.699
 4286SOL    HW213758   6.582   1.175   6.806
 4287SOL     OW13759   4.879   0.615   6.977
 4287SOL    HW113760   4.935   0.537   6.949
 4287SOL    HW213761   4.797   0.582   7.024
 4288SOL     OW13762   6.939   6.465   2.212
 4288SOL    HW113763   0.013   6.460   2.218
 4288SOL    HW213764   6.899   6.402   2.279
 4289SOL     OW13765   0.239   3.130   4.785
 4289SOL    HW113766   0.194   3.193   4.723
 4289SOL    HW213767   0.293   3.064   4.733
 4290SOL     OW13768   0.415   0.791   3.128
 4290SOL    HW113769   0.499   0.833   3.096
 4290SOL    HW213770   0.417   0.693   3.110
 4291SOL     OW13771   4.975   3.055   5.811
 4291SOL    HW113772   4.975   2.990   5.735
 4291SOL    HW213773   4.931   3.140   5.783
 4292SOL     OW13774   5.486   1.979   0.939
 4292SOL    HW113775   5.499   2.039   1.017
 4292SOL    HW213776   5.469   1.886   0.971
 4293SOL     OW13777   4.622   4.001   6.895
 4293SOL    HW113778   4.533   3.995   6.942
 4293SOL    HW213779   4.619   3.946   6.812
 4294SOL     OW13780   2.803   1.948   6.408
 4294SOL    HW113781   2.747   2.016   6.362
 4294SOL    HW213782   2.896   1.982   6.418
 4295SOL     OW13783   4.064   6.377   3.280
 4295SOL    HW113784   4.089   6.375   3.377
 4295SOL    HW213785   4.132   6.327   3.227
 4296SOL     OW13786   2.969   6.447   1.123
 4296SOL    HW113787   2.922   6.450   1.035
 4296SOL    HW213788   2.916   6.393   1.188
 4297SOL     OW13789   5.547   5.349   1.188
 4297SOL    HW113790   5.482   5.381   1.257
 4297SOL    HW213791   5.538   5.250   1.177
 4298SOL     OW13792   3.335   6.270   1.351
 4298SOL    HW113793   3.330   6.173   1.375
 4298SOL    HW213794   3.427   6.304   1.368
 4299SOL     OW13795   1.147   2.391   0.288
 4299SOL    HW113796   1.121   2.321   0.222
 4299SOL    HW213797   1.245   2.385   0.307
 4300SOL     OW13798   3.890   0.554   1.061
 4300SOL    HW113799   3.925   0.648   1.066
 4300SOL    HW213800   3.842   0.533   1.146
 4301SOL     OW13801   3.525   0.053   2.068
 4301SOL    HW113802   3.462   7.004   2.049
 4301SOL    HW213803   3.499   0.132   2.013
 4302SOL     OW13804   1.704   5.823   6.142
 4302SOL    HW113805   1.669   5.731   6.160
 4302SOL    HW213806   1.778   5.843   6.206
 4303SOL     OW13807   6.111   4.225   4.071
 4303SOL    HW113808   6.176   4.150   4.062
 4303SOL    HW213809   6.041   4.217   3.999
 4304SOL     OW13810   3.426   3.511   1.541
 4304SOL    HW113811   3.519   3.547   1.547
 4304SOL    HW213812   3.362   3.588   1.532
 4305SOL     OW13813   1.096   0.343   5.259
 4305SOL    HW113814   1.164   0.289   5.308
 4305SOL    HW213815   1.117   0.343   5.162
 4306SOL     OW13816   5.176   3.822   4.563
 4306SOL    HW113817   5.080   3.849   4.550
 4306SOL    HW213818   5.235   3.897   4.533
 4307SOL     OW13819   6.198   2.050   5.253
 4307SOL    HW113820   6.294   2.068   5.230
 4307SOL    HW213821   6.140   2.120   5.212
 4308SOL     OW13822   4.949   4.724   1.057
 4308SOL    HW113823   4.899   4.661   1.116
 4308SOL    HW213824   5.047   4.704   1.061
 4309SOL     OW13825   1.338   3.734   0.336
 4309SOL    HW113826   1.434   3.728   0.310
 4309SOL    HW213827   1.328   3.707   0.432
 4310SOL     OW13828   0.388   1.867   2.285
 4310SOL    HW113829   0.322   1.794   2.265
 4310SOL    HW213830   0.432   1.895   2.199
 4311SOL     OW13831   1.083   6.193   2.554
 4311SOL    HW113832   1.100   6.192   2.455
 4311SOL    HW213833   1.033   6.110   2.580
 4312SOL     OW13834   0.338   4.845   2.228
 4312SOL    HW113835   0.312   4.833   2.132
 4312SOL    HW213836   0.437   4.837   2.237
 4313SOL     OW13837   6.028   1.566   6.816
 4313SOL    HW113838   6.064   1.474   6.833
 4313SOL    HW213839   6.071   1.603   6.734
 4314SOL     OW13840   6.591   2.857   4.788
 4314SOL    HW113841   6.606   2.760   4.809
 4314SOL    HW213842   6.568   2.867   4.691
 4315SOL     OW13843   2.631   1.511   3.809
 4315SOL    HW113844   2.718   1.487   3.766
 4315SOL    HW213845   2.629   1.477   3.903
 4316SOL     OW13846   5.422   6.922   2.094
 4316SOL    HW113847   5.373   6.865   2.160
 4316SOL    HW213848   5.415   6.882   2.003
 4317SOL     OW13849   4.811   0.784   5.930
 4317SOL    HW113850   4.798   0.702   5.874
 4317SOL    HW213851   4.756   0.777   6.013
 4318SOL     OW13852   0.998   1.989   4.032
 4318SOL    HW113853   0.964   1.899   4.060
 4318SOL    HW213854   1.010   1.991   3.933
 4319SOL     OW13855   1.078   4.536   2.093
 4319SOL    HW113856   0.999   4.550   2.152
 4319SOL    HW213857   1.048   4.530   1.997
 4320SOL     OW13858   3.560   6.123   0.081
 4320SOL    HW113859   3.654   6.156   0.067
 4320SOL    HW213860   3.504   6.147   0.002
 4321SOL     OW13861   6.251   6.831   2.516
 4321SOL    HW113862   6.307   6.783   2.449
 4321SOL    HW213863   6.310   6.877   2.583
 4322SOL     OW13864   0.887   3.159   5.042
 4322SOL    HW113865   0.792   3.174   5.013
 4322SOL    HW213866   0.892   3.156   5.142
 4323SOL     OW13867   3.764   5.584   0.157
 4323SOL    HW113868   3.665   5.598   0.159
 4323SOL    HW213869   3.787   5.519   0.084
 4324SOL     OW13870   6.997   3.669   5.891
 4324SOL    HW113871   6.995   3.634   5.798
 4324SOL    HW213872   6.939   3.750   5.898
 4325SOL     OW13873   2.903   0.588   2.738
 4325SOL    HW113874   2.817   0.629   2.707
 4325SOL    HW213875   2.884   0.506   2.790
 4326SOL     OW13876   4.833   2.445   2.622
 4326SOL    HW113877   4.882   2.528   2.650
 4326SOL    HW213878   4.748   2.470   2.576
 4327SOL     OW13879   3.449   5.577   4.152
 4327SOL    HW113880   3.499   5.525   4.221
 4327SOL    HW213881   3.351   5.574   4.172
 4328SOL     OW13882   5.613   5.805   5.202
 4328SOL    HW113883   5.605   5.883   5.140
 4328SOL    HW213884   5.674   5.736   5.161
 4329SOL     OW13885   6.016   2.635   5.983
 4329SOL    HW113886   6.073   2.691   6.043
 4329SOL    HW213887   6.016   2.674   5.891
 4330SOL     OW13888   2.835   4.931   5.246
 4330SOL    HW113889   2.928   4.901   5.226
 4330SOL    HW213890   2.804   4.889   5.332
 4331SOL     OW13891   6.438   0.618   1.795
 4331SOL    HW113892   6.351   0.581   1.826
 4331SOL    HW213893   6.425   0.711   1.763
 4332SOL     OW13894   6.873   4.800   2.372
 4332SOL    HW113895   6.926   4.787   2.456
 4332SOL    HW213896   6.936   4.820   2.296
 4333SOL     OW13897   4.065   1.821   5.257
 4333SOL    HW113898   3.999   1.763   5.209
 4333SOL    HW213899   4.110   1.769   5.329
 4334SOL     OW13900   1.154   2.530   3.583
 4334SOL    HW113901   1.163   2.564   3.677
 4334SOL    HW213902   1.075   2.468   3.578
 4335SOL     OW13903   3.447   3.488   1.184
 4335SOL    HW113904   3.422   3.400   1.224
 4335SOL    HW213905   3.381   3.557   1.213
 4336SOL     OW13906   2.595   5.724   5.901
 4336SOL    HW113907   2.645   5.639   5.919
 4336SOL    HW213908   2.508   5.723   5.950
 4337SOL     OW13909   1.453   5.473   3.048
 4337SOL    HW113910   1.505   5.455   2.965
 4337SOL    HW213911   1.375   5.533   3.026
 4338SOL     OW13912   4.627   0.562   5.672
 4338SOL    HW113913   4.695   0.556   5.745
 4338SOL    HW213914   4.655   0.631   5.605
 4339SOL     OW13915   4.233   2.928   5.772
 4339SOL    HW113916   4.259   2.911   5.867
 4339SOL    HW213917   4.255   2.848   5.717
 4340SOL     OW13918   6.792   3.600   0.799
 4340SOL    HW113919   6.766   3.646   0.884
 4340SOL    HW213920   6.785   3.501   0.812
 4341SOL     OW13921   0.835   5.813   2.435
 4341SOL    HW113922   0.925   5.783   2.467
 4341SOL    HW213923   0.825   5.912   2.451
 4342SOL     OW13924   5.282   4.040   2.525
 4342SOL    HW113925   5.239   3.992   2.449
 4342SOL    HW213926   5.232   4.021   2.609
 4343SOL     OW13927   3.900   0.372   6.310
 4343SOL    HW113928   3.947   0.431   6.244
 4343SOL    HW213929   3.947   0.375   6.398
 4344SOL     OW13930   0.202   2.373   3.808
 4344SOL    HW113931   0.105   2.398   3.816
 4344SOL    HW213932   0.211   2.296   3.744
 4345SOL     OW13933   2.883   3.452   2.386
 4345SOL    HW113934   2.873   3.353   2.400
 4345SOL    HW213935   2.965   3.484   2.434
 4346SOL     OW13936   1.749   3.431   1.864
 4346SOL    HW113937   1.834   3.478   1.887
 4346SOL    HW213938   1.759   3.385   1.776
 4347SOL     OW13939   5.886   4.947   1.744
 4347SOL    HW113940   5.888   5.037   1.701
 4347SOL    HW213941   5.792   4.924   1.768
 4348SOL     OW13942   6.186   6.107   4.088
 4348SOL    HW113943   6.283   6.107   4.110
 4348SOL    HW213944   6.156   6.015   4.064
 4349SOL     OW13945   0.134   3.625   4.047
 4349SOL    HW113946   0.188   3.676   3.979
 4349SOL    HW213947   0.196   3.580   4.112
 4350SOL     OW13948   4.731   0.978   5.018
 4350SOL    HW113949   4.774   1.051   4.965
 4350SOL    HW213950   4.783   0.894   5.008
 4351SOL     OW13951   1.341   6.790   0.901
 4351SOL    HW113952   1.297   6.762   0.815
 4351SOL    HW213953   1.273   6.785   0.975
 4352SOL     OW13954   4.054   3.802   1.187
 4352SOL    HW113955   4.150   3.795   1.214
 4352SOL    HW213956   4.006   3.717   1.210
 4353SOL     OW13957   3.032   2.871   0.622
 4353SOL    HW113958   2.960   2.862   0.553
 4353SOL    HW213959   3.004   2.821   0.704
 4354SOL     OW13960   6.007   6.962   4.514
 4354SOL    HW113961   6.049   6.877   4.546
 4354SOL    HW213962   6.002   6.961   4.414
 4355SOL     OW13963   1.789   6.313   3.441
 4355SOL    HW113964   1.823   6.324   3.348
 4355SOL    HW213965   1.834   6.378   3.501
 4356SOL     OW13966   5.072   2.288   6.510
 4356SOL    HW113967   5.048   2.304   6.414
 4356SOL    HW213968   5.027   2.356   6.567
 4357SOL     OW13969   6.634   0.513   1.968
 4357SOL    HW113970   6.641   0.578   2.043
 4357SOL    HW213971   6.557   0.538   1.909
 4358SOL     OW13972   0.922   0.811   0.356
 4358SOL    HW113973   0.952   0.737   0.296
 4358SOL    HW213974   0.938   0.899   0.311
 4359SOL     OW13975   2.250   1.425   6.608
 4359SOL    HW113976   2.189   1.495   6.573
 4359SOL    HW213977   2.264   1.439   6.706
 4360SOL     OW13978   1.319   2.966   3.643
 4360SOL    HW113979   1.288   2.984   3.550
 4360SOL    HW213980   1.282   3.035   3.705
 4361SOL     OW13981   0.492   1.907   0.966
 4361SOL    HW113982   0.534   1.950   0.886
 4361SOL    HW213983   0.539   1.822   0.988
 4362SOL     OW13984   1.525   5.964   4.280
 4362SOL    HW113985   1.473   6.048   4.264
 4362SOL    HW213986   1.535   5.950   4.379
 4363SOL     OW13987   4.953   0.738   2.526
 4363SOL    HW113988   4.883   0.668   2.513
 4363SOL    HW213989   5.044   0.695   2.520
 4364SOL     OW13990   3.369   3.836   2.754
 4364SOL    HW113991   3.375   3.750   2.805
 4364SOL    HW213992   3.418   3.907   2.804
 4365SOL     OW13993   3.008   2.166   1.889
 4365SOL    HW113994   3.070   2.118   1.952
 4365SOL    HW213995   2.965   2.243   1.936
 4366SOL     OW13996   4.600   6.288   4.954
 4366SOL    HW113997   4.578   6.280   4.856
 4366SOL    HW213998   4.699   6.302   4.964
 4367SOL     OW13999   2.971   5.422   4.046
 4367SOL    HW114000   2.905   5.352   4.073
 4367SOL    HW214001   3.052   5.378   4.008
 4368SOL     OW14002   4.813   4.470   2.289
 4368SOL    HW114003   4.911   4.451   2.300
 4368SOL    HW214004   4.764   4.384   2.274
 4369SOL     OW14005   4.113   5.075   3.009
 4369SOL    HW114006   4.043   5.146   3.015
 4369SOL    HW214007   4.070   4.987   2.986
 4370SOL     OW14008   3.733   4.724   1.423
 4370SOL    HW114009   3.668   4.663   1.467
 4370SOL    HW214010   3.699   4.750   1.333
 4371SOL     OW14011   2.887   0.670   1.817
 4371SOL    HW114012   2.862   0.742   1.882
 4371SOL    HW214013   2.854   0.696   1.726
 4372SOL     OW14014   2.054   3.141   4.733
 4372SOL    HW114015   1.975   3.120   4.792
 4372SOL    HW214016   2.131   3.170   4.790
 4373SOL     OW14017   4.205   0.745   6.012
 4373SOL    HW114018   4.275   0.814   5.992
 4373SOL    HW214019   4.239   0.681   6.080
 4374SOL     OW14020   2.450   1.036   1.029
 4374SOL    HW114021   2.496   1.113   1.074
 4374SOL    HW214022   2.445   1.054   0.931
 4375SOL     OW14023   4.121   0.659   3.066
 4375SOL    HW114024   4.219   0.661   3.085
 4375SOL    HW214025   4.089   0.752   3.046
 4376SOL     OW14026   6.122   6.994   1.301
 4376SOL    HW114027   6.203   7.026   1.350
 4376SOL    HW214028   6.146   6.916   1.243
 4377SOL     OW14029   6.062   6.410   6.733
 4377SOL    HW114030   6.045   6.319   6.697
 4377SOL    HW214031   6.161   6.424   6.742
 4378SOL     OW14032   1.584   5.792   2.228
 4378SOL    HW114033   1.517   5.828   2.163
 4378SOL    HW214034   1.556   5.702   2.259
 4379SOL     OW14035   1.154   1.384   1.581
 4379SOL    HW114036   1.059   1.368   1.609
 4379SOL    HW214037   1.215   1.325   1.635
 4380SOL     OW14038   1.806   6.407   5.130
 4380SOL    HW114039   1.759   6.458   5.202
 4380SOL    HW214040   1.820   6.313   5.159
 4381SOL     OW14041   3.681   0.124   4.863
 4381SOL    HW114042   3.599   0.172   4.895
 4381SOL    HW214043   3.663   0.026   4.860
 4382SOL     OW14044   5.090   4.131   4.783
 4382SOL    HW114045   5.061   4.226   4.798
 4382SOL    HW214046   5.169   4.129   4.722
 4383SOL     OW14047   1.368   2.566   5.787
 4383SOL    HW114048   1.468   2.557   5.782
 4383SOL    HW214049   1.328   2.477   5.809
 4384SOL     OW14050   3.688   6.706   1.328
 4384SOL    HW114051   3.674   6.776   1.258
 4384SOL    HW214052   3.711   6.619   1.285
 4385SOL     OW14053   0.433   1.609   3.087
 4385SOL    HW114054   0.527   1.595   3.119
 4385SOL    HW214055   0.387   1.520   3.079
 4386SOL     OW14056   0.853   3.650   6.529
 4386SOL    HW114057   0.756   3.673   6.542
 4386SOL    HW214058   0.907   3.693   6.601
 4387SOL     OW14059   6.762   3.363   1.163
 4387SOL    HW114060   6.705   3.435   1.204
 4387SOL    HW214061   6.787   3.296   1.233
 4388SOL     OW14062   3.198   0.806   6.161
 4388SOL    HW114063   3.165   0.712   6.153
 4388SOL    HW214064   3.213   0.843   6.069
 4389SOL     OW14065   6.028   2.716   1.889
 4389SOL    HW114066   6.016   2.621   1.860
 4389SOL    HW214067   6.083   2.765   1.822
 4390SOL     OW14068   4.688   2.797   2.238
 4390SOL    HW114069   4.645   2.723   2.186
 4390SOL    HW214070   4.713   2.872   2.177
 4391SOL     OW14071   0.713   5.668   0.359
 4391SOL    HW114072   0.678   5.622   0.441
 4391SOL    HW214073   0.726   5.765   0.377
 4392SOL     OW14074   4.872   3.326   4.579
 4392SOL    HW114075   4.970   3.311   4.583
 4392SOL    HW214076   4.853   3.424   4.574
 4393SOL     OW14077   4.730   6.915   3.317
 4393SOL    HW114078   4.816   6.895   3.270
 4393SOL    HW214079   4.675   6.831   3.323
 4394SOL     OW14080   5.265   6.861   2.324
 4394SOL    HW114081   5.226   6.810   2.400
 4394SOL    HW214082   5.289   6.953   2.355
 4395SOL     OW14083   5.213   1.438   1.718
 4395SOL    HW114084   5.141   1.368   1.724
 4395SOL    HW214085   5.171   1.526   1.696
 4396SOL     OW14086   0.886   0.999   4.330
 4396SOL    HW114087   0.835   1.083   4.349
 4396SOL    HW214088   0.959   0.989   4.398
 4397SOL     OW14089   6.920   0.373   5.187
 4397SOL    HW114090   6.989   0.310   5.223
 4397SOL    HW214091   6.920   0.457   5.241
 4398SOL     OW14092   0.361   4.813   4.138
 4398SOL    HW114093   0.320   4.750   4.072
 4398SOL    HW214094   0.341   4.907   4.111
 4399SOL     OW14095   1.823   1.247   0.748
 4399SOL    HW114096   1.805   1.335   0.704
 4399SOL    HW214097   1.760   1.236   0.826
 4400SOL     OW14098   3.154   6.588   4.337
 4400SOL    HW114099   3.219   6.664   4.344
 4400SOL    HW214100   3.144   6.544   4.426
 4401SOL     OW14101   5.759   5.975   4.171
 4401SOL    HW114102   5.758   5.912   4.093
 4401SOL    HW214103   5.687   6.043   4.159
 4402SOL     OW14104   1.085   5.876   2.721
 4402SOL    HW114105   1.171   5.894   2.769
 4402SOL    HW214106   1.008   5.905   2.777
 4403SOL     OW14107   0.130   0.132   3.318
 4403SOL    HW114108   0.184   0.070   3.374
 4403SOL    HW214109   0.188   0.207   3.285
 4404SOL     OW14110   0.435   4.168   2.805
 4404SOL    HW114111   0.366   4.096   2.795
 4404SOL    HW214112   0.480   4.159   2.894
 4405SOL     OW14113   2.916   4.756   5.817
 4405SOL    HW114114   2.847   4.765   5.746
 4405SOL    HW214115   2.986   4.826   5.805
 4406SOL     OW14116   5.535   4.008   0.987
 4406SOL    HW114117   5.458   3.990   1.048
 4406SOL    HW214118   5.575   4.097   1.008
 4407SOL     OW14119   6.565   6.455   0.278
 4407SOL    HW114120   6.546   6.389   0.350
 4407SOL    HW214121   6.611   6.535   0.317
 4408SOL     OW14122   5.064   0.427   6.853
 4408SOL    HW114123   5.080   0.331   6.875
 4408SOL    HW214124   5.152   0.476   6.853
 4409SOL     OW14125   3.472   0.480   2.213
 4409SOL    HW114126   3.404   0.553   2.208
 4409SOL    HW214127   3.504   0.470   2.307
 4410SOL     OW14128   2.202   5.275   0.976
 4410SOL    HW114129   2.176   5.297   1.070
 4410SOL    HW214130   2.248   5.185   0.974
 4411SOL     OW14131   3.489   3.135   2.785
 4411SOL    HW114132   3.511   3.135   2.687
 4411SOL    HW214133   3.425   3.061   2.805
 4412SOL     OW14134   3.919   1.098   6.472
 4412SOL    HW114135   3.920   1.031   6.398
 4412SOL    HW214136   3.915   1.190   6.433
 4413SOL     OW14137   4.005   5.714   4.588
 4413SOL    HW114138   3.996   5.689   4.492
 4413SOL    HW214139   4.069   5.790   4.597
 4414SOL     OW14140   4.059   4.700   1.911
 4414SOL    HW114141   4.127   4.706   1.838
 4414SOL    HW214142   3.983   4.642   1.881
 4415SOL     OW14143   4.817   3.472   6.254
 4415SOL    HW114144   4.871   3.431   6.327
 4415SOL    HW214145   4.878   3.522   6.192
 4416SOL     OW14146   3.181   0.776   4.616
 4416SOL    HW114147   3.164   0.787   4.518
 4416SOL    HW214148   3.279   0.761   4.631
 4417SOL     OW14149   0.377   5.509   2.120
 4417SOL    HW114150   0.378   5.427   2.177
 4417SOL    HW214151   0.469   5.525   2.083
 4418SOL     OW14152   4.501   6.112   4.198
 4418SOL    HW114153   4.521   6.017   4.223
 4418SOL    HW214154   4.442   6.153   4.268
 4419SOL     OW14155   6.656   5.141   0.313
 4419SOL    HW114156   6.694   5.181   0.397
 4419SOL    HW214157   6.604   5.059   0.336
 4420SOL     OW14158   5.299   1.512   0.196
 4420SOL    HW114159   5.338   1.594   0.154
 4420SOL    HW214160   5.361   1.435   0.184
 4421SOL     OW14161   1.540   1.820   2.990
 4421SOL    HW114162   1.460   1.879   2.996
 4421SOL    HW214163   1.512   1.728   2.960
 4422SOL     OW14164   2.560   4.300   6.087
 4422SOL    HW114165   2.589   4.219   6.138
 4422SOL    HW214166   2.528   4.272   5.996
 4423SOL     OW14167   1.420   2.451   6.528
 4423SOL    HW114168   1.506   2.404   6.508
 4423SOL    HW214169   1.388   2.497   6.445
 4424SOL     OW14170   5.966   6.284   3.067
 4424SOL    HW114171   6.051   6.240   3.092
 4424SOL    HW214172   5.925   6.326   3.149
 4425SOL     OW14173   3.859   5.271   6.601
 4425SOL    HW114174   3.844   5.220   6.516
 4425SOL    HW214175   3.876   5.367   6.579
 4426SOL     OW14176   0.111   0.329   5.612
 4426SOL    HW114177   0.145   0.420   5.634
 4426SOL    HW214178   0.038   0.304   5.676
 4427SOL     OW14179   0.808   0.703   3.334
 4427SOL    HW114180   0.832   0.791   3.294
 4427SOL    HW214181   0.732   0.663   3.284
 4428SOL     OW14182   1.881   5.249   4.306
 4428SOL    HW114183   1.801   5.198   4.275
 4428SOL    HW214184   1.949   5.185   4.342
 4429SOL     OW14185   3.497   6.933   3.674
 4429SOL    HW114186   3.502   6.938   3.774
 4429SOL    HW214187   3.486   6.837   3.646
 4430SOL     OW14188   2.863   1.284   2.773
 4430SOL    HW114189   2.833   1.358   2.713
 4430SOL    HW214190   2.892   1.205   2.718
 4431SOL     OW14191   3.213   1.470   3.414
 4431SOL    HW114192   3.243   1.452   3.321
 4431SOL    HW214193   3.247   1.559   3.444
 4432SOL     OW14194   3.255   3.405   2.726
 4432SOL    HW114195   3.174   3.449   2.686
 4432SOL    HW214196   3.227   3.320   2.770
 4433SOL     OW14197   6.284   6.391   2.808
 4433SOL    HW114198   6.204   6.440   2.843
 4433SOL    HW214199   6.350   6.378   2.882
 4434SOL     OW14200   5.568   1.376   3.736
 4434SOL    HW114201   5.525   1.418   3.816
 4434SOL    HW214202   5.659   1.415   3.723
 4435SOL     OW14203   3.474   2.824   1.600
 4435SOL    HW114204   3.417   2.750   1.636
 4435SOL    HW214205   3.479   2.898   1.666
 4436SOL     OW14206   3.818   1.762   6.813
 4436SOL    HW114207   3.776   1.839   6.764
 4436SOL    HW214208   3.908   1.742   6.774
 4437SOL     OW14209   3.753   0.745   4.651
 4437SOL    HW114210   3.747   0.658   4.699
 4437SOL    HW214211   3.845   0.783   4.662
 4438SOL     OW14212   4.163   2.298   6.756
 4438SOL    HW114213   4.243   2.294   6.815
 4438SOL    HW214214   4.080   2.299   6.813
 4439SOL     OW14215   1.362   5.180   2.303
 4439SOL    HW114216   1.287   5.142   2.357
 4439SOL    HW214217   1.336   5.182   2.207
 4440SOL     OW14218   1.620   6.029   6.744
 4440SOL    HW114219   1.566   6.076   6.814
 4440SOL    HW214220   1.596   5.932   6.744
 4441SOL     OW14221   5.355   2.490   2.499
 4441SOL    HW114222   5.446   2.530   2.501
 4441SOL    HW214223   5.338   2.451   2.408
 4442SOL     OW14224   3.596   5.609   3.907
 4442SOL    HW114225   3.535   5.618   3.986
 4442SOL    HW214226   3.610   5.512   3.887
 4443SOL     OW14227   2.482   2.010   5.825
 4443SOL    HW114228   2.399   2.062   5.810
 4443SOL    HW214229   2.465   1.939   5.894
 4444SOL     OW14230   4.592   6.870   0.906
 4444SOL    HW114231   4.655   6.804   0.865
 4444SOL    HW214232   4.526   6.821   0.964
 4445SOL     OW14233   1.278   1.051   6.379
 4445SOL    HW114234   1.374   1.075   6.394
 4445SOL    HW214235   1.228   1.132   6.349
 4446SOL     OW14236   5.958   0.189   3.011
 4446SOL    HW114237   6.013   0.273   3.013
 4446SOL    HW214238   5.876   0.202   3.067
 4447SOL     OW14239   5.568   2.467   5.897
 4447SOL    HW114240   5.471   2.473   5.921
 4447SOL    HW214241   5.619   2.540   5.944
 4448SOL     OW14242   2.257   3.605   0.049
 4448SOL    HW114243   2.265   3.508   0.072
 4448SOL    HW214244   2.279   3.660   0.130
 4449SOL     OW14245   2.279   0.459   5.218
 4449SOL    HW114246   2.369   0.502   5.222
 4449SOL    HW214247   2.261   0.412   5.305
 4450SOL     OW14248   3.442   2.889   3.044
 4450SOL    HW114249   3.508   2.956   3.008
 4450SOL    HW214250   3.489   2.803   3.062
 4451SOL     OW14251   6.696   4.635   1.962
 4451SOL    HW114252   6.620   4.577   1.992
 4451SOL    HW214253   6.706   4.712   2.025
 4452SOL     OW14254   6.242   6.097   6.190
 4452SOL    HW114255   6.231   6.195   6.172
 4452SOL    HW214256   6.273   6.052   6.106
 4453SOL     OW14257   5.152   2.427   1.523
 4453SOL    HW114258   5.193   2.421   1.614
 4453SOL    HW214259   5.056   2.454   1.531
 4454SOL     OW14260   4.928   2.820   0.824
 4454SOL    HW114261   5.027   2.816   0.808
 4454SOL    HW214262   4.882   2.855   0.742
 4455SOL     OW14263   3.600   0.502   2.827
 4455SOL    HW114264   3.664   0.537   2.895
 4455SOL    HW214265   3.529   0.447   2.872
 4456SOL     OW14266   1.468   5.176   3.077
 4456SOL    HW114267   1.467   5.273   3.099
 4456SOL    HW214268   1.539   5.130   3.130
 4457SOL     OW14269   5.161   1.753   6.558
 4457SOL    HW114270   5.152   1.828   6.493
 4457SOL    HW214271   5.213   1.784   6.638
 4458SOL     OW14272   2.759   2.275   6.523
 4458SOL    HW114273   2.831   2.267   6.454
 4458SOL    HW214274   2.800   2.284   6.614
 4459SOL     OW14275   4.770   6.550   4.882
 4459SOL    HW114276   4.803   6.589   4.968
 4459SOL    HW214277   4.760   6.623   4.814
 4460SOL     OW14278   2.810   3.123   6.548
 4460SOL    HW114279   2.877   3.197   6.540
 4460SOL    HW214280   2.770   3.104   6.458
 4461SOL     OW14281   1.705   6.914   2.297
 4461SOL    HW114282   1.719   7.013   2.303
 4461SOL    HW214283   1.610   6.895   2.273
 4462SOL     OW14284   6.540   5.633   0.726
 4462SOL    HW114285   6.446   5.650   0.756
 4462SOL    HW214286   6.576   5.553   0.773
 4463SOL     OW14287   1.873   3.353   6.311
 4463SOL    HW114288   1.950   3.404   6.272
 4463SOL    HW214289   1.790   3.374   6.260
 4464SOL     OW14290   5.342   4.054   6.041
 4464SOL    HW114291   5.354   3.965   5.997
 4464SOL    HW214292   5.431   4.099   6.049
 4465SOL     OW14293   1.684   6.203   1.743
 4465SOL    HW114294   1.744   6.125   1.758
 4465SOL    HW214295   1.720   6.259   1.669
 4466SOL     OW14296   1.258   1.356   2.643
 4466SOL    HW114297   1.228   1.373   2.736
 4466SOL    HW214298   1.179   1.333   2.586
 4467SOL     OW14299   1.364   0.050   2.831
 4467SOL    HW114300   1.305   0.030   2.753
 4467SOL    HW214301   1.456   0.072   2.799
 4468SOL     OW14302   1.143   2.664   0.383
 4468SOL    HW114303   1.074   2.598   0.355
 4468SOL    HW214304   1.174   2.716   0.303
 4469SOL     OW14305   3.422   0.028   1.179
 4469SOL    HW114306   3.496   7.012   1.126
 4469SOL    HW214307   3.459   0.064   1.264
 4470SOL     OW14308   4.843   3.744   1.366
 4470SOL    HW114309   4.767   3.745   1.301
 4470SOL    HW214310   4.809   3.769   1.457
 4471SOL     OW14311   7.005   2.765   1.329
 4471SOL    HW114312   6.948   2.818   1.266
 4471SOL    HW214313   0.068   2.749   1.287
 4472SOL     OW14314   1.955   3.826   2.301
 4472SOL    HW114315   1.918   3.919   2.305
 4472SOL    HW214316   1.948   3.783   2.391
 4473SOL     OW14317   0.330   6.677   4.549
 4473SOL    HW114318   0.418   6.641   4.515
 4473SOL    HW214319   0.292   6.740   4.481
 4474SOL     OW14320   4.003   6.980   2.913
 4474SOL    HW114321   4.084   6.927   2.889
 4474SOL    HW214322   3.934   6.920   2.953
 4475SOL     OW14323   1.864   4.373   0.904
 4475SOL    HW114324   1.952   4.382   0.858
 4475SOL    HW214325   1.872   4.309   0.980
 4476SOL     OW14326   4.585   6.502   2.145
 4476SOL    HW114327   4.525   6.422   2.142
 4476SOL    HW214328   4.531   6.582   2.171
 4477SOL     OW14329   1.993   1.408   0.114
 4477SOL    HW114330   1.941   1.438   0.194
 4477SOL    HW214331   1.949   1.442   0.031
 4478SOL     OW14332   2.162   6.897   2.345
 4478SOL    HW114333   2.193   6.891   2.250
 4478SOL    HW214334   2.202   6.822   2.398
 4479SOL     OW14335   1.237   0.207   5.446
 4479SOL    HW114336   1.178   0.250   5.514
 4479SOL    HW214337   1.317   0.168   5.492
 4480SOL     OW14338   1.082   5.091   4.816
 4480SOL    HW114339   1.109   5.026   4.887
 4480SOL    HW214340   1.164   5.137   4.780
 4481SOL     OW14341   1.094   6.188   4.032
 4481SOL    HW114342   1.183   6.159   4.067
 4481SOL    HW214343   1.041   6.229   4.106
 4482SOL     OW14344   0.318   4.664   3.701
 4482SOL    HW114345   0.386   4.671   3.627
 4482SOL    HW214346   0.291   4.569   3.712
 4483SOL     OW14347   5.680   2.922   1.346
 4483SOL    HW114348   5.725   2.982   1.280
 4483SOL    HW214349   5.583   2.948   1.353
 4484SOL     OW14350   3.832   2.532   5.371
 4484SOL    HW114351   3.733   2.547   5.372
 4484SOL    HW214352   3.877   2.610   5.330
 4485SOL     OW14353   4.934   1.443   6.820
 4485SOL    HW114354   4.920   1.492   6.734
 4485SOL    HW214355   4.963   1.349   6.800
 4486SOL     OW14356   6.826   3.875   4.713
 4486SOL    HW114357   6.843   3.943   4.643
 4486SOL    HW214358   6.785   3.793   4.672
 4487SOL     OW14359   2.798   3.685   6.282
 4487SOL    HW114360   2.852   3.686   6.198
 4487SOL    HW214361   2.804   3.774   6.327
 4488SOL     OW14362   6.166   1.704   5.310
 4488SOL    HW114363   6.220   1.729   5.391
 4488SOL    HW214364   6.221   1.722   5.227
 4489SOL     OW14365   5.698   5.696   4.528
 4489SOL    HW114366   5.763   5.708   4.452
 4489SOL    HW214367   5.643   5.614   4.512
 4490SOL     OW14368   6.408   1.943   2.425
 4490SOL    HW114369   6.345   1.934   2.503
 4490SOL    HW214370   6.357   1.930   2.340
 4491SOL     OW14371   1.155   3.811   2.986
 4491SOL    HW114372   1.209   3.892   2.965
 4491SOL    HW214373   1.143   3.804   3.085
 4492SOL     OW14374   4.764   2.535   0.360
 4492SOL    HW114375   4.816   2.487   0.290
 4492SOL    HW214376   4.764   2.482   0.444
 4493SOL     OW14377   5.261   4.958   5.140
 4493SOL    HW114378   5.179   4.999   5.181
 4493SOL    HW214379   5.262   4.860   5.160
 4494SOL     OW14380   0.159   4.240   4.989
 4494SOL    HW114381   0.242   4.207   5.036
 4494SOL    HW214382   0.160   4.207   4.895
 4495SOL     OW14383   5.199   6.520   1.881
 4495SOL    HW114384   5.200   6.527   1.781
 4495SOL    HW214385   5.124   6.575   1.918
 4496SOL     OW14386   5.307   3.776   5.887
 4496SOL    HW114387   5.220   3.820   5.866
 4496SOL    HW214388   5.297   3.676   5.879
 4497SOL     OW14389   5.722   5.271   6.806
 4497SOL    HW114390   5.697   5.320   6.889
 4497SOL    HW214391   5.686   5.178   6.810
 4498SOL     OW14392   0.075   3.446   6.820
 4498SOL    HW114393   0.017   3.472   6.743
 4498SOL    HW214394   0.171   3.456   6.795
 4499SOL     OW14395   6.777   3.606   5.290
 4499SOL    HW114396   6.685   3.606   5.250
 4499SOL    HW214397   6.818   3.696   5.276
 4500SOL     OW14398   3.072   3.764   4.559
 4500SOL    HW114399   3.010   3.694   4.522
 4500SOL    HW214400   3.162   3.754   4.517
 4501SOL     OW14401   0.405   4.624   5.096
 4501SOL    HW114402   0.424   4.654   5.189
 4501SOL    HW214403   0.460   4.678   5.032
 4502SOL     OW14404   1.531   2.601   0.061
 4502SOL    HW114405   1.500   2.576   6.995
 4502SOL    HW214406   1.573   2.522   0.104
 4503SOL     OW14407   2.177   1.144   3.931
 4503SOL    HW114408   2.182   1.046   3.911
 4503SOL    HW214409   2.081   1.174   3.926
 4504SOL     OW14410   5.902   2.617   5.494
 4504SOL    HW114411   5.948   2.544   5.544
 4504SOL    HW214412   5.805   2.595   5.485
 4505SOL     OW14413   1.823   6.148   5.217
 4505SOL    HW114414   1.788   6.154   5.311
 4505SOL    HW214415   1.914   6.106   5.218
 4506SOL     OW14416   3.926   1.151   5.256
 4506SOL    HW114417   3.852   1.191   5.203
 4506SOL    HW214418   4.012   1.164   5.208
 4507SOL     OW14419   4.711   4.290   0.875
 4507SOL    HW114420   4.788   4.318   0.933
 4507SOL    HW214421   4.686   4.365   0.814
 4508SOL     OW14422   1.182   3.926   6.949
 4508SOL    HW114423   1.163   3.975   6.863
 4508SOL    HW214424   1.193   3.993   7.023
 4509SOL     OW14425   3.211   1.688   4.561
 4509SOL    HW114426   3.269   1.607   4.552
 4509SOL    HW214427   3.117   1.664   4.535
 4510SOL     OW14428   5.471   0.109   5.316
 4510SOL    HW114429   5.507   0.019   5.338
 4510SOL    HW214430   5.468   0.121   5.217
 4511SOL     OW14431   6.763   2.880   0.496
 4511SOL    HW114432   6.823   2.939   0.442
 4511SOL    HW214433   6.813   2.798   0.523
 4512SOL     OW14434   2.110   6.279   6.707
 4512SOL    HW114435   2.191   6.266   6.764
 4512SOL    HW214436   2.031   6.234   6.751
 4513SOL     OW14437   5.011   6.684   1.969
 4513SOL    HW114438   4.979   6.778   1.956
 4513SOL    HW214439   5.046   6.672   2.062
 4514SOL     OW14440   3.251   1.053   5.251
 4514SOL    HW114441   3.319   0.980   5.251
 4514SOL    HW214442   3.286   1.132   5.201
 4515SOL     OW14443   0.037   4.755   0.499
 4515SOL    HW114444   0.043   4.657   0.514
 4515SOL    HW214445   7.025   4.773   0.408
 4516SOL     OW14446   0.726   1.070   5.144
 4516SOL    HW114447   0.808   1.076   5.087
 4516SOL    HW214448   0.672   1.153   5.133
 4517SOL     OW14449   3.455   6.667   6.499
 4517SOL    HW114450   3.357   6.657   6.518
 4517SOL    HW214451   3.469   6.670   6.400
 4518SOL     OW14452   1.020   2.290   3.476
 4518SOL    HW114453   0.950   2.338   3.422
 4518SOL    HW214454   1.081   2.240   3.415
 4519SOL     OW14455   7.003   2.678   3.745
 4519SOL    HW114456   0.059   2.694   3.689
 4519SOL    HW214457   7.018   2.713   3.837
 4520SOL     OW14458   6.623   4.428   2.826
 4520SOL    HW114459   6.677   4.394   2.903
 4520SOL    HW214460   6.658   4.518   2.798
 4521SOL     OW14461   4.806   2.559   6.613
 4521SOL    HW114462   4.848   2.491   6.673
 4521SOL    HW214463   4.708   2.542   6.607
 4522SOL     OW14464   6.266   6.659   3.429
 4522SOL    HW114465   6.350   6.709   3.447
 4522SOL    HW214466   6.286   6.575   3.380
 4523SOL     OW14467   3.082   4.506   0.541
 4523SOL    HW114468   3.036   4.447   0.475
 4523SOL    HW214469   3.091   4.598   0.503
 4524SOL     OW14470   4.793   1.345   5.341
 4524SOL    HW114471   4.829   1.255   5.366
 4524SOL    HW214472   4.865   1.413   5.350
 4525SOL     OW14473   6.454   1.169   4.286
 4525SOL    HW114474   6.355   1.174   4.278
 4525SOL    HW214475   6.478   1.113   4.365
 4526SOL     OW14476   4.840   6.702   0.758
 4526SOL    HW114477   4.843   6.759   0.675
 4526SOL    HW214478   4.902   6.625   0.747
 4527SOL     OW14479   4.967   1.408   3.071
 4527SOL    HW114480   5.033   1.399   3.146
 4527SOL    HW214481   4.966   1.324   3.017
 4528SOL     OW14482   5.609   0.192   0.165
 4528SOL    HW114483   5.596   0.283   0.126
 4528SOL    HW214484   5.655   0.200   0.253
 4529SOL     OW14485   2.404   0.268   2.985
 4529SOL    HW114486   2.412   0.243   2.889
 4529SOL    HW214487   2.385   0.366   2.992
 4530SOL     OW14488   0.597   3.494   5.257
 4530SOL    HW114489   0.535   3.416   5.261
 4530SOL    HW214490   0.691   3.463   5.267
 4531SOL     OW14491   0.965   3.507   3.904
 4531SOL    HW114492   0.972   3.493   3.805
 4531SOL    HW214493   1.039   3.458   3.950
 4532SOL     OW14494   6.575   1.271   1.157
 4532SOL    HW114495   6.648   1.232   1.212
 4532SOL    HW214496   6.487   1.233   1.186
 4533SOL     OW14497   1.691   6.577   3.033
 4533SOL    HW114498   1.712   6.597   2.938
 4533SOL    HW214499   1.606   6.524   3.037
 4534SOL     OW14500   6.419   3.878   5.205
 4534SOL    HW114501   6.434   3.899   5.108
 4534SOL    HW214502   6.321   3.875   5.224
 4535SOL     OW14503   5.282   3.508   1.986
 4535SOL    HW114504   5.247   3.423   1.947
 4535SOL    HW214505   5.310   3.492   2.080
 4536SOL     OW14506   5.675   0.987   4.608
 4536SOL    HW114507   5.720   0.945   4.687
 4536SOL    HW214508   5.734   1.059   4.571
 4537SOL     OW14509   4.031   3.261   6.894
 4537SOL    HW114510   3.994   3.189   6.953
 4537SOL    HW214511   4.074   3.332   6.951
 4538SOL     OW14512   3.459   1.796   3.086
 4538SOL    HW114513   3.525   1.797   3.161
 4538SOL    HW214514   3.463   1.882   3.036
 4539SOL     OW14515   2.075   2.270   3.504
 4539SOL    HW114516   2.126   2.332   3.444
 4539SOL    HW214517   2.055   2.186   3.455
 4540SOL     OW14518   3.276   2.917   4.588
 4540SOL    HW114519   3.204   2.981   4.562
 4540SOL    HW214520   3.336   2.960   4.655
 4541SOL     OW14521   4.912   1.623   0.750
 4541SOL    HW114522   4.900   1.611   0.848
 4541SOL    HW214523   4.908   1.535   0.704
 4542SOL     OW14524   6.320   6.160   2.155
 4542SOL    HW114525   6.382   6.089   2.123
 4542SOL    HW214526   6.239   6.118   2.196
 4543SOL     OW14527   4.843   1.917   1.055
 4543SOL    HW114528   4.868   1.916   0.958
 4543SOL    HW214529   4.917   1.959   1.108
 4544SOL     OW14530   2.616   5.988   6.815
 4544SOL    HW114531   2.705   5.964   6.776
 4544SOL    HW214532   2.543   5.953   6.756
 4545SOL     OW14533   4.280   2.043   5.307
 4545SOL    HW114534   4.293   1.964   5.367
 4545SOL    HW214535   4.330   2.121   5.343
 4546SOL     OW14536   0.830   6.604   6.627
 4546SOL    HW114537   0.801   6.514   6.660
 4546SOL    HW214538   0.753   6.648   6.580
 4547SOL     OW14539   5.863   2.729   1.479
 4547SOL    HW114540   5.771   2.698   1.458
 4547SOL    HW214541   5.867   2.829   1.474
 4548SOL     OW14542   0.267   4.392   3.710
 4548SOL    HW114543   0.214   4.398   3.625
 4548SOL    HW214544   0.215   4.339   3.778
 4549SOL     OW14545   6.520   3.460   3.016
 4549SOL    HW114546   6.495   3.380   2.962
 4549SOL    HW214547   6.589   3.435   3.084
 4550SOL     OW14548   1.080   5.997   3.115
 4550SOL    HW114549   1.006   5.985   3.048
 4550SOL    HW214550   1.136   5.913   3.117
 4551SOL     OW14551   0.922   2.729   5.386
 4551SOL    HW114552   0.880   2.789   5.453
 4551SOL    HW214553   0.890   2.635   5.400
 4552SOL     OW14554   0.516   3.395   4.790
 4552SOL    HW114555   0.512   3.305   4.746
 4552SOL    HW214556   0.608   3.433   4.779
 4553SOL     OW14557   4.602   5.043   0.590
 4553SOL    HW114558   4.524   5.102   0.569
 4553SOL    HW214559   4.672   5.096   0.639
 4554SOL     OW14560   4.139   6.613   2.894
 4554SOL    HW114561   4.122   6.679   2.821
 4554SOL    HW214562   4.190   6.657   2.968
 4555SOL     OW14563   4.674   2.116   6.685
 4555SOL    HW114564   4.619   2.082   6.762
 4555SOL    HW214565   4.767   2.133   6.716
 4556SOL     OW14566   4.446   0.286   3.832
 4556SOL    HW114567   4.371   0.230   3.795
 4556SOL    HW214568   4.529   0.269   3.780
 4557SOL     OW14569   5.537   0.490   5.557
 4557SOL    HW114570   5.488   0.437   5.627
 4557SOL    HW214571   5.495   0.474   5.468
 4558SOL     OW14572   6.209   3.722   6.449
 4558SOL    HW114573   6.123   3.670   6.456
 4558SOL    HW214574   6.207   3.798   6.513
 4559SOL     OW14575   1.356   6.786   1.294
 4559SOL    HW114576   1.303   6.755   1.215
 4559SOL    HW214577   1.311   6.863   1.337
 4560SOL     OW14578   5.288   2.979   2.689
 4560SOL    HW114579   5.230   3.057   2.714
 4560SOL    HW214580   5.373   2.983   2.742
 4561SOL     OW14581   2.805   1.176   0.114
 4561SOL    HW114582   2.793   1.275   0.110
 4561SOL    HW214583   2.798   1.137   0.023
 4562SOL     OW14584   3.054   6.103   6.605
 4562SOL    HW114585   3.111   6.185   6.608
 4562SOL    HW214586   2.998   6.104   6.522
 4563SOL     OW14587   5.677   1.459   0.643
 4563SOL    HW114588   5.594   1.416   0.677
 4563SOL    HW214589   5.692   1.546   0.691
 4564SOL     OW14590   1.025   5.663   0.383
 4564SOL    HW114591   1.033   5.568   0.412
 4564SOL    HW214592   0.930   5.682   0.357
 4565SOL     OW14593   0.464   1.159   4.789
 4565SOL    HW114594   0.541   1.107   4.827
 4565SOL    HW214595   0.417   1.207   4.862
 4566SOL     OW14596   0.576   0.495   6.560
 4566SOL    HW114597   0.642   0.461   6.626
 4566SOL    HW214598   0.584   0.443   6.475
 4567SOL     OW14599   6.928   1.381   0.830
 4567SOL    HW114600   6.852   1.387   0.766
 4567SOL    HW214601   7.005   1.435   0.796
 4568SOL     OW14602   3.040   4.484   5.564
 4568SOL    HW114603   2.943   4.483   5.537
 4568SOL    HW214604   3.047   4.509   5.661
 4569SOL     OW14605   1.377   1.685   4.288
 4569SOL    HW114606   1.349   1.776   4.258
 4569SOL    HW214607   1.472   1.688   4.320
 4570SOL     OW14608   6.995   5.665   3.098
 4570SOL    HW114609   0.005   5.598   3.164
 4570SOL    HW214610   0.021   5.658   3.013
 4571SOL     OW14611   2.907   3.507   4.416
 4571SOL    HW114612   2.946   3.455   4.340
 4571SOL    HW214613   2.867   3.592   4.381
 4572SOL     OW14614   0.974   7.007   1.195
 4572SOL    HW114615   0.982   0.073   1.157
 4572SOL    HW214616   1.060   6.983   1.242
 4573SOL     OW14617   6.082   5.825   1.412
 4573SOL    HW114618   6.152   5.893   1.390
 4573SOL    HW214619   5.995   5.852   1.370
 4574SOL     OW14620   6.761   4.375   1.430
 4574SOL    HW114621   6.807   4.298   1.386
 4574SOL    HW214622   6.694   4.415   1.367
 4575SOL     OW14623   6.496   1.471   1.447
 4575SOL    HW114624   6.574   1.432   1.497
 4575SOL    HW214625   6.417   1.411   1.458
 4576SOL     OW14626   2.862   5.959   6.707
 4576SOL    HW114627   2.927   6.011   6.651
 4576SOL    HW214628   2.899   5.868   6.725
 4577SOL     OW14629   0.978   3.564   3.278
 4577SOL    HW114630   0.950   3.548   3.183
 4577SOL    HW214631   0.918   3.632   3.320
 4578SOL     OW14632   0.323   3.276   3.477
 4578SOL    HW114633   0.266   3.279   3.394
 4578SOL    HW214634   0.277   3.220   3.546
 4579SOL     OW14635   5.017   1.951   3.222
 4579SOL    HW114636   5.073   1.868   3.225
 4579SOL    HW214637   5.018   1.988   3.129
 4580SOL     OW14638   5.923   5.721   0.680
 4580SOL    HW114639   5.873   5.783   0.619
 4580SOL    HW214640   5.877   5.632   0.683
 4581SOL     OW14641   3.280   5.372   3.522
 4581SOL    HW114642   3.278   5.273   3.508
 4581SOL    HW214643   3.265   5.418   3.434
 4582SOL     OW14644   4.935   6.694   3.449
 4582SOL    HW114645   5.015   6.750   3.470
 4582SOL    HW214646   4.895   6.659   3.533
 4583SOL     OW14647   2.648   1.899   5.651
 4583SOL    HW114648   2.585   1.943   5.715
 4583SOL    HW214649   2.600   1.828   5.600
 4584SOL     OW14650   0.126   5.862   5.934
 4584SOL    HW114651   0.058   5.821   5.994
 4584SOL    HW214652   0.096   5.953   5.906
 4585SOL     OW14653   3.292   6.039   3.304
 4585SOL    HW114654   3.349   5.984   3.365
 4585SOL    HW214655   3.327   6.132   3.300
 4586SOL     OW14656   3.428   5.943   2.086
 4586SOL    HW114657   3.352   5.938   2.021
 4586SOL    HW214658   3.458   5.850   2.108
 4587SOL     OW14659   3.573   3.069   1.159
 4587SOL    HW114660   3.548   3.100   1.067
 4587SOL    HW214661   3.502   3.095   1.223
 4588SOL     OW14662   4.074   3.702   5.043
 4588SOL    HW114663   4.104   3.732   4.952
 4588SOL    HW214664   4.100   3.606   5.056
 4589SOL     OW14665   5.984   2.350   3.140
 4589SOL    HW114666   6.007   2.379   3.047
 4589SOL    HW214667   6.057   2.292   3.176
 4590SOL     OW14668   4.218   5.339   2.612
 4590SOL    HW114669   4.239   5.405   2.541
 4590SOL    HW214670   4.248   5.374   2.701
 4591SOL     OW14671   6.288   5.344   5.560
 4591SOL    HW114672   6.268   5.425   5.614
 4591SOL    HW214673   6.208   5.321   5.503
 4592SOL     OW14674   4.160   2.697   0.730
 4592SOL    HW114675   4.099   2.732   0.658
 4592SOL    HW214676   4.210   2.618   0.696
 4593SOL     OW14677   3.839   5.951   2.778
 4593SOL    HW114678   3.897   5.883   2.823
 4593SOL    HW214679   3.870   6.043   2.804
 4594SOL     OW14680   2.767   1.467   1.849
 4594SOL    HW114681   2.837   1.428   1.789
 4594SOL    HW214682   2.809   1.539   1.906
 4595SOL     OW14683   3.625   3.117   6.306
 4595SOL    HW114684   3.722   3.129   6.327
 4595SOL    HW214685   3.615   3.069   6.219
 4596SOL     OW14686   5.924   6.340   2.573
 4596SOL    HW114687   5.985   6.414   2.548
 4596SOL    HW214688   5.953   6.300   2.660
 4597SOL     OW14689   5.451   4.413   5.863
 4597SOL    HW114690   5.543   4.440   5.891
 4597SOL    HW214691   5.392   4.406   5.943
 4598SOL     OW14692   2.121   5.353   6.707
 4598SOL    HW114693   2.175   5.364   6.623
 4598SOL    HW214694   2.044   5.417   6.705
 4599SOL     OW14695   1.606   4.606   1.267
 4599SOL    HW114696   1.642   4.661   1.192
 4599SOL    HW214697   1.506   4.607   1.264
 4600SOL     OW14698   3.049   5.892   0.570
 4600SOL    HW114699   3.023   5.826   0.641
 4600SOL    HW214700   2.988   5.971   0.573
 4601SOL     OW14701   2.232   1.242   5.017
 4601SOL    HW114702   2.322   1.276   4.990
 4601SOL    HW214703   2.236   1.209   5.111
 4602SOL     OW14704   1.798   7.017   1.319
 4602SOL    HW114705   1.720   0.025   1.265
 4602SOL    HW214706   1.838   6.938   1.273
 4603SOL     OW14707   3.056   6.735   1.755
 4603SOL    HW114708   2.997   6.734   1.835
 4603SOL    HW214709   3.101   6.647   1.745
 4604SOL     OW14710   3.682   0.499   2.496
 4604SOL    HW114711   3.644   0.579   2.543
 4604SOL    HW214712   3.765   0.469   2.543
 4605SOL     OW14713   4.708   0.754   4.701
 4605SOL    HW114714   4.635   0.818   4.723
 4605SOL    HW214715   4.791   0.780   4.751
 4606SOL     OW14716   6.461   6.652   4.647
 4606SOL    HW114717   6.512   6.608   4.574
 4606SOL    HW214718   6.433   6.583   4.714
 4607SOL     OW14719   3.138   1.596   1.590
 4607SOL    HW114720   3.200   1.616   1.666
 4607SOL    HW214721   3.059   1.657   1.595
 4608SOL     OW14722   1.302   5.212   5.077
 4608SOL    HW114723   1.324   5.250   4.987
 4608SOL    HW214724   1.331   5.116   5.080
 4609SOL     OW14725   4.904   6.246   0.164
 4609SOL    HW114726   4.940   6.158   0.197
 4609SOL    HW214727   4.815   6.231   0.121
 4610SOL     OW14728   0.504   2.381   0.004
 4610SOL    HW114729   0.482   2.465   0.052
 4610SOL    HW214730   0.449   2.375   6.946
 4611SOL     OW14731   0.328   3.803   6.871
 4611SOL    HW114732   0.340   3.709   6.839
 4611SOL    HW214733   0.265   3.804   6.949
 4612SOL     OW14734   2.000   6.075   6.105
 4612SOL    HW114735   2.060   6.144   6.146
 4612SOL    HW214736   1.909   6.082   6.147
 4613SOL     OW14737   3.176   5.360   2.658
 4613SOL    HW114738   3.154   5.269   2.693
 4613SOL    HW214739   3.121   5.428   2.706
 4614SOL     OW14740   1.880   5.548   0.156
 4614SOL    HW114741   1.786   5.538   0.124
 4614SOL    HW214742   1.936   5.476   0.115
 4615SOL     OW14743   1.496   1.990   0.107
 4615SOL    HW114744   1.435   1.964   0.182
 4615SOL    HW214745   1.532   1.907   0.064
 4616SOL     OW14746   6.069   0.112   0.040
 4616SOL    HW114747   5.997   0.068   7.012
 4616SOL    HW214748   6.157   0.070   0.017
 4617SOL     OW14749   0.887   2.867   2.306
 4617SOL    HW114750   0.878   2.778   2.262
 4617SOL    HW214751   0.960   2.919   2.262
 4618SOL     OW14752   0.896   2.576   5.698
 4618SOL    HW114753   0.988   2.607   5.721
 4618SOL    HW214754   0.829   2.626   5.754
 4619SOL     OW14755   4.880   1.009   4.119
 4619SOL    HW114756   4.792   0.966   4.100
 4619SOL    HW214757   4.881   1.041   4.214
 4620SOL     OW14758   3.203   4.365   0.242
 4620SOL    HW114759   3.104   4.361   0.253
 4620SOL    HW214760   3.227   4.358   0.146
 4621SOL     OW14761   6.902   1.150   4.926
 4621SOL    HW114762   6.996   1.130   4.899
 4621SOL    HW214763   6.900   1.184   5.019
 4622SOL     OW14764   2.096   3.644   0.563
 4622SOL    HW114765   2.019   3.703   0.585
 4622SOL    HW214766   2.143   3.617   0.648
 4623SOL     OW14767   6.968   4.776   0.936
 4623SOL    HW114768   0.029   4.813   0.969
 4623SOL    HW214769   6.908   4.756   1.013
 4624SOL     OW14770   4.630   0.887   4.083
 4624SOL    HW114771   4.681   0.811   4.123
 4624SOL    HW214772   4.541   0.854   4.050
 4625SOL     OW14773   0.843   4.053   6.869
 4625SOL    HW114774   0.819   4.150   6.864
 4625SOL    HW214775   0.876   4.022   6.779
 4626SOL     OW14776   6.562   4.881   1.650
 4626SOL    HW114777   6.579   4.785   1.673
 4626SOL    HW214778   6.614   4.939   1.712
 4627SOL     OW14779   3.553   5.619   5.346
 4627SOL    HW114780   3.615   5.576   5.413
 4627SOL    HW214781   3.584   5.598   5.254
 4628SOL     OW14782   6.378   4.853   2.237
 4628SOL    HW114783   6.329   4.928   2.282
 4628SOL    HW214784   6.375   4.771   2.294
 4629SOL     OW14785   2.184   5.461   5.554
 4629SOL    HW114786   2.153   5.393   5.620
 4629SOL    HW214787   2.250   5.418   5.492
 4630SOL     OW14788   2.447   5.714   3.421
 4630SOL    HW114789   2.430   5.750   3.329
 4630SOL    HW214790   2.398   5.628   3.433
 4631SOL     OW14791   2.949   6.612   3.471
 4631SOL    HW114792   2.860   6.628   3.429
 4631SOL    HW214793   3.006   6.693   3.459
 4632SOL     OW14794   4.587   5.251   4.604
 4632SOL    HW114795   4.537   5.295   4.678
 4632SOL    HW214796   4.685   5.272   4.612
 4633SOL     OW14797   6.340   1.754   5.104
 4633SOL    HW114798   6.299   1.767   5.014
 4633SOL    HW214799   6.440   1.752   5.096
 4634SOL     OW14800   2.725   4.649   0.539
 4634SOL    HW114801   2.705   4.551   0.548
 4634SOL    HW214802   2.793   4.674   0.608
 4635SOL     OW14803   5.221   3.286   2.365
 4635SOL    HW114804   5.238   3.230   2.284
 4635SOL    HW214805   5.126   3.276   2.393
 4636SOL     OW14806   2.595   5.399   0.799
 4636SOL    HW114807   2.653   5.340   0.854
 4636SOL    HW214808   2.617   5.495   0.818
 4637SOL     OW14809   1.193   0.611   5.945
 4637SOL    HW114810   1.246   0.572   6.021
 4637SOL    HW214811   1.107   0.646   5.980
 4638SOL     OW14812   3.854   3.469   5.754
 4638SOL    HW114813   3.923   3.399   5.734
 4638SOL    HW214814   3.765   3.426   5.764
 4639SOL     OW14815   0.740   4.313   5.701
 4639SOL    HW114816   0.765   4.391   5.643
 4639SOL    HW214817   0.688   4.247   5.647
 4640SOL     OW14818   5.395   4.438   3.446
 4640SOL    HW114819   5.458   4.511   3.419
 4640SOL    HW214820   5.301   4.471   3.438
 4641SOL     OW14821   2.697   4.792   4.414
 4641SOL    HW114822   2.655   4.703   4.432
 4641SOL    HW214823   2.727   4.796   4.319
 4642SOL     OW14824   5.876   5.665   4.324
 4642SOL    HW114825   5.900   5.568   4.316
 4642SOL    HW214826   5.817   5.690   4.247
 4643SOL     OW14827   4.107   2.335   1.730
 4643SOL    HW114828   4.104   2.287   1.818
 4643SOL    HW214829   4.015   2.342   1.692
 4644SOL     OW14830   1.404   6.465   4.612
 4644SOL    HW114831   1.328   6.522   4.643
 4644SOL    HW214832   1.372   6.373   4.593
 4645SOL     OW14833   2.113   6.420   4.211
 4645SOL    HW114834   2.063   6.386   4.291
 4645SOL    HW214835   2.192   6.473   4.240
 4646SOL     OW14836   2.929   0.392   2.397
 4646SOL    HW114837   2.966   0.396   2.304
 4646SOL    HW214838   2.918   0.485   2.433
 4647SOL     OW14839   0.421   0.430   3.921
 4647SOL    HW114840   0.466   0.490   3.855
 4647SOL    HW214841   0.348   0.380   3.876
 4648SOL     OW14842   2.506   6.215   2.557
 4648SOL    HW114843   2.541   6.238   2.648
 4648SOL    HW214844   2.568   6.250   2.487
 4649SOL     OW14845   5.339   0.734   6.047
 4649SOL    HW114846   5.252   0.741   5.999
 4649SOL    HW214847   5.411   0.773   5.989
 4650SOL     OW14848   4.709   6.142   2.773
 4650SOL    HW114849   4.657   6.192   2.842
 4650SOL    HW214850   4.670   6.159   2.683
 4651SOL     OW14851   6.938   1.989   1.769
 4651SOL    HW114852   6.927   2.023   1.675
 4651SOL    HW214853   6.857   2.012   1.823
 4652SOL     OW14854   6.822   0.671   4.487
 4652SOL    HW114855   6.862   0.581   4.472
 4652SOL    HW214856   6.853   0.734   4.415
 4653SOL     OW14857   6.803   6.606   6.973
 4653SOL    HW114858   6.838   6.691   7.012
 4653SOL    HW214859   6.705   6.615   6.956
 4654SOL     OW14860   0.511   0.124   0.719
 4654SOL    HW114861   0.583   0.147   0.783
 4654SOL    HW214862   0.543   0.054   0.656
 4655SOL     OW14863   6.980   4.394   2.773
 4655SOL    HW114864   0.021   4.467   2.787
 4655SOL    HW214865   6.982   4.332   2.852
 4656SOL     OW14866   0.983   0.892   3.049
 4656SOL    HW114867   0.966   0.920   3.143
 4656SOL    HW214868   0.996   0.972   2.991
 4657SOL     OW14869   5.296   6.525   1.609
 4657SOL    HW114870   5.258   6.452   1.554
 4657SOL    HW214871   5.240   6.607   1.600
 4658SOL     OW14872   4.297   0.364   3.187
 4658SOL    HW114873   4.253   0.305   3.119
 4658SOL    HW214874   4.327   0.449   3.143
 4659SOL     OW14875   1.869   2.961   4.858
 4659SOL    HW114876   1.824   2.872   4.871
 4659SOL    HW214877   1.902   2.994   4.947
 4660SOL     OW14878   0.150   1.575   5.686
 4660SOL    HW114879   0.191   1.555   5.597
 4660SOL    HW214880   0.154   1.492   5.743
 4661SOL     OW14881   3.419   4.174   4.572
 4661SOL    HW114882   3.358   4.128   4.637
 4661SOL    HW214883   3.365   4.230   4.510
 4662SOL     OW14884   5.104   0.635   5.701
 4662SOL    HW114885   5.135   0.697   5.629
 4662SOL    HW214886   5.113   0.540   5.670
 4663SOL     OW14887   6.961   2.037   2.236
 4663SOL    HW114888   6.871   2.006   2.208
 4663SOL    HW214889   6.955   2.129   2.273
 4664SOL     OW14890   2.868   2.644   6.599
 4664SOL    HW114891   2.773   2.658   6.571
 4664SOL    HW214892   2.903   2.726   6.645
 4665SOL     OW14893   4.892   0.236   6.576
 4665SOL    HW114894   4.851   0.145   6.574
 4665SOL    HW214895   4.851   0.290   6.649
 4666SOL     OW14896   1.881   1.839   0.139
 4666SOL    HW114897   1.866   1.745   0.169
 4666SOL    HW214898   1.900   1.840   0.040
 4667SOL     OW14899   0.000   5.005   0.012
 4667SOL    HW114900   6.927   5.003   0.023
 4667SOL    HW214901   0.025   4.957   6.954
 4668SOL     OW14902   6.637   1.266   4.851
 4668SOL    HW114903   6.561   1.218   4.895
 4668SOL    HW214904   6.717   1.206   4.849
 4669SOL     OW14905   1.319   6.500   0.148
 4669SOL    HW114906   1.363   6.584   0.119
 4669SOL    HW214907   1.294   6.446   0.068
 4670SOL     OW14908   2.189   1.683   5.027
 4670SOL    HW114909   2.219   1.739   4.949
 4670SOL    HW214910   2.213   1.729   5.112
 4671SOL     OW14911   6.161   3.104   1.452
 4671SOL    HW114912   6.091   3.081   1.519
 4671SOL    HW214913   6.178   3.025   1.393
 4672SOL     OW14914   1.913   4.097   6.375
 4672SOL    HW114915   1.962   4.040   6.309
 4672SOL    HW214916   1.873   4.176   6.328
 4673SOL     OW14917   2.924   0.658   2.458
 4673SOL    HW114918   2.927   0.752   2.424
 4673SOL    HW214919   2.909   0.660   2.557
 4674SOL     OW14920   5.097   5.783   5.350
 4674SOL    HW114921   5.002   5.791   5.380
 4674SOL    HW214922   5.157   5.794   5.429
 4675SOL     OW14923   1.085   4.059   0.912
 4675SOL    HW114924   1.162   4.116   0.883
 4675SOL    HW214925   1.096   3.967   0.873
 4676SOL     OW14926   1.648   6.001   3.387
 4676SOL    HW114927   1.578   5.937   3.418
 4676SOL    HW214928   1.691   6.044   3.467
 4677SOL     OW14929   1.831   2.264   0.656
 4677SOL    HW114930   1.786   2.292   0.741
 4677SOL    HW214931   1.853   2.345   0.602
 4678SOL     OW14932   1.494   4.389   2.886
 4678SOL    HW114933   1.411   4.369   2.833
 4678SOL    HW214934   1.520   4.308   2.938
 4679SOL     OW14935   5.473   6.126   1.715
 4679SOL    HW114936   5.488   6.189   1.639
 4679SOL    HW214937   5.378   6.096   1.716
 4680SOL     OW14938   2.644   1.611   1.552
 4680SOL    HW114939   2.671   1.632   1.646
 4680SOL    HW214940   2.635   1.695   1.500
 4681SOL     OW14941   5.512   4.094   0.282
 4681SOL    HW114942   5.593   4.037   0.269
 4681SOL    HW214943   5.536   4.190   0.268
 4682SOL     OW14944   4.598   3.469   6.055
 4682SOL    HW114945   4.528   3.398   6.064
 4682SOL    HW214946   4.671   3.453   6.122
 4683SOL     OW14947   5.646   4.322   3.972
 4683SOL    HW114948   5.639   4.421   3.976
 4683SOL    HW214949   5.613   4.290   3.883
 4684SOL     OW14950   4.401   6.427   0.364
 4684SOL    HW114951   4.396   6.330   0.341
 4684SOL    HW214952   4.496   6.453   0.379
 4685SOL     OW14953   2.416   3.482   6.020
 4685SOL    HW114954   2.376   3.408   5.967
 4685SOL    HW214955   2.448   3.447   6.108
 4686SOL     OW14956   3.638   6.347   0.901
 4686SOL    HW114957   3.586   6.411   0.958
 4686SOL    HW214958   3.663   6.267   0.954
 4687SOL     OW14959   3.167   1.370   2.968
 4687SOL    HW114960   3.073   1.340   2.983
 4687SOL    HW214961   3.183   1.456   3.018
 4688SOL     OW14962   5.313   2.472   5.997
 4688SOL    HW114963   5.361   2.434   6.076
 4688SOL    HW214964   5.243   2.408   5.966
 4689SOL     OW14965   5.371   0.760   0.711
 4689SOL    HW114966   5.421   0.797   0.790
 4689SOL    HW214967   5.397   0.664   0.698
 4690SOL     OW14968   2.222   1.289   0.781
 4690SOL    HW114969   2.179   1.377   0.762
 4690SOL    HW214970   2.312   1.285   0.736
 4691SOL     OW14971   5.062   4.277   0.250
 4691SOL    HW114972   5.039   4.363   0.203
 4691SOL    HW214973   5.011   4.202   0.207
 4692SOL     OW14974   6.525   4.498   3.265
 4692SOL    HW114975   6.552   4.436   3.339
 4692SOL    HW214976   6.555   4.459   3.178
 4693SOL     OW14977   1.560   0.864   3.568
 4693SOL    HW114978   1.609   0.942   3.529
 4693SOL    HW214979   1.597   0.779   3.529
 4694SOL     OW14980   2.630   1.015   0.558
 4694SOL    HW114981   2.711   1.042   0.611
 4694SOL    HW214982   2.642   1.043   0.463
 4695SOL     OW14983   1.377   5.835   0.610
 4695SOL    HW114984   1.436   5.811   0.687
 4695SOL    HW214985   1.393   5.930   0.584
 4696SOL     OW14986   1.183   5.401   6.010
 4696SOL    HW114987   1.137   5.430   6.094
 4696SOL    HW214988   1.198   5.302   6.013
 4697SOL     OW14989   1.828   3.899   0.982
 4697SOL    HW114990   1.905   3.961   0.967
 4697SOL    HW214991   1.809   3.848   0.899
 4698SOL     OW14992   4.687   0.433   3.187
 4698SOL    HW114993   4.689   0.418   3.286
 4698SOL    HW214994   4.665   0.529   3.169
 4699SOL     OW14995   0.450   0.546   2.149
 4699SOL    HW114996   0.527   0.500   2.106
 4699SOL    HW214997   0.426   0.628   2.095
 4700SOL     OW14998   6.301   2.150   2.764
 4700SOL    HW114999   6.265   2.215   2.696
 4700SOL    HW215000   6.401   2.147   2.756
 4701SOL     OW15001   3.438   2.041   1.986
 4701SOL    HW115002   3.490   2.115   1.944
 4701SOL    HW215003   3.369   2.079   2.048
 4702SOL     OW15004   4.837   5.206   6.784
 4702SOL    HW115005   4.827   5.248   6.693
 4702SOL    HW215006   4.901   5.130   6.778
 4703SOL     OW15007   1.083   4.781   2.543
 4703SOL    HW115008   0.988   4.801   2.520
 4703SOL    HW215009   1.122   4.718   2.476
 4704SOL     OW15010   0.062   6.109   5.828
 4704SOL    HW115011   0.039   6.206   5.840
 4704SOL    HW215012   0.042   6.082   5.734
 4705SOL     OW15013   3.167   2.392   1.209
 4705SOL    HW115014   3.236   2.342   1.158
 4705SOL    HW215015   3.191   2.489   1.211
 4706SOL     OW15016   1.183   0.489   0.696
 4706SOL    HW115017   1.145   0.403   0.664
 4706SOL    HW215018   1.171   0.559   0.625
 4707SOL     OW15019   1.624   6.321   0.916
 4707SOL    HW115020   1.606   6.293   1.011
 4707SOL    HW215021   1.613   6.421   0.909
 4708SOL     OW15022   1.290   2.421   4.532
 4708SOL    HW115023   1.265   2.347   4.469
 4708SOL    HW215024   1.308   2.505   4.479
 4709SOL     OW15025   4.929   4.442   4.971
 4709SOL    HW115026   4.855   4.448   5.038
 4709SOL    HW215027   4.892   4.418   4.881
 4710SOL     OW15028   5.542   6.469   4.837
 4710SOL    HW115029   5.570   6.540   4.772
 4710SOL    HW215030   5.623   6.434   4.885
 4711SOL     OW15031   6.008   3.039   3.373
 4711SOL    HW115032   5.934   3.061   3.437
 4711SOL    HW215033   5.972   2.987   3.296
 4712SOL     OW15034   4.362   4.486   5.619
 4712SOL    HW115035   4.337   4.400   5.575
 4712SOL    HW215036   4.348   4.478   5.718
 4713SOL     OW15037   5.462   4.337   0.773
 4713SOL    HW115038   5.522   4.416   0.778
 4713SOL    HW215039   5.424   4.318   0.864
 4714SOL     OW15040   6.428   1.614   6.371
 4714SOL    HW115041   6.380   1.556   6.305
 4714SOL    HW215042   6.504   1.563   6.411
 4715SOL     OW15043   6.618   1.769   2.364
 4715SOL    HW115044   6.574   1.697   2.312
 4715SOL    HW215045   6.549   1.828   2.405
 4716SOL     OW15046   3.724   5.586   5.610
 4716SOL    HW115047   3.809   5.575   5.661
 4716SOL    HW215048   3.708   5.683   5.591
 4717SOL     OW15049   2.940   5.473   5.691
 4717SOL    HW115050   3.032   5.444   5.664
 4717SOL    HW215051   2.885   5.393   5.715
 4718SOL     OW15052   5.407   2.947   0.622
 4718SOL    HW115053   5.330   3.000   0.660
 4718SOL    HW215054   5.469   3.009   0.574
 4719SOL     OW15055   6.235   3.025   3.201
 4719SOL    HW115056   6.274   3.110   3.237
 4719SOL    HW215057   6.148   3.007   3.248
 4720SOL     OW15058   3.130   5.374   0.637
 4720SOL    HW115059   3.168   5.387   0.546
 4720SOL    HW215060   3.205   5.374   0.704
 4721SOL     OW15061   6.484   3.505   1.654
 4721SOL    HW115062   6.573   3.546   1.674
 4721SOL    HW215063   6.433   3.493   1.739
 4722SOL     OW15064   0.790   4.382   6.591
 4722SOL    HW115065   0.878   4.335   6.588
 4722SOL    HW215066   0.716   4.315   6.601
 4723SOL     OW15067   3.824   4.828   5.667
 4723SOL    HW115068   3.732   4.831   5.628
 4723SOL    HW215069   3.821   4.855   5.763
 4724SOL     OW15070   0.130   6.509   4.131
 4724SOL    HW115071   0.144   6.480   4.036
 4724SOL    HW215072   0.095   6.433   4.185
 4725SOL     OW15073   5.530   4.895   0.856
 4725SOL    HW115074   5.497   4.822   0.916
 4725SOL    HW215075   5.464   4.969   0.854
 4726SOL     OW15076   2.156   3.048   6.105
 4726SOL    HW115077   2.225   2.978   6.125
 4726SOL    HW215078   2.190   3.108   6.033
 4727SOL     OW15079   0.571   5.758   0.918
 4727SOL    HW115080   0.503   5.765   0.846
 4727SOL    HW215081   0.654   5.715   0.881
 4728SOL     OW15082   6.087   1.043   2.680
 4728SOL    HW115083   5.994   1.054   2.714
 4728SOL    HW215084   6.152   1.061   2.755
 4729SOL     OW15085   5.883   0.386   7.000
 4729SOL    HW115086   5.894   0.368   6.902
 4729SOL    HW215087   5.788   0.367   0.001
 4730SOL     OW15088   3.600   6.866   4.763
 4730SOL    HW115089   3.557   6.841   4.676
 4730SOL    HW215090   3.638   6.784   4.806
 4731SOL     OW15091   3.144   0.165   0.669
 4731SOL    HW115092   3.139   0.120   0.580
 4731SOL    HW215093   3.088   0.248   0.668
 4732SOL     OW15094   0.376   4.100   4.532
 4732SOL    HW115095   0.421   4.154   4.603
 4732SOL    HW215096   0.334   4.161   4.466
 4733SOL     OW15097   2.168   3.674   3.194
 4733SOL    HW115098   2.151   3.582   3.160
 4733SOL    HW215099   2.172   3.672   3.294
 4734SOL     OW15100   5.514   3.894   5.736
 4734SOL    HW115101   5.461   3.838   5.799
 4734SOL    HW215102   5.560   3.835   5.669
 4735SOL     OW15103   6.882   6.412   4.752
 4735SOL    HW115104   6.961   6.453   4.796
 4735SOL    HW215105   6.886   6.313   4.760
 4736SOL     OW15106   6.834   1.734   3.397
 4736SOL    HW115107   6.796   1.803   3.459
 4736SOL    HW215108   6.796   1.747   3.306
 4737SOL     OW15109   1.591   5.132   1.018
 4737SOL    HW115110   1.495   5.119   1.043
 4737SOL    HW215111   1.648   5.123   1.100
 4738SOL     OW15112   2.102   0.579   3.758
 4738SOL    HW115113   2.052   0.576   3.845
 4738SOL    HW215114   2.049   0.633   3.692
 4739SOL     OW15115   5.880   2.951   4.787
 4739SOL    HW115116   5.828   2.987   4.865
 4739SOL    HW215117   5.977   2.966   4.803
 4740SOL     OW15118   0.685   1.289   1.733
 4740SOL    HW115119   0.617   1.263   1.802
 4740SOL    HW215120   0.738   1.208   1.707
 4741SOL     OW15121   4.150   4.535   1.119
 4741SOL    HW115122   4.210   4.502   1.047
 4741SOL    HW215123   4.143   4.634   1.114
 4742SOL     OW15124   2.913   6.112   1.205
 4742SOL    HW115125   2.980   6.140   1.273
 4742SOL    HW215126   2.821   6.139   1.235
 4743SOL     OW15127   2.756   1.658   6.018
 4743SOL    HW115128   2.677   1.653   5.957
 4743SOL    HW215129   2.727   1.695   6.107
 4744SOL     OW15130   1.817   3.777   5.560
 4744SOL    HW115131   1.759   3.695   5.558
 4744SOL    HW215132   1.902   3.759   5.510
 4745SOL     OW15133   3.016   5.153   5.449
 4745SOL    HW115134   2.982   5.192   5.364
 4745SOL    HW215135   3.072   5.221   5.497
 4746SOL     OW15136   6.046   5.783   0.210
 4746SOL    HW115137   6.100   5.749   0.288
 4746SOL    HW215138   6.099   5.772   0.126
 4747SOL     OW15139   0.019   2.378   6.956
 4747SOL    HW115140   0.008   2.319   6.876
 4747SOL    HW215141   6.955   2.402   6.992
 4748SOL     OW15142   0.948   0.819   1.323
 4748SOL    HW115143   0.931   0.915   1.343
 4748SOL    HW215144   0.903   0.762   1.392
 4749SOL     OW15145   1.974   6.413   0.162
 4749SOL    HW115146   2.001   6.479   0.231
 4749SOL    HW215147   1.966   6.458   0.073
 4750SOL     OW15148   0.236   1.477   4.203
 4750SOL    HW115149   0.149   1.508   4.242
 4750SOL    HW215150   0.280   1.553   4.156
 4751SOL     OW15151   1.448   4.579   6.865
 4751SOL    HW115152   1.436   4.483   6.890
 4751SOL    HW215153   1.362   4.628   6.878
 4752SOL     OW15154   2.283   6.153   1.519
 4752SOL    HW115155   2.205   6.186   1.572
 4752SOL    HW215156   2.343   6.100   1.578
 4753SOL     OW15157   5.614   6.898   5.334
 4753SOL    HW115158   5.621   6.890   5.235
 4753SOL    HW215159   5.610   6.807   5.375
 4754SOL     OW15160   0.055   6.950   6.680
 4754SOL    HW115161   0.068   0.004   6.622
 4754SOL    HW215162   0.109   6.874   6.645
 4755SOL     OW15163   2.531   1.409   6.023
 4755SOL    HW115164   2.455   1.361   6.066
 4755SOL    HW215165   2.495   1.481   5.963
 4756SOL     OW15166   4.766   2.715   1.587
 4756SOL    HW115167   4.843   2.765   1.548
 4756SOL    HW215168   4.753   2.742   1.682
 4757SOL     OW15169   2.425   2.586   1.962
 4757SOL    HW115170   2.367   2.534   1.898
 4757SOL    HW215171   2.477   2.522   2.018
 4758SOL     OW15172   4.455   5.190   5.666
 4758SOL    HW115173   4.459   5.233   5.576
 4758SOL    HW215174   4.401   5.106   5.661
 4759SOL     OW15175   5.570   6.070   5.593
 4759SOL    HW115176   5.632   6.099   5.520
 4759SOL    HW215177   5.621   6.058   5.678
 4760SOL     OW15178   1.758   1.083   1.482
 4760SOL    HW115179   1.842   1.098   1.429
 4760SOL    HW215180   1.720   1.171   1.511
 4761SOL     OW15181   6.941   0.260   6.410
 4761SOL    HW115182   6.872   0.188   6.403
 4761SOL    HW215183   0.006   0.218   6.419
 4762SOL     OW15184   2.416   4.779   2.153
 4762SOL    HW115185   2.387   4.711   2.220
 4762SOL    HW215186   2.402   4.871   2.191
 4763SOL     OW15187   5.955   5.863   3.216
 4763SOL    HW115188   5.970   5.764   3.224
 4763SOL    HW215189   5.950   5.904   3.307
 4764SOL     OW15190   4.576   3.799   5.325
 4764SOL    HW115191   4.620   3.728   5.270
 4764SOL    HW215192   4.637   3.828   5.399
 4765SOL     OW15193   5.121   6.088   5.209
 4765SOL    HW115194   5.090   6.054   5.121
 4765SOL    HW215195   5.043   6.095   5.272
 4766SOL     OW15196   2.901   0.709   3.185
 4766SOL    HW115197   2.891   0.773   3.262
 4766SOL    HW215198   2.811   0.672   3.160
 4767SOL     OW15199   3.999   6.960   0.748
 4767SOL    HW115200   3.923   6.997   0.694
 4767SOL    HW215201   4.060   0.009   0.775
 4768SOL     OW15202   5.010   1.163   4.728
 4768SOL    HW115203   4.977   1.072   4.703
 4768SOL    HW215204   5.085   1.154   4.794
 4769SOL     OW15205   3.672   5.527   1.790
 4769SOL    HW115206   3.767   5.558   1.800
 4769SOL    HW215207   3.640   5.489   1.877
 4770SOL     OW15208   2.070   0.143   2.898
 4770SOL    HW115209   2.161   0.105   2.881
 4770SOL    HW215210   2.008   0.069   2.926
 4771SOL     OW15211   3.456   4.852   6.364
 4771SOL    HW115212   3.513   4.927   6.331
 4771SOL    HW215213   3.372   4.848   6.311
 4772SOL     OW15214   2.725   0.418   1.532
 4772SOL    HW115215   2.755   0.345   1.471
 4772SOL    HW215216   2.632   0.444   1.510
 4773SOL     OW15217   0.302   6.159   4.072
 4773SOL    HW115218   0.212   6.137   4.110
 4773SOL    HW215219   0.307   6.257   4.052
 4774SOL     OW15220   0.659   3.382   2.360
 4774SOL    HW115221   0.615   3.418   2.442
 4774SOL    HW215222   0.748   3.343   2.384
 4775SOL     OW15223   4.804   0.331   2.667
 4775SOL    HW115224   4.895   0.312   2.705
 4775SOL    HW215225   4.782   0.428   2.681
 4776SOL     OW15226   3.082   5.846   2.284
 4776SOL    HW115227   2.996   5.841   2.233
 4776SOL    HW215228   3.090   5.766   2.344
 4777SOL     OW15229   2.179   4.232   1.132
 4777SOL    HW115230   2.252   4.184   1.082
 4777SOL    HW215231   2.213   4.320   1.165
 4778SOL     OW15232   4.705   3.725   1.698
 4778SOL    HW115233   4.745   3.796   1.755
 4778SOL    HW215234   4.774   3.655   1.678
 4779SOL     OW15235   6.751   0.190   3.145
 4779SOL    HW115236   6.749   0.271   3.203
 4779SOL    HW215237   6.671   0.192   3.084
 4780SOL     OW15238   0.903   0.546   6.050
 4780SOL    HW115239   0.851   0.593   6.121
 4780SOL    HW215240   0.974   0.489   6.092
 4781SOL     OW15241   2.493   5.955   1.272
 4781SOL    HW115242   2.409   5.984   1.316
 4781SOL    HW215243   2.526   5.871   1.315
 4782SOL     OW15244   5.481   0.657   6.447
 4782SOL    HW115245   5.538   0.685   6.524
 4782SOL    HW215246   5.488   0.725   6.374
 4783SOL     OW15247   4.743   4.026   0.750
 4783SOL    HW115248   4.749   4.042   0.651
 4783SOL    HW215249   4.728   4.113   0.796
 4784SOL     OW15250   5.867   4.868   4.981
 4784SOL    HW115251   5.886   4.793   4.918
 4784SOL    HW215252   5.919   4.854   5.065
 4785SOL     OW15253   6.734   6.648   0.927
 4785SOL    HW115254   6.745   6.662   1.025
 4785SOL    HW215255   6.789   6.715   0.877
 4786SOL     OW15256   1.881   2.889   2.196
 4786SOL    HW115257   1.980   2.890   2.187
 4786SOL    HW215258   1.856   2.872   2.291
 4787SOL     OW15259   3.145   2.104   3.878
 4787SOL    HW115260   3.201   2.036   3.925
 4787SOL    HW215261   3.082   2.146   3.944
 4788SOL     OW15262   1.499   5.671   5.952
 4788SOL    HW115263   1.437   5.602   5.913
 4788SOL    HW215264   1.567   5.696   5.883
 4789SOL     OW15265   5.595   0.423   0.015
 4789SOL    HW115266   5.560   0.508   0.053
 4789SOL    HW215267   5.548   0.402   6.955
 4790SOL     OW15268   5.356   2.274   6.480
 4790SOL    HW115269   5.384   2.319   6.396
 4790SOL    HW215270   5.257   2.284   6.493
 4791SOL     OW15271   5.670   6.952   2.225
 4791SOL    HW115272   5.684   0.001   2.290
 4791SOL    HW215273   5.572   6.944   2.204
 4792SOL     OW15274   2.280   2.909   3.017
 4792SOL    HW115275   2.234   2.867   3.095
 4792SOL    HW215276   2.324   2.837   2.962
 4793SOL     OW15277   1.474   0.118   5.708
 4793SOL    HW115278   1.520   0.034   5.737
 4793SOL    HW215279   1.401   0.141   5.773
 4794SOL     OW15280   3.210   6.515   2.808
 4794SOL    HW115281   3.114   6.530   2.832
 4794SOL    HW215282   3.225   6.544   2.713
 4795SOL     OW15283   6.370   3.254   4.683
 4795SOL    HW115284   6.381   3.221   4.590
 4795SOL    HW215285   6.335   3.180   4.741
 4796SOL     OW15286   5.299   3.145   0.197
 4796SOL    HW115287   5.224   3.080   0.208
 4796SOL    HW215288   5.304   3.175   0.102
 4797SOL     OW15289   1.329   5.123   6.005
 4797SOL    HW115290   1.288   5.128   6.095
 4797SOL    HW215291   1.417   5.075   6.011
 4798SOL     OW15292   0.383   4.511   4.361
 4798SOL    HW115293   0.349   4.597   4.400
 4798SOL    HW215294   0.473   4.527   4.320
 4799SOL     OW15295   5.574   1.363   5.186
 4799SOL    HW115296   5.495   1.334   5.240
 4799SOL    HW215297   5.586   1.462   5.197
 4800SOL     OW15298   2.680   2.885   5.857
 4800SOL    HW115299   2.772   2.875   5.819
 4800SOL    HW215300   2.612   2.864   5.786
 4801SOL     OW15301   1.629   1.792   0.424
 4801SOL    HW115302   1.552   1.841   0.384
 4801SOL    HW215303   1.704   1.856   0.440
 4802SOL     OW15304   2.717   6.714   1.706
 4802SOL    HW115305   2.806   6.721   1.751
 4802SOL    HW215306   2.659   6.650   1.756
 4803SOL     OW15307   0.693   0.141   0.919
 4803SOL    HW115308   0.788   0.163   0.939
 4803SOL    HW215309   0.655   0.084   0.992
 4804SOL     OW15310   4.159   5.553   6.899
 4804SOL    HW115311   4.253   5.533   6.870
 4804SOL    HW215312   4.157   5.640   6.948
 4805SOL     OW15313   6.483   0.639   0.399
 4805SOL    HW115314   6.523   0.671   0.313
 4805SOL    HW215315   6.484   0.713   0.466
 4806SOL     OW15316   6.882   4.249   3.205
 4806SOL    HW115317   6.953   4.215   3.144
 4806SOL    HW215318   6.904   4.224   3.299
 4807SOL     OW15319   0.965   5.901   1.841
 4807SOL    HW115320   0.947   5.886   1.744
 4807SOL    HW215321   1.039   5.966   1.852
 4808SOL     OW15322   5.628   3.263   0.785
 4808SOL    HW115323   5.665   3.187   0.731
 4808SOL    HW215324   5.543   3.235   0.828
 4809SOL     OW15325   3.112   5.157   0.228
 4809SOL    HW115326   3.122   5.225   0.156
 4809SOL    HW215327   3.015   5.144   0.250
 4810SOL     OW15328   0.735   5.708   1.688
 4810SOL    HW115329   0.825   5.740   1.658
 4810SOL    HW215330   0.668   5.780   1.672
 4811SOL     OW15331   3.026   5.066   1.935
 4811SOL    HW115332   3.115   5.112   1.931
 4811SOL    HW215333   3.040   4.969   1.957
 4812SOL     OW15334   6.976   5.386   4.264
 4812SOL    HW115335   0.032   5.443   4.269
 4812SOL    HW215336   6.914   5.410   4.338
 4813SOL     OW15337   5.006   1.650   2.178
 4813SOL    HW115338   5.058   1.734   2.159
 4813SOL    HW215339   4.978   1.650   2.274
 4814SOL     OW15340   0.046   3.988   0.560
 4814SOL    HW115341   6.987   3.949   0.594
 4814SOL    HW215342   0.114   3.989   0.633
 4815SOL     OW15343   5.028   5.235   2.060
 4815SOL    HW115344   5.042   5.151   2.113
 4815SOL    HW215345   5.114   5.285   2.053
 4816SOL     OW15346   5.111   5.521   2.517
 4816SOL    HW115347   5.177   5.517   2.443
 4816SOL    HW215348   5.020   5.540   2.480
 4817SOL     OW15349   0.899   2.039   5.693
 4817SOL    HW115350   0.897   2.136   5.716
 4817SOL    HW215351   0.979   2.020   5.635
 4818SOL     OW15352   0.260   0.206   3.888
 4818SOL    HW115353   0.217   0.168   3.970
 4818SOL    HW215354   0.234   0.152   3.808
 4819SOL     OW15355   1.616   3.334   0.095
 4819SOL    HW115356   1.538   3.324   0.032
 4819SOL    HW215357   1.651   3.428   0.090
 4820SOL     OW15358   0.219   3.673   1.632
 4820SOL    HW115359   0.204   3.628   1.720
 4820SOL    HW215360   0.192   3.770   1.639
 4821SOL     OW15361   0.126   5.998   2.240
 4821SOL    HW115362   0.165   5.925   2.183
 4821SOL    HW215363   0.196   6.033   2.302
 4822SOL     OW15364   0.920   3.878   4.203
 4822SOL    HW115365   0.835   3.846   4.245
 4822SOL    HW215366   0.925   3.844   4.109
 4823SOL     OW15367   1.223   3.101   2.365
 4823SOL    HW115368   1.230   3.172   2.295
 4823SOL    HW215369   1.310   3.053   2.374
 4824SOL     OW15370   5.139   0.510   5.215
 4824SOL    HW115371   5.065   0.523   5.282
 4824SOL    HW215372   5.124   0.572   5.138
 4825SOL     OW15373   1.525   0.145   4.315
 4825SOL    HW115374   1.517   0.072   4.383
 4825SOL    HW215375   1.605   0.201   4.334
 4826SOL     OW15376   4.516   7.019   1.626
 4826SOL    HW115377   4.432   6.998   1.676
 4826SOL    HW215378   4.548   0.084   1.652
 4827SOL     OW15379   7.025   2.053   0.329
 4827SOL    HW115380   0.061   2.116   0.280
 4827SOL    HW215381   6.961   2.107   0.384
 4828SOL     OW15382   4.590   6.924   2.572
 4828SOL    HW115383   4.603   6.909   2.474
 4828SOL    HW215384   4.605   7.020   2.594
 4829SOL     OW15385   4.240   6.982   5.873
 4829SOL    HW115386   4.173   7.003   5.944
 4829SOL    HW215387   4.332   6.990   5.911
 4830SOL     OW15388   3.376   5.444   3.775
 4830SOL    HW115389   3.462   5.394   3.783
 4830SOL    HW215390   3.343   5.437   3.681
 4831SOL     OW15391   3.356   5.452   6.249
 4831SOL    HW115392   3.424   5.429   6.180
 4831SOL    HW215393   3.402   5.487   6.331
 4832SOL     OW15394   2.884   3.455   4.696
 4832SOL    HW115395   2.872   3.488   4.603
 4832SOL    HW215396   2.914   3.360   4.695
 4833SOL     OW15397   5.986   2.752   4.387
 4833SOL    HW115398   6.032   2.817   4.326
 4833SOL    HW215399   5.893   2.784   4.405
 4834SOL     OW15400   2.162   5.309   2.264
 4834SOL    HW115401   2.068   5.330   2.291
 4834SOL    HW215402   2.175   5.329   2.167
 4835SOL     OW15403   6.761   3.169   5.675
 4835SOL    HW115404   6.849   3.195   5.716
 4835SOL    HW215405   6.689   3.230   5.710
 4836SOL     OW15406   4.962   0.702   5.325
 4836SOL    HW115407   4.872   0.660   5.335
 4836SOL    HW215408   4.952   0.795   5.290
 4837SOL     OW15409   6.608   2.938   4.128
 4837SOL    HW115410   6.666   2.970   4.054
 4837SOL    HW215411   6.514   2.929   4.095
 4838SOL     OW15412   1.172   4.688   6.182
 4838SOL    HW115413   1.240   4.751   6.219
 4838SOL    HW215414   1.084   4.736   6.173
 4839SOL     OW15415   2.261   2.155   1.101
 4839SOL    HW115416   2.204   2.154   1.018
 4839SOL    HW215417   2.351   2.194   1.079
 4840SOL     OW15418   5.026   3.595   5.204
 4840SOL    HW115419   4.963   3.615   5.279
 4840SOL    HW215420   4.976   3.589   5.118
 4841SOL     OW15421   2.746   5.033   3.506
 4841SOL    HW115422   2.729   5.119   3.458
 4841SOL    HW215423   2.766   5.052   3.602
 4842SOL     OW15424   2.675   5.113   2.815
 4842SOL    HW115425   2.616   5.070   2.747
 4842SOL    HW215426   2.770   5.086   2.799
 4843SOL     OW15427   0.250   2.586   2.293
 4843SOL    HW115428   0.176   2.632   2.244
 4843SOL    HW215429   0.215   2.547   2.378
 4844SOL     OW15430   1.322   5.523   5.186
 4844SOL    HW115431   1.256   5.507   5.113
 4844SOL    HW215432   1.409   5.552   5.146
 4845SOL     OW15433   4.778   4.394   5.234
 4845SOL    HW115434   4.713   4.415   5.161
 4845SOL    HW215435   4.830   4.477   5.258
 4846SOL     OW15436   0.100   3.287   4.592
 4846SOL    HW115437   0.003   3.298   4.570
 4846SOL    HW215438   0.133   3.367   4.641
 4847SOL     OW15439   2.704   6.302   5.775
 4847SOL    HW115440   2.728   6.328   5.682
 4847SOL    HW215441   2.605   6.314   5.789
 4848SOL     OW15442   2.397   0.783   4.115
 4848SOL    HW115443   2.430   0.868   4.073
 4848SOL    HW215444   2.432   0.776   4.208
 4849SOL     OW15445   2.195   6.834   0.935
 4849SOL    HW115446   2.192   6.923   0.980
 4849SOL    HW215447   2.290   6.810   0.914
 4850SOL     OW15448   4.810   0.939   0.814
 4850SOL    HW115449   4.849   0.965   0.902
 4850SOL    HW215450   4.764   1.018   0.773
 4851SOL     OW15451   3.206   6.043   6.940
 4851SOL    HW115452   3.163   6.133   6.944
 4851SOL    HW215453   3.293   6.049   6.892
 4852SOL     OW15454   4.400   5.388   5.169
 4852SOL    HW115455   4.457   5.326   5.116
 4852SOL    HW215456   4.313   5.402   5.122
 4853SOL     OW15457   3.761   0.877   3.059
 4853SOL    HW115458   3.855   0.889   3.026
 4853SOL    HW215459   3.735   0.957   3.114
 4854SOL     OW15460   6.215   6.230   1.348
 4854SOL    HW115461   6.225   6.189   1.439
 4854SOL    HW215462   6.133   6.287   1.347
 4855SOL     OW15463   6.478   4.708   4.523
 4855SOL    HW115464   6.394   4.657   4.505
 4855SOL    HW215465   6.539   4.654   4.581
 4856SOL     OW15466   0.148   3.796   2.753
 4856SOL    HW115467   0.228   3.785   2.694
 4856SOL    HW215468   0.065   3.801   2.697
 4857SOL     OW15469   2.962   2.153   4.046
 4857SOL    HW115470   2.980   2.147   4.144
 4857SOL    HW215471   2.922   2.242   4.024
 4858SOL     OW15472   0.747   6.695   4.826
 4858SOL    HW115473   0.707   6.684   4.917
 4858SOL    HW215474   0.677   6.724   4.762
 4859SOL     OW15475   0.787   5.771   2.024
 4859SOL    HW115476   0.812   5.675   2.030
 4859SOL    HW215477   0.855   5.820   1.969
 4860SOL     OW15478   5.288   5.733   0.927
 4860SOL    HW115479   5.347   5.698   0.854
 4860SOL    HW215480   5.236   5.811   0.894
 4861SOL     OW15481   0.007   5.021   6.533
 4861SOL    HW115482   6.948   4.973   6.554
 4861SOL    HW215483   0.044   4.986   6.447
 4862SOL     OW15484   2.649   4.845   5.037
 4862SOL    HW115485   2.688   4.754   5.039
 4862SOL    HW215486   2.676   4.896   5.119
 4863SOL     OW15487   4.505   2.483   3.370
 4863SOL    HW115488   4.428   2.420   3.360
 4863SOL    HW215489   4.586   2.443   3.328
 4864SOL     OW15490   3.101   1.074   2.223
 4864SOL    HW115491   3.147   0.988   2.199
 4864SOL    HW215492   3.170   1.142   2.247
 4865SOL     OW15493   3.490   5.432   5.729
 4865SOL    HW115494   3.570   5.490   5.712
 4865SOL    HW215495   3.409   5.477   5.691
 4866SOL     OW15496   6.126   4.734   1.950
 4866SOL    HW115497   6.134   4.726   1.851
 4866SOL    HW215498   6.169   4.819   1.981
 4867SOL     OW15499   4.900   5.599   2.367
 4867SOL    HW115500   4.910   5.698   2.356
 4867SOL    HW215501   4.896   5.555   2.277
 4868SOL     OW15502   0.570   5.939   1.142
 4868SOL    HW115503   0.574   6.025   1.091
 4868SOL    HW215504   0.571   5.862   1.078
 4869SOL     OW15505   0.014   1.792   0.009
 4869SOL    HW115506   0.034   1.889   7.024
 4869SOL    HW215507   0.007   1.770   0.107
 4870SOL     OW15508   4.895   6.534   1.754
 4870SOL    HW115509   4.937   6.609   1.805
 4870SOL    HW215510   4.799   6.524   1.782
 4871SOL     OW15511   1.317   2.788   3.859
 4871SOL    HW115512   1.345   2.838   3.777
 4871SOL    HW215513   1.334   2.691   3.847
 4872SOL     OW15514   1.162   0.041   2.630
 4872SOL    HW115515   1.177   0.140   2.632
 4872SOL    HW215516   1.087   0.020   2.567
 4873SOL     OW15517   6.907   5.450   5.101
 4873SOL    HW115518   6.895   5.463   5.200
 4873SOL    HW215519   6.825   5.484   5.054
 4874SOL     OW15520   5.528   3.564   3.119
 4874SOL    HW115521   5.566   3.481   3.078
 4874SOL    HW215522   5.475   3.614   3.051
 4875SOL     OW15523   5.415   1.708   1.047
 4875SOL    HW115524   5.374   1.646   0.980
 4875SOL    HW215525   5.364   1.705   1.132
 4876SOL     OW15526   0.038   1.548   6.928
 4876SOL    HW115527   0.084   1.530   6.841
 4876SOL    HW215528   0.053   1.643   6.955
 4877SOL     OW15529   6.259   1.135   1.340
 4877SOL    HW115530   6.251   1.221   1.391
 4877SOL    HW215531   6.204   1.142   1.256
 4878SOL     OW15532   6.925   1.576   1.780
 4878SOL    HW115533   7.006   1.548   1.831
 4878SOL    HW215534   6.867   1.633   1.838
 4879SOL     OW15535   4.091   4.986   3.661
 4879SOL    HW115536   4.130   5.078   3.657
 4879SOL    HW215537   4.122   4.940   3.745
 4880SOL     OW15538   5.568   1.606   6.944
 4880SOL    HW115539   5.589   1.568   0.008
 4880SOL    HW215540   5.479   1.652   6.947
 4881SOL     OW15541   3.364   6.445   6.240
 4881SOL    HW115542   3.290   6.435   6.307
 4881SOL    HW215543   3.337   6.399   6.155
 4882SOL     OW15544   5.840   1.266   5.215
 4882SOL    HW115545   5.840   1.185   5.273
 4882SOL    HW215546   5.750   1.310   5.218
 4883SOL     OW15547   6.503   4.611   1.723
 4883SOL    HW115548   6.570   4.537   1.722
 4883SOL    HW215549   6.463   4.619   1.815
 4884SOL     OW15550   3.427   6.397   2.145
 4884SOL    HW115551   3.417   6.477   2.086
 4884SOL    HW215552   3.376   6.320   2.106
 4885SOL     OW15553   1.929   0.048   1.039
 4885SOL    HW115554   1.918   0.147   1.035
 4885SOL    HW215555   2.018   0.026   1.078
 4886SOL     OW15556   6.483   0.283   0.175
 4886SOL    HW115557   6.468   0.317   0.267
 4886SOL    HW215558   6.516   0.357   0.117
 4887SOL     OW15559   0.122   1.947   3.718
 4887SOL    HW115560   0.032   1.967   3.678
 4887SOL    HW215561   0.174   2.031   3.727
 4888SOL     OW15562   2.383   6.107   2.792
 4888SOL    HW115563   2.310   6.137   2.731
 4888SOL    HW215564   2.344   6.046   2.862
 4889SOL     OW15565   1.098   1.879   0.036
 4889SOL    HW115566   1.081   1.956   0.097
 4889SOL    HW215567   1.159   1.908   6.988
 4890SOL     OW15568   1.105   0.950   4.496
 4890SOL    HW115569   1.171   0.948   4.421
 4890SOL    HW215570   1.144   0.908   4.577
 4891SOL     OW15571   0.794   4.966   0.572
 4891SOL    HW115572   0.815   4.920   0.486
 4891SOL    HW215573   0.740   4.906   0.631
 4892SOL     OW15574   0.957   5.778   1.554
 4892SOL    HW115575   1.003   5.855   1.509
 4892SOL    HW215576   1.009   5.694   1.537
 4893SOL     OW15577   0.591   3.899   6.445
 4893SOL    HW115578   0.591   3.818   6.387
 4893SOL    HW215579   0.504   3.906   6.494
 4894SOL     OW15580   2.366   0.847   3.632
 4894SOL    HW115581   2.360   0.785   3.553
 4894SOL    HW215582   2.327   0.936   3.607
 4895SOL     OW15583   1.056   3.047   0.344
 4895SOL    HW115584   1.028   3.012   0.434
 4895SOL    HW215585   1.149   3.015   0.324
 4896SOL     OW15586   3.587   4.885   5.229
 4896SOL    HW115587   3.543   4.975   5.226
 4896SOL    HW215588   3.516   4.814   5.230
 4897SOL     OW15589   3.179   5.582   0.403
 4897SOL    HW115590   3.235   5.597   0.322
 4897SOL    HW215591   3.089   5.546   0.376
 4898SOL     OW15592   5.231   1.354   5.723
 4898SOL    HW115593   5.255   1.330   5.629
 4898SOL    HW215594   5.222   1.453   5.731
 4899SOL     OW15595   6.074   4.560   3.767
 4899SOL    HW115596   6.155   4.588   3.714
 4899SOL    HW215597   6.020   4.496   3.713
 4900SOL     OW15598   0.687   6.686   6.062
 4900SOL    HW115599   0.718   6.781   6.058
 4900SOL    HW215600   0.589   6.682   6.045
 4901SOL     OW15601   0.757   6.716   3.848
 4901SOL    HW115602   0.714   6.763   3.772
 4901SOL    HW215603   0.732   6.619   3.847
 4902SOL     OW15604   2.732   4.708   1.599
 4902SOL    HW115605   2.676   4.752   1.529
 4902SOL    HW215606   2.806   4.769   1.627
 4903SOL     OW15607   4.578   6.925   6.621
 4903SOL    HW115608   4.540   6.895   6.533
 4903SOL    HW215609   4.545   6.864   6.693
 4904SOL     OW15610   2.492   6.021   4.327
 4904SOL    HW115611   2.424   6.080   4.371
 4904SOL    HW215612   2.576   6.072   4.310
 4905SOL     OW15613   4.787   3.205   1.737
 4905SOL    HW115614   4.734   3.151   1.803
 4905SOL    HW215615   4.732   3.218   1.654
 4906SOL     OW15616   5.297   0.187   0.245
 4906SOL    HW115617   5.368   0.188   0.174
 4906SOL    HW215618   5.278   0.281   0.273
 4907SOL     OW15619   3.922   0.418   3.508
 4907SOL    HW115620   3.904   0.324   3.537
 4907SOL    HW215621   4.010   0.448   3.544
 4908SOL     OW15622   3.537   6.436   6.619
 4908SOL    HW115623   3.524   6.350   6.569
 4908SOL    HW215624   3.518   6.513   6.559
 4909SOL     OW15625   6.593   6.162   5.514
 4909SOL    HW115626   6.616   6.224   5.439
 4909SOL    HW215627   6.615   6.068   5.487
 4910SOL     OW15628   5.135   0.191   5.156
 4910SOL    HW115629   5.077   0.198   5.075
 4910SOL    HW215630   5.164   0.282   5.184
 4911SOL     OW15631   6.857   2.676   5.744
 4911SOL    HW115632   6.939   2.619   5.755
 4911SOL    HW215633   6.854   2.745   5.816
 4912SOL     OW15634   3.932   1.844   2.271
 4912SOL    HW115635   3.866   1.841   2.196
 4912SOL    HW215636   4.025   1.836   2.234
 4913SOL     OW15637   3.485   4.034   3.286
 4913SOL    HW115638   3.526   3.985   3.210
 4913SOL    HW215639   3.408   3.981   3.323
 4914SOL     OW15640   2.519   6.736   3.291
 4914SOL    HW115641   2.571   6.662   3.248
 4914SOL    HW215642   2.519   6.816   3.231
 4915SOL     OW15643   4.191   6.157   3.855
 4915SOL    HW115644   4.189   6.063   3.888
 4915SOL    HW215645   4.137   6.165   3.772
 4916SOL     OW15646   2.290   2.031   3.075
 4916SOL    HW115647   2.288   1.981   3.161
 4916SOL    HW215648   2.201   2.073   3.057
 4917SOL     OW15649   2.029   4.679   0.715
 4917SOL    HW115650   2.089   4.758   0.726
 4917SOL    HW215651   1.983   4.660   0.802
 4918SOL     OW15652   2.069   0.167   2.088
 4918SOL    HW115653   2.007   0.092   2.113
 4918SOL    HW215654   2.035   0.213   2.006
 4919SOL     OW15655   1.775   2.974   1.943
 4919SOL    HW115656   1.814   2.931   2.025
 4919SOL    HW215657   1.746   2.903   1.880
 4920SOL     OW15658   4.343   0.614   0.757
 4920SOL    HW115659   4.306   0.627   0.849
 4920SOL    HW215660   4.384   0.700   0.725
 4921SOL     OW15661   1.906   4.155   1.769
 4921SOL    HW115662   1.985   4.212   1.788
 4921SOL    HW215663   1.822   4.204   1.793
 4922SOL     OW15664   1.833   3.042   5.122
 4922SOL    HW115665   1.862   3.137   5.138
 4922SOL    HW215666   1.733   3.037   5.126
 4923SOL     OW15667   4.937   0.462   1.763
 4923SOL    HW115668   4.892   0.475   1.675
 4923SOL    HW215669   4.868   0.456   1.835
 4924SOL     OW15670   0.945   4.082   4.853
 4924SOL    HW115671   0.948   4.080   4.753
 4924SOL    HW215672   0.852   4.063   4.883
 4925SOL     OW15673   5.116   6.302   0.433
 4925SOL    HW115674   5.115   6.344   0.342
 4925SOL    HW215675   5.187   6.344   0.489
 4926SOL     OW15676   4.841   2.653   2.027
 4926SOL    HW115677   4.914   2.635   1.961
 4926SOL    HW215678   4.881   2.685   2.113
 4927SOL     OW15679   3.105   3.070   3.034
 4927SOL    HW115680   3.055   3.140   3.085
 4927SOL    HW215681   3.146   3.005   3.098
 4928SOL     OW15682   0.721   6.169   0.003
 4928SOL    HW115683   0.737   6.100   0.073
 4928SOL    HW215684   0.652   6.234   0.035
 4929SOL     OW15685   1.224   5.024   4.308
 4929SOL    HW115686   1.272   4.971   4.239
 4929SOL    HW215687   1.278   5.028   4.392
 4930SOL     OW15688   0.592   2.090   0.766
 4930SOL    HW115689   0.537   2.159   0.814
 4930SOL    HW215690   0.541   2.058   0.686
 4931SOL     OW15691   0.158   0.335   0.373
 4931SOL    HW115692   0.135   0.272   0.300
 4931SOL    HW215693   0.132   0.428   0.347
 4932SOL     OW15694   2.681   2.098   1.312
 4932SOL    HW115695   2.672   2.188   1.269
 4932SOL    HW215696   2.693   2.028   1.241
 4933SOL     OW15697   2.853   0.990   3.926
 4933SOL    HW115698   2.786   0.918   3.942
 4933SOL    HW215699   2.853   1.016   3.830
 4934SOL     OW15700   0.482   6.087   4.299
 4934SOL    HW115701   0.409   6.095   4.231
 4934SOL    HW215702   0.441   6.070   4.389
 4935SOL     OW15703   1.699   1.503   0.108
 4935SOL    HW115704   1.750   1.470   0.029
 4935SOL    HW215705   1.624   1.562   0.076
 4936SOL     OW15706   3.869   5.622   1.474
 4936SOL    HW115707   3.859   5.617   1.375
 4936SOL    HW215708   3.963   5.648   1.497
 4937SOL     OW15709   0.645   2.346   5.837
 4937SOL    HW115710   0.633   2.444   5.824
 4937SOL    HW215711   0.719   2.330   5.903
 4938SOL     OW15712   3.297   4.485   1.550
 4938SOL    HW115713   3.379   4.519   1.595
 4938SOL    HW215714   3.216   4.528   1.591
 4939SOL     OW15715   1.702   2.389   1.489
 4939SOL    HW115716   1.801   2.387   1.477
 4939SOL    HW215717   1.665   2.297   1.478
 4940SOL     OW15718   0.071   3.213   3.970
 4940SOL    HW115719   0.052   3.262   4.055
 4940SOL    HW215720   0.152   3.155   3.982
 4941SOL     OW15721   3.983   2.333   5.259
 4941SOL    HW115722   3.925   2.388   5.318
 4941SOL    HW215723   4.053   2.390   5.217
 4942SOL     OW15724   5.593   2.446   3.490
 4942SOL    HW115725   5.671   2.497   3.526
 4942SOL    HW215726   5.599   2.351   3.520
 4943SOL     OW15727   5.276   2.921   6.396
 4943SOL    HW115728   5.324   2.856   6.455
 4943SOL    HW215729   5.178   2.919   6.416
 4944SOL     OW15730   1.599   5.481   1.154
 4944SOL    HW115731   1.623   5.397   1.203
 4944SOL    HW215732   1.682   5.534   1.137
 4945SOL     OW15733   2.291   1.109   5.260
 4945SOL    HW115734   2.258   1.018   5.231
 4945SOL    HW215735   2.345   1.100   5.343
 4946SOL     OW15736   1.457   5.290   0.186
 4946SOL    HW115737   1.368   5.321   0.219
 4946SOL    HW215738   1.452   5.268   0.089
 4947SOL     OW15739   1.766   0.984   1.891
 4947SOL    HW115740   1.796   0.911   1.830
 4947SOL    HW215741   1.710   0.945   1.964
 4948SOL     OW15742   1.564   2.630   1.559
 4948SOL    HW115743   1.560   2.692   1.480
 4948SOL    HW215744   1.624   2.553   1.537
 4949SOL     OW15745   6.748   3.207   6.504
 4949SOL    HW115746   6.847   3.220   6.514
 4949SOL    HW215747   6.699   3.280   6.550
 4950SOL     OW15748   2.362   4.688   5.390
 4950SOL    HW115749   2.273   4.693   5.343
 4950SOL    HW215750   2.428   4.643   5.330
 4951SOL     OW15751   5.120   5.491   3.834
 4951SOL    HW115752   5.077   5.412   3.880
 4951SOL    HW215753   5.110   5.481   3.735
 4952SOL     OW15754   0.543   0.207   6.050
 4952SOL    HW115755   0.624   0.254   6.086
 4952SOL    HW215756   0.523   0.240   5.958
 4953SOL     OW15757   1.203   2.051   4.929
 4953SOL    HW115758   1.229   2.099   4.846
 4953SOL    HW215759   1.278   1.991   4.958
 4954SOL     OW15760   2.990   3.987   5.081
 4954SOL    HW115761   2.980   3.968   4.984
 4954SOL    HW215762   3.006   4.085   5.095
 4955SOL     OW15763   3.094   6.297   0.357
 4955SOL    HW115764   3.082   6.349   0.272
 4955SOL    HW215765   3.191   6.294   0.380
 4956SOL     OW15766   2.107   0.639   5.067
 4956SOL    HW115767   2.064   0.605   4.984
 4956SOL    HW215768   2.161   0.566   5.109
 4957SOL     OW15769   6.256   4.211   6.361
 4957SOL    HW115770   6.349   4.232   6.391
 4957SOL    HW215771   6.218   4.138   6.418
 4958SOL     OW15772   2.653   0.143   6.903
 4958SOL    HW115773   2.751   0.126   6.910
 4958SOL    HW215774   2.630   0.225   6.956
 4959SOL     OW15775   0.047   3.056   1.590
 4959SOL    HW115776   7.017   3.040   1.671
 4959SOL    HW215777   0.002   3.017   1.509
 4960SOL     OW15778   4.143   4.779   4.420
 4960SOL    HW115779   4.112   4.765   4.514
 4960SOL    HW215780   4.224   4.837   4.420
 4961SOL     OW15781   3.322   0.815   0.206
 4961SOL    HW115782   3.285   0.798   0.115
 4961SOL    HW215783   3.247   0.823   0.271
 4962SOL     OW15784   0.565   3.885   1.320
 4962SOL    HW115785   0.529   3.814   1.260
 4962SOL    HW215786   0.665   3.878   1.324
 4963SOL     OW15787   0.519   4.276   6.949
 4963SOL    HW115788   0.449   4.305   6.884
 4963SOL    HW215789   0.538   4.179   6.935
 4964SOL     OW15790   2.550   6.411   4.558
 4964SOL    HW115791   2.645   6.443   4.564
 4964SOL    HW215792   2.512   6.402   4.650
 4965SOL     OW15793   1.347   6.685   2.818
 4965SOL    HW115794   1.421   6.732   2.769
 4965SOL    HW215795   1.282   6.648   2.751
 4966SOL     OW15796   3.111   6.341   4.225
 4966SOL    HW115797   3.147   6.426   4.264
 4966SOL    HW215798   3.053   6.295   4.293
 4967SOL     OW15799   3.950   4.752   5.408
 4967SOL    HW115800   3.911   4.831   5.361
 4967SOL    HW215801   3.893   4.728   5.486
 4968SOL     OW15802   0.673   1.977   3.862
 4968SOL    HW115803   0.601   2.000   3.796
 4968SOL    HW215804   0.702   1.883   3.849
 4969SOL     OW15805   0.412   5.949   2.772
 4969SOL    HW115806   0.401   6.024   2.837
 4969SOL    HW215807   0.356   5.966   2.691
 4970SOL     OW15808   1.356   1.244   1.746
 4970SOL    HW115809   1.391   1.320   1.801
 4970SOL    HW215810   1.423   1.170   1.743
 4971SOL     OW15811   6.316   5.798   2.840
 4971SOL    HW115812   6.366   5.884   2.856
 4971SOL    HW215813   6.285   5.795   2.745
 4972SOL     OW15814   1.409   4.255   0.997
 4972SOL    HW115815   1.438   4.311   0.919
 4972SOL    HW215816   1.461   4.170   0.999
 4973SOL     OW15817   0.179   1.051   0.829
 4973SOL    HW115818   0.182   1.140   0.875
 4973SOL    HW215819   0.265   1.036   0.780
 4974SOL     OW15820   3.405   4.859   6.014
 4974SOL    HW115821   3.453   4.778   5.980
 4974SOL    HW215822   3.324   4.830   6.065
 4975SOL     OW15823   5.932   3.594   0.479
 4975SOL    HW115824   5.994   3.516   0.483
 4975SOL    HW215825   5.874   3.586   0.398
 4976SOL     OW15826   1.190   6.477   4.117
 4976SOL    HW115827   1.100   6.447   4.148
 4976SOL    HW215828   1.185   6.573   4.089
 4977SOL     OW15829   2.477   5.325   6.635
 4977SOL    HW115830   2.419   5.385   6.580
 4977SOL    HW215831   2.569   5.324   6.597
 4978SOL     OW15832   5.073   4.232   5.166
 4978SOL    HW115833   5.023   4.276   5.092
 4978SOL    HW215834   5.009   4.195   5.233
 4979SOL     OW15835   1.624   6.992   6.389
 4979SOL    HW115836   1.698   6.935   6.354
 4979SOL    HW215837   1.632   7.002   6.488
 4980SOL     OW15838   6.175   3.870   3.087
 4980SOL    HW115839   6.097   3.830   3.039
 4980SOL    HW215840   6.243   3.900   3.021
 4981SOL     OW15841   3.705   4.860   1.665
 4981SOL    HW115842   3.738   4.802   1.590
 4981SOL    HW215843   3.640   4.808   1.720
 4982SOL     OW15844   4.998   1.178   6.767
 4982SOL    HW115845   4.962   1.174   6.673
 4982SOL    HW215846   4.937   1.126   6.827
 4983SOL     OW15847   6.880   5.470   3.537
 4983SOL    HW115848   6.941   5.438   3.609
 4983SOL    HW215849   6.882   5.570   3.533
 4984SOL     OW15850   5.008   4.506   2.668
 4984SOL    HW115851   5.092   4.550   2.636
 4984SOL    HW215852   4.939   4.577   2.687
 4985SOL     OW15853   5.890   5.423   3.056
 4985SOL    HW115854   5.952   5.470   3.119
 4985SOL    HW215855   5.795   5.442   3.083
 4986SOL     OW15856   0.768   4.813   1.676
 4986SOL    HW115857   0.676   4.775   1.669
 4986SOL    HW215858   0.816   4.800   1.589
 4987SOL     OW15859   1.110   0.187   2.287
 4987SOL    HW115860   1.060   0.124   2.347
 4987SOL    HW215861   1.095   0.281   2.319
 4988SOL     OW15862   5.934   6.815   3.183
 4988SOL    HW115863   5.912   6.873   3.261
 4988SOL    HW215864   6.032   6.816   3.166
 4989SOL     OW15865   5.042   1.315   2.343
 4989SOL    HW115866   5.034   1.415   2.342
 4989SOL    HW215867   4.984   1.276   2.272
 4990SOL     OW15868   4.420   1.390   6.048
 4990SOL    HW115869   4.512   1.428   6.056
 4990SOL    HW215870   4.371   1.437   5.975
 4991SOL     OW15871   0.960   5.840   5.031
 4991SOL    HW115872   1.045   5.846   4.980
 4991SOL    HW215873   0.964   5.764   5.096
 4992SOL     OW15874   0.022   1.173   3.576
 4992SOL    HW115875   0.024   1.243   3.504
 4992SOL    HW215876   6.959   1.128   3.575
 4993SOL     OW15877   4.632   6.138   5.264
 4993SOL    HW115878   4.545   6.154   5.311
 4993SOL    HW215879   4.621   6.062   5.200
 4994SOL     OW15880   2.909   5.035   5.800
 4994SOL    HW115881   2.876   5.115   5.750
 4994SOL    HW215882   2.857   5.024   5.885
 4995SOL     OW15883   0.148   0.478   4.726
 4995SOL    HW115884   0.165   0.498   4.629
 4995SOL    HW215885   0.076   0.538   4.759
 4996SOL     OW15886   0.384   1.804   4.479
 4996SOL    HW115887   0.391   1.845   4.388
 4996SOL    HW215888   0.476   1.779   4.511
 4997SOL     OW15889   3.522   1.866   1.444
 4997SOL    HW115890   3.543   1.835   1.537
 4997SOL    HW215891   3.511   1.786   1.384
 4998SOL     OW15892   1.149   3.387   3.702
 4998SOL    HW115893   1.207   3.413   3.625
 4998SOL    HW215894   1.164   3.291   3.724
 4999SOL     OW15895   0.956   4.048   4.561
 4999SOL    HW115896   0.929   4.110   4.488
 4999SOL    HW215897   1.020   3.980   4.525
 5000SOL     OW15898   3.013   5.780   3.575
 5000SOL    HW115899   2.961   5.840   3.636
 5000SOL    HW215900   3.050   5.703   3.627
 5001SOL     OW15901   1.151   5.320   2.880
 5001SOL    HW115902   1.210   5.272   2.815
 5001SOL    HW215903   1.115   5.255   2.947
 5002SOL     OW15904   0.570   4.094   2.545
 5002SOL    HW115905   0.542   4.101   2.641
 5002SOL    HW215906   0.627   4.013   2.532
 5003SOL     OW15907   4.231   6.043   3.154
 5003SOL    HW115908   4.132   6.059   3.162
 5003SOL    HW215909   4.268   6.099   3.080
 5004SOL     OW15910   3.130   6.167   6.231
 5004SOL    HW115911   3.159   6.098   6.297
 5004SOL    HW215912   3.031   6.161   6.219
 5005SOL     OW15913   3.007   3.396   6.344
 5005SOL    HW115914   2.919   3.410   6.391
 5005SOL    HW215915   2.993   3.406   6.245
 5006SOL     OW15916   5.400   1.518   1.892
 5006SOL    HW115917   5.408   1.614   1.864
 5006SOL    HW215918   5.324   1.475   1.843
 5007SOL     OW15919   6.173   0.786   1.060
 5007SOL    HW115920   6.084   0.741   1.063
 5007SOL    HW215921   6.178   0.845   0.980
 5008SOL     OW15922   6.465   0.298   1.776
 5008SOL    HW115923   6.473   0.354   1.693
 5008SOL    HW215924   6.377   0.315   1.819
 5009SOL     OW15925   0.794   2.628   0.651
 5009SOL    HW115926   0.770   2.627   0.554
 5009SOL    HW215927   0.892   2.647   0.661
 5010SOL     OW15928   3.443   2.545   0.034
 5010SOL    HW115929   3.406   2.509   6.974
 5010SOL    HW215930   3.512   2.482   0.069
 5011SOL     OW15931   2.000   3.572   6.973
 5011SOL    HW115932   2.097   3.576   6.994
 5011SOL    HW215933   1.968   3.662   6.944
 5012SOL     OW15934   5.488   2.094   5.658
 5012SOL    HW115935   5.477   2.177   5.604
 5012SOL    HW215936   5.576   2.097   5.706
 5013SOL     OW15937   6.248   0.265   5.108
 5013SOL    HW115938   6.209   0.175   5.087
 5013SOL    HW215939   6.327   0.253   5.168
 5014SOL     OW15940   6.736   4.043   0.834
 5014SOL    HW115941   6.639   4.063   0.845
 5014SOL    HW215942   6.762   4.059   0.739
 5015SOL     OW15943   5.657   0.477   4.387
 5015SOL    HW115944   5.583   0.481   4.454
 5015SOL    HW215945   5.720   0.553   4.402
 5016SOL     OW15946   1.217   3.647   4.619
 5016SOL    HW115947   1.195   3.739   4.588
 5016SOL    HW215948   1.154   3.581   4.576
 5017SOL     OW15949   0.805   2.285   1.029
 5017SOL    HW115950   0.808   2.309   0.932
 5017SOL    HW215951   0.715   2.309   1.066
 5018SOL     OW15952   0.621   5.291   1.984
 5018SOL    HW115953   0.565   5.226   1.933
 5018SOL    HW215954   0.622   5.379   1.937
 5019SOL     OW15955   1.819   5.817   5.391
 5019SOL    HW115956   1.848   5.782   5.481
 5019SOL    HW215957   1.884   5.786   5.321
 5020SOL     OW15958   0.570   6.552   5.258
 5020SOL    HW115959   0.632   6.574   5.333
 5020SOL    HW215960   0.478   6.585   5.280
 5021SOL     OW15961   1.872   0.748   0.951
 5021SOL    HW115962   1.825   0.691   1.017
 5021SOL    HW215963   1.920   0.822   0.998
 5022SOL     OW15964   0.326   2.726   1.546
 5022SOL    HW115965   0.409   2.739   1.600
 5022SOL    HW215966   0.248   2.712   1.607
 5023SOL     OW15967   0.145   3.934   1.670
 5023SOL    HW115968   0.203   3.969   1.743
 5023SOL    HW215969   0.079   4.004   1.643
 5024SOL     OW15970   5.271   3.731   0.479
 5024SOL    HW115971   5.310   3.682   0.557
 5024SOL    HW215972   5.283   3.830   0.492
 5025SOL     OW15973   4.472   1.870   4.369
 5025SOL    HW115974   4.375   1.889   4.380
 5025SOL    HW215975   4.489   1.772   4.381
 5026SOL     OW15976   5.950   5.774   5.157
 5026SOL    HW115977   5.992   5.685   5.138
 5026SOL    HW215978   5.994   5.844   5.101
 5027SOL     OW15979   5.143   0.580   0.666
 5027SOL    HW115980   5.147   0.489   0.624
 5027SOL    HW215981   5.056   0.591   0.714
 5028SOL     OW15982   0.228   2.118   2.944
 5028SOL    HW115983   0.133   2.138   2.967
 5028SOL    HW215984   0.263   2.189   2.883
 5029SOL     OW15985   6.609   2.684   2.220
 5029SOL    HW115986   6.519   2.660   2.183
 5029SOL    HW215987   6.678   2.619   2.187
 5030SOL     OW15988   6.973   5.972   6.283
 5030SOL    HW115989   6.958   5.979   6.382
 5030SOL    HW215990   0.041   5.943   6.265
 5031SOL     OW15991   6.989   1.225   5.169
 5031SOL    HW115992   0.047   1.276   5.185
 5031SOL    HW215993   6.989   1.141   5.222
 5032SOL     OW15994   3.253   2.440   6.057
 5032SOL    HW115995   3.289   2.446   5.964
 5032SOL    HW215996   3.301   2.505   6.116
 5033SOL     OW15997   2.187   1.447   0.468
 5033SOL    HW115998   2.273   1.443   0.518
 5033SOL    HW215999   2.125   1.377   0.504
 5034SOL     OW16000   4.295   6.407   4.200
 5034SOL    HW116001   4.325   6.365   4.286
 5034SOL    HW216002   4.208   6.366   4.173
 5035SOL     OW16003   6.634   4.329   4.863
 5035SOL    HW116004   6.613   4.241   4.906
 5035SOL    HW216005   6.719   4.365   4.900
 5036SOL     OW16006   6.780   3.869   5.409
 5036SOL    HW116007   6.691   3.846   5.448
 5036SOL    HW216008   6.827   3.934   5.469
 5037SOL     OW16009   4.178   4.448   1.374
 5037SOL    HW116010   4.191   4.466   1.277
 5037SOL    HW216011   4.267   4.433   1.417
 5038SOL     OW16012   3.273   3.299   4.161
 5038SOL    HW116013   3.259   3.201   4.176
 5038SOL    HW216014   3.265   3.319   4.063
 5039SOL     OW16015   1.993   3.576   5.894
 5039SOL    HW116016   2.008   3.546   5.989
 5039SOL    HW216017   2.009   3.500   5.832
 5040SOL     OW16018   1.411   5.378   5.397
 5040SOL    HW116019   1.458   5.294   5.373
 5040SOL    HW216020   1.384   5.426   5.314
 5041SOL     OW16021   0.763   3.085   1.923
 5041SOL    HW116022   0.745   3.151   1.995
 5041SOL    HW216023   0.815   3.129   1.850
 5042SOL     OW16024   0.151   3.985   6.128
 5042SOL    HW116025   0.209   4.065   6.144
 5042SOL    HW216026   0.089   3.973   6.205
 5043SOL     OW16027   4.193   0.639   0.456
 5043SOL    HW116028   4.215   0.552   0.413
 5043SOL    HW216029   4.277   0.684   0.487
 5044SOL     OW16030   6.938   6.110   1.294
 5044SOL    HW116031   6.965   6.046   1.366
 5044SOL    HW216032   6.891   6.059   1.221
 5045SOL     OW16033   6.238   4.531   5.977
 5045SOL    HW116034   6.318   4.588   5.957
 5045SOL    HW216035   6.191   4.567   6.058
 5046SOL     OW16036   3.867   3.627   4.176
 5046SOL    HW116037   3.875   3.710   4.121
 5046SOL    HW216038   3.788   3.574   4.145
 5047SOL     OW16039   2.170   3.160   2.952
 5047SOL    HW116040   2.172   3.189   2.857
 5047SOL    HW216041   2.232   3.083   2.965
 5048SOL     OW16042   1.870   0.812   4.995
 5048SOL    HW116043   1.926   0.832   5.075
 5048SOL    HW216044   1.790   0.760   5.022
 5049SOL     OW16045   6.359   1.093   5.937
 5049SOL    HW116046   6.329   1.005   5.973
 5049SOL    HW216047   6.381   1.083   5.840
 5050SOL     OW16048   1.539   1.495   6.739
 5050SOL    HW116049   1.543   1.446   6.826
 5050SOL    HW216050   1.444   1.516   6.717
 5051SOL     OW16051   3.620   4.408   1.264
 5051SOL    HW116052   3.605   4.417   1.165
 5051SOL    HW216053   3.541   4.446   1.313
 5052SOL     OW16054   3.427   2.060   6.437
 5052SOL    HW116055   3.483   2.017   6.367
 5052SOL    HW216056   3.468   2.045   6.527
 5053SOL     OW16057   0.907   4.978   3.014
 5053SOL    HW116058   0.964   4.967   2.933
 5053SOL    HW216059   0.926   5.066   3.058
 5054SOL     OW16060   3.218   4.966   5.691
 5054SOL    HW116061   3.303   4.957   5.640
 5054SOL    HW216062   3.143   4.930   5.637
 5055SOL     OW16063   0.438   2.949   5.799
 5055SOL    HW116064   0.469   3.041   5.776
 5055SOL    HW216065   0.502   2.881   5.762
 5056SOL     OW16066   4.852   4.149   4.988
 5056SOL    HW116067   4.801   4.192   4.913
 5056SOL    HW216068   4.873   4.054   4.964
 5057SOL     OW16069   1.149   6.989   1.899
 5057SOL    HW116070   1.155   6.925   1.975
 5057SOL    HW216071   1.155   0.056   1.933
 5058SOL     OW16072   3.277   4.533   6.753
 5058SOL    HW116073   3.304   4.490   6.839
 5058SOL    HW216074   3.345   4.600   6.727
 5059SOL     OW16075   6.648   6.751   3.245
 5059SOL    HW116076   6.706   6.791   3.173
 5059SOL    HW216077   6.626   6.657   3.221
 5060SOL     OW16078   6.794   1.976   5.824
 5060SOL    HW116079   6.697   1.998   5.815
 5060SOL    HW216080   6.805   1.878   5.842
 5061SOL     OW16081   4.858   2.646   0.084
 5061SOL    HW116082   4.770   2.654   0.036
 5061SOL    HW216083   4.864   2.718   0.153
 5062SOL     OW16084   0.637   0.121   2.094
 5062SOL    HW116085   0.572   0.046   2.088
 5062SOL    HW216086   0.730   0.085   2.100
 5063SOL     OW16087   0.786   6.611   1.611
 5063SOL    HW116088   0.742   6.658   1.534
 5063SOL    HW216089   0.885   6.617   1.601
 5064SOL     OW16090   4.839   3.202   0.271
 5064SOL    HW116091   4.891   3.145   0.334
 5064SOL    HW216092   4.791   3.273   0.321
 5065SOL     OW16093   3.293   7.003   5.192
 5065SOL    HW116094   3.346   0.061   5.199
 5065SOL    HW216095   3.322   6.952   5.111
 5066SOL     OW16096   5.363   4.053   1.464
 5066SOL    HW116097   5.360   3.990   1.542
 5066SOL    HW216098   5.290   4.121   1.473
 5067SOL     OW16099   5.288   1.713   7.002
 5067SOL    HW116100   5.331   1.804   7.008
 5067SOL    HW216101   5.205   1.712   0.032
 5068SOL     OW16102   3.130   4.432   0.968
 5068SOL    HW116103   3.229   4.431   0.955
 5068SOL    HW216104   3.085   4.396   0.886
 5069SOL     OW16105   1.256   4.087   2.942
 5069SOL    HW116106   1.239   4.162   2.878
 5069SOL    HW216107   1.354   4.077   2.957
 5070SOL     OW16108   5.105   3.764   4.260
 5070SOL    HW116109   5.160   3.740   4.340
 5070SOL    HW216110   5.063   3.681   4.222
 5071SOL     OW16111   4.077   2.154   5.003
 5071SOL    HW116112   4.064   2.134   4.906
 5071SOL    HW216113   4.076   2.253   5.018
 5072SOL     OW16114   6.958   5.039   0.892
 5072SOL    HW116115   6.959   4.940   0.880
 5072SOL    HW216116   6.905   5.062   0.974
 5073SOL     OW16117   6.883   6.950   2.296
 5073SOL    HW116118   6.863   6.876   2.231
 5073SOL    HW216119   6.912   6.910   2.383
 5074SOL     OW16120   2.850   3.882   6.804
 5074SOL    HW116121   2.851   3.972   6.847
 5074SOL    HW216122   2.941   3.840   6.812
 5075SOL     OW16123   6.893   0.625   5.641
 5075SOL    HW116124   6.853   0.705   5.685
 5075SOL    HW216125   6.948   0.655   5.563
 5076SOL     OW16126   3.400   0.360   0.651
 5076SOL    HW116127   3.497   0.332   0.654
 5076SOL    HW216128   3.350   0.299   0.590
 5077SOL     OW16129   1.465   2.301   3.852
 5077SOL    HW116130   1.560   2.323   3.874
 5077SOL    HW216131   1.445   2.330   3.758
 5078SOL     OW16132   1.658   2.244   3.428
 5078SOL    HW116133   1.574   2.295   3.447
 5078SOL    HW216134   1.737   2.304   3.436
 5079SOL     OW16135   2.703   5.325   6.466
 5079SOL    HW116136   2.694   5.250   6.401
 5079SOL    HW216137   2.789   5.373   6.450
 5080SOL     OW16138   5.737   6.593   5.034
 5080SOL    HW116139   5.656   6.590   5.092
 5080SOL    HW216140   5.819   6.581   5.090
 5081SOL     OW16141   3.040   3.910   3.357
 5081SOL    HW116142   3.083   3.997   3.381
 5081SOL    HW216143   2.991   3.920   3.271
 5082SOL     OW16144   5.540   6.646   5.800
 5082SOL    HW116145   5.498   6.685   5.882
 5082SOL    HW216146   5.576   6.555   5.820
 5083SOL     OW16147   1.407   0.292   2.014
 5083SOL    HW116148   1.409   0.255   2.107
 5083SOL    HW216149   1.316   0.282   1.976
 5084SOL     OW16150   1.275   5.027   3.795
 5084SOL    HW116151   1.346   5.050   3.860
 5084SOL    HW216152   1.286   4.931   3.766
 5085SOL     OW16153   5.707   1.364   6.744
 5085SOL    HW116154   5.722   1.323   6.834
 5085SOL    HW216155   5.621   1.416   6.744
 5086SOL     OW16156   6.844   4.979   3.477
 5086SOL    HW116157   6.788   4.999   3.396
 5086SOL    HW216158   6.789   4.994   3.559
 5087SOL     OW16159   6.377   6.038   4.657
 5087SOL    HW116160   6.326   5.987   4.725
 5087SOL    HW216161   6.396   6.130   4.691
 5088SOL     OW16162   6.577   1.038   6.182
 5088SOL    HW116163   6.677   1.026   6.180
 5088SOL    HW216164   6.535   0.969   6.123
 5089SOL     OW16165   6.302   3.160   2.167
 5089SOL    HW116166   6.217   3.133   2.213
 5089SOL    HW216167   6.375   3.168   2.235
 5090SOL     OW16168   2.133   4.653   1.069
 5090SOL    HW116169   2.054   4.628   1.125
 5090SOL    HW216170   2.170   4.572   1.026
 5091SOL     OW16171   1.518   6.239   2.993
 5091SOL    HW116172   1.478   6.250   2.901
 5091SOL    HW216173   1.461   6.286   3.060
 5092SOL     OW16174   3.710   2.367   1.203
 5092SOL    HW116175   3.618   2.330   1.198
 5092SOL    HW216176   3.760   2.326   1.279
 5093SOL     OW16177   1.407   2.349   1.979
 5093SOL    HW116178   1.390   2.280   1.909
 5093SOL    HW216179   1.458   2.308   2.055
 5094SOL     OW16180   1.328   6.822   5.736
 5094SOL    HW116181   1.306   6.735   5.692
 5094SOL    HW216182   1.413   6.857   5.699
 5095SOL     OW16183   1.839   0.599   4.601
 5095SOL    HW116184   1.751   0.554   4.616
 5095SOL    HW216185   1.825   0.683   4.549
 5096SOL     OW16186   4.978   3.486   0.282
 5096SOL    HW116187   4.980   3.496   0.182
 5096SOL    HW216188   4.894   3.438   0.308
 5097SOL     OW16189   1.422   0.459   5.680
 5097SOL    HW116190   1.392   0.546   5.719
 5097SOL    HW216191   1.482   0.412   5.745
 5098SOL     OW16192   0.739   1.239   2.171
 5098SOL    HW116193   0.779   1.330   2.164
 5098SOL    HW216194   0.720   1.218   2.267
 5099SOL     OW16195   0.930   0.580   5.362
 5099SOL    HW116196   0.935   0.565   5.461
 5099SOL    HW216197   0.960   0.498   5.314
 5100SOL     OW16198   5.468   6.856   6.547
 5100SOL    HW116199   5.400   6.854   6.474
 5100SOL    HW216200   5.440   6.921   6.617
 5101SOL     OW16201   4.573   6.778   0.530
 5101SOL    HW116202   4.479   6.810   0.542
 5101SOL    HW216203   4.576   6.679   0.540
 5102SOL     OW16204   5.203   0.992   5.518
 5102SOL    HW116205   5.117   1.037   5.496
 5102SOL    HW216206   5.212   0.909   5.462
 5103SOL     OW16207   0.402   0.695   4.374
 5103SOL    HW116208   0.314   0.650   4.361
 5103SOL    HW216209   0.435   0.729   4.286
 5104SOL     OW16210   2.262   1.240   1.512
 5104SOL    HW116211   2.285   1.152   1.472
 5104SOL    HW216212   2.323   1.310   1.477
 5105SOL     OW16213   4.135   4.410   6.566
 5105SOL    HW116214   4.111   4.413   6.469
 5105SOL    HW216215   4.068   4.354   6.614
 5106SOL     OW16216   3.184   0.180   2.770
 5106SOL    HW116217   3.153   0.192   2.675
 5106SOL    HW216218   3.265   0.122   2.771
 5107SOL     OW16219   2.906   0.069   6.868
 5107SOL    HW116220   2.995   0.076   6.912
 5107SOL    HW216221   2.917   0.072   6.769
 5108SOL     OW16222   3.116   4.060   3.995
 5108SOL    HW116223   3.173   4.049   3.914
 5108SOL    HW216224   3.171   4.101   4.069
 5109SOL     OW16225   0.300   1.303   0.849
 5109SOL    HW116226   0.349   1.347   0.924
 5109SOL    HW216227   0.356   1.228   0.813
 5110SOL     OW16228   1.986   6.545   5.369
 5110SOL    HW116229   2.013   6.575   5.460
 5110SOL    HW216230   2.020   6.452   5.353
 5111SOL     OW16231   1.506   1.770   6.563
 5111SOL    HW116232   1.483   1.735   6.472
 5111SOL    HW216233   1.443   1.732   6.630
 5112SOL     OW16234   0.295   6.394   3.911
 5112SOL    HW116235   0.355   6.339   3.854
 5112SOL    HW216236   0.223   6.435   3.854
 5113SOL     OW16237   1.319   1.129   0.390
 5113SOL    HW116238   1.241   1.113   0.451
 5113SOL    HW216239   1.383   1.192   0.434
 5114SOL     OW16240   3.480   4.893   0.320
 5114SOL    HW116241   3.432   4.932   0.399
 5114SOL    HW216242   3.413   4.863   0.252
 5115SOL     OW16243   1.345   3.749   6.492
 5115SOL    HW116244   1.286   3.830   6.493
 5115SOL    HW216245   1.311   3.684   6.425
 5116SOL     OW16246   5.192   4.692   6.763
 5116SOL    HW116247   5.103   4.677   6.805
 5116SOL    HW216248   5.184   4.764   6.694
 5117SOL     OW16249   2.683   4.682   3.946
 5117SOL    HW116250   2.655   4.630   3.865
 5117SOL    HW216251   2.602   4.711   3.997
 5118SOL     OW16252   4.829   5.878   0.238
 5118SOL    HW116253   4.806   5.864   0.142
 5118SOL    HW216254   4.928   5.876   0.250
 5119SOL     OW16255   5.581   0.859   2.475
 5119SOL    HW116256   5.646   0.856   2.399
 5119SOL    HW216257   5.574   0.768   2.516
 5120SOL     OW16258   5.380   1.008   2.783
 5120SOL    HW116259   5.473   1.026   2.749
 5120SOL    HW216260   5.334   1.095   2.798
 5121SOL     OW16261   0.293   3.440   5.518
 5121SOL    HW116262   0.251   3.349   5.510
 5121SOL    HW216263   0.260   3.499   5.445
 5122SOL     OW16264   2.159   0.057   3.380
 5122SOL    HW116265   2.213   0.037   3.298
 5122SOL    HW216266   2.212   0.030   3.461
 5123SOL     OW16267   4.936   4.109   2.702
 5123SOL    HW116268   4.899   4.019   2.726
 5123SOL    HW216269   5.011   4.131   2.764
 5124SOL     OW16270   3.115   6.346   6.951
 5124SOL    HW116271   3.198   6.343   6.896
 5124SOL    HW216272   3.125   6.413   7.024
 5125SOL     OW16273   0.308   3.745   3.855
 5125SOL    HW116274   0.298   3.717   3.760
 5125SOL    HW216275   0.348   3.837   3.859
 5126SOL     OW16276   5.940   5.145   6.170
 5126SOL    HW116277   5.980   5.054   6.165
 5126SOL    HW216278   5.843   5.139   6.146
 5127SOL     OW16279   5.537   3.301   6.780
 5127SOL    HW116280   5.583   3.221   6.820
 5127SOL    HW216281   5.603   3.375   6.770
 5128SOL     OW16282   1.001   0.868   6.692
 5128SOL    HW116283   1.026   0.850   6.787
 5128SOL    HW216284   1.078   0.846   6.633
 5129SOL     OW16285   5.207   0.653   2.482
 5129SOL    HW116286   5.182   0.567   2.438
 5129SOL    HW216287   5.275   0.701   2.425
 5130SOL     OW16288   1.374   5.424   4.555
 5130SOL    HW116289   1.442   5.408   4.484
 5130SOL    HW216290   1.282   5.418   4.516
 5131SOL     OW16291   3.024   5.039   3.405
 5131SOL    HW116292   2.940   5.031   3.458
 5131SOL    HW216293   3.011   4.996   3.316
 5132SOL     OW16294   3.240   1.355   6.677
 5132SOL    HW116295   3.292   1.286   6.626
 5132SOL    HW216296   3.291   1.381   6.759
 5133SOL     OW16297   3.932   5.627   6.775
 5133SOL    HW116298   4.018   5.592   6.812
 5133SOL    HW216299   3.921   5.596   6.681
 5134SOL     OW16300   6.669   6.827   1.410
 5134SOL    HW116301   6.606   6.826   1.488
 5134SOL    HW216302   6.690   6.922   1.385
 5135SOL     OW16303   6.694   2.923   2.024
 5135SOL    HW116304   6.683   2.893   2.119
 5135SOL    HW216305   6.652   2.857   1.962
 5136SOL     OW16306   1.106   0.744   6.248
 5136SOL    HW116307   1.053   0.720   6.330
 5136SOL    HW216308   1.203   0.724   6.265
 5137SOL     OW16309   5.134   1.903   5.371
 5137SOL    HW116310   5.097   1.971   5.307
 5137SOL    HW216311   5.232   1.918   5.383
 5138SOL     OW16312   3.693   3.325   4.332
 5138SOL    HW116313   3.643   3.348   4.249
 5138SOL    HW216314   3.731   3.408   4.373
 5139SOL     OW16315   1.812   0.369   4.992
 5139SOL    HW116316   1.819   0.412   5.082
 5139SOL    HW216317   1.721   0.329   4.980
 5140SOL     OW16318   3.995   2.211   6.080
 5140SOL    HW116319   3.987   2.203   5.981
 5140SOL    HW216320   4.015   2.306   6.104
 5141SOL     OW16321   6.889   2.992   1.833
 5141SOL    HW116322   6.817   2.993   1.902
 5141SOL    HW216323   6.850   2.972   1.743
 5142SOL     OW16324   6.897   6.773   3.102
 5142SOL    HW116325   6.960   6.736   3.034
 5142SOL    HW216326   6.908   6.872   3.107
 5143SOL     OW16327   0.921   5.061   4.396
 5143SOL    HW116328   0.876   5.092   4.312
 5143SOL    HW216329   1.001   5.006   4.372
 5144SOL     OW16330   1.609   3.673   6.525
 5144SOL    HW116331   1.670   3.679   6.446
 5144SOL    HW216332   1.518   3.704   6.499
 5145SOL     OW16333   2.556   6.508   6.888
 5145SOL    HW116334   2.465   6.507   6.847
 5145SOL    HW216335   2.560   6.442   6.963
 5146SOL     OW16336   5.043   4.945   6.082
 5146SOL    HW116337   4.965   4.990   6.040
 5146SOL    HW216338   5.095   4.896   6.011
 5147SOL     OW16339   4.814   3.033   3.317
 5147SOL    HW116340   4.773   2.961   3.261
 5147SOL    HW216341   4.824   3.000   3.411
 5148SOL     OW16342   0.775   0.157   1.845
 5148SOL    HW116343   0.839   0.209   1.789
 5148SOL    HW216344   0.730   0.218   1.910
 5149SOL     OW16345   5.853   4.326   3.323
 5149SOL    HW116346   5.784   4.393   3.294
 5149SOL    HW216347   5.941   4.372   3.336
 5150SOL     OW16348   0.877   5.264   3.755
 5150SOL    HW116349   0.860   5.211   3.838
 5150SOL    HW216350   0.791   5.276   3.705
 5151SOL     OW16351   6.235   4.505   2.065
 5151SOL    HW116352   6.196   4.580   2.011
 5151SOL    HW216353   6.199   4.509   2.158
 5152SOL     OW16354   1.415   0.623   6.275
 5152SOL    HW116355   1.454   0.702   6.228
 5152SOL    HW216356   1.468   0.541   6.253
 5153SOL     OW16357   1.220   2.202   0.619
 5153SOL    HW116358   1.210   2.300   0.599
 5153SOL    HW216359   1.256   2.191   0.712
 5154SOL     OW16360   0.450   2.651   6.754
 5154SOL    HW116361   0.461   2.631   6.656
 5154SOL    HW216362   0.381   2.590   6.793
 5155SOL     OW16363   2.009   1.186   0.560
 5155SOL    HW116364   1.951   1.204   0.639
 5155SOL    HW216365   2.030   1.088   0.555
 5156SOL     OW16366   5.821   5.012   5.649
 5156SOL    HW116367   5.755   5.038   5.579
 5156SOL    HW216368   5.859   5.095   5.691
 5157SOL     OW16369   3.847   0.709   2.002
 5157SOL    HW116370   3.880   0.638   2.065
 5157SOL    HW216371   3.748   0.697   1.988
 5158SOL     OW16372   3.934   1.532   2.789
 5158SOL    HW116373   4.024   1.526   2.746
 5158SOL    HW216374   3.941   1.502   2.884
 5159SOL     OW16375   5.953   3.250   5.671
 5159SOL    HW116376   5.874   3.230   5.614
 5159SOL    HW216377   5.980   3.346   5.661
 5160SOL     OW16378   6.861   6.361   3.187
 5160SOL    HW116379   6.892   6.281   3.238
 5160SOL    HW216380   6.774   6.393   3.225
 5161SOL     OW16381   1.047   3.056   0.034
 5161SOL    HW116382   1.049   3.056   0.134
 5161SOL    HW216383   0.959   3.022   0.002
 5162SOL     OW16384   6.857   6.648   2.776
 5162SOL    HW116385   6.956   6.658   2.768
 5162SOL    HW216386   6.836   6.579   2.845
 5163SOL     OW16387   3.084   6.509   2.138
 5163SOL    HW116388   3.005   6.451   2.115
 5163SOL    HW216389   3.132   6.469   2.216
 5164SOL     OW16390   3.037   3.795   1.161
 5164SOL    HW116391   3.044   3.872   1.097
 5164SOL    HW216392   2.941   3.778   1.182
 5165SOL     OW16393   1.226   4.737   6.883
 5165SOL    HW116394   1.146   4.681   6.900
 5165SOL    HW216395   1.203   4.811   6.820
 5166SOL     OW16396   1.760   5.600   1.523
 5166SOL    HW116397   1.744   5.506   1.552
 5166SOL    HW216398   1.682   5.633   1.471
 5167SOL     OW16399   4.800   2.739   5.240
 5167SOL    HW116400   4.874   2.792   5.282
 5167SOL    HW216401   4.720   2.798   5.226
 5168SOL     OW16402   4.431   2.364   2.232
 5168SOL    HW116403   4.490   2.433   2.191
 5168SOL    HW216404   4.486   2.305   2.292
 5169SOL     OW16405   3.777   6.839   3.701
 5169SOL    HW116406   3.792   6.873   3.794
 5169SOL    HW216407   3.695   6.881   3.663
 5170SOL     OW16408   1.278   3.537   6.334
 5170SOL    HW116409   1.182   3.565   6.337
 5170SOL    HW216410   1.284   3.437   6.343
 5171SOL     OW16411   2.071   5.974   5.155
 5171SOL    HW116412   2.131   6.018   5.222
 5171SOL    HW216413   2.082   5.875   5.160
 5172SOL     OW16414   0.200   5.559   3.712
 5172SOL    HW116415   0.250   5.642   3.739
 5172SOL    HW216416   0.168   5.570   3.618
 5173SOL     OW16417   4.609   3.712   5.858
 5173SOL    HW116418   4.581   3.676   5.948
 5173SOL    HW216419   4.645   3.637   5.803
 5174SOL     OW16420   2.664   6.613   3.565
 5174SOL    HW116421   2.655   6.700   3.614
 5174SOL    HW216422   2.614   6.617   3.479
 5175SOL     OW16423   2.788   4.646   6.894
 5175SOL    HW116424   2.835   4.729   6.923
 5175SOL    HW216425   2.856   4.578   6.864
 5176SOL     OW16426   5.546   5.650   0.201
 5176SOL    HW116427   5.504   5.670   0.290
 5176SOL    HW216428   5.643   5.630   0.214
 5177SOL     OW16429   4.794   0.679   0.496
 5177SOL    HW116430   4.866   0.744   0.519
 5177SOL    HW216431   4.748   0.708   0.413
 5178SOL     OW16432   1.089   3.569   2.009
 5178SOL    HW116433   1.066   3.510   2.087
 5178SOL    HW216434   1.046   3.659   2.021
 5179SOL     OW16435   6.245   4.187   3.327
 5179SOL    HW116436   6.167   4.147   3.375
 5179SOL    HW216437   6.234   4.175   3.229
 5180SOL     OW16438   2.665   6.950   1.381
 5180SOL    HW116439   2.743   6.901   1.341
 5180SOL    HW216440   2.670   6.944   1.480
 5181SOL     OW16441   0.673   0.600   6.240
 5181SOL    HW116442   0.702   0.647   6.323
 5181SOL    HW216443   0.584   0.637   6.211
 5182SOL     OW16444   3.891   5.223   3.088
 5182SOL    HW116445   3.867   5.320   3.093
 5182SOL    HW216446   3.839   5.180   3.014
 5183SOL     OW16447   4.205   1.690   3.533
 5183SOL    HW116448   4.229   1.696   3.437
 5183SOL    HW216449   4.287   1.671   3.587
 5184SOL     OW16450   2.040   1.145   4.186
 5184SOL    HW116451   2.137   1.126   4.173
 5184SOL    HW216452   2.010   1.211   4.117
 5185SOL     OW16453   5.156   0.838   1.663
 5185SOL    HW116454   5.157   0.920   1.720
 5185SOL    HW216455   5.153   0.757   1.721
 5186SOL     OW16456   6.633   3.163   6.080
 5186SOL    HW116457   6.642   3.065   6.102
 5186SOL    HW216458   6.547   3.198   6.116
 5187SOL     OW16459   1.836   4.979   5.253
 5187SOL    HW116460   1.918   5.035   5.258
 5187SOL    HW216461   1.833   4.931   5.166
 5188SOL     OW16462   0.022   6.802   2.046
 5188SOL    HW116463   6.962   6.754   2.061
 5188SOL    HW216464   0.017   6.854   1.961
 5189SOL     OW16465   5.653   0.212   6.043
 5189SOL    HW116466   5.707   0.217   6.126
 5189SOL    HW216467   5.556   0.225   6.065
 5190SOL     OW16468   1.605   3.340   1.514
 5190SOL    HW116469   1.591   3.315   1.418
 5190SOL    HW216470   1.702   3.354   1.531
 5191SOL     OW16471   3.045   5.318   2.418
 5191SOL    HW116472   3.083   5.334   2.509
 5191SOL    HW216473   3.106   5.258   2.367
 5192SOL     OW16474   2.180   5.343   1.997
 5192SOL    HW116475   2.128   5.398   1.931
 5192SOL    HW216476   2.277   5.352   1.978
 5193SOL     OW16477   6.391   0.849   0.006
 5193SOL    HW116478   6.306   0.895   0.032
 5193SOL    HW216479   6.372   0.754   7.010
 5194SOL     OW16480   4.394   2.231   6.941
 5194SOL    HW116481   4.384   2.252   0.012
 5194SOL    HW216482   4.392   2.132   6.928
 5195SOL     OW16483   6.869   0.820   4.268
 5195SOL    HW116484   6.771   0.836   4.270
 5195SOL    HW216485   6.902   0.822   4.173
 5196SOL     OW16486   4.957   6.285   3.399
 5196SOL    HW116487   4.877   6.225   3.390
 5196SOL    HW216488   4.961   6.347   3.321
 5197SOL     OW16489   1.551   4.535   5.631
 5197SOL    HW116490   1.485   4.461   5.619
 5197SOL    HW216491   1.597   4.554   5.545
 5198SOL     OW16492   5.127   5.351   2.765
 5198SOL    HW116493   5.030   5.336   2.783
 5198SOL    HW216494   5.137   5.424   2.697
 5199SOL     OW16495   6.439   5.143   1.293
 5199SOL    HW116496   6.512   5.207   1.319
 5199SOL    HW216497   6.476   5.072   1.234
 5200SOL     OW16498   0.549   3.737   5.702
 5200SOL    HW116499   0.482   3.809   5.721
 5200SOL    HW216500   0.577   3.694   5.788
 5201SOL     OW16501   1.626   5.438   4.201
 5201SOL    HW116502   1.673   5.436   4.113
 5201SOL    HW216503   1.610   5.532   4.229
 5202SOL     OW16504   6.762   3.685   6.860
 5202SOL    HW116505   6.840   3.747   6.868
 5202SOL    HW216506   6.759   3.624   6.940
 5203SOL     OW16507   0.619   2.329   6.436
 5203SOL    HW116508   0.712   2.347   6.404
 5203SOL    HW216509   0.612   2.234   6.467
 5204SOL     OW16510   4.077   5.170   0.055
 5204SOL    HW116511   4.117   5.248   0.103
 5204SOL    HW216512   3.984   5.193   0.026
 5205SOL     OW16513   2.003   1.151   1.354
 5205SOL    HW116514   2.084   1.156   1.413
 5205SOL    HW216515   1.997   1.060   1.314
 5206SOL     OW16516   0.722   4.130   0.234
 5206SOL    HW116517   0.643   4.069   0.244
 5206SOL    HW216518   0.798   4.079   0.194
 5207SOL     OW16519   1.545   5.285   4.412
 5207SOL    HW116520   1.532   5.193   4.377
 5207SOL    HW216521   1.593   5.340   4.344
 5208SOL     OW16522   3.712   0.502   6.961
 5208SOL    HW116523   3.643   0.437   6.991
 5208SOL    HW216524   3.732   0.566   0.009
 5209SOL     OW16525   6.111   5.731   3.574
 5209SOL    HW116526   6.182   5.720   3.504
 5209SOL    HW216527   6.144   5.794   3.645
 5210SOL     OW16528   5.166   4.087   3.579
 5210SOL    HW116529   5.137   4.026   3.653
 5210SOL    HW216530   5.265   4.101   3.584
 5211SOL     OW16531   3.010   3.496   3.464
 5211SOL    HW116532   3.009   3.533   3.371
 5211SOL    HW216533   3.104   3.491   3.497
 5212SOL     OW16534   0.874   2.037   0.701
 5212SOL    HW116535   0.782   2.055   0.736
 5212SOL    HW216536   0.897   2.106   0.632
 5213SOL     OW16537   4.875   2.409   5.585
 5213SOL    HW116538   4.807   2.387   5.515
 5213SOL    HW216539   4.851   2.362   5.670
 5214SOL     OW16540   5.266   1.610   5.281
 5214SOL    HW116541   5.225   1.665   5.208
 5214SOL    HW216542   5.346   1.657   5.318
 5215SOL     OW16543   5.098   4.548   3.145
 5215SOL    HW116544   5.078   4.526   3.050
 5215SOL    HW216545   5.186   4.595   3.151
 5216SOL     OW16546   5.079   4.939   1.189
 5216SOL    HW116547   4.982   4.914   1.181
 5216SOL    HW216548   5.135   4.866   1.152
 5217SOL     OW16549   3.257   5.042   3.911
 5217SOL    HW116550   3.319   4.992   3.972
 5217SOL    HW216551   3.247   5.136   3.942
 5218SOL     OW16552   1.832   6.482   3.716
 5218SOL    HW116553   1.740   6.518   3.699
 5218SOL    HW216554   1.860   6.506   3.809
 5219SOL     OW16555   3.165   6.716   6.495
 5219SOL    HW116556   3.067   6.718   6.512
 5219SOL    HW216557   3.203   6.807   6.512
 5220SOL     OW16558   0.997   5.872   2.196
 5220SOL    HW116559   0.932   5.836   2.263
 5220SOL    HW216560   1.006   5.808   2.120
 5221SOL     OW16561   5.134   1.015   4.443
 5221SOL    HW116562   5.201   0.992   4.373
 5221SOL    HW216563   5.180   1.052   4.523
 5222SOL     OW16564   2.028   0.452   3.337
 5222SOL    HW116565   2.034   0.528   3.401
 5222SOL    HW216566   2.085   0.376   3.370
 5223SOL     OW16567   4.744   0.449   1.547
 5223SOL    HW116568   4.779   0.368   1.501
 5223SOL    HW216569   4.663   0.482   1.498
 5224SOL     OW16570   6.546   2.131   2.645
 5224SOL    HW116571   6.522   2.088   2.558
 5224SOL    HW216572   6.591   2.219   2.628
 5225SOL     OW16573   6.866   6.896   4.294
 5225SOL    HW116574   6.895   6.820   4.235
 5225SOL    HW216575   6.854   6.863   4.387
 5226SOL     OW16576   0.743   6.172   4.153
 5226SOL    HW116577   0.769   6.267   4.135
 5226SOL    HW216578   0.653   6.170   4.197
 5227SOL     OW16579   6.538   5.648   3.561
 5227SOL    HW116580   6.588   5.657   3.647
 5227SOL    HW216581   6.603   5.637   3.486
 5228SOL     OW16582   5.126   1.775   0.699
 5228SOL    HW116583   5.032   1.742   0.701
 5228SOL    HW216584   5.136   1.854   0.759
 5229SOL     OW16585   0.856   4.030   6.584
 5229SOL    HW116586   0.865   3.965   6.509
 5229SOL    HW216587   0.915   4.109   6.567
 5230SOL     OW16588   7.005   0.869   0.960
 5230SOL    HW116589   0.057   0.919   0.920
 5230SOL    HW216590   6.990   0.784   0.909
 5231SOL     OW16591   3.815   3.071   4.259
 5231SOL    HW116592   3.882   3.052   4.188
 5231SOL    HW216593   3.784   3.166   4.252
 5232SOL     OW16594   4.967   2.391   6.756
 5232SOL    HW116595   4.971   2.312   6.817
 5232SOL    HW216596   5.010   2.470   6.800
 5233SOL     OW16597   6.545   6.161   1.573
 5233SOL    HW116598   6.581   6.157   1.666
 5233SOL    HW216599   6.618   6.185   1.509
 5234SOL     OW16600   3.335   0.240   0.396
 5234SOL    HW116601   3.381   0.314   0.348
 5234SOL    HW216602   3.244   0.225   0.356
 5235SOL     OW16603   2.053   3.383   0.728
 5235SOL    HW116604   1.975   3.352   0.675
 5235SOL    HW216605   2.022   3.445   0.801
 5236SOL     OW16606   5.141   3.311   1.025
 5236SOL    HW116607   5.106   3.328   1.118
 5236SOL    HW216608   5.187   3.393   0.992
 5237SOL     OW16609   2.542   1.910   5.265
 5237SOL    HW116610   2.499   1.916   5.175
 5237SOL    HW216611   2.525   1.994   5.316
 5238SOL     OW16612   1.214   5.098   0.138
 5238SOL    HW116613   1.297   5.086   0.084
 5238SOL    HW216614   1.196   5.195   0.150
 5239SOL     OW16615   3.012   3.192   3.986
 5239SOL    HW116616   2.944   3.215   3.917
 5239SOL    HW216617   3.103   3.216   3.953
 5240SOL     OW16618   2.980   2.424   5.356
 5240SOL    HW116619   2.916   2.382   5.292
 5240SOL    HW216620   3.070   2.431   5.312
 5241SOL     OW16621   1.082   6.146   6.282
 5241SOL    HW116622   1.011   6.208   6.314
 5241SOL    HW216623   1.125   6.100   6.360
 5242SOL     OW16624   6.008   1.272   5.906
 5242SOL    HW116625   5.948   1.192   5.914
 5242SOL    HW216626   5.969   1.348   5.959
 5243SOL     OW16627   1.225   6.055   1.118
 5243SOL    HW116628   1.256   6.075   1.025
 5243SOL    HW216629   1.147   5.993   1.114
 5244SOL     OW16630   3.764   3.903   5.999
 5244SOL    HW116631   3.822   3.821   5.991
 5244SOL    HW216632   3.804   3.977   5.946
 5245SOL     OW16633   4.271   4.130   5.747
 5245SOL    HW116634   4.196   4.190   5.721
 5245SOL    HW216635   4.275   4.052   5.685
 5246SOL     OW16636   0.587   3.123   2.551
 5246SOL    HW116637   0.550   3.031   2.556
 5246SOL    HW216638   0.626   3.139   2.460
 5247SOL     OW16639   0.031   5.104   0.640
 5247SOL    HW116640   7.019   5.057   0.720
 5247SOL    HW216641   0.123   5.071   0.622
 5248SOL     OW16642   5.135   0.753   6.478
 5248SOL    HW116643   5.048   0.728   6.436
 5248SOL    HW216644   5.172   0.833   6.431
 5249SOL     OW16645   0.682   5.401   4.973
 5249SOL    HW116646   0.720   5.482   4.928
 5249SOL    HW216647   0.741   5.323   4.955
 5250SOL     OW16648   0.113   1.713   6.221
 5250SOL    HW116649   0.099   1.805   6.257
 5250SOL    HW216650   0.193   1.712   6.160
 5251SOL     OW16651   6.212   3.553   0.775
 5251SOL    HW116652   6.129   3.586   0.819
 5251SOL    HW216653   6.265   3.500   0.841
 5252SOL     OW16654   2.814   6.187   0.829
 5252SOL    HW116655   2.744   6.151   0.768
 5252SOL    HW216656   2.865   6.111   0.870
 5253SOL     OW16657   5.931   3.645   4.633
 5253SOL    HW116658   5.928   3.630   4.535
 5253SOL    HW216659   5.870   3.580   4.679
 5254SOL     OW16660   4.383   1.040   4.208
 5254SOL    HW116661   4.380   0.985   4.291
 5254SOL    HW216662   4.335   1.126   4.223
 5255SOL     OW16663   3.423   0.266   4.880
 5255SOL    HW116664   3.325   0.281   4.886
 5255SOL    HW216665   3.466   0.341   4.829
 5256SOL     OW16666   5.281   0.858   3.679
 5256SOL    HW116667   5.263   0.923   3.605
 5256SOL    HW216668   5.251   0.767   3.651
 5257SOL     OW16669   3.785   7.009   0.537
 5257SOL    HW116670   3.693   7.008   0.574
 5257SOL    HW216671   3.815   6.916   0.518
 5258SOL     OW16672   5.236   4.256   2.321
 5258SOL    HW116673   5.212   4.186   2.389
 5258SOL    HW216674   5.177   4.335   2.331
 5259SOL     OW16675   4.508   6.344   2.835
 5259SOL    HW116676   4.594   6.393   2.819
 5259SOL    HW216677   4.467   6.320   2.747
 5260SOL     OW16678   5.544   3.463   0.648
 5260SOL    HW116679   5.605   3.539   0.629
 5260SOL    HW216680   5.596   3.388   0.689
 5261SOL     OW16681   0.139   2.473   5.098
 5261SOL    HW116682   0.060   2.524   5.134
 5261SOL    HW216683   0.107   2.391   5.050
 5262SOL     OW16684   2.746   6.799   2.481
 5262SOL    HW116685   2.758   6.896   2.460
 5262SOL    HW216686   2.777   6.781   2.574
 5263SOL     OW16687   1.772   0.221   6.370
 5263SOL    HW116688   1.871   0.212   6.362
 5263SOL    HW216689   1.731   0.130   6.382
 5264SOL     OW16690   6.240   1.401   1.500
 5264SOL    HW116691   6.141   1.401   1.484
 5264SOL    HW216692   6.259   1.448   1.586
 5265SOL     OW16693   5.680   4.538   2.070
 5265SOL    HW116694   5.777   4.526   2.049
 5265SOL    HW216695   5.662   4.509   2.164
 5266SOL     OW16696   1.482   6.169   1.493
 5266SOL    HW116697   1.581   6.179   1.503
 5266SOL    HW216698   1.462   6.120   1.409
 5267SOL     OW16699   4.835   5.167   5.572
 5267SOL    HW116700   4.772   5.230   5.527
 5267SOL    HW216701   4.893   5.217   5.636
 5268SOL     OW16702   6.626   5.366   5.228
 5268SOL    HW116703   6.618   5.351   5.327
 5268SOL    HW216704   6.681   5.293   5.188
 5269SOL     OW16705   1.654   5.881   3.815
 5269SOL    HW116706   1.645   5.955   3.748
 5269SOL    HW216707   1.725   5.818   3.785
 5270SOL     OW16708   5.815   2.429   1.605
 5270SOL    HW116709   5.875   2.420   1.685
 5270SOL    HW216710   5.752   2.505   1.618
 5271SOL     OW16711   4.682   4.836   5.429
 5271SOL    HW116712   4.745   4.897   5.476
 5271SOL    HW216713   4.630   4.782   5.496
 5272SOL     OW16714   0.268   5.857   5.053
 5272SOL    HW116715   0.339   5.909   5.101
 5272SOL    HW216716   0.206   5.816   5.120
 5273SOL     OW16717   0.588   2.295   3.802
 5273SOL    HW116718   0.531   2.213   3.797
 5273SOL    HW216719   0.535   2.371   3.841
 5274SOL     OW16720   0.050   5.141   3.510
 5274SOL    HW116721   0.063   5.211   3.580
 5274SOL    HW216722   6.978   5.122   3.500
 5275SOL     OW16723   2.882   0.058   6.592
 5275SOL    HW116724   2.927   7.002   6.558
 5275SOL    HW216725   2.790   0.035   6.624
 5276SOL     OW16726   0.027   6.910   1.522
 5276SOL    HW116727   0.036   6.924   1.423
 5276SOL    HW216728   6.991   6.832   1.538
 5277SOL     OW16729   1.293   1.856   3.810
 5277SOL    HW116730   1.211   1.907   3.784
 5277SOL    HW216731   1.374   1.910   3.791
 5278SOL     OW16732   6.638   6.925   5.938
 5278SOL    HW116733   6.677   6.861   5.871
 5278SOL    HW216734   6.581   6.992   5.891
 5279SOL     OW16735   1.120   5.741   6.339
 5279SOL    HW116736   1.144   5.664   6.279
 5279SOL    HW216737   1.048   5.713   6.402
 5280SOL     OW16738   3.683   6.309   4.980
 5280SOL    HW116739   3.585   6.303   4.997
 5280SOL    HW216740   3.709   6.237   4.915
 5281SOL     OW16741   1.234   0.334   4.737
 5281SOL    HW116742   1.238   0.252   4.681
 5281SOL    HW216743   1.138   0.358   4.755
 5282SOL     OW16744   1.728   0.062   2.744
 5282SOL    HW116745   1.769   0.042   2.833
 5282SOL    HW216746   1.799   0.092   2.681
 5283SOL     OW16747   0.612   0.607   3.837
 5283SOL    HW116748   0.644   0.539   3.904
 5283SOL    HW216749   0.682   0.619   3.766
 5284SOL     OW16750   5.321   2.360   2.215
 5284SOL    HW116751   5.300   2.287   2.279
 5284SOL    HW216752   5.420   2.363   2.198
 5285SOL     OW16753   0.963   3.042   3.092
 5285SOL    HW116754   0.867   3.065   3.110
 5285SOL    HW216755   0.967   2.962   3.032
 5286SOL     OW16756   6.647   3.384   0.300
 5286SOL    HW116757   6.559   3.340   0.281
 5286SOL    HW216758   6.678   3.433   0.219
 5287SOL     OW16759   3.232   5.186   2.281
 5287SOL    HW116760   3.297   5.244   2.330
 5287SOL    HW216761   3.248   5.091   2.306
 5288SOL     OW16762   5.049   0.286   2.028
 5288SOL    HW116763   5.025   0.360   2.092
 5288SOL    HW216764   5.124   0.232   2.066
 5289SOL     OW16765   2.089   5.502   6.175
 5289SOL    HW116766   2.003   5.553   6.167
 5289SOL    HW216767   2.143   5.516   6.091
 5290SOL     OW16768   1.758   4.300   5.806
 5290SOL    HW116769   1.834   4.348   5.762
 5290SOL    HW216770   1.699   4.367   5.851
 5291SOL     OW16771   2.762   4.771   5.479
 5291SOL    HW116772   2.764   4.675   5.452
 5291SOL    HW216773   2.669   4.796   5.506
 5292SOL     OW16774   6.555   4.139   6.309
 5292SOL    HW116775   6.579   4.129   6.406
 5292SOL    HW216776   6.515   4.053   6.277
 5293SOL     OW16777   2.309   5.144   4.446
 5293SOL    HW116778   2.353   5.062   4.484
 5293SOL    HW216779   2.210   5.130   4.443
 5294SOL     OW16780   4.698   0.620   5.372
 5294SOL    HW116781   4.645   0.650   5.293
 5294SOL    HW216782   4.661   0.533   5.406
 5295SOL     OW16783   3.993   0.857   3.401
 5295SOL    HW116784   3.947   0.858   3.489
 5295SOL    HW216785   3.971   0.772   3.353
 5296SOL     OW16786   3.956   4.256   0.783
 5296SOL    HW116787   3.897   4.290   0.709
 5296SOL    HW216788   4.034   4.208   0.743
 5297SOL     OW16789   2.219   3.573   0.354
 5297SOL    HW116790   2.181   3.598   0.443
 5297SOL    HW216791   2.303   3.521   0.368
 5298SOL     OW16792   2.357   6.229   6.885
 5298SOL    HW116793   2.454   6.208   6.875
 5298SOL    HW216794   2.341   6.274   6.973
 5299SOL     OW16795   3.198   2.317   0.829
 5299SOL    HW116796   3.263   2.287   0.760
 5299SOL    HW216797   3.171   2.238   0.886
 5300SOL     OW16798   1.272   4.999   0.891
 5300SOL    HW116799   1.192   4.990   0.832
 5300SOL    HW216800   1.352   4.960   0.845
 5301SOL     OW16801   4.102   0.093   6.906
 5301SOL    HW116802   4.199   0.111   6.892
 5301SOL    HW216803   4.060   0.170   6.955
 5302SOL     OW16804   5.020   5.985   4.064
 5302SOL    HW116805   4.967   6.052   4.012
 5302SOL    HW216806   5.027   5.900   4.013
 5303SOL     OW16807   0.022   5.049   6.093
 5303SOL    HW116808   0.042   5.147   6.088
 5303SOL    HW216809   0.055   5.004   6.009
 5304SOL     OW16810   6.275   1.027   0.846
 5304SOL    HW116811   6.226   1.091   0.905
 5304SOL    HW216812   6.359   1.069   0.814
 5305SOL     OW16813   1.529   5.374   2.809
 5305SOL    HW116814   1.481   5.288   2.793
 5305SOL    HW216815   1.509   5.438   2.735
 5306SOL     OW16816   0.129   4.558   5.838
 5306SOL    HW116817   0.213   4.525   5.796
 5306SOL    HW216818   0.058   4.488   5.831
 5307SOL     OW16819   4.560   1.933   0.404
 5307SOL    HW116820   4.468   1.928   0.443
 5307SOL    HW216821   4.589   2.029   0.399
 5308SOL     OW16822   1.261   4.297   2.780
 5308SOL    HW116823   1.300   4.267   2.694
 5308SOL    HW216824   1.173   4.342   2.763
 5309SOL     OW16825   3.746   6.035   2.308
 5309SOL    HW116826   3.741   5.977   2.389
 5309SOL    HW216827   3.737   6.131   2.335
 5310SOL     OW16828   6.295   3.326   2.654
 5310SOL    HW116829   6.208   3.283   2.678
 5310SOL    HW216830   6.278   3.403   2.592
 5311SOL     OW16831   5.999   0.623   0.034
 5311SOL    HW116832   6.074   0.619   0.100
 5311SOL    HW216833   5.979   0.531   0.001
 5312SOL     OW16834   0.541   5.944   1.709
 5312SOL    HW116835   0.586   6.019   1.758
 5312SOL    HW216836   0.503   5.978   1.623
 5313SOL     OW16837   0.597   4.818   5.252
 5313SOL    HW116838   0.596   4.781   5.345
 5313SOL    HW216839   0.679   4.787   5.205
 5314SOL     OW16840   4.990   0.100   0.827
 5314SOL    HW116841   5.057   0.046   0.776
 5314SOL    HW216842   4.901   0.091   0.784
 5315SOL     OW16843   4.968   2.600   3.281
 5315SOL    HW116844   4.949   2.601   3.379
 5315SOL    HW216845   4.942   2.512   3.242
 5316SOL     OW16846   0.854   4.098   5.475
 5316SOL    HW116847   0.803   4.024   5.432
 5316SOL    HW216848   0.857   4.083   5.574
 5317SOL     OW16849   6.533   1.444   5.241
 5317SOL    HW116850   6.603   1.425   5.309
 5317SOL    HW216851   6.573   1.502   5.169
 5318SOL     OW16852   0.692   2.636   0.986
 5318SOL    HW116853   0.716   2.558   0.928
 5318SOL    HW216854   0.614   2.612   1.044
 5319SOL     OW16855   4.680   6.673   1.157
 5319SOL    HW116856   4.662   6.770   1.173
 5319SOL    HW216857   4.594   6.622   1.159
 5320SOL     OW16858   4.273   5.852   1.233
 5320SOL    HW116859   4.192   5.849   1.293
 5320SOL    HW216860   4.261   5.924   1.165
 5321SOL     OW16861   2.258   4.512   4.961
 5321SOL    HW116862   2.162   4.538   4.950
 5321SOL    HW216863   2.269   4.416   4.937
 5322SOL     OW16864   5.750   0.163   0.392
 5322SOL    HW116865   5.732   0.189   0.487
 5322SOL    HW216866   5.808   0.082   0.390
 5323SOL     OW16867   4.063   1.054   6.028
 5323SOL    HW116868   4.096   0.961   6.047
 5323SOL    HW216869   4.072   1.073   5.931
 5324SOL     OW16870   2.717   1.815   0.338
 5324SOL    HW116871   2.641   1.868   0.375
 5324SOL    HW216872   2.803   1.848   0.376
 5325SOL     OW16873   2.932   1.214   5.096
 5325SOL    HW116874   2.936   1.310   5.070
 5325SOL    HW216875   3.020   1.170   5.078
 5326SOL     OW16876   6.430   5.756   3.143
 5326SOL    HW116877   6.526   5.779   3.162
 5326SOL    HW216878   6.397   5.811   3.066
 5327SOL     OW16879   5.825   2.485   4.960
 5327SOL    HW116880   5.898   2.554   4.958
 5327SOL    HW216881   5.754   2.508   4.894
 5328SOL     OW16882   3.459   3.410   5.874
 5328SOL    HW116883   3.405   3.331   5.904
 5328SOL    HW216884   3.506   3.450   5.952
 5329SOL     OW16885   0.597   5.346   6.657
 5329SOL    HW116886   0.571   5.404   6.579
 5329SOL    HW216887   0.576   5.251   6.636
 5330SOL     OW16888   3.776   4.602   0.065
 5330SOL    HW116889   3.752   4.675   0.000
 5330SOL    HW216890   3.809   4.643   0.150
 5331SOL     OW16891   6.198   1.961   6.759
 5331SOL    HW116892   6.222   2.054   6.731
 5331SOL    HW216893   6.125   1.965   6.828
 5332SOL     OW16894   1.193   3.769   1.589
 5332SOL    HW116895   1.249   3.686   1.593
 5332SOL    HW216896   1.226   3.827   1.515
 5333SOL     OW16897   1.516   1.311   3.027
 5333SOL    HW116898   1.571   1.318   3.111
 5333SOL    HW216899   1.560   1.364   2.954
 5334SOL     OW16900   3.069   0.625   5.362
 5334SOL    HW116901   3.153   0.585   5.399
 5334SOL    HW216902   3.080   0.724   5.354
 5335SOL     OW16903   6.520   6.275   0.939
 5335SOL    HW116904   6.461   6.212   0.989
 5335SOL    HW216905   6.613   6.238   0.936
 5336SOL     OW16906   1.741   3.564   2.488
 5336SOL    HW116907   1.693   3.607   2.564
 5336SOL    HW216908   1.835   3.598   2.484
 5337SOL     OW16909   5.060   3.805   1.201
 5337SOL    HW116910   5.112   3.744   1.261
 5337SOL    HW216911   4.962   3.789   1.215
 5338SOL     OW16912   5.566   1.669   6.618
 5338SOL    HW116913   5.580   1.762   6.583
 5338SOL    HW216914   5.566   1.670   6.718
 5339SOL     OW16915   6.508   1.462   3.758
 5339SOL    HW116916   6.585   1.398   3.765
 5339SOL    HW216917   6.491   1.504   3.847
 5340SOL     OW16918   6.223   2.926   0.420
 5340SOL    HW116919   6.128   2.947   0.443
 5340SOL    HW216920   6.267   2.881   0.498
 5341SOL     OW16921   3.913   2.506   6.220
 5341SOL    HW116922   3.923   2.450   6.302
 5341SOL    HW216923   4.003   2.529   6.183
 5342SOL     OW16924   4.061   0.593   4.906
 5342SOL    HW116925   4.076   0.614   4.809
 5342SOL    HW216926   3.988   0.650   4.942
 5343SOL     OW16927   3.282   3.618   3.589
 5343SOL    HW116928   3.307   3.664   3.504
 5343SOL    HW216929   3.305   3.521   3.582
 5344SOL     OW16930   1.783   2.667   2.597
 5344SOL    HW116931   1.683   2.673   2.603
 5344SOL    HW216932   1.819   2.747   2.549
 5345SOL     OW16933   4.562   5.925   1.342
 5345SOL    HW116934   4.620   5.846   1.361
 5345SOL    HW216935   4.481   5.897   1.292
 5346SOL     OW16936   3.098   6.222   3.553
 5346SOL    HW116937   3.185   6.191   3.592
 5346SOL    HW216938   3.022   6.181   3.602
 5347SOL     OW16939   0.112   2.297   2.507
 5347SOL    HW116940   0.050   2.331   2.577
 5347SOL    HW216941   0.144   2.206   2.532
 5348SOL     OW16942   0.743   1.701   0.727
 5348SOL    HW116943   0.826   1.750   0.755
 5348SOL    HW216944   0.742   1.690   0.628
 5349SOL     OW16945   1.169   2.464   0.579
 5349SOL    HW116946   1.144   2.540   0.639
 5349SOL    HW216947   1.230   2.496   0.507
 5350SOL     OW16948   2.222   0.401   6.079
 5350SOL    HW116949   2.301   0.401   6.140
 5350SOL    HW216950   2.246   0.354   5.994
 5351SOL     OW16951   5.337   5.709   1.575
 5351SOL    HW116952   5.380   5.759   1.650
 5351SOL    HW216953   5.392   5.628   1.553
 5352SOL     OW16954   1.914   5.728   3.788
 5352SOL    HW116955   1.995   5.681   3.823
 5352SOL    HW216956   1.942   5.804   3.730
 5353SOL     OW16957   4.109   5.961   4.681
 5353SOL    HW116958   4.049   6.031   4.641
 5353SOL    HW216959   4.199   6.002   4.699
 5354SOL     OW16960   2.053   4.603   2.294
 5354SOL    HW116961   2.112   4.683   2.286
 5354SOL    HW216962   1.958   4.630   2.278
 5355SOL     OW16963   5.025   2.541   3.975
 5355SOL    HW116964   4.989   2.573   3.888
 5355SOL    HW216965   5.123   2.558   3.979
 5356SOL     OW16966   5.802   4.205   1.311
 5356SOL    HW116967   5.841   4.153   1.235
 5356SOL    HW216968   5.767   4.293   1.276
 5357SOL     OW16969   3.797   0.508   1.360
 5357SOL    HW116970   3.712   0.469   1.325
 5357SOL    HW216971   3.781   0.603   1.386
 5358SOL     OW16972   4.338   2.169   1.282
 5358SOL    HW116973   4.424   2.206   1.249
 5358SOL    HW216974   4.262   2.222   1.244
 5359SOL     OW16975   2.188   1.642   0.111
 5359SOL    HW116976   2.262   1.656   0.176
 5359SOL    HW216977   2.117   1.586   0.153
 5360SOL     OW16978   3.908   6.685   4.716
 5360SOL    HW116979   3.946   6.706   4.626
 5360SOL    HW216980   3.939   6.753   4.782
 5361SOL     OW16981   2.461   7.020   4.933
 5361SOL    HW116982   2.474   0.084   4.891
 5361SOL    HW216983   2.489   7.024   5.029
 5362SOL     OW16984   4.955   4.506   3.538
 5362SOL    HW116985   4.950   4.415   3.579
 5362SOL    HW216986   5.050   4.535   3.530
 5363SOL     OW16987   0.923   6.239   5.976
 5363SOL    HW116988   0.964   6.148   5.989
 5363SOL    HW216989   0.939   6.294   6.058
 5364SOL     OW16990   6.545   5.412   1.179
 5364SOL    HW116991   6.468   5.474   1.162
 5364SOL    HW216992   6.587   5.387   1.091
 5365SOL     OW16993   4.381   3.257   6.575
 5365SOL    HW116994   4.372   3.158   6.587
 5365SOL    HW216995   4.471   3.278   6.538
 5366SOL     OW16996   5.227   4.771   1.012
 5366SOL    HW116997   5.321   4.750   1.042
 5366SOL    HW216998   5.213   4.737   0.919
 5367SOL     OW16999   0.198   5.311   0.519
 5367SOL    HW117000   0.222   5.312   0.616
 5367SOL    HW217001   0.121   5.249   0.504
 5368SOL     OW17002   4.998   1.639   2.904
 5368SOL    HW117003   4.970   1.547   2.930
 5368SOL    HW217004   4.918   1.699   2.904
 5369SOL     OW17005   2.779   6.267   3.331
 5369SOL    HW117006   2.875   6.286   3.310
 5369SOL    HW217007   2.772   6.228   3.423
 5370SOL     OW17008   3.922   3.070   1.687
 5370SOL    HW117009   3.954   3.161   1.663
 5370SOL    HW217010   3.916   3.061   1.786
 5371SOL     OW17011   1.910   3.814   4.472
 5371SOL    HW117012   1.991   3.804   4.529
 5371SOL    HW217013   1.880   3.724   4.439
 5372SOL     OW17014   2.454   5.481   2.319
 5372SOL    HW117015   2.375   5.485   2.379
 5372SOL    HW217016   2.493   5.389   2.321
 5373SOL     OW17017   3.039   4.913   4.050
 5373SOL    HW117018   3.032   4.964   4.136
 5373SOL    HW217019   3.129   4.930   4.009
 5374SOL     OW17020   1.346   3.344   0.000
 5374SOL    HW117021   1.296   3.369   6.944
 5374SOL    HW217022   1.334   3.414   0.070
 5375SOL     OW17023   0.964   4.929   5.069
 5375SOL    HW117024   0.970   4.939   5.168
 5375SOL    HW217025   0.924   4.839   5.047
 5376SOL     OW17026   1.591   3.217   1.239
 5376SOL    HW117027   1.498   3.183   1.225
 5376SOL    HW217028   1.654   3.170   1.176
 5377SOL     OW17029   0.026   6.962   1.837
 5377SOL    HW117030   0.120   6.993   1.852
 5377SOL    HW217031   0.012   6.941   1.741
 5378SOL     OW17032   6.840   0.597   1.478
 5378SOL    HW117033   6.788   0.672   1.438
 5378SOL    HW217034   6.781   0.546   1.541
 5379SOL     OW17035   0.498   5.231   4.204
 5379SOL    HW117036   0.466   5.229   4.298
 5379SOL    HW217037   0.457   5.155   4.153
 5380SOL     OW17038   1.963   1.067   3.273
 5380SOL    HW117039   2.031   1.134   3.245
 5380SOL    HW217040   1.892   1.060   3.203
 5381SOL     OW17041   6.568   3.659   0.078
 5381SOL    HW117042   6.499   3.615   0.135
 5381SOL    HW217043   6.654   3.608   0.084
 5382SOL     OW17044   3.214   0.193   1.991
 5382SOL    HW117045   3.303   0.230   1.963
 5382SOL    HW217046   3.180   0.130   1.922
 5383SOL     OW17047   3.017   2.125   5.151
 5383SOL    HW117048   3.009   2.085   5.242
 5383SOL    HW217049   3.088   2.195   5.151
 5384SOL     OW17050   6.029   1.078   3.931
 5384SOL    HW117051   5.970   1.020   3.874
 5384SOL    HW217052   6.120   1.084   3.888
 5385SOL     OW17053   3.120   4.019   2.997
 5385SOL    HW117054   3.197   4.069   3.038
 5385SOL    HW217055   3.088   4.068   2.916
 5386SOL     OW17056   5.157   6.609   4.175
 5386SOL    HW117057   5.221   6.662   4.121
 5386SOL    HW217058   5.073   6.593   4.122
 5387SOL     OW17059   2.133   6.016   3.332
 5387SOL    HW117060   2.152   6.109   3.365
 5387SOL    HW217061   2.034   6.007   3.314
 5388SOL     OW17062   5.109   6.568   3.060
 5388SOL    HW117063   5.032   6.620   3.096
 5388SOL    HW217064   5.177   6.554   3.133
 5389SOL     OW17065   4.824   0.796   1.478
 5389SOL    HW117066   4.881   0.713   1.486
 5389SOL    HW217067   4.842   0.856   1.556
 5390SOL     OW17068   4.104   5.238   4.185
 5390SOL    HW117069   4.126   5.228   4.282
 5390SOL    HW217070   4.118   5.333   4.156
 5391SOL     OW17071   2.416   2.172   0.586
 5391SOL    HW117072   2.468   2.144   0.667
 5391SOL    HW217073   2.443   2.115   0.508
 5392SOL     OW17074   6.427   3.860   0.707
 5392SOL    HW117075   6.452   3.874   0.611
 5392SOL    HW217076   6.414   3.949   0.751
 5393SOL     OW17077   6.326   6.711   6.819
 5393SOL    HW117078   6.240   6.761   6.819
 5393SOL    HW217079   6.402   6.774   6.803
 5394SOL     OW17080   0.228   3.801   5.929
 5394SOL    HW117081   0.188   3.866   5.993
 5394SOL    HW217082   0.158   3.740   5.894
 5395SOL     OW17083   4.467   0.899   1.911
 5395SOL    HW117084   4.456   0.996   1.929
 5395SOL    HW217085   4.543   0.884   1.848
 5396SOL     OW17086   4.912   3.439   2.773
 5396SOL    HW117087   4.885   3.464   2.866
 5396SOL    HW217088   4.859   3.360   2.744
 5397SOL     OW17089   6.886   3.179   1.357
 5397SOL    HW117090   6.979   3.168   1.321
 5397SOL    HW217091   6.885   3.253   1.424
 5398SOL     OW17092   3.693   1.543   1.858
 5398SOL    HW117093   3.618   1.576   1.915
 5398SOL    HW217094   3.743   1.620   1.819
 5399SOL     OW17095   2.094   6.456   0.507
 5399SOL    HW117096   2.137   6.513   0.437
 5399SOL    HW217097   2.113   6.494   0.597
 5400SOL     OW17098   3.051   4.036   1.011
 5400SOL    HW117099   3.103   4.006   0.931
 5400SOL    HW217100   2.955   4.049   0.985
 5401SOL     OW17101   5.693   3.278   1.102
 5401SOL    HW117102   5.729   3.248   1.013
 5401SOL    HW217103   5.632   3.356   1.088
 5402SOL     OW17104   2.567   5.760   2.095
 5402SOL    HW117105   2.495   5.703   2.133
 5402SOL    HW217106   2.620   5.708   2.028
 5403SOL     OW17107   6.545   2.980   6.586
 5403SOL    HW117108   6.524   2.967   6.489
 5403SOL    HW217109   6.579   3.073   6.601
 5404SOL     OW17110   1.103   2.184   3.197
 5404SOL    HW117111   1.016   2.163   3.151
 5404SOL    HW217112   1.158   2.244   3.138
 5405SOL     OW17113   6.268   5.699   0.363
 5405SOL    HW117114   6.311   5.774   0.413
 5405SOL    HW217115   6.334   5.657   0.302
 5406SOL     OW17116   2.345   1.611   6.165
 5406SOL    HW117117   2.353   1.515   6.193
 5406SOL    HW217118   2.431   1.641   6.125
 5407SOL     OW17119   4.758   3.417   0.428
 5407SOL    HW117120   4.813   3.428   0.510
 5407SOL    HW217121   4.663   3.399   0.454
 5408SOL     OW17122   2.397   1.378   5.691
 5408SOL    HW117123   2.468   1.312   5.718
 5408SOL    HW217124   2.367   1.357   5.598
 5409SOL     OW17125   5.165   0.043   3.689
 5409SOL    HW117126   5.117   0.118   3.643
 5409SOL    HW217127   5.209   0.078   3.772
 5410SOL     OW17128   2.762   2.354   1.735
 5410SOL    HW117129   2.728   2.261   1.750
 5410SOL    HW217130   2.844   2.369   1.790
 5411SOL     OW17131   6.595   4.846   5.929
 5411SOL    HW117132   6.667   4.864   5.996
 5411SOL    HW217133   6.623   4.880   5.839
 5412SOL     OW17134   5.043   2.231   0.833
 5412SOL    HW117135   5.127   2.258   0.786
 5412SOL    HW217136   5.012   2.305   0.892
 5413SOL     OW17137   2.877   1.059   1.199
 5413SOL    HW117138   2.966   1.099   1.177
 5413SOL    HW217139   2.808   1.092   1.134
 5414SOL     OW17140   5.219   2.024   4.948
 5414SOL    HW117141   5.220   2.089   4.872
 5414SOL    HW217142   5.280   2.056   5.021
 5415SOL     OW17143   0.612   5.799   1.359
 5415SOL    HW117144   0.649   5.867   1.423
 5415SOL    HW217145   0.591   5.844   1.272
 5416SOL     OW17146   4.878   5.389   5.725
 5416SOL    HW117147   4.852   5.423   5.634
 5416SOL    HW217148   4.888   5.467   5.787
 5417SOL     OW17149   3.556   6.685   5.777
 5417SOL    HW117150   3.622   6.663   5.705
 5417SOL    HW217151   3.515   6.775   5.759
 5418SOL     OW17152   3.446   0.487   3.578
 5418SOL    HW117153   3.458   0.552   3.503
 5418SOL    HW217154   3.350   0.460   3.584
 5419SOL     OW17155   3.417   5.369   0.269
 5419SOL    HW117156   3.389   5.327   0.182
 5419SOL    HW217157   3.463   5.456   0.251
 5420SOL     OW17158   2.193   3.217   2.693
 5420SOL    HW117159   2.278   3.260   2.725
 5420SOL    HW217160   2.215   3.147   2.625
 5421SOL     OW17161   1.311   3.278   1.740
 5421SOL    HW117162   1.235   3.262   1.676
 5421SOL    HW217163   1.302   3.369   1.780
 5422SOL     OW17164   0.214   4.948   0.493
 5422SOL    HW117165   0.133   4.892   0.510
 5422SOL    HW217166   0.213   4.981   0.399
 5423SOL     OW17167   6.988   3.157   6.831
 5423SOL    HW117168   6.963   3.252   6.849
 5423SOL    HW217169   7.016   3.148   6.735
 5424SOL     OW17170   5.362   2.975   3.348
 5424SOL    HW117171   5.270   3.014   3.341
 5424SOL    HW217172   5.429   3.049   3.350
 5425SOL     OW17173   4.038   1.014   4.538
 5425SOL    HW117174   4.119   1.060   4.573
 5425SOL    HW217175   4.037   1.020   4.438
 5426SOL     OW17176   6.081   5.859   4.288
 5426SOL    HW117177   5.995   5.821   4.323
 5426SOL    HW217178   6.156   5.830   4.346
 5427SOL     OW17179   4.990   5.610   6.248
 5427SOL    HW117180   5.068   5.548   6.248
 5427SOL    HW217181   5.021   5.702   6.226
 5428SOL     OW17182   6.793   0.055   1.357
 5428SOL    HW117183   6.827   0.093   1.442
 5428SOL    HW217184   6.817   0.115   1.281
 5429SOL     OW17185   2.151   2.298   6.366
 5429SOL    HW117186   2.207   2.215   6.369
 5429SOL    HW217187   2.211   2.377   6.358
 5430SOL     OW17188   0.165   2.997   5.774
 5430SOL    HW117189   0.259   2.966   5.788
 5430SOL    HW217190   0.124   2.947   5.698
 5431SOL     OW17191   3.311   6.045   0.763
 5431SOL    HW117192   3.242   6.053   0.691
 5431SOL    HW217193   3.392   6.099   0.738
 5432SOL     OW17194   5.634   0.744   6.700
 5432SOL    HW117195   5.713   0.799   6.728
 5432SOL    HW217196   5.555   0.771   6.755
 5433SOL     OW17197   0.270   1.898   4.709
 5433SOL    HW117198   0.326   1.889   4.627
 5433SOL    HW217199   0.174   1.881   4.686
 5434SOL     OW17200   3.239   0.696   5.707
 5434SOL    HW117201   3.337   0.702   5.687
 5434SOL    HW217202   3.188   0.696   5.621
 5435SOL     OW17203   5.982   6.761   1.926
 5435SOL    HW117204   5.984   6.724   2.019
 5435SOL    HW217205   6.070   6.745   1.882
 5436SOL     OW17206   5.229   3.881   3.841
 5436SOL    HW117207   5.205   3.923   3.928
 5436SOL    HW217208   5.154   3.823   3.810
 5437SOL     OW17209   2.700   4.153   0.236
 5437SOL    HW117210   2.673   4.062   0.206
 5437SOL    HW217211   2.765   4.146   0.311
 5438SOL     OW17212   6.748   2.493   1.983
 5438SOL    HW117213   6.749   2.465   2.079
 5438SOL    HW217214   6.798   2.426   1.928
 5439SOL     OW17215   1.049   2.045   1.710
 5439SOL    HW117216   1.058   2.145   1.710
 5439SOL    HW217217   0.953   2.020   1.713
 5440SOL     OW17218   1.118   1.402   0.921
 5440SOL    HW117219   1.168   1.315   0.920
 5440SOL    HW217220   1.179   1.477   0.896
 5441SOL     OW17221   4.322   2.277   3.380
 5441SOL    HW117222   4.398   2.213   3.387
 5441SOL    HW217223   4.272   2.261   3.294
 5442SOL     OW17224   3.864   6.555   3.193
 5442SOL    HW117225   3.946   6.505   3.221
 5442SOL    HW217226   3.785   6.518   3.243
 5443SOL     OW17227   4.035   0.135   4.327
 5443SOL    HW117228   4.102   0.153   4.255
 5443SOL    HW217229   3.997   0.043   4.314
 5444SOL     OW17230   1.065   0.717   4.312
 5444SOL    HW117231   1.060   0.729   4.213
 5444SOL    HW217232   1.049   0.805   4.357
 5445SOL     OW17233   6.361   3.805   3.486
 5445SOL    HW117234   6.395   3.859   3.563
 5445SOL    HW217235   6.425   3.811   3.410
 5446SOL     OW17236   6.401   5.291   4.594
 5446SOL    HW117237   6.488   5.248   4.621
 5446SOL    HW217238   6.331   5.220   4.584
 5447SOL     OW17239   2.867   2.165   0.237
 5447SOL    HW117240   2.922   2.109   0.300
 5447SOL    HW217241   2.927   2.222   0.181
 5448SOL     OW17242   4.327   3.101   5.318
 5448SOL    HW117243   4.258   3.070   5.383
 5448SOL    HW217244   4.342   3.031   5.248
 5449SOL     OW17245   1.558   3.399   6.436
 5449SOL    HW117246   1.467   3.367   6.407
 5449SOL    HW217247   1.563   3.498   6.426
 5450SOL     OW17248   1.850   0.763   1.726
 5450SOL    HW117249   1.911   0.744   1.650
 5450SOL    HW217250   1.866   0.698   1.799
 5451SOL     OW17251   1.876   6.003   3.201
 5451SOL    HW117252   1.796   5.999   3.261
 5451SOL    HW217253   1.860   6.071   3.128
 5452SOL     OW17254   2.311   4.885   6.840
 5452SOL    HW117255   2.330   4.795   6.801
 5452SOL    HW217256   2.389   4.945   6.826
 5453SOL     OW17257   6.119   4.067   0.521
 5453SOL    HW117258   6.210   4.086   0.485
 5453SOL    HW217259   6.119   3.981   0.571
 5454SOL     OW17260   0.173   4.286   6.782
 5454SOL    HW117261   0.145   4.247   6.870
 5454SOL    HW217262   0.231   4.366   6.798
 5455SOL     OW17263   6.547   3.283   6.756
 5455SOL    HW117264   6.472   3.285   6.690
 5455SOL    HW217265   6.523   3.341   6.834
 5456SOL     OW17266   3.480   6.717   6.913
 5456SOL    HW117267   3.408   6.786   6.908
 5456SOL    HW217268   3.544   6.729   6.838
 5457SOL     OW17269   5.672   2.008   0.734
 5457SOL    HW117270   5.755   2.033   0.784
 5457SOL    HW217271   5.594   2.006   0.798
 5458SOL     OW17272   0.575   4.635   0.142
 5458SOL    HW117273   0.665   4.616   0.180
 5458SOL    HW217274   0.518   4.678   0.212
 5459SOL     OW17275   2.078   5.005   6.744
 5459SOL    HW117276   2.020   4.933   6.782
 5459SOL    HW217277   2.173   4.990   6.771
 5460SOL     OW17278   3.096   0.161   2.481
 5460SOL    HW117279   3.169   0.168   2.412
 5460SOL    HW217280   3.027   0.231   2.463
 5461SOL     OW17281   6.256   6.208   5.054
 5461SOL    HW117282   6.329   6.197   4.988
 5461SOL    HW217283   6.237   6.306   5.067
 5462SOL     OW17284   1.228   0.590   0.313
 5462SOL    HW117285   1.271   0.514   0.361
 5462SOL    HW217286   1.295   0.632   0.251
 5463SOL     OW17287   6.058   1.974   6.989
 5463SOL    HW117288   6.074   1.876   7.002
 5463SOL    HW217289   6.096   2.024   0.041
 5464SOL     OW17290   1.755   0.326   4.365
 5464SOL    HW117291   1.722   0.394   4.430
 5464SOL    HW217292   1.846   0.351   4.333
 5465SOL     OW17293   3.417   6.895   3.407
 5465SOL    HW117294   3.479   6.877   3.331
 5465SOL    HW217295   3.469   6.919   3.489
 5466SOL     OW17296   5.735   4.632   4.787
 5466SOL    HW117297   5.736   4.536   4.761
 5466SOL    HW217298   5.643   4.658   4.816
 5467SOL     OW17299   5.103   2.197   3.405
 5467SOL    HW117300   5.201   2.190   3.426
 5467SOL    HW217301   5.073   2.115   3.357
 5468SOL     OW17302   5.384   1.421   4.576
 5468SOL    HW117303   5.294   1.433   4.534
 5468SOL    HW217304   5.444   1.495   4.547
 5469SOL     OW17305   3.778   5.444   6.953
 5469SOL    HW117306   3.821   5.504   6.886
 5469SOL    HW217307   3.679   5.462   6.955
 5470SOL     OW17308   2.081   5.481   2.878
 5470SOL    HW117309   2.151   5.453   2.943
 5470SOL    HW217310   1.994   5.436   2.901
 5471SOL     OW17311   5.671   0.072   1.524
 5471SOL    HW117312   5.747   0.012   1.498
 5471SOL    HW217313   5.585   0.024   1.509
 5472SOL     OW17314   3.990   4.352   5.930
 5472SOL    HW117315   4.069   4.407   5.957
 5472SOL    HW217316   4.010   4.255   5.940
 5473SOL     OW17317   0.604   3.614   3.333
 5473SOL    HW117318   0.554   3.633   3.417
 5473SOL    HW217319   0.694   3.659   3.337
 5474SOL     OW17320   1.522   4.469   4.560
 5474SOL    HW117321   1.602   4.422   4.596
 5474SOL    HW217322   1.439   4.425   4.594
 5475SOL     OW17323   3.462   2.559   0.550
 5475SOL    HW117324   3.371   2.583   0.585
 5475SOL    HW217325   3.508   2.497   0.614
 5476SOL     OW17326   2.485   3.384   6.277
 5476SOL    HW117327   2.449   3.437   6.354
 5476SOL    HW217328   2.584   3.372   6.288
 5477SOL     OW17329   1.820   3.438   3.302
 5477SOL    HW117330   1.802   3.514   3.363
 5477SOL    HW217331   1.891   3.379   3.341
 5478SOL     OW17332   5.368   5.822   5.522
 5478SOL    HW117333   5.443   5.756   5.520
 5478SOL    HW217334   5.394   5.903   5.470
 5479SOL     OW17335   4.763   0.912   5.283
 5479SOL    HW117336   4.708   0.829   5.292
 5479SOL    HW217337   4.747   0.954   5.194
 5480SOL     OW17338   0.308   3.416   3.886
 5480SOL    HW117339   0.221   3.416   3.836
 5480SOL    HW217340   0.291   3.430   3.984
 5481SOL     OW17341   3.344   0.738   4.351
 5481SOL    HW117342   3.424   0.755   4.293
 5481SOL    HW217343   3.261   0.764   4.300
 5482SOL     OW17344   3.752   4.339   1.614
 5482SOL    HW117345   3.825   4.378   1.670
 5482SOL    HW217346   3.793   4.284   1.541
 5483SOL     OW17347   0.854   3.177   5.335
 5483SOL    HW117348   0.858   3.276   5.349
 5483SOL    HW217349   0.940   3.136   5.365
 5484SOL     OW17350   4.752   0.174   4.984
 5484SOL    HW117351   4.711   0.107   5.047
 5484SOL    HW217352   4.706   0.167   4.895
 5485SOL     OW17353   3.263   6.548   5.372
 5485SOL    HW117354   3.235   6.544   5.468
 5485SOL    HW217355   3.185   6.576   5.315
 5486SOL     OW17356   2.473   5.732   4.973
 5486SOL    HW117357   2.424   5.779   4.899
 5486SOL    HW217358   2.564   5.706   4.941
 5487SOL     OW17359   2.969   4.563   6.030
 5487SOL    HW117360   2.885   4.513   6.047
 5487SOL    HW217361   2.957   4.623   5.951
 5488SOL     OW17362   7.018   1.149   0.455
 5488SOL    HW117363   6.991   1.113   0.544
 5488SOL    HW217364   6.936   1.166   0.400
 5489SOL     OW17365   6.453   3.266   2.375
 5489SOL    HW117366   6.368   3.315   2.396
 5489SOL    HW217367   6.527   3.305   2.429
 5490SOL     OW17368   1.921   6.844   2.515
 5490SOL    HW117369   1.987   6.881   2.449
 5490SOL    HW217370   1.836   6.821   2.467
 5491SOL     OW17371   0.095   3.029   0.630
 5491SOL    HW117372   0.168   3.088   0.663
 5491SOL    HW217373   0.019   3.029   0.695
 5492SOL     OW17374   1.328   3.390   5.662
 5492SOL    HW117375   1.404   3.447   5.692
 5492SOL    HW217376   1.297   3.333   5.737
 5493SOL     OW17377   4.149   3.632   2.126
 5493SOL    HW117378   4.114   3.589   2.209
 5493SOL    HW217379   4.238   3.674   2.144
 5494SOL     OW17380   5.878   4.400   5.434
 5494SOL    HW117381   5.867   4.354   5.346
 5494SOL    HW217382   5.839   4.492   5.428
 5495SOL     OW17383   6.095   1.059   0.566
 5495SOL    HW117384   6.090   1.010   0.653
 5495SOL    HW217385   6.004   1.092   0.541
 5496SOL     OW17386   4.270   0.698   4.195
 5496SOL    HW117387   4.299   0.793   4.209
 5496SOL    HW217388   4.198   0.676   4.260
 5497SOL     OW17389   0.211   1.099   5.716
 5497SOL    HW117390   0.145   1.037   5.759
 5497SOL    HW217391   0.298   1.052   5.703
 5498SOL     OW17392   0.254   5.037   1.754
 5498SOL    HW117393   0.231   4.965   1.688
 5498SOL    HW217394   0.189   5.112   1.744
 5499SOL     OW17395   0.266   0.895   3.888
 5499SOL    HW117396   0.272   0.960   3.812
 5499SOL    HW217397   0.290   0.940   3.973
 5500SOL     OW17398   1.718   1.143   0.207
 5500SOL    HW117399   1.732   1.060   0.261
 5500SOL    HW217400   1.749   1.127   0.114
 5501SOL     OW17401   3.963   2.336   0.146
 5501SOL    HW117402   3.936   2.318   0.241
 5501SOL    HW217403   4.039   2.401   0.145
 5502SOL     OW17404   5.172   3.789   6.284
 5502SOL    HW117405   5.170   3.887   6.262
 5502SOL    HW217406   5.134   3.737   6.207
 5503SOL     OW17407   0.487   3.615   0.260
 5503SOL    HW117408   0.568   3.563   0.287
 5503SOL    HW217409   0.405   3.567   0.289
 5504SOL     OW17410   3.990   0.846   6.647
 5504SOL    HW117411   3.927   0.911   6.604
 5504SOL    HW217412   3.946   0.757   6.653
 5505SOL     OW17413   2.242   4.119   4.059
 5505SOL    HW117414   2.202   4.105   4.149
 5505SOL    HW217415   2.263   4.031   4.017
 5506SOL     OW17416   0.337   3.649   6.214
 5506SOL    HW117417   0.330   3.697   6.126
 5506SOL    HW217418   0.316   3.552   6.201
 5507SOL     OW17419   3.430   0.564   5.960
 5507SOL    HW117420   3.375   0.482   5.945
 5507SOL    HW217421   3.397   0.638   5.902
 5508SOL     OW17422   1.031   1.141   6.927
 5508SOL    HW117423   0.933   1.119   6.928
 5508SOL    HW217424   1.068   1.127   6.835
 5509SOL     OW17425   0.250   5.175   1.430
 5509SOL    HW117426   0.230   5.266   1.393
 5509SOL    HW217427   0.349   5.166   1.443
 5510SOL     OW17428   4.911   5.578   0.341
 5510SOL    HW117429   4.867   5.548   0.256
 5510SOL    HW217430   5.010   5.582   0.327
 5511SOL     OW17431   0.571   1.757   5.054
 5511SOL    HW117432   0.648   1.703   5.089
 5511SOL    HW217433   0.606   1.837   5.005
 5512SOL     OW17434   3.161   1.163   1.866
 5512SOL    HW117435   3.079   1.111   1.889
 5512SOL    HW217436   3.189   1.141   1.772
 5513SOL     OW17437   3.857   4.821   6.379
 5513SOL    HW117438   3.846   4.735   6.329
 5513SOL    HW217439   3.924   4.808   6.452
 5514SOL     OW17440   3.114   6.189   5.376
 5514SOL    HW117441   3.146   6.239   5.296
 5514SOL    HW217442   3.109   6.251   5.454
 5515SOL     OW17443   2.068   5.734   1.935
 5515SOL    HW117444   2.062   5.691   1.845
 5515SOL    HW217445   2.143   5.692   1.987
 5516SOL     OW17446   2.423   2.685   5.131
 5516SOL    HW117447   2.442   2.638   5.045
 5516SOL    HW217448   2.400   2.781   5.112
 5517SOL     OW17449   1.797   3.770   2.704
 5517SOL    HW117450   1.818   3.839   2.773
 5517SOL    HW217451   1.768   3.816   2.620
 5518SOL     OW17452   4.961   4.429   5.505
 5518SOL    HW117453   4.926   4.469   5.590
 5518SOL    HW217454   5.013   4.498   5.455
 5519SOL     OW17455   4.670   2.683   3.859
 5519SOL    HW117456   4.615   2.681   3.775
 5519SOL    HW217457   4.766   2.668   3.836
 5520SOL     OW17458   5.661   6.317   2.174
 5520SOL    HW117459   5.603   6.336   2.253
 5520SOL    HW217460   5.755   6.301   2.206
 5521SOL     OW17461   6.113   5.019   2.261
 5521SOL    HW117462   6.138   5.008   2.165
 5521SOL    HW217463   6.193   5.049   2.313
 5522SOL     OW17464   5.727   5.258   1.829
 5522SOL    HW117465   5.734   5.230   1.925
 5522SOL    HW217466   5.755   5.354   1.821
 5523SOL     OW17467   5.632   1.059   2.661
 5523SOL    HW117468   5.725   1.063   2.697
 5523SOL    HW217469   5.622   0.979   2.603
 5524SOL     OW17470   3.246   0.548   4.939
 5524SOL    HW117471   3.203   0.550   4.849
 5524SOL    HW217472   3.195   0.487   4.999
 5525SOL     OW17473   6.498   2.832   0.894
 5525SOL    HW117474   6.416   2.886   0.916
 5525SOL    HW217475   6.472   2.756   0.835
 5526SOL     OW17476   4.803   4.271   2.940
 5526SOL    HW117477   4.845   4.182   2.954
 5526SOL    HW217478   4.743   4.293   3.017
 5527SOL     OW17479   5.104   2.759   4.130
 5527SOL    HW117480   5.141   2.745   4.222
 5527SOL    HW217481   5.040   2.685   4.108
 5528SOL     OW17482   1.220   1.890   1.537
 5528SOL    HW117483   1.254   1.971   1.489
 5528SOL    HW217484   1.136   1.913   1.586
 5529SOL     OW17485   2.676   0.737   2.653
 5529SOL    HW117486   2.649   0.821   2.701
 5529SOL    HW217487   2.613   0.720   2.578
 5530SOL     OW17488   6.486   2.254   1.457
 5530SOL    HW117489   6.492   2.299   1.369
 5530SOL    HW217490   6.457   2.159   1.444
 5531SOL     OW17491   3.685   3.660   1.268
 5531SOL    HW117492   3.683   3.566   1.235
 5531SOL    HW217493   3.672   3.662   1.367
 5532SOL     OW17494   2.042   2.558   1.156
 5532SOL    HW117495   2.033   2.493   1.081
 5532SOL    HW217496   2.139   2.574   1.175
 5533SOL     OW17497   4.402   1.508   4.408
 5533SOL    HW117498   4.351   1.575   4.461
 5533SOL    HW217499   4.383   1.520   4.310
 5534SOL     OW17500   0.808   1.117   5.465
 5534SOL    HW117501   0.812   1.131   5.366
 5534SOL    HW217502   0.712   1.107   5.493
 5535SOL     OW17503   1.171   1.507   2.924
 5535SOL    HW117504   1.116   1.578   2.967
 5535SOL    HW217505   1.256   1.547   2.889
 5536SOL     OW17506   2.592   1.136   5.413
 5536SOL    HW117507   2.630   1.133   5.321
 5536SOL    HW217508   2.630   1.214   5.463
 5537SOL     OW17509   3.562   1.591   2.919
 5537SOL    HW117510   3.545   1.667   2.982
 5537SOL    HW217511   3.598   1.627   2.833
 5538SOL     OW17512   4.609   5.743   4.656
 5538SOL    HW117513   4.708   5.726   4.660
 5538SOL    HW217514   4.578   5.777   4.745
 5539SOL     OW17515   2.484   2.767   0.527
 5539SOL    HW117516   2.430   2.851   0.539
 5539SOL    HW217517   2.428   2.688   0.551
 5540SOL     OW17518   5.089   4.973   3.078
 5540SOL    HW117519   5.136   4.924   3.005
 5540SOL    HW217520   5.137   5.060   3.095
 5541SOL     OW17521   5.025   1.329   6.344
 5541SOL    HW117522   5.112   1.341   6.296
 5541SOL    HW217523   5.032   1.369   6.435
 5542SOL     OW17524   3.821   5.155   6.370
 5542SOL    HW117525   3.872   5.187   6.290
 5542SOL    HW217526   3.749   5.092   6.340
 5543SOL     OW17527   6.083   3.293   6.443
 5543SOL    HW117528   6.180   3.315   6.452
 5543SOL    HW217529   6.042   3.353   6.375
 5544SOL     OW17530   5.758   1.078   5.437
 5544SOL    HW117531   5.683   1.012   5.435
 5544SOL    HW217532   5.831   1.044   5.496
 5545SOL     OW17533   3.864   2.167   2.289
 5545SOL    HW117534   3.806   2.188   2.211
 5545SOL    HW217535   3.957   2.200   2.271
 5546SOL     OW17536   1.821   5.265   5.966
 5546SOL    HW117537   1.759   5.294   6.038
 5546SOL    HW217538   1.773   5.266   5.878
 5547SOL     OW17539   3.088   5.206   5.924
 5547SOL    HW117540   3.028   5.133   5.893
 5547SOL    HW217541   3.181   5.172   5.934
 5548SOL     OW17542   6.533   3.640   5.217
 5548SOL    HW117543   6.492   3.586   5.143
 5548SOL    HW217544   6.477   3.721   5.233
 5549SOL     OW17545   2.883   4.852   0.123
 5549SOL    HW117546   2.871   4.889   0.215
 5549SOL    HW217547   2.882   4.926   0.057
 5550SOL     OW17548   3.742   6.052   1.345
 5550SOL    HW117549   3.819   6.072   1.406
 5550SOL    HW217550   3.662   6.027   1.400
 5551SOL     OW17551   1.420   1.826   3.495
 5551SOL    HW117552   1.471   1.880   3.562
 5551SOL    HW217553   1.351   1.885   3.451
 5552SOL     OW17554   0.204   2.436   1.458
 5552SOL    HW117555   0.210   2.337   1.470
 5552SOL    HW217556   0.247   2.482   1.535
 5553SOL     OW17557   5.166   6.173   0.746
 5553SOL    HW117558   5.084   6.182   0.689
 5553SOL    HW217559   5.216   6.090   0.720
 5554SOL     OW17560   2.691   1.725   4.802
 5554SOL    HW117561   2.770   1.769   4.760
 5554SOL    HW217562   2.636   1.794   4.849
 5555SOL     OW17563   0.231   4.994   3.368
 5555SOL    HW117564   0.303   5.053   3.330
 5555SOL    HW217565   0.163   5.051   3.414
 5556SOL     OW17566   0.595   2.115   5.274
 5556SOL    HW117567   0.669   2.048   5.267
 5556SOL    HW217568   0.509   2.068   5.296
 5557SOL     OW17569   2.160   6.809   3.967
 5557SOL    HW117570   2.178   6.822   4.065
 5557SOL    HW217571   2.242   6.772   3.923
 5558SOL     OW17572   5.048   2.986   5.173
 5558SOL    HW117573   5.045   2.908   5.110
 5558SOL    HW217574   5.089   2.957   5.260
 5559SOL     OW17575   1.979   0.520   0.835
 5559SOL    HW117576   2.076   0.512   0.858
 5559SOL    HW217577   1.942   0.604   0.874
 5560SOL     OW17578   0.263   1.096   3.708
 5560SOL    HW117579   0.266   1.146   3.795
 5560SOL    HW217580   0.191   1.135   3.650
 5561SOL     OW17581   1.601   2.927   3.581
 5561SOL    HW117582   1.624   2.963   3.490
 5561SOL    HW217583   1.502   2.922   3.591
 5562SOL     OW17584   2.740   3.308   6.133
 5562SOL    HW117585   2.770   3.403   6.140
 5562SOL    HW217586   2.796   3.261   6.065
 5563SOL     OW17587   4.732   5.956   2.235
 5563SOL    HW117588   4.811   5.915   2.280
 5563SOL    HW217589   4.653   5.897   2.246
 5564SOL     OW17590   5.234   3.782   1.587
 5564SOL    HW117591   5.179   3.863   1.569
 5564SOL    HW217592   5.184   3.721   1.650
 5565SOL     OW17593   3.242   2.694   5.542
 5565SOL    HW117594   3.280   2.688   5.449
 5565SOL    HW217595   3.266   2.783   5.581
 5566SOL     OW17596   1.848   4.856   1.103
 5566SOL    HW117597   1.870   4.765   1.070
 5566SOL    HW217598   1.842   4.919   1.026
 5567SOL     OW17599   1.260   5.159   2.046
 5567SOL    HW117600   1.212   5.071   2.037
 5567SOL    HW217601   1.279   5.196   1.955
 5568SOL     OW17602   3.377   1.315   1.919
 5568SOL    HW117603   3.459   1.263   1.897
 5568SOL    HW217604   3.296   1.264   1.891
 5569SOL     OW17605   4.773   1.808   0.165
 5569SOL    HW117606   4.772   1.753   0.081
 5569SOL    HW217607   4.808   1.752   0.241
 5570SOL     OW17608   6.866   4.044   5.592
 5570SOL    HW117609   6.885   4.126   5.647
 5570SOL    HW217610   6.937   3.976   5.607
 5571SOL     OW17611   6.805   5.113   6.744
 5571SOL    HW117612   6.736   5.175   6.708
 5571SOL    HW217613   6.826   5.042   6.676
 5572SOL     OW17614   4.844   2.591   6.099
 5572SOL    HW117615   4.772   2.588   6.168
 5572SOL    HW217616   4.930   2.560   6.139
 5573SOL     OW17617   1.433   3.663   0.603
 5573SOL    HW117618   1.501   3.595   0.576
 5573SOL    HW217619   1.382   3.630   0.682
 5574SOL     OW17620   0.735   5.882   5.455
 5574SOL    HW117621   0.716   5.977   5.480
 5574SOL    HW217622   0.829   5.859   5.482
 5575SOL     OW17623   1.599   1.533   0.883
 5575SOL    HW117624   1.626   1.436   0.891
 5575SOL    HW217625   1.634   1.583   0.962
 5576SOL     OW17626   6.044   6.506   0.378
 5576SOL    HW117627   6.012   6.591   0.338
 5576SOL    HW217628   6.142   6.512   0.397
 5577SOL     OW17629   2.093   4.065   5.396
 5577SOL    HW117630   2.004   4.019   5.405
 5577SOL    HW217631   2.164   4.008   5.437
 5578SOL     OW17632   4.374   2.508   6.938
 5578SOL    HW117633   4.380   2.569   6.859
 5578SOL    HW217634   4.421   2.422   6.918
 5579SOL     OW17635   4.834   4.188   6.473
 5579SOL    HW117636   4.838   4.088   6.471
 5579SOL    HW217637   4.761   4.217   6.534
 5580SOL     OW17638   5.983   1.586   0.490
 5580SOL    HW117639   5.912   1.633   0.543
 5580SOL    HW217640   5.944   1.550   0.406
 5581SOL     OW17641   2.374   2.092   6.388
 5581SOL    HW117642   2.463   2.097   6.342
 5581SOL    HW217643   2.363   2.001   6.428
 5582SOL     OW17644   3.986   3.055   3.534
 5582SOL    HW117645   3.914   3.114   3.499
 5582SOL    HW217646   3.963   2.959   3.515
 5583SOL     OW17647   3.862   6.887   1.440
 5583SOL    HW117648   3.787   6.834   1.402
 5583SOL    HW217649   3.870   6.974   1.391
 5584SOL     OW17650   6.762   3.069   3.143
 5584SOL    HW117651   6.787   3.095   3.050
 5584SOL    HW217652   6.691   2.999   3.141
 5585SOL     OW17653   6.125   0.357   4.426
 5585SOL    HW117654   6.085   0.295   4.494
 5585SOL    HW217655   6.135   0.310   4.339
 5586SOL     OW17656   1.858   0.790   5.814
 5586SOL    HW117657   1.916   0.813   5.892
 5586SOL    HW217658   1.764   0.818   5.834
 5587SOL     OW17659   3.538   0.074   4.119
 5587SOL    HW117660   3.523   0.017   4.039
 5587SOL    HW217661   3.585   0.158   4.091
 5588SOL     OW17662   3.449   0.084   6.064
 5588SOL    HW117663   3.392   0.038   5.996
 5588SOL    HW217664   3.544   0.054   6.053
 5589SOL     OW17665   4.584   3.001   6.671
 5589SOL    HW117666   4.625   3.087   6.699
 5589SOL    HW217667   4.652   2.928   6.676
 5590SOL     OW17668   6.943   6.052   3.613
 5590SOL    HW117669   0.004   6.027   3.655
 5590SOL    HW217670   6.874   6.065   3.684
 5591SOL     OW17671   5.065   1.003   0.201
 5591SOL    HW117672   5.046   1.074   0.269
 5591SOL    HW217673   4.979   0.972   0.160
 5592SOL     OW17674   1.926   3.231   2.694
 5592SOL    HW117675   1.905   3.144   2.740
 5592SOL    HW217676   2.025   3.244   2.689
 5593SOL     OW17677   1.914   3.099   5.885
 5593SOL    HW117678   1.816   3.089   5.901
 5593SOL    HW217679   1.964   3.087   5.971
 5594SOL     OW17680   2.002   0.969   0.154
 5594SOL    HW117681   2.090   0.953   0.110
 5594SOL    HW217682   1.981   0.892   0.215
 5595SOL     OW17683   6.717   2.341   5.735
 5595SOL    HW117684   6.805   2.293   5.742
 5595SOL    HW217685   6.644   2.280   5.765
 5596SOL     OW17686   4.639   1.090   3.692
 5596SOL    HW117687   4.602   1.092   3.600
 5596SOL    HW217688   4.607   1.170   3.743
 5597SOL     OW17689   0.301   0.972   6.059
 5597SOL    HW117690   0.228   0.935   6.002
 5597SOL    HW217691   0.279   0.957   6.156
 5598SOL     OW17692   6.577   1.859   3.688
 5598SOL    HW117693   6.568   1.807   3.603
 5598SOL    HW217694   6.670   1.847   3.725
 5599SOL     OW17695   4.992   3.076   3.103
 5599SOL    HW117696   5.015   2.987   3.062
 5599SOL    HW217697   4.930   3.063   3.180
 5600SOL     OW17698   2.563   1.749   2.250
 5600SOL    HW117699   2.469   1.715   2.239
 5600SOL    HW217700   2.616   1.683   2.303
 5601SOL     OW17701   5.613   2.492   5.613
 5601SOL    HW117702   5.614   2.493   5.713
 5601SOL    HW217703   5.588   2.583   5.579
 5602SOL     OW17704   0.408   2.013   2.723
 5602SOL    HW117705   0.362   2.027   2.635
 5602SOL    HW217706   0.342   2.025   2.797
 5603SOL     OW17707   4.046   1.974   4.782
 5603SOL    HW117708   4.012   1.939   4.695
 5603SOL    HW217709   4.071   1.897   4.841
 5604SOL     OW17710   0.936   0.480   4.415
 5604SOL    HW117711   0.839   0.498   4.401
 5604SOL    HW217712   0.989   0.561   4.387
 5605SOL     OW17713   2.707   6.345   4.029
 5605SOL    HW117714   2.793   6.395   4.039
 5605SOL    HW217715   2.713   6.258   4.079
 5606SOL     OW17716   4.541   2.382   0.672
 5606SOL    HW117717   4.631   2.394   0.630
 5606SOL    HW217718   4.509   2.470   0.708
 5607SOL     OW17719   6.479   2.423   2.510
 5607SOL    HW117720   6.439   2.359   2.443
 5607SOL    HW217721   6.413   2.496   2.529
 5608SOL     OW17722   5.071   0.720   4.045
 5608SOL    HW117723   5.035   0.753   4.132
 5608SOL    HW217724   5.000   0.729   3.974
 5609SOL     OW17725   6.475   0.317   0.964
 5609SOL    HW117726   6.411   0.394   0.971
 5609SOL    HW217727   6.565   0.351   0.937
 5610SOL     OW17728   5.190   4.572   0.157
 5610SOL    HW117729   5.205   4.481   0.196
 5610SOL    HW217730   5.239   4.641   0.210
 5611SOL     OW17731   6.770   4.748   1.139
 5611SOL    HW117732   6.702   4.729   1.068
 5611SOL    HW217733   6.723   4.770   1.225
 5612SOL     OW17734   2.879   1.134   0.661
 5612SOL    HW117735   2.870   1.167   0.568
 5612SOL    HW217736   2.972   1.100   0.675
 5613SOL     OW17737   6.865   5.137   5.801
 5613SOL    HW117738   6.831   5.152   5.894
 5613SOL    HW217739   6.961   5.110   5.804
 5614SOL     OW17740   5.441   2.291   3.956
 5614SOL    HW117741   5.460   2.334   4.044
 5614SOL    HW217742   5.382   2.350   3.901
 5615SOL     OW17743   0.352   3.202   3.060
 5615SOL    HW117744   0.367   3.153   3.146
 5615SOL    HW217745   0.377   3.142   2.984
 5616SOL     OW17746   1.505   3.349   2.830
 5616SOL    HW117747   1.583   3.305   2.876
 5616SOL    HW217748   1.526   3.361   2.733
 5617SOL     OW17749   1.692   5.096   6.233
 5617SOL    HW117750   1.722   5.191   6.231
 5617SOL    HW217751   1.741   5.044   6.163
 5618SOL     OW17752   6.685   5.839   3.081
 5618SOL    HW117753   6.643   5.876   2.998
 5618SOL    HW217754   6.769   5.889   3.101
 5619SOL     OW17755   3.635   2.906   4.149
 5619SOL    HW117756   3.690   2.970   4.202
 5619SOL    HW217757   3.541   2.906   4.183
 5620SOL     OW17758   4.654   4.673   4.978
 5620SOL    HW117759   4.647   4.573   4.974
 5620SOL    HW217760   4.608   4.706   5.061
 5621SOL     OW17761   1.287   2.177   5.551
 5621SOL    HW117762   1.221   2.231   5.498
 5621SOL    HW217763   1.287   2.208   5.646
 5622SOL     OW17764   4.563   6.263   4.674
 5622SOL    HW117765   4.558   6.305   4.584
 5622SOL    HW217766   4.618   6.181   4.670
 5623SOL     OW17767   4.979   5.709   3.921
 5623SOL    HW117768   5.035   5.631   3.893
 5623SOL    HW217769   4.952   5.761   3.840
 5624SOL     OW17770   6.343   5.623   4.299
 5624SOL    HW117771   6.244   5.624   4.307
 5624SOL    HW217772   6.370   5.571   4.218
 5625SOL     OW17773   0.690   6.181   5.509
 5625SOL    HW117774   0.760   6.212   5.574
 5625SOL    HW217775   0.714   6.213   5.417
 5626SOL     OW17776   1.103   4.510   5.098
 5626SOL    HW117777   1.184   4.534   5.046
 5626SOL    HW217778   1.064   4.425   5.063
 5627SOL     OW17779   0.928   5.563   6.970
 5627SOL    HW117780   1.006   5.581   6.910
 5627SOL    HW217781   0.915   5.640   0.006
 5628SOL     OW17782   2.194   2.333   2.240
 5628SOL    HW117783   2.205   2.260   2.172
 5628SOL    HW217784   2.258   2.319   2.315
 5629SOL     OW17785   5.095   3.613   1.391
 5629SOL    HW117786   5.008   3.662   1.381
 5629SOL    HW217787   5.153   3.660   1.457
 5630SOL     OW17788   1.259   4.414   0.105
 5630SOL    HW117789   1.168   4.445   0.078
 5630SOL    HW217790   1.307   4.488   0.151
 5631SOL     OW17791   4.068   1.213   1.670
 5631SOL    HW117792   3.986   1.164   1.639
 5631SOL    HW217793   4.089   1.286   1.605
 5632SOL     OW17794   5.385   6.735   6.033
 5632SOL    HW117795   5.319   6.662   6.012
 5632SOL    HW217796   5.336   6.820   6.053
 5633SOL     OW17797   0.613   5.348   5.985
 5633SOL    HW117798   0.706   5.317   6.004
 5633SOL    HW217799   0.591   5.330   5.889
 5634SOL     OW17800   2.496   6.873   0.966
 5634SOL    HW117801   2.557   6.793   0.963
 5634SOL    HW217802   2.533   6.945   0.908
 5635SOL     OW17803   1.843   0.959   6.143
 5635SOL    HW117804   1.849   1.024   6.218
 5635SOL    HW217805   1.869   1.003   6.057
 5636SOL     OW17806   5.907   1.669   5.264
 5636SOL    HW117807   5.864   1.637   5.348
 5636SOL    HW217808   6.006   1.654   5.269
 5637SOL     OW17809   4.301   6.527   4.802
 5637SOL    HW117810   4.239   6.476   4.862
 5637SOL    HW217811   4.381   6.556   4.854
 5638SOL     OW17812   6.242   5.504   1.048
 5638SOL    HW117813   6.204   5.460   0.967
 5638SOL    HW217814   6.217   5.601   1.048
 5639SOL     OW17815   1.180   0.391   0.963
 5639SOL    HW117816   1.182   0.456   1.039
 5639SOL    HW217817   1.161   0.440   0.878
 5640SOL     OW17818   2.636   5.631   2.912
 5640SOL    HW117819   2.622   5.640   2.813
 5640SOL    HW217820   2.587   5.704   2.960
 5641SOL     OW17821   0.601   4.246   4.072
 5641SOL    HW117822   0.504   4.253   4.098
 5641SOL    HW217823   0.658   4.269   4.151
 5642SOL     OW17824   1.414   4.870   0.004
 5642SOL    HW117825   1.342   4.822   6.978
 5642SOL    HW217826   1.503   4.848   6.991
 5643SOL     OW17827   4.526   1.873   4.690
 5643SOL    HW117828   4.610   1.823   4.711
 5643SOL    HW217829   4.507   1.866   4.592
 5644SOL     OW17830   3.928   0.821   5.009
 5644SOL    HW117831   3.912   0.919   4.995
 5644SOL    HW217832   3.940   0.803   5.107
 5645SOL     OW17833   5.315   5.090   4.206
 5645SOL    HW117834   5.253   5.011   4.207
 5645SOL    HW217835   5.273   5.167   4.253
 5646SOL     OW17836   0.531   6.345   4.588
 5646SOL    HW117837   0.577   6.271   4.637
 5646SOL    HW217838   0.441   6.361   4.629
 5647SOL     OW17839   5.591   5.257   5.870
 5647SOL    HW117840   5.512   5.226   5.923
 5647SOL    HW217841   5.559   5.302   5.786
 5648SOL     OW17842   1.554   1.939   4.342
 5648SOL    HW117843   1.613   2.008   4.300
 5648SOL    HW217844   1.458   1.968   4.335
 5649SOL     OW17845   0.471   0.968   5.217
 5649SOL    HW117846   0.568   0.978   5.192
 5649SOL    HW217847   0.421   0.931   5.139
 5650SOL     OW17848   6.118   5.044   6.603
 5650SOL    HW117849   6.083   5.107   6.534
 5650SOL    HW217850   6.069   4.957   6.596
 5651SOL     OW17851   0.041   0.261   2.903
 5651SOL    HW117852   7.023   0.339   2.859
 5651SOL    HW217853   6.998   0.201   2.942
 5652SOL     OW17854   4.801   5.099   0.798
 5652SOL    HW117855   4.811   5.047   0.883
 5652SOL    HW217856   4.891   5.124   0.763
 5653SOL     OW17857   0.578   6.043   6.290
 5653SOL    HW117858   0.638   6.089   6.356
 5653SOL    HW217859   0.633   5.982   6.232
 5654SOL     OW17860   6.672   6.921   5.561
 5654SOL    HW117861   6.728   7.004   5.566
 5654SOL    HW217862   6.609   6.928   5.483
 5655SOL     OW17863   6.649   3.476   4.297
 5655SOL    HW117864   6.558   3.516   4.287
 5655SOL    HW217865   6.645   3.379   4.274
 5656SOL     OW17866   3.365   4.602   0.297
 5656SOL    HW117867   3.322   4.514   0.277
 5656SOL    HW217868   3.307   4.655   0.359
 5657SOL     OW17869   3.881   0.333   1.750
 5657SOL    HW117870   3.910   0.339   1.654
 5657SOL    HW217871   3.791   0.290   1.755
 5658SOL     OW17872   3.723   0.017   5.950
 5658SOL    HW117873   3.734   0.085   5.877
 5658SOL    HW217874   3.730   0.063   6.039
 5659SOL     OW17875   3.135   3.786   2.593
 5659SOL    HW117876   3.087   3.854   2.537
 5659SOL    HW217877   3.216   3.828   2.634
 5660SOL     OW17878   5.180   6.547   6.956
 5660SOL    HW117879   5.217   6.487   6.885
 5660SOL    HW217880   5.112   6.609   6.915
 5661SOL     OW17881   5.707   5.433   4.234
 5661SOL    HW117882   5.706   5.334   4.249
 5661SOL    HW217883   5.712   5.452   4.136
 5662SOL     OW17884   2.028   4.754   3.997
 5662SOL    HW117885   2.029   4.749   3.897
 5662SOL    HW217886   2.049   4.847   4.026
 5663SOL     OW17887   1.602   4.388   0.813
 5663SOL    HW117888   1.582   4.485   0.824
 5663SOL    HW217889   1.696   4.369   0.840
 5664SOL     OW17890   0.166   4.646   2.277
 5664SOL    HW117891   0.221   4.726   2.258
 5664SOL    HW217892   0.148   4.596   2.192
 5665SOL     OW17893   2.535   3.354   5.740
 5665SOL    HW117894   2.573   3.270   5.778
 5665SOL    HW217895   2.586   3.433   5.776
 5666SOL     OW17896   5.866   4.471   1.047
 5666SOL    HW117897   5.881   4.373   1.037
 5666SOL    HW217898   5.952   4.520   1.032
 5667SOL     OW17899   0.131   4.931   3.093
 5667SOL    HW117900   0.074   4.849   3.086
 5667SOL    HW217901   0.156   4.946   3.189
 5668SOL     OW17902   5.576   1.911   6.530
 5668SOL    HW117903   5.657   1.967   6.548
 5668SOL    HW217904   5.538   1.936   6.442
 5669SOL     OW17905   0.558   4.783   6.148
 5669SOL    HW117906   0.625   4.708   6.138
 5669SOL    HW217907   0.596   4.867   6.110
 5670SOL     OW17908   0.556   3.578   3.939
 5670SOL    HW117909   0.611   3.555   3.859
 5670SOL    HW217910   0.475   3.630   3.910
 5671SOL     OW17911   1.350   0.747   5.785
 5671SOL    HW117912   1.294   0.829   5.786
 5671SOL    HW217913   1.305   0.675   5.838
 5672SOL     OW17914   4.861   4.545   5.735
 5672SOL    HW117915   4.905   4.555   5.824
 5672SOL    HW217916   4.832   4.634   5.702
 5673SOL     OW17917   0.644   0.370   2.021
 5673SOL    HW117918   0.733   0.398   2.057
 5673SOL    HW217919   0.619   0.280   2.057
 5674SOL     OW17920   6.622   3.570   1.309
 5674SOL    HW117921   6.541   3.595   1.255
 5674SOL    HW217922   6.608   3.596   1.404
 5675SOL     OW17923   4.358   2.319   5.382
 5675SOL    HW117924   4.293   2.385   5.419
 5675SOL    HW217925   4.409   2.361   5.307
 5676SOL     OW17926   2.072   0.413   1.888
 5676SOL    HW117927   2.085   0.340   1.821
 5676SOL    HW217928   2.094   0.501   1.845
 5677SOL     OW17929   6.428   1.091   3.462
 5677SOL    HW117930   6.476   1.007   3.487
 5677SOL    HW217931   6.493   1.155   3.419
 5678SOL     OW17932   3.263   0.014   3.248
 5678SOL    HW117933   3.289   7.016   3.155
 5678SOL    HW217934   3.341   0.004   3.309
 5679SOL     OW17935   1.997   6.774   4.972
 5679SOL    HW117936   1.897   6.774   4.964
 5679SOL    HW217937   2.031   6.680   4.965
 5680SOL     OW17938   1.734   5.359   6.198
 5680SOL    HW117939   1.811   5.342   6.260
 5680SOL    HW217940   1.691   5.446   6.222
 5681SOL     OW17941   1.518   2.919   0.011
 5681SOL    HW117942   1.498   2.879   0.100
 5681SOL    HW217943   1.448   2.986   7.013
 5682SOL     OW17944   1.172   3.412   5.443
 5682SOL    HW117945   1.224   3.406   5.528
 5682SOL    HW217946   1.119   3.497   5.442
 5683SOL     OW17947   3.474   2.105   5.920
 5683SOL    HW117948   3.443   2.037   5.852
 5683SOL    HW217949   3.557   2.149   5.887
 5684SOL     OW17950   3.851   3.869   3.980
 5684SOL    HW117951   3.757   3.873   4.013
 5684SOL    HW217952   3.862   3.930   3.902
 5685SOL     OW17953   0.031   4.931   2.190
 5685SOL    HW117954   6.974   4.950   2.138
 5685SOL    HW217955   0.107   4.919   2.126
 5686SOL     OW17956   3.661   0.274   0.607
 5686SOL    HW117957   3.696   0.281   0.514
 5686SOL    HW217958   3.732   0.240   0.668
 5687SOL     OW17959   5.275   5.240   5.333
 5687SOL    HW117960   5.253   5.338   5.343
 5687SOL    HW217961   5.200   5.194   5.286
 5688SOL     OW17962   5.670   1.965   1.500
 5688SOL    HW117963   5.685   2.020   1.582
 5688SOL    HW217964   5.573   1.943   1.492
 5689SOL     OW17965   3.858   1.974   0.707
 5689SOL    HW117966   3.779   2.030   0.684
 5689SOL    HW217967   3.838   1.878   0.686
 5690SOL     OW17968   4.404   6.025   0.898
 5690SOL    HW117969   4.502   6.045   0.892
 5690SOL    HW217970   4.382   5.947   0.839
 5691SOL     OW17971   1.963   0.172   1.635
 5691SOL    HW117972   1.989   0.125   1.551
 5691SOL    HW217973   2.042   0.219   1.673
 5692SOL     OW17974   6.853   2.907   6.815
 5692SOL    HW117975   6.758   2.918   6.845
 5692SOL    HW217976   6.908   2.984   6.847
 5693SOL     OW17977   4.404   2.431   2.740
 5693SOL    HW117978   4.380   2.358   2.676
 5693SOL    HW217979   4.417   2.392   2.831
 5694SOL     OW17980   0.413   0.932   3.556
 5694SOL    HW117981   0.362   0.921   3.471
 5694SOL    HW217982   0.357   0.983   3.622
 5695SOL     OW17983   1.615   3.256   3.314
 5695SOL    HW117984   1.673   3.326   3.272
 5695SOL    HW217985   1.660   3.167   3.306
 5696SOL     OW17986   2.715   0.683   4.932
 5696SOL    HW117987   2.742   0.597   4.975
 5696SOL    HW217988   2.792   0.720   4.880
 5697SOL     OW17989   6.721   2.786   0.175
 5697SOL    HW117990   6.816   2.755   0.171
 5697SOL    HW217991   6.676   2.765   0.088
 5698SOL     OW17992   0.754   3.583   2.195
 5698SOL    HW117993   0.696   3.532   2.259
 5698SOL    HW217994   0.697   3.640   2.136
 5699SOL     OW17995   5.634   0.769   5.205
 5699SOL    HW117996   5.724   0.814   5.203
 5699SOL    HW217997   5.647   0.670   5.207
 5700SOL     OW17998   1.629   6.107   4.634
 5700SOL    HW117999   1.601   6.152   4.719
 5700SOL    HW218000   1.592   6.157   4.556
 5701SOL     OW18001   6.418   5.575   2.074
 5701SOL    HW118002   6.380   5.546   1.986
 5701SOL    HW218003   6.412   5.499   2.139
 5702SOL     OW18004   2.623   0.331   6.663
 5702SOL    HW118005   2.564   0.402   6.701
 5702SOL    HW218006   2.629   0.255   6.728
 5703SOL     OW18007   4.218   4.764   0.263
 5703SOL    HW118008   4.183   4.687   0.210
 5703SOL    HW218009   4.142   4.813   0.305
 5704SOL     OW18010   4.526   5.324   3.951
 5704SOL    HW118011   4.467   5.243   3.960
 5704SOL    HW218012   4.477   5.404   3.986
 5705SOL     OW18013   5.928   0.443   1.317
 5705SOL    HW118014   5.864   0.367   1.311
 5705SOL    HW218015   5.911   0.495   1.400
 5706SOL     OW18016   1.280   1.391   6.855
 5706SOL    HW118017   1.228   1.323   6.802
 5706SOL    HW218018   1.358   1.347   6.898
 5707SOL     OW18019   1.817   1.152   6.341
 5707SOL    HW118020   1.792   1.235   6.391
 5707SOL    HW218021   1.861   1.087   6.404
 5708SOL     OW18022   5.074   6.907   2.723
 5708SOL    HW118023   4.988   6.939   2.762
 5708SOL    HW218024   5.131   6.869   2.796
 5709SOL     OW18025   0.370   6.448   3.209
 5709SOL    HW118026   0.464   6.462   3.242
 5709SOL    HW218027   0.357   6.351   3.187
 5710SOL     OW18028   3.343   3.177   5.984
 5710SOL    HW118029   3.302   3.191   6.074
 5710SOL    HW218030   3.443   3.175   5.992
 5711SOL     OW18031   4.650   1.173   4.060
 5711SOL    HW118032   4.575   1.107   4.065
 5711SOL    HW218033   4.731   1.128   4.022
 5712SOL     OW18034   0.160   6.701   5.991
 5712SOL    HW118035   0.125   6.698   6.084
 5712SOL    HW218036   0.085   6.720   5.928
 5713SOL     OW18037   6.882   2.984   2.582
 5713SOL    HW118038   6.964   2.934   2.610
 5713SOL    HW218039   6.873   2.978   2.482
 5714SOL     OW18040   1.243   1.032   5.813
 5714SOL    HW118041   1.262   1.048   5.910
 5714SOL    HW218042   1.148   1.054   5.793
 5715SOL     OW18043   1.665   6.528   2.513
 5715SOL    HW118044   1.646   6.536   2.415
 5715SOL    HW218045   1.599   6.466   2.555
 5716SOL     OW18046   1.584   3.848   6.177
 5716SOL    HW118047   1.604   3.856   6.080
 5716SOL    HW218048   1.662   3.809   6.225
 5717SOL     OW18049   1.038   4.219   1.154
 5717SOL    HW118050   1.024   4.154   1.079
 5717SOL    HW218051   0.952   4.232   1.203
 5718SOL     OW18052   3.077   4.739   6.786
 5718SOL    HW118053   3.009   4.700   6.723
 5718SOL    HW218054   3.154   4.676   6.795
 5719SOL     OW18055   3.187   0.599   6.626
 5719SOL    HW118056   3.199   0.530   6.555
 5719SOL    HW218057   3.268   0.600   6.685
 5720SOL     OW18058   1.847   5.522   5.386
 5720SOL    HW118059   1.773   5.586   5.403
 5720SOL    HW218060   1.900   5.553   5.307
 5721SOL     OW18061   0.675   3.286   1.516
 5721SOL    HW118062   0.645   3.379   1.536
 5721SOL    HW218063   0.597   3.230   1.489
 5722SOL     OW18064   5.265   6.759   5.188
 5722SOL    HW118065   5.279   6.852   5.154
 5722SOL    HW218066   5.276   6.694   5.113
 5723SOL     OW18067   3.644   5.657   0.601
 5723SOL    HW118068   3.715   5.608   0.550
 5723SOL    HW218069   3.561   5.664   0.544
 5724SOL     OW18070   5.469   2.037   5.987
 5724SOL    HW118071   5.484   2.064   5.892
 5724SOL    HW218072   5.544   2.071   6.044
 5725SOL     OW18073   5.601   4.833   5.092
 5725SOL    HW118074   5.677   4.869   5.038
 5725SOL    HW218075   5.637   4.785   5.172
 5726SOL     OW18076   5.732   3.829   6.016
 5726SOL    HW118077   5.689   3.799   6.102
 5726SOL    HW218078   5.720   3.759   5.947
 5727SOL     OW18079   5.577   1.805   3.559
 5727SOL    HW118080   5.562   1.773   3.652
 5727SOL    HW218081   5.524   1.888   3.543
 5728SOL     OW18082   6.000   0.646   5.220
 5728SOL    HW118083   5.989   0.593   5.304
 5728SOL    HW218084   5.952   0.734   5.230
 5729SOL     OW18085   0.156   1.506   6.409
 5729SOL    HW118086   0.081   1.538   6.466
 5729SOL    HW218087   0.164   1.566   6.328
 5730SOL     OW18088   4.103   5.120   5.832
 5730SOL    HW118089   4.147   5.036   5.800
 5730SOL    HW218090   4.006   5.117   5.807
 5731SOL     OW18091   2.807   1.194   4.126
 5731SOL    HW118092   2.710   1.208   4.108
 5731SOL    HW218093   2.841   1.118   4.071
 5732SOL     OW18094   6.017   4.811   5.191
 5732SOL    HW118095   6.083   4.745   5.155
 5732SOL    HW218096   6.047   4.841   5.282
 5733SOL     OW18097   3.496   0.836   6.925
 5733SOL    HW118098   3.413   0.834   6.870
 5733SOL    HW218099   3.502   0.923   6.974
 5734SOL     OW18100   1.574   6.890   5.732
 5734SOL    HW118101   1.633   6.879   5.811
 5734SOL    HW218102   1.626   6.872   5.648
 5735SOL     OW18103   4.148   0.616   2.141
 5735SOL    HW118104   4.209   0.620   2.061
 5735SOL    HW218105   4.129   0.709   2.173
 5736SOL     OW18106   4.656   4.220   6.688
 5736SOL    HW118107   4.689   4.145   6.744
 5736SOL    HW218108   4.565   4.248   6.720
 5737SOL     OW18109   4.883   5.472   1.478
 5737SOL    HW118110   4.975   5.469   1.517
 5737SOL    HW218111   4.856   5.567   1.463
 5738SOL     OW18112   3.282   1.032   6.326
 5738SOL    HW118113   3.372   0.992   6.343
 5738SOL    HW218114   3.223   0.965   6.281
 5739SOL     OW18115   2.888   0.688   5.932
 5739SOL    HW118116   2.892   0.719   5.837
 5739SOL    HW218117   2.799   0.643   5.948
 5740SOL     OW18118   5.496   3.520   1.069
 5740SOL    HW118119   5.420   3.526   1.005
 5740SOL    HW218120   5.465   3.551   1.159
 5741SOL     OW18121   0.662   3.771   4.357
 5741SOL    HW118122   0.649   3.856   4.408
 5741SOL    HW218123   0.591   3.764   4.287
 5742SOL     OW18124   4.370   0.013   3.470
 5742SOL    HW118125   4.442   0.006   3.540
 5742SOL    HW218126   4.360   0.108   3.442
 5743SOL     OW18127   3.439   3.887   5.313
 5743SOL    HW118128   3.470   3.981   5.297
 5743SOL    HW218129   3.341   3.880   5.291
 5744SOL     OW18130   5.714   6.177   3.082
 5744SOL    HW118131   5.785   6.220   3.026
 5744SOL    HW218132   5.757   6.120   3.152
 5745SOL     OW18133   2.433   2.681   3.798
 5745SOL    HW118134   2.357   2.668   3.734
 5745SOL    HW218135   2.397   2.719   3.883
 5746SOL     OW18136   4.243   0.148   3.716
 5746SOL    HW118137   4.222   0.210   3.640
 5746SOL    HW218138   4.266   0.058   3.680
 5747SOL     OW18139   1.262   5.837   1.691
 5747SOL    HW118140   1.266   5.737   1.700
 5747SOL    HW218141   1.266   5.861   1.594
 5748SOL     OW18142   0.360   6.042   0.866
 5748SOL    HW118143   0.414   6.112   0.913
 5748SOL    HW218144   0.267   6.076   0.850
 5749SOL     OW18145   1.780   6.287   4.832
 5749SOL    HW118146   1.796   6.290   4.931
 5749SOL    HW218147   1.828   6.209   4.793
 5750SOL     OW18148   6.995   4.273   4.358
 5750SOL    HW118149   6.906   4.257   4.315
 5750SOL    HW218150   6.985   4.345   4.428
 5751SOL     OW18151   2.175   3.664   4.218
 5751SOL    HW118152   2.165   3.591   4.286
 5751SOL    HW218153   2.215   3.745   4.262
 5752SOL     OW18154   5.473   0.229   0.582
 5752SOL    HW118155   5.558   0.256   0.627
 5752SOL    HW218156   5.427   0.160   0.638
 5753SOL     OW18157   3.229   4.048   4.716
 5753SOL    HW118158   3.140   4.007   4.736
 5753SOL    HW218159   3.283   4.052   4.799
 5754SOL     OW18160   0.864   6.241   1.878
 5754SOL    HW118161   0.867   6.177   1.955
 5754SOL    HW218162   0.929   6.211   1.808
 5755SOL     OW18163   2.488   2.338   6.974
 5755SOL    HW118164   2.400   2.291   6.982
 5755SOL    HW218165   2.475   2.437   6.985
 5756SOL     OW18166   6.216   6.225   1.878
 5756SOL    HW118167   6.246   6.314   1.846
 5756SOL    HW218168   6.242   6.214   1.974
 5757SOL     OW18169   0.014   6.753   3.679
 5757SOL    HW118170   6.967   6.719   3.737
 5757SOL    HW218171   7.006   6.762   3.585
 5758SOL     OW18172   1.370   6.708   3.470
 5758SOL    HW118173   1.405   6.665   3.553
 5758SOL    HW218174   1.447   6.736   3.411
 5759SOL     OW18175   4.166   6.597   1.886
 5759SOL    HW118176   4.148   6.501   1.906
 5759SOL    HW218177   4.122   6.654   1.955
 5760SOL     OW18178   6.600   3.183   1.890
 5760SOL    HW118179   6.670   3.216   1.826
 5760SOL    HW218180   6.637   3.186   1.983
 5761SOL     OW18181   5.383   5.664   4.878
 5761SOL    HW118182   5.400   5.674   4.976
 5761SOL    HW218183   5.447   5.597   4.840
 5762SOL     OW18184   5.492   4.304   6.650
 5762SOL    HW118185   5.414   4.306   6.712
 5762SOL    HW218186   5.577   4.304   6.702
 5763SOL     OW18187   5.490   0.474   0.394
 5763SOL    HW118188   5.580   0.511   0.370
 5763SOL    HW218189   5.500   0.379   0.425
 5764SOL     OW18190   4.390   5.195   3.386
 5764SOL    HW118191   4.360   5.141   3.307
 5764SOL    HW218192   4.422   5.284   3.354
 5765SOL     OW18193   6.197   5.163   1.056
 5765SOL    HW118194   6.276   5.102   1.059
 5765SOL    HW218195   6.152   5.163   1.146
 5766SOL     OW18196   0.824   1.624   4.569
 5766SOL    HW118197   0.726   1.632   4.551
 5766SOL    HW218198   0.867   1.569   4.497
 5767SOL     OW18199   1.963   0.373   0.617
 5767SOL    HW118200   1.868   0.341   0.614
 5767SOL    HW218201   1.973   0.441   0.689
 5768SOL     OW18202   6.780   6.362   3.941
 5768SOL    HW118203   6.797   6.278   3.992
 5768SOL    HW218204   6.731   6.340   3.857
 5769SOL     OW18205   1.494   5.187   6.388
 5769SOL    HW118206   1.541   5.131   6.320
 5769SOL    HW218207   1.528   5.165   6.479
 5770SOL     OW18208   0.816   6.196   1.005
 5770SOL    HW118209   0.851   6.126   1.068
 5770SOL    HW218210   0.718   6.209   1.021
 5771SOL     OW18211   1.981   5.375   4.080
 5771SOL    HW118212   1.908   5.427   4.036
 5771SOL    HW218213   1.945   5.330   4.162
 5772SOL     OW18214   4.473   0.325   1.916
 5772SOL    HW118215   4.458   0.315   2.015
 5772SOL    HW218216   4.388   0.353   1.872
 5773SOL     OW18217   4.401   2.034   1.939
 5773SOL    HW118218   4.302   2.024   1.929
 5773SOL    HW218219   4.429   2.126   1.912
 5774SOL     OW18220   1.146   6.659   3.655
 5774SOL    HW118221   1.223   6.710   3.617
 5774SOL    HW218222   1.179   6.590   3.719
 5775SOL     OW18223   0.729   5.641   2.913
 5775SOL    HW118224   0.646   5.642   2.970
 5775SOL    HW218225   0.719   5.709   2.840
 5776SOL     OW18226   1.903   6.975   2.962
 5776SOL    HW118227   1.817   6.956   3.011
 5776SOL    HW218228   1.946   6.888   2.936
 5777SOL     OW18229   1.207   0.536   3.210
 5777SOL    HW118230   1.267   0.476   3.263
 5777SOL    HW218231   1.227   0.631   3.232
 5778SOL     OW18232   1.123   1.624   6.797
 5778SOL    HW118233   1.146   1.538   6.841
 5778SOL    HW218234   1.026   1.624   6.772
 5779SOL     OW18235   4.601   2.416   6.763
 5779SOL    HW118236   4.598   2.345   6.833
 5779SOL    HW218237   4.572   2.377   6.675
 5780SOL     OW18238   5.431   5.068   4.554
 5780SOL    HW118239   5.416   5.126   4.634
 5780SOL    HW218240   5.467   5.123   4.479
 5781SOL     OW18241   0.162   4.127   4.745
 5781SOL    HW118242   0.232   4.163   4.683
 5781SOL    HW218243   0.174   4.028   4.756
 5782SOL     OW18244   1.009   1.703   0.427
 5782SOL    HW118245   1.063   1.780   0.460
 5782SOL    HW218246   1.069   1.627   0.402
 5783SOL     OW18247   1.836   1.623   1.740
 5783SOL    HW118248   1.908   1.654   1.678
 5783SOL    HW218249   1.862   1.535   1.781
 5784SOL     OW18250   0.245   6.339   0.070
 5784SOL    HW118251   0.160   6.286   0.069
 5784SOL    HW218252   0.256   6.387   7.008
 5785SOL     OW18253   2.611   1.464   0.724
 5785SOL    HW118254   2.603   1.559   0.691
 5785SOL    HW218255   2.627   1.464   0.823
 5786SOL     OW18256   0.098   3.984   0.098
 5786SOL    HW118257   0.062   4.074   0.075
 5786SOL    HW218258   0.194   3.993   0.125
 5787SOL     OW18259   2.125   2.072   5.481
 5787SOL    HW118260   2.151   1.976   5.490
 5787SOL    HW218261   2.172   2.126   5.551
 5788SOL     OW18262   2.224   1.161   2.727
 5788SOL    HW118263   2.311   1.176   2.681
 5788SOL    HW218264   2.197   1.065   2.718
 5789SOL     OW18265   3.352   5.576   6.717
 5789SOL    HW118266   3.267   5.528   6.697
 5789SOL    HW218267   3.333   5.659   6.768
 5790SOL     OW18268   6.999   3.317   4.241
 5790SOL    HW118269   7.003   3.414   4.262
 5790SOL    HW218270   6.964   3.266   4.319
 5791SOL     OW18271   2.968   0.143   2.936
 5791SOL    HW118272   3.051   0.131   2.881
 5791SOL    HW218273   2.904   0.068   2.918
 5792SOL     OW18274   7.010   2.219   2.984
 5792SOL    HW118275   6.945   2.235   2.910
 5792SOL    HW218276   6.974   2.257   3.069
 5793SOL     OW18277   6.701   1.300   3.830
 5793SOL    HW118278   6.784   1.355   3.842
 5793SOL    HW218279   6.694   1.236   3.906
 5794SOL     OW18280   3.762   2.825   0.483
 5794SOL    HW118281   3.668   2.816   0.450
 5794SOL    HW218282   3.775   2.762   0.561
 5795SOL     OW18283   6.313   4.818   5.787
 5795SOL    HW118284   6.378   4.885   5.823
 5795SOL    HW218285   6.233   4.815   5.846
 5796SOL     OW18286   3.318   0.622   0.541
 5796SOL    HW118287   3.360   0.533   0.560
 5796SOL    HW218288   3.252   0.612   0.467
 5797SOL     OW18289   3.505   1.866   5.054
 5797SOL    HW118290   3.443   1.806   5.002
 5797SOL    HW218291   3.597   1.857   5.018
 5798SOL     OW18292   0.485   4.351   5.072
 5798SOL    HW118293   0.580   4.348   5.101
 5798SOL    HW218294   0.461   4.443   5.042
 5799SOL     OW18295   5.818   0.446   3.618
 5799SOL    HW118296   5.916   0.452   3.597
 5799SOL    HW218297   5.800   0.362   3.669
 5800SOL     OW18298   5.834   5.215   1.160
 5800SOL    HW118299   5.755   5.276   1.155
 5800SOL    HW218300   5.811   5.128   1.116
 5801SOL     OW18301   0.945   2.253   3.740
 5801SOL    HW118302   0.989   2.264   3.651
 5801SOL    HW218303   0.848   2.276   3.733
 5802SOL     OW18304   0.473   4.525   6.068
 5802SOL    HW118305   0.378   4.520   6.100
 5802SOL    HW218306   0.487   4.611   6.020
 5803SOL     OW18307   1.708   4.870   1.458
 5803SOL    HW118308   1.781   4.833   1.514
 5803SOL    HW218309   1.674   4.799   1.396
 5804SOL     OW18310   6.243   3.999   4.059
 5804SOL    HW118311   6.339   3.982   4.036
 5804SOL    HW218312   6.201   3.915   4.093
 5805SOL     OW18313   3.687   4.416   6.616
 5805SOL    HW118314   3.658   4.426   6.520
 5805SOL    HW218315   3.612   4.377   6.669
 5806SOL     OW18316   1.038   6.872   0.272
 5806SOL    HW118317   0.985   6.866   0.356
 5806SOL    HW218318   1.011   6.799   0.210
 5807SOL     OW18319   1.278   3.960   1.378
 5807SOL    HW118320   1.287   4.057   1.356
 5807SOL    HW218321   1.313   3.905   1.302
 5808SOL     OW18322   5.166   3.881   2.747
 5808SOL    HW118323   5.091   3.816   2.738
 5808SOL    HW218324   5.253   3.833   2.744
 5809SOL     OW18325   6.627   3.207   4.315
 5809SOL    HW118326   6.648   3.129   4.256
 5809SOL    HW218327   6.568   3.177   4.389
 5810SOL     OW18328   2.937   1.110   4.388
 5810SOL    HW118329   3.036   1.113   4.397
 5810SOL    HW218330   2.906   1.187   4.331
 5811SOL     OW18331   3.132   0.226   4.883
 5811SOL    HW118332   3.112   0.188   4.973
 5811SOL    HW218333   3.054   0.279   4.851
 5812SOL     OW18334   5.109   6.990   4.290
 5812SOL    HW118335   5.035   6.945   4.239
 5812SOL    HW218336   5.073   0.046   4.333
 5813SOL     OW18337   1.314   1.135   6.047
 5813SOL    HW118338   1.290   1.193   6.124
 5813SOL    HW218339   1.412   1.145   6.027
 5814SOL     OW18340   6.482   4.049   0.472
 5814SOL    HW118341   6.533   4.126   0.510
 5814SOL    HW218342   6.546   3.983   0.433
 5815SOL     OW18343   4.476   2.342   3.004
 5815SOL    HW118344   4.390   2.296   3.029
 5815SOL    HW218345   4.546   2.321   3.072
 5816SOL     OW18346   5.907   6.839   0.517
 5816SOL    HW118347   5.826   6.884   0.554
 5816SOL    HW218348   5.949   6.783   0.588
 5817SOL     OW18349   6.105   3.099   5.832
 5817SOL    HW118350   6.061   3.166   5.773
 5817SOL    HW218351   6.064   3.102   5.923
 5818SOL     OW18352   6.287   5.827   5.035
 5818SOL    HW118353   6.223   5.867   4.970
 5818SOL    HW218354   6.305   5.732   5.010
 5819SOL     OW18355   4.655   0.275   0.959
 5819SOL    HW118356   4.629   0.222   0.879
 5819SOL    HW218357   4.656   0.373   0.936
 5820SOL     OW18358   4.937   6.999   3.880
 5820SOL    HW118359   4.907   0.069   3.878
 5820SOL    HW218360   4.993   6.981   3.798
 5821SOL     OW18361   2.136   0.690   1.863
 5821SOL    HW118362   2.149   0.752   1.940
 5821SOL    HW218363   2.107   0.742   1.783
 5822SOL     OW18364   0.633   2.458   1.797
 5822SOL    HW118365   0.642   2.457   1.697
 5822SOL    HW218366   0.694   2.390   1.836
 5823SOL     OW18367   0.828   0.842   5.316
 5823SOL    HW118368   0.753   0.903   5.339
 5823SOL    HW218369   0.818   0.756   5.366
 5824SOL     OW18370   6.740   6.460   2.962
 5824SOL    HW118371   6.659   6.520   2.957
 5824SOL    HW218372   6.769   6.452   3.057
 5825SOL     OW18373   2.222   1.857   5.944
 5825SOL    HW118374   2.177   1.931   5.992
 5825SOL    HW218375   2.180   1.844   5.854
 5826SOL     OW18376   6.803   6.159   5.721
 5826SOL    HW118377   6.728   6.175   5.657
 5826SOL    HW218378   6.864   6.238   5.722
 5827SOL     OW18379   0.974   5.641   5.201
 5827SOL    HW118380   0.977   5.677   5.294
 5827SOL    HW218381   1.025   5.555   5.196
 5828SOL     OW18382   0.646   3.455   1.877
 5828SOL    HW118383   0.641   3.547   1.837
 5828SOL    HW218384   0.553   3.421   1.893
 5829SOL     OW18385   2.676   1.137   2.541
 5829SOL    HW118386   2.744   1.191   2.492
 5829SOL    HW218387   2.620   1.086   2.474
 5830SOL     OW18388   3.698   0.665   5.959
 5830SOL    HW118389   3.698   0.740   5.893
 5830SOL    HW218390   3.606   0.627   5.965
 5831SOL     OW18391   6.178   6.336   3.879
 5831SOL    HW118392   6.264   6.340   3.929
 5831SOL    HW218393   6.124   6.259   3.912
 5832SOL     OW18394   4.065   3.606   5.506
 5832SOL    HW118395   4.009   3.663   5.566
 5832SOL    HW218396   4.083   3.655   5.421
 5833SOL     OW18397   3.183   3.600   4.247
 5833SOL    HW118398   3.224   3.619   4.337
 5833SOL    HW218399   3.161   3.503   4.240
 5834SOL     OW18400   5.771   1.715   0.572
 5834SOL    HW118401   5.725   1.727   0.484
 5834SOL    HW218402   5.713   1.752   0.645
 5835SOL     OW18403   5.391   2.731   3.218
 5835SOL    HW118404   5.367   2.813   3.270
 5835SOL    HW218405   5.319   2.662   3.229
 5836SOL     OW18406   2.904   5.676   3.008
 5836SOL    HW118407   2.939   5.611   3.076
 5836SOL    HW218408   2.813   5.646   2.978
 5837SOL     OW18409   4.143   4.338   6.986
 5837SOL    HW118410   4.195   4.330   6.900
 5837SOL    HW218411   4.125   4.246   7.022
 5838SOL     OW18412   1.745   1.756   6.203
 5838SOL    HW118413   1.766   1.771   6.299
 5838SOL    HW218414   1.829   1.763   6.149
 5839SOL     OW18415   0.403   2.764   2.402
 5839SOL    HW118416   0.331   2.833   2.395
 5839SOL    HW218417   0.372   2.679   2.358
 5840SOL     OW18418   1.234   5.560   6.872
 5840SOL    HW118419   1.330   5.536   6.884
 5840SOL    HW218420   1.216   5.649   6.913
 5841SOL     OW18421   5.837   3.171   2.077
 5841SOL    HW118422   5.756   3.218   2.113
 5841SOL    HW218423   5.871   3.219   1.997
 5842SOL     OW18424   3.854   3.167   0.650
 5842SOL    HW118425   3.869   3.165   0.748
 5842SOL    HW218426   3.758   3.187   0.631
 5843SOL     OW18427   2.034   3.623   2.508
 5843SOL    HW118428   2.083   3.564   2.572
 5843SOL    HW218429   2.069   3.608   2.416
 5844SOL     OW18430   0.194   6.684   6.274
 5844SOL    HW118431   0.155   6.776   6.271
 5844SOL    HW218432   0.290   6.690   6.302
 5845SOL     OW18433   0.819   1.363   3.328
 5845SOL    HW118434   0.775   1.425   3.393
 5845SOL    HW218435   0.850   1.281   3.377
 5846SOL     OW18436   6.665   3.001   4.998
 5846SOL    HW118437   6.639   2.931   4.931
 5846SOL    HW218438   6.713   3.075   4.952
 5847SOL     OW18439   1.941   1.847   2.265
 5847SOL    HW118440   1.902   1.937   2.284
 5847SOL    HW218441   1.962   1.801   2.351
 5848SOL     OW18442   1.951   4.758   3.470
 5848SOL    HW118443   1.922   4.687   3.405
 5848SOL    HW218444   1.894   4.839   3.457
 5849SOL     OW18445   0.913   0.587   5.640
 5849SOL    HW118446   0.883   0.505   5.688
 5849SOL    HW218447   0.909   0.665   5.702
 5850SOL     OW18448   0.974   3.622   2.386
 5850SOL    HW118449   0.913   3.617   2.306
 5850SOL    HW218450   1.068   3.614   2.355
 5851SOL     OW18451   5.654   3.341   2.401
 5851SOL    HW118452   5.639   3.242   2.407
 5851SOL    HW218453   5.741   3.359   2.355
 5852SOL     OW18454   4.276   6.264   3.004
 5852SOL    HW118455   4.195   6.293   2.953
 5852SOL    HW218456   4.356   6.265   2.944
 5853SOL     OW18457   2.734   5.939   6.195
 5853SOL    HW118458   2.650   5.898   6.230
 5853SOL    HW218459   2.721   5.964   6.099
 5854SOL     OW18460   6.472   3.234   5.830
 5854SOL    HW118461   6.550   3.192   5.875
 5854SOL    HW218462   6.425   3.295   5.895
 5855SOL     OW18463   1.458   1.048   4.462
 5855SOL    HW118464   1.476   0.950   4.457
 5855SOL    HW218465   1.524   1.091   4.524
 5856SOL     OW18466   2.013   5.629   3.217
 5856SOL    HW118467   1.953   5.554   3.188
 5856SOL    HW218468   2.026   5.624   3.316
 5857SOL     OW18469   6.175   3.063   4.801
 5857SOL    HW118470   6.137   3.154   4.821
 5857SOL    HW218471   6.189   3.014   4.887
 5858SOL     OW18472   2.691   1.883   2.054
 5858SOL    HW118473   2.645   1.971   2.040
 5858SOL    HW218474   2.641   1.830   2.123
 5859SOL     OW18475   6.036   6.456   0.850
 5859SOL    HW118476   6.037   6.547   0.808
 5859SOL    HW218477   5.942   6.425   0.861
 5860SOL     OW18478   2.123   4.336   1.791
 5860SOL    HW118479   2.152   4.373   1.878
 5860SOL    HW218480   2.062   4.401   1.745
 5861SOL     OW18481   5.134   1.414   3.574
 5861SOL    HW118482   5.163   1.455   3.661
 5861SOL    HW218483   5.210   1.363   3.535
 5862SOL     OW18484   4.149   5.340   3.295
 5862SOL    HW118485   4.055   5.352   3.325
 5862SOL    HW218486   4.205   5.307   3.371
 5863SOL     OW18487   2.558   0.605   5.301
 5863SOL    HW118488   2.642   0.648   5.266
 5863SOL    HW218489   2.489   0.675   5.318
 5864SOL     OW18490   4.211   3.969   1.704
 5864SOL    HW118491   4.308   3.989   1.687
 5864SOL    HW218492   4.203   3.887   1.760
 5865SOL     OW18493   5.433   0.437   4.197
 5865SOL    HW118494   5.518   0.475   4.232
 5865SOL    HW218495   5.402   0.363   4.257
 5866SOL     OW18496   4.152   6.324   6.774
 5866SOL    HW118497   4.222   6.272   6.822
 5866SOL    HW218498   4.086   6.261   6.733
 5867SOL     OW18499   0.493   2.507   0.750
 5867SOL    HW118500   0.406   2.541   0.786
 5867SOL    HW218501   0.544   2.583   0.710
 5868SOL     OW18502   0.301   0.406   5.228
 5868SOL    HW118503   0.367   0.332   5.238
 5868SOL    HW218504   0.315   0.452   5.140
 5869SOL     OW18505   2.049   4.703   3.727
 5869SOL    HW118506   2.040   4.704   3.628
 5869SOL    HW218507   2.124   4.642   3.754
 5870SOL     OW18508   5.070   5.004   4.922
 5870SOL    HW118509   5.019   4.925   4.958
 5870SOL    HW218510   5.165   4.978   4.907
 5871SOL     OW18511   3.798   4.125   0.224
 5871SOL    HW118512   3.817   4.175   0.139
 5871SOL    HW218513   3.714   4.162   0.266
 5872SOL     OW18514   4.185   5.791   0.005
 5872SOL    HW118515   4.245   5.784   0.084
 5872SOL    HW218516   4.091   5.807   0.036
 5873SOL     OW18517   2.330   3.000   0.632
 5873SOL    HW118518   2.286   3.040   0.552
 5873SOL    HW218519   2.321   3.062   0.709
 5874SOL     OW18520   2.715   3.158   1.272
 5874SOL    HW118521   2.748   3.153   1.178
 5874SOL    HW218522   2.678   3.069   1.299
 5875SOL     OW18523   3.500   1.483   0.335
 5875SOL    HW118524   3.518   1.463   0.239
 5875SOL    HW218525   3.526   1.404   0.391
 5876SOL     OW18526   3.431   3.190   6.495
 5876SOL    HW118527   3.348   3.193   6.439
 5876SOL    HW218528   3.510   3.170   6.437
 5877SOL     OW18529   6.422   6.827   1.628
 5877SOL    HW118530   6.362   6.808   1.706
 5877SOL    HW218531   6.384   6.784   1.546
 5878SOL     OW18532   4.872   5.998   2.582
 5878SOL    HW118533   4.935   5.995   2.659
 5878SOL    HW218534   4.794   6.057   2.605
 5879SOL     OW18535   3.623   3.130   5.968
 5879SOL    HW118536   3.717   3.100   5.984
 5879SOL    HW218537   3.610   3.150   5.870
 5880SOL     OW18538   5.026   3.247   5.462
 5880SOL    HW118539   5.005   3.341   5.439
 5880SOL    HW218540   4.950   3.188   5.436
 5881SOL     OW18541   1.355   6.291   2.649
 5881SOL    HW118542   1.259   6.264   2.639
 5881SOL    HW218543   1.404   6.270   2.564
 5882SOL     OW18544   1.252   6.581   5.652
 5882SOL    HW118545   1.155   6.602   5.646
 5882SOL    HW218546   1.265   6.481   5.649
 5883SOL     OW18547   0.558   3.116   0.798
 5883SOL    HW118548   0.621   3.181   0.754
 5883SOL    HW218549   0.612   3.045   0.844
 5884SOL     OW18550   6.250   1.280   3.519
 5884SOL    HW118551   6.306   1.197   3.515
 5884SOL    HW218552   6.310   1.360   3.528
 5885SOL     OW18553   0.323   5.556   0.516
 5885SOL    HW118554   0.297   5.459   0.520
 5885SOL    HW218555   0.411   5.568   0.562
 5886SOL     OW18556   1.242   3.237   2.848
 5886SOL    HW118557   1.185   3.284   2.916
 5886SOL    HW218558   1.338   3.261   2.862
 5887SOL     OW18559   2.508   1.904   1.389
 5887SOL    HW118560   2.461   1.913   1.301
 5887SOL    HW218561   2.578   1.975   1.398
 5888SOL     OW18562   2.655   6.603   1.147
 5888SOL    HW118563   2.728   6.665   1.175
 5888SOL    HW218564   2.694   6.530   1.090
 5889SOL     OW18565   0.047   1.567   1.532
 5889SOL    HW118566   6.993   1.570   1.592
 5889SOL    HW218567   0.111   1.497   1.564
 5890SOL     OW18568   2.360   6.040   2.364
 5890SOL    HW118569   2.398   6.104   2.432
 5890SOL    HW218570   2.299   5.976   2.410
 5891SOL     OW18571   3.171   3.045   0.830
 5891SOL    HW118572   3.097   2.999   0.781
 5891SOL    HW218573   3.252   2.986   0.832
 5892SOL     OW18574   0.232   3.451   0.647
 5892SOL    HW118575   0.321   3.405   0.651
 5892SOL    HW218576   0.160   3.387   0.671
 5893SOL     OW18577   1.218   5.537   1.761
 5893SOL    HW118578   1.127   5.539   1.802
 5893SOL    HW218579   1.285   5.507   1.830
 5894SOL     OW18580   0.908   5.744   5.706
 5894SOL    HW118581   0.872   5.659   5.744
 5894SOL    HW218582   0.960   5.724   5.623
 5895SOL     OW18583   5.897   3.042   5.068
 5895SOL    HW118584   5.924   3.048   5.164
 5895SOL    HW218585   5.903   3.133   5.026
 5896SOL     OW18586   5.543   1.774   1.905
 5896SOL    HW118587   5.462   1.827   1.880
 5896SOL    HW218588   5.625   1.830   1.891
 5897SOL     OW18589   4.143   1.293   1.948
 5897SOL    HW118590   4.132   1.265   1.853
 5897SOL    HW218591   4.135   1.392   1.954
 5898SOL     OW18592   1.711   1.392   5.482
 5898SOL    HW118593   1.739   1.323   5.416
 5898SOL    HW218594   1.757   1.479   5.461
 5899SOL     OW18595   6.634   5.594   6.387
 5899SOL    HW118596   6.663   5.642   6.305
 5899SOL    HW218597   6.711   5.587   6.451
 5900SOL     OW18598   7.003   5.460   3.301
 5900SOL    HW118599   0.020   5.384   3.252
 5900SOL    HW218600   6.946   5.425   3.374
 5901SOL     OW18601   1.411   0.191   6.704
 5901SOL    HW118602   1.356   0.178   6.622
 5901SOL    HW218603   1.507   0.174   6.683
 5902SOL     OW18604   5.979   3.924   4.653
 5902SOL    HW118605   6.063   3.942   4.602
 5902SOL    HW218606   5.967   3.826   4.665
 5903SOL     OW18607   5.686   2.596   6.825
 5903SOL    HW118608   5.614   2.535   6.792
 5903SOL    HW218609   5.742   2.548   6.892
 5904SOL     OW18610   1.774   5.192   2.598
 5904SOL    HW118611   1.774   5.260   2.671
 5904SOL    HW218612   1.867   5.183   2.562
 5905SOL     OW18613   5.537   0.875   3.637
 5905SOL    HW118614   5.453   0.842   3.681
 5905SOL    HW218615   5.570   0.956   3.686
 5906SOL     OW18616   5.314   1.242   5.488
 5906SOL    HW118617   5.277   1.285   5.407
 5906SOL    HW218618   5.291   1.144   5.488
 5907SOL     OW18619   1.517   1.288   0.456
 5907SOL    HW118620   1.613   1.275   0.429
 5907SOL    HW218621   1.499   1.386   0.468
 5908SOL     OW18622   4.201   3.466   6.609
 5908SOL    HW118623   4.283   3.409   6.611
 5908SOL    HW218624   4.217   3.544   6.548
 5909SOL     OW18625   0.149   4.670   5.439
 5909SOL    HW118626   0.062   4.682   5.390
 5909SOL    HW218627   0.173   4.573   5.441
 5910SOL     OW18628   2.159   3.881   1.476
 5910SOL    HW118629   2.180   3.960   1.534
 5910SOL    HW218630   2.077   3.835   1.510
 5911SOL     OW18631   6.339   5.150   6.147
 5911SOL    HW118632   6.329   5.194   6.057
 5911SOL    HW218633   6.342   5.219   6.218
 5912SOL     OW18634   6.277   3.131   0.003
 5912SOL    HW118635   6.196   3.080   0.035
 5912SOL    HW218636   6.315   3.085   6.949
 5913SOL     OW18637   2.157   2.653   5.631
 5913SOL    HW118638   2.177   2.557   5.650
 5913SOL    HW218639   2.177   2.672   5.535
 5914SOL     OW18640   2.384   5.914   0.462
 5914SOL    HW118641   2.369   5.822   0.498
 5914SOL    HW218642   2.469   5.915   0.410
 5915SOL     OW18643   5.090   2.799   2.751
 5915SOL    HW118644   5.073   2.797   2.849
 5915SOL    HW218645   5.168   2.859   2.732
 5916SOL     OW18646   3.987   0.257   5.682
 5916SOL    HW118647   3.890   0.255   5.655
 5916SOL    HW218648   3.998   0.211   5.770
 5917SOL     OW18649   3.844   2.933   3.102
 5917SOL    HW118650   3.810   2.915   3.010
 5917SOL    HW218651   3.771   2.915   3.169
 5918SOL     OW18652   1.457   3.710   4.100
 5918SOL    HW118653   1.517   3.785   4.073
 5918SOL    HW218654   1.450   3.644   4.025
 5919SOL     OW18655   3.035   2.531   0.857
 5919SOL    HW118656   2.991   2.553   0.770
 5919SOL    HW218657   3.095   2.452   0.844
 5920SOL     OW18658   3.477   6.998   6.725
 5920SOL    HW118659   3.404   6.972   6.788
 5920SOL    HW218660   3.522   6.916   6.691
 5921SOL     OW18661   3.825   5.139   5.832
 5921SOL    HW118662   3.742   5.190   5.853
 5921SOL    HW218663   3.824   5.052   5.883
 5922SOL     OW18664   6.610   4.767   2.937
 5922SOL    HW118665   6.659   4.728   2.860
 5922SOL    HW218666   6.643   4.726   3.022
 5923SOL     OW18667   6.642   0.363   3.698
 5923SOL    HW118668   6.618   0.354   3.795
 5923SOL    HW218669   6.741   0.361   3.688
 5924SOL     OW18670   5.131   2.452   4.541
 5924SOL    HW118671   5.111   2.515   4.615
 5924SOL    HW218672   5.108   2.358   4.569
 5925SOL     OW18673   5.429   5.898   2.134
 5925SOL    HW118674   5.475   5.983   2.109
 5925SOL    HW218675   5.494   5.836   2.178
 5926SOL     OW18676   3.651   5.129   1.623
 5926SOL    HW118677   3.689   5.037   1.620
 5926SOL    HW218678   3.685   5.176   1.704
 5927SOL     OW18679   2.708   5.771   1.361
 5927SOL    HW118680   2.786   5.801   1.306
 5927SOL    HW218681   2.672   5.685   1.325
 5928SOL     OW18682   1.646   0.519   2.457
 5928SOL    HW118683   1.665   0.597   2.517
 5928SOL    HW218684   1.730   0.493   2.409
 5929SOL     OW18685   0.988   6.659   5.695
 5929SOL    HW118686   0.960   6.705   5.611
 5929SOL    HW218687   0.909   6.617   5.738
 5930SOL     OW18688   6.118   1.531   4.148
 5930SOL    HW118689   6.061   1.457   4.183
 5930SOL    HW218690   6.175   1.567   4.222
 5931SOL     OW18691   5.939   5.433   2.084
 5931SOL    HW118692   5.861   5.473   2.132
 5931SOL    HW218693   5.962   5.489   2.004
 5932SOL     OW18694   1.933   6.624   0.905
 5932SOL    HW118695   2.007   6.687   0.884
 5932SOL    HW218696   1.956   6.532   0.872
 5933SOL     OW18697   0.009   3.911   2.219
 5933SOL    HW118698   7.004   3.819   2.245
 5933SOL    HW218699   0.021   3.916   2.120
 5934SOL     OW18700   3.558   3.481   3.060
 5934SOL    HW118701   3.652   3.453   3.044
 5934SOL    HW218702   3.543   3.493   3.158
 5935SOL     OW18703   3.397   4.058   4.954
 5935SOL    HW118704   3.461   4.127   4.919
 5935SOL    HW218705   3.369   4.082   5.046
 5936SOL     OW18706   4.897   4.626   6.344
 5936SOL    HW118707   4.833   4.550   6.330
 5936SOL    HW218708   4.850   4.700   6.392
 5937SOL     OW18709   0.847   3.807   1.300
 5937SOL    HW118710   0.902   3.851   1.371
 5937SOL    HW218711   0.908   3.755   1.239
 5938SOL     OW18712   1.811   4.551   3.346
 5938SOL    HW118713   1.851   4.492   3.417
 5938SOL    HW218714   1.719   4.579   3.374
 5939SOL     OW18715   3.263   0.843   3.248
 5939SOL    HW118716   3.169   0.874   3.240
 5939SOL    HW218717   3.315   0.871   3.168
 5940SOL     OW18718   3.417   6.805   2.557
 5940SOL    HW118719   3.484   6.847   2.617
 5940SOL    HW218720   3.458   6.790   2.466
 5941SOL     OW18721   6.486   5.045   2.050
 5941SOL    HW118722   6.507   5.138   2.078
 5941SOL    HW218723   6.442   4.996   2.125
 5942SOL     OW18724   3.900   3.139   5.866
 5942SOL    HW118725   3.858   3.137   5.776
 5942SOL    HW218726   3.906   3.046   5.902
 5943SOL     OW18727   2.035   5.791   0.202
 5943SOL    HW118728   2.095   5.756   0.274
 5943SOL    HW218729   1.996   5.714   0.151
 5944SOL     OW18730   4.938   1.602   2.450
 5944SOL    HW118731   4.960   1.659   2.529
 5944SOL    HW218732   4.852   1.553   2.467
 5945SOL     OW18733   6.350   4.965   4.772
 5945SOL    HW118734   6.303   5.026   4.836
 5945SOL    HW218735   6.294   4.883   4.757
 5946SOL     OW18736   3.499   4.030   5.808
 5946SOL    HW118737   3.401   4.043   5.814
 5946SOL    HW218738   3.539   4.032   5.900
 5947SOL     OW18739   4.259   3.291   1.854
 5947SOL    HW118740   4.284   3.225   1.782
 5947SOL    HW218741   4.162   3.281   1.875
 5948SOL     OW18742   3.390   4.958   3.249
 5948SOL    HW118743   3.486   4.930   3.250
 5948SOL    HW218744   3.368   5.004   3.334
 5949SOL     OW18745   4.124   4.797   1.077
 5949SOL    HW118746   4.122   4.889   1.115
 5949SOL    HW218747   4.049   4.787   1.011
 5950SOL     OW18748   6.047   2.015   4.278
 5950SOL    HW118749   6.010   2.101   4.244
 5950SOL    HW218750   6.099   2.032   4.362
 5951SOL     OW18751   1.815   6.565   4.203
 5951SOL    HW118752   1.856   6.481   4.238
 5951SOL    HW218753   1.834   6.641   4.265
 5952SOL     OW18754   6.583   5.872   3.874
 5952SOL    HW118755   6.489   5.845   3.889
 5952SOL    HW218756   6.589   5.927   3.790
 5953SOL     OW18757   0.002   3.239   5.505
 5953SOL    HW118758   0.026   3.222   5.601
 5953SOL    HW218759   0.086   3.244   5.451
 5954SOL     OW18760   6.822   4.905   6.053
 5954SOL    HW118761   6.885   4.850   5.998
 5954SOL    HW218762   6.868   4.989   6.082
 5955SOL     OW18763   5.346   5.333   1.993
 5955SOL    HW118764   5.345   5.234   1.982
 5955SOL    HW218765   5.435   5.362   2.028
 5956SOL     OW18766   3.977   2.179   6.964
 5956SOL    HW118767   4.011   2.092   7.000
 5956SOL    HW218768   3.975   2.247   0.012
 5957SOL     OW18769   5.253   6.456   6.220
 5957SOL    HW118770   5.224   6.551   6.213
 5957SOL    HW218771   5.301   6.442   6.306
 5958SOL     OW18772   6.900   6.388   1.932
 5958SOL    HW118773   6.922   6.457   2.001
 5958SOL    HW218774   6.932   6.420   1.842
 5959SOL     OW18775   2.839   2.061   5.496
 5959SOL    HW118776   2.885   2.117   5.564
 5959SOL    HW218777   2.782   1.993   5.541
 5960SOL     OW18778   2.829   0.211   3.840
 5960SOL    HW118779   2.907   0.266   3.812
 5960SOL    HW218780   2.792   0.246   3.926
 5961SOL     OW18781   3.430   0.751   4.972
 5961SOL    HW118782   3.366   0.674   4.977
 5961SOL    HW218783   3.390   0.823   4.914
 5962SOL     OW18784   4.950   5.900   2.349
 5962SOL    HW118785   5.045   5.925   2.331
 5962SOL    HW218786   4.921   5.940   2.436
 5963SOL     OW18787   4.013   3.874   3.078
 5963SOL    HW118788   3.993   3.971   3.087
 5963SOL    HW218789   3.988   3.827   3.163
 5964SOL     OW18790   0.163   5.048   0.221
 5964SOL    HW118791   0.175   5.143   0.248
 5964SOL    HW218792   0.109   5.043   0.137
 5965SOL     OW18793   1.620   2.623   6.322
 5965SOL    HW118794   1.635   2.524   6.316
 5965SOL    HW218795   1.647   2.655   6.413
 5966SOL     OW18796   3.402   5.715   4.934
 5966SOL    HW118797   3.469   5.652   4.973
 5966SOL    HW218798   3.439   5.808   4.936
 5967SOL     OW18799   4.166   6.800   2.686
 5967SOL    HW118800   4.226   6.741   2.633
 5967SOL    HW218801   4.146   6.883   2.634
 5968SOL     OW18802   6.211   2.008   2.982
 5968SOL    HW118803   6.271   2.058   2.920
 5968SOL    HW218804   6.206   1.912   2.954
 5969SOL     OW18805   6.065   2.966   4.212
 5969SOL    HW118806   6.090   3.063   4.209
 5969SOL    HW218807   6.007   2.944   4.133
 5970SOL     OW18808   1.131   3.519   2.873
 5970SOL    HW118809   1.085   3.435   2.902
 5970SOL    HW218810   1.103   3.594   2.934
 5971SOL     OW18811   2.271   6.823   2.930
 5971SOL    HW118812   2.206   6.849   2.859
 5971SOL    HW218813   2.309   6.733   2.910
 5972SOL     OW18814   4.795   6.558   0.249
 5972SOL    HW118815   4.788   6.612   0.166
 5972SOL    HW218816   4.867   6.489   0.238
 5973SOL     OW18817   1.741   4.459   2.805
 5973SOL    HW118818   1.653   4.447   2.851
 5973SOL    HW218819   1.793   4.373   2.810
 5974SOL     OW18820   6.870   3.730   6.185
 5974SOL    HW118821   6.813   3.648   6.181
 5974SOL    HW218822   6.853   3.777   6.272
 5975SOL     OW18823   3.925   2.319   1.050
 5975SOL    HW118824   3.997   2.345   1.114
 5975SOL    HW218825   3.836   2.347   1.086
 5976SOL     OW18826   3.120   3.106   4.506
 5976SOL    HW118827   3.073   3.103   4.418
 5976SOL    HW218828   3.161   3.197   4.519
 5977SOL     OW18829   1.849   4.464   2.063
 5977SOL    HW118830   1.923   4.407   2.027
 5977SOL    HW218831   1.887   4.552   2.092
 5978SOL     OW18832   5.279   4.653   2.531
 5978SOL    HW118833   5.356   4.654   2.468
 5978SOL    HW218834   5.283   4.734   2.590
 5979SOL     OW18835   6.088   0.610   3.640
 5979SOL    HW118836   6.082   0.573   3.733
 5979SOL    HW218837   6.111   0.707   3.644
 5980SOL     OW18838   4.693   4.633   0.217
 5980SOL    HW118839   4.755   4.623   0.295
 5980SOL    HW218840   4.638   4.550   0.207
 5981SOL     OW18841   6.519   1.540   2.249
 5981SOL    HW118842   6.600   1.483   2.233
 5981SOL    HW218843   6.441   1.502   2.199
 5982SOL     OW18844   6.686   2.098   6.551
 5982SOL    HW118845   6.654   2.126   6.642
 5982SOL    HW218846   6.692   2.178   6.492
 5983SOL     OW18847   1.710   2.447   4.246
 5983SOL    HW118848   1.622   2.487   4.220
 5983SOL    HW218849   1.716   2.354   4.210
 5984SOL     OW18850   6.525   6.044   4.408
 5984SOL    HW118851   6.444   6.035   4.466
 5984SOL    HW218852   6.557   6.139   4.410
 5985SOL     OW18853   5.361   2.156   3.467
 5985SOL    HW118854   5.354   2.125   3.562
 5985SOL    HW218855   5.457   2.173   3.445
 5986SOL     OW18856   3.237   2.976   3.243
 5986SOL    HW118857   3.266   3.013   3.331
 5986SOL    HW218858   3.315   2.937   3.195
 5987SOL     OW18859   4.352   0.449   5.292
 5987SOL    HW118860   4.434   0.424   5.342
 5987SOL    HW218861   4.288   0.372   5.292
 5988SOL     OW18862   4.462   6.956   4.676
 5988SOL    HW118863   4.383   6.972   4.736
 5988SOL    HW218864   4.517   6.881   4.712
 5989SOL     OW18865   2.222   0.062   6.255
 5989SOL    HW118866   2.196   7.017   6.322
 5989SOL    HW218867   2.316   0.090   6.271
 5990SOL     OW18868   3.506   4.398   0.693
 5990SOL    HW118869   3.431   4.463   0.681
 5990SOL    HW218870   3.546   4.377   0.603
 5991SOL     OW18871   3.709   5.232   5.107
 5991SOL    HW118872   3.651   5.208   5.185
 5991SOL    HW218873   3.688   5.172   5.030
 5992SOL     OW18874   3.745   0.908   3.864
 5992SOL    HW118875   3.700   0.962   3.935
 5992SOL    HW218876   3.764   0.816   3.898
 5993SOL     OW18877   2.791   6.376   5.496
 5993SOL    HW118878   2.762   6.296   5.444
 5993SOL    HW218879   2.768   6.459   5.445
 5994SOL     OW18880   6.111   2.133   1.988
 5994SOL    HW118881   6.192   2.178   2.026
 5994SOL    HW218882   6.131   2.036   1.974
 5995SOL     OW18883   6.596   5.443   1.641
 5995SOL    HW118884   6.566   5.348   1.644
 5995SOL    HW218885   6.546   5.497   1.708
 5996SOL     OW18886   0.064   5.946   0.053
 5996SOL    HW118887   0.001   5.882   0.008
 5996SOL    HW218888   0.055   6.036   0.012
 5997SOL     OW18889   0.337   0.030   1.688
 5997SOL    HW118890   0.336   0.018   1.788
 5997SOL    HW218891   0.254   0.076   1.659
 5998SOL     OW18892   5.482   2.086   2.483
 5998SOL    HW118893   5.480   2.155   2.555
 5998SOL    HW218894   5.523   2.125   2.400
 5999SOL     OW18895   1.368   1.478   3.459
 5999SOL    HW118896   1.348   1.575   3.444
 5999SOL    HW218897   1.338   1.452   3.551
 6000SOL     OW18898   4.065   4.798   2.323
 6000SOL    HW118899   3.970   4.827   2.307
 6000SOL    HW218900   4.099   4.752   2.242
 6001SOL     OW18901   0.102   2.976   7.004
 6001SOL    HW118902   0.182   2.932   6.963
 6001SOL    HW218903   0.050   3.023   6.933
 6002SOL     OW18904   1.274   0.262   1.371
 6002SOL    HW118905   1.354   0.258   1.310
 6002SOL    HW218906   1.207   0.325   1.333
 6003SOL     OW18907   5.460   3.903   4.556
 6003SOL    HW118908   5.545   3.921   4.604
 6003SOL    HW218909   5.451   3.805   4.538
 6004SOL     OW18910   0.592   3.310   2.947
 6004SOL    HW118911   0.536   3.282   3.026
 6004SOL    HW218912   0.551   3.391   2.904
 6005SOL     OW18913   3.626   5.433   4.322
 6005SOL    HW118914   3.586   5.422   4.413
 6005SOL    HW218915   3.722   5.404   4.324
 6006SOL     OW18916   2.912   6.820   6.589
 6006SOL    HW118917   2.879   6.750   6.653
 6006SOL    HW218918   2.881   6.798   6.497
 6007SOL     OW18919   5.347   2.553   3.531
 6007SOL    HW118920   5.442   2.524   3.518
 6007SOL    HW218921   5.299   2.548   3.443
 6008SOL     OW18922   3.068   5.365   6.144
 6008SOL    HW118923   3.150   5.422   6.145
 6008SOL    HW218924   3.067   5.309   6.061
 6009SOL     OW18925   2.517   1.859   4.426
 6009SOL    HW118926   2.570   1.935   4.465
 6009SOL    HW218927   2.501   1.877   4.329
 6010SOL     OW18928   2.077   4.123   2.440
 6010SOL    HW118929   1.983   4.095   2.425
 6010SOL    HW218930   2.125   4.054   2.493
 6011SOL     OW18931   5.470   2.944   2.104
 6011SOL    HW118932   5.513   2.860   2.140
 6011SOL    HW218933   5.528   2.983   2.033
 6012SOL     OW18934   6.942   2.324   6.657
 6012SOL    HW118935   6.933   2.237   6.706
 6012SOL    HW218936   6.852   2.366   6.648
 6013SOL     OW18937   6.595   1.117   2.156
 6013SOL    HW118938   6.690   1.119   2.189
 6013SOL    HW218939   6.550   1.203   2.181
 6014SOL     OW18940   6.296   1.447   0.857
 6014SOL    HW118941   6.357   1.382   0.812
 6014SOL    HW218942   6.350   1.527   0.885
 6015SOL     OW18943   5.789   2.245   4.478
 6015SOL    HW118944   5.838   2.176   4.531
 6015SOL    HW218945   5.830   2.335   4.495
 6016SOL     OW18946   0.668   0.546   5.306
 6016SOL    HW118947   0.610   0.621   5.338
 6016SOL    HW218948   0.764   0.567   5.325
 6017SOL     OW18949   5.887   5.027   3.588
 6017SOL    HW118950   5.842   4.951   3.634
 6017SOL    HW218951   5.928   5.088   3.657
 6018SOL     OW18952   3.168   3.087   0.401
 6018SOL    HW118953   3.177   3.121   0.308
 6018SOL    HW218954   3.154   2.988   0.400
 6019SOL     OW18955   4.597   1.321   3.823
 6019SOL    HW118956   4.584   1.297   3.919
 6019SOL    HW218957   4.694   1.342   3.807
 6020SOL     OW18958   3.360   0.414   2.497
 6020SOL    HW118959   3.327   0.339   2.554
 6020SOL    HW218960   3.322   0.500   2.531
 6021SOL     OW18961   4.692   0.966   2.796
 6021SOL    HW118962   4.763   0.985   2.863
 6021SOL    HW218963   4.607   0.943   2.843
 6022SOL     OW18964   4.820   1.283   3.262
 6022SOL    HW118965   4.895   1.218   3.277
 6022SOL    HW218966   4.843   1.343   3.185
 6023SOL     OW18967   0.029   1.066   3.141
 6023SOL    HW118968   6.972   1.067   3.085
 6023SOL    HW218969   0.106   1.097   3.087
 6024SOL     OW18970   0.549   4.845   2.020
 6024SOL    HW118971   0.600   4.861   2.105
 6024SOL    HW218972   0.568   4.919   1.956
 6025SOL     OW18973   4.608   1.195   2.204
 6025SOL    HW118974   4.682   1.213   2.139
 6025SOL    HW218975   4.621   1.104   2.245
 6026SOL     OW18976   6.999   4.894   5.093
 6026SOL    HW118977   6.985   4.981   5.046
 6026SOL    HW218978   0.042   4.841   5.044
 6027SOL     OW18979   2.278   3.606   6.221
 6027SOL    HW118980   2.329   3.632   6.303
 6027SOL    HW218981   2.341   3.568   6.153
 6028SOL     OW18982   1.774   4.523   0.456
 6028SOL    HW118983   1.737   4.461   0.386
 6028SOL    HW218984   1.700   4.578   0.494
 6029SOL     OW18985   1.677   6.162   0.527
 6029SOL    HW118986   1.623   6.134   0.448
 6029SOL    HW218987   1.699   6.259   0.521
 6030SOL     OW18988   2.246   0.967   2.036
 6030SOL    HW118989   2.308   0.889   2.047
 6030SOL    HW218990   2.292   1.039   1.984
 6031SOL     OW18991   5.032   6.623   6.133
 6031SOL    HW118992   5.077   6.554   6.076
 6031SOL    HW218993   4.976   6.682   6.075
 6032SOL     OW18994   1.632   3.928   2.499
 6032SOL    HW118995   1.617   3.966   2.408
 6032SOL    HW218996   1.627   4.002   2.567
 6033SOL     OW18997   2.034   2.031   3.351
 6033SOL    HW118998   2.000   2.080   3.271
 6033SOL    HW218999   1.957   1.994   3.403
 6034SOL     OW19000   2.381   4.483   4.655
 6034SOL    HW119001   2.383   4.572   4.701
 6034SOL    HW219002   2.367   4.411   4.723
 6035SOL     OW19003   4.773   0.702   4.223
 6035SOL    HW119004   4.755   0.652   4.139
 6035SOL    HW219005   4.711   0.671   4.295
 6036SOL     OW19006   7.011   0.143   5.020
 6036SOL    HW119007   0.051   0.076   4.986
 6036SOL    HW219008   0.015   0.235   4.993
 6037SOL     OW19009   4.651   4.812   5.810
 6037SOL    HW119010   4.576   4.791   5.873
 6037SOL    HW219011   4.697   4.895   5.841
 6038SOL     OW19012   6.965   3.453   6.040
 6038SOL    HW119013   6.979   3.540   5.993
 6038SOL    HW219014   6.889   3.461   6.104
 6039SOL     OW19015   3.413   3.520   2.339
 6039SOL    HW119016   3.365   3.590   2.287
 6039SOL    HW219017   3.496   3.559   2.380
 6040SOL     OW19018   0.790   1.672   6.192
 6040SOL    HW119019   0.867   1.649   6.133
 6040SOL    HW219020   0.705   1.641   6.150
 6041SOL     OW19021   0.928   1.685   0.101
 6041SOL    HW119022   0.986   1.726   0.031
 6041SOL    HW219023   0.955   1.719   0.191
 6042SOL     OW19024   5.438   4.944   2.252
 6042SOL    HW119025   5.422   4.850   2.282
 6042SOL    HW219026   5.487   4.944   2.165
 6043SOL     OW19027   1.408   5.020   4.543
 6043SOL    HW119028   1.498   5.052   4.512
 6043SOL    HW219029   1.370   5.086   4.608
 6044SOL     OW19030   0.453   1.296   1.096
 6044SOL    HW119031   0.484   1.206   1.125
 6044SOL    HW219032   0.420   1.347   1.176
 6045SOL     OW19033   5.541   5.353   0.862
 6045SOL    HW119034   5.507   5.317   0.776
 6045SOL    HW219035   5.617   5.298   0.894
 6046SOL     OW19036   2.590   2.177   0.166
 6046SOL    HW119037   2.686   2.150   0.152
 6046SOL    HW219038   2.553   2.215   0.081
 6047SOL     OW19039   6.044   0.533   4.149
 6047SOL    HW119040   5.958   0.571   4.116
 6047SOL    HW219041   6.073   0.582   4.232
 6048SOL     OW19042   3.873   0.565   3.743
 6048SOL    HW119043   3.961   0.568   3.792
 6048SOL    HW219044   3.887   0.527   3.652
 6049SOL     OW19045   4.575   3.934   6.298
 6049SOL    HW119046   4.562   3.837   6.278
 6049SOL    HW219047   4.629   3.944   6.382
 6050SOL     OW19048   3.776   4.509   5.819
 6050SOL    HW119049   3.776   4.418   5.778
 6050SOL    HW219050   3.866   4.529   5.858
 6051SOL     OW19051   2.441   2.538   2.307
 6051SOL    HW119052   2.380   2.463   2.334
 6051SOL    HW219053   2.388   2.608   2.258
 6052SOL     OW19054   6.993   1.353   0.098
 6052SOL    HW119055   0.037   1.285   0.117
 6052SOL    HW219056   7.021   1.410   0.021
 6053SOL     OW19057   3.423   0.583   6.779
 6053SOL    HW119058   3.462   0.637   6.854
 6053SOL    HW219059   3.463   0.612   6.692
 6054SOL     OW19060   1.563   4.922   0.821
 6054SOL    HW119061   1.585   4.991   0.890
 6054SOL    HW219062   1.617   4.937   0.739
 6055SOL     OW19063   4.905   1.089   5.436
 6055SOL    HW119064   4.870   1.082   5.529
 6055SOL    HW219065   4.861   1.019   5.379
 6056SOL     OW19066   4.183   1.286   6.153
 6056SOL    HW119067   4.165   1.192   6.123
 6056SOL    HW219068   4.280   1.307   6.139
 6057SOL     OW19069   3.982   1.416   5.383
 6057SOL    HW119070   3.986   1.316   5.379
 6057SOL    HW219071   3.913   1.445   5.449
 6058SOL     OW19072   5.234   3.079   4.430
 6058SOL    HW119073   5.142   3.116   4.417
 6058SOL    HW219074   5.281   3.132   4.500
 6059SOL     OW19075   4.697   4.861   6.155
 6059SOL    HW119076   4.740   4.909   6.078
 6059SOL    HW219077   4.757   4.865   6.235
 6060SOL     OW19078   4.051   4.655   5.700
 6060SOL    HW119079   3.963   4.697   5.681
 6060SOL    HW219080   4.124   4.722   5.686
 6061SOL     OW19081   3.323   2.025   6.750
 6061SOL    HW119082   3.381   2.073   6.816
 6061SOL    HW219083   3.247   2.084   6.724
 6062SOL     OW19084   1.854   1.188   4.939
 6062SOL    HW119085   1.864   1.119   4.868
 6062SOL    HW219086   1.930   1.253   4.935
 6063SOL     OW19087   4.201   0.485   6.479
 6063SOL    HW119088   4.276   0.545   6.453
 6063SOL    HW219089   4.138   0.534   6.539
 6064SOL     OW19090   1.419   5.916   3.081
 6064SOL    HW119091   1.398   5.944   2.987
 6064SOL    HW219092   1.352   5.849   3.112
 6065SOL     OW19093   5.988   0.169   1.173
 6065SOL    HW119094   6.053   0.242   1.154
 6065SOL    HW219095   6.032   0.099   1.229
 6066SOL     OW19096   4.504   1.923   1.289
 6066SOL    HW119097   4.443   2.003   1.296
 6066SOL    HW219098   4.464   1.857   1.225
 6067SOL     OW19099   6.487   1.490   5.838
 6067SOL    HW119100   6.551   1.545   5.892
 6067SOL    HW219101   6.412   1.460   5.896
 6068SOL     OW19102   4.906   3.100   4.968
 6068SOL    HW119103   4.953   3.188   4.963
 6068SOL    HW219104   4.936   3.051   5.050
 6069SOL     OW19105   0.134   4.147   5.474
 6069SOL    HW119106   0.116   4.089   5.553
 6069SOL    HW219107   0.099   4.104   5.391
 6070SOL     OW19108   4.335   2.162   6.416
 6070SOL    HW119109   4.242   2.133   6.442
 6070SOL    HW219110   4.340   2.173   6.317
 6071SOL     OW19111   4.228   5.894   5.637
 6071SOL    HW119112   4.154   5.954   5.664
 6071SOL    HW219113   4.190   5.806   5.606
 6072SOL     OW19114   1.402   2.316   1.636
 6072SOL    HW119115   1.384   2.348   1.543
 6072SOL    HW219116   1.492   2.349   1.665
 6073SOL     OW19117   6.412   3.228   0.240
 6073SOL    HW119118   6.372   3.243   0.150
 6073SOL    HW219119   6.493   3.171   0.232
 6074SOL     OW19120   0.903   6.438   4.118
 6074SOL    HW119121   0.931   6.491   4.037
 6074SOL    HW219122   0.825   6.484   4.162
 6075SOL     OW19123   6.392   3.410   6.943
 6075SOL    HW119124   6.335   3.328   6.957
 6075SOL    HW219125   6.410   3.453   0.005
 6076SOL     OW19126   2.029   6.703   4.396
 6076SOL    HW119127   2.025   6.616   4.347
 6076SOL    HW219128   2.099   6.762   4.354
 6077SOL     OW19129   5.862   5.761   2.463
 6077SOL    HW119130   5.826   5.796   2.550
 6077SOL    HW219131   5.943   5.813   2.436
 6078SOL     OW19132   3.060   5.100   3.727
 6078SOL    HW119133   3.138   5.083   3.788
 6078SOL    HW219134   3.049   5.198   3.713
 6079SOL     OW19135   2.494   3.044   0.048
 6079SOL    HW119136   2.400   3.032   0.081
 6079SOL    HW219137   2.525   2.959   0.004
 6080SOL     OW19138   6.194   2.042   1.342
 6080SOL    HW119139   6.286   2.010   1.321
 6080SOL    HW219140   6.135   1.963   1.359
 6081SOL     OW19141   6.337   3.305   3.964
 6081SOL    HW119142   6.298   3.301   3.872
 6081SOL    HW219143   6.267   3.333   4.029
 6082SOL     OW19144   4.150   0.651   2.703
 6082SOL    HW119145   4.064   0.692   2.673
 6082SOL    HW219146   4.130   0.575   2.766
 6083SOL     OW19147   1.101   5.664   6.614
 6083SOL    HW119148   1.149   5.749   6.638
 6083SOL    HW219149   1.166   5.588   6.612
 6084SOL     OW19150   6.249   5.381   4.903
 6084SOL    HW119151   6.184   5.374   4.827
 6084SOL    HW219152   6.276   5.289   4.932
 6085SOL     OW19153   6.754   3.466   0.054
 6085SOL    HW119154   6.849   3.497   0.050
 6085SOL    HW219155   6.733   3.412   6.998
 6086SOL     OW19156   4.233   1.266   4.319
 6086SOL    HW119157   4.214   1.362   4.300
 6086SOL    HW219158   4.293   1.258   4.398
 6087SOL     OW19159   5.449   0.173   6.893
 6087SOL    HW119160   5.489   0.172   6.984
 6087SOL    HW219161   5.350   0.161   6.900
 6088SOL     OW19162   0.667   6.736   5.076
 6088SOL    HW119163   0.622   6.824   5.066
 6088SOL    HW219164   0.624   6.684   5.150
 6089SOL     OW19165   0.746   3.694   0.969
 6089SOL    HW119166   0.712   3.721   1.060
 6089SOL    HW219167   0.838   3.657   0.977
 6090SOL     OW19168   0.637   5.906   6.053
 6090SOL    HW119169   0.727   5.864   6.042
 6090SOL    HW219170   0.568   5.848   6.010
 6091SOL     OW19171   6.812   1.683   2.008
 6091SOL    HW119172   6.876   1.698   2.082
 6091SOL    HW219173   6.740   1.752   2.011
 6092SOL     OW19174   2.572   1.019   2.319
 6092SOL    HW119175   2.478   1.000   2.346
 6092SOL    HW219176   2.617   0.934   2.291
 6093SOL     OW19177   1.909   3.305   1.181
 6093SOL    HW119178   2.002   3.302   1.146
 6093SOL    HW219179   1.906   3.264   1.271
 6094SOL     OW19180   1.762   1.436   1.210
 6094SOL    HW119181   1.730   1.530   1.195
 6094SOL    HW219182   1.684   1.374   1.205
 6095SOL     OW19183   5.700   3.084   6.858
 6095SOL    HW119184   5.718   3.003   6.802
 6095SOL    HW219185   5.692   3.057   6.954
 6096SOL     OW19186   4.783   1.378   4.233
 6096SOL    HW119187   4.854   1.321   4.276
 6096SOL    HW219188   4.720   1.319   4.182
 6097SOL     OW19189   2.484   0.764   2.462
 6097SOL    HW119190   2.425   0.840   2.489
 6097SOL    HW219191   2.428   0.681   2.450
 6098SOL     OW19192   2.318   2.565   5.973
 6098SOL    HW119193   2.229   2.543   6.012
 6098SOL    HW219194   2.314   2.654   5.926
 6099SOL     OW19195   5.871   5.905   5.409
 6099SOL    HW119196   5.825   5.980   5.361
 6099SOL    HW219197   5.928   5.854   5.344
 6100SOL     OW19198   6.610   3.012   6.903
 6100SOL    HW119199   6.618   3.017   7.003
 6100SOL    HW219200   6.520   3.045   6.876
 6101SOL     OW19201   6.959   2.226   5.451
 6101SOL    HW119202   6.869   2.216   5.409
 6101SOL    HW219203   6.974   2.151   5.515
 6102SOL     OW19204   3.048   0.732   5.022
 6102SOL    HW119205   3.124   0.685   4.978
 6102SOL    HW219206   2.977   0.666   5.046
 6103SOL     OW19207   0.209   0.644   3.905
 6103SOL    HW119208   0.213   0.744   3.907
 6103SOL    HW219209   0.250   0.607   3.989
 6104SOL     OW19210   5.781   1.982   6.915
 6104SOL    HW119211   5.873   2.000   6.950
 6104SOL    HW219212   5.776   1.887   6.882
 6105SOL     OW19213   3.698   5.883   6.318
 6105SOL    HW119214   3.718   5.971   6.275
 6105SOL    HW219215   3.757   5.871   6.397
 6106SOL     OW19216   3.112   5.238   6.822
 6106SOL    HW119217   3.051   5.257   6.899
 6106SOL    HW219218   3.111   5.316   6.759
 6107SOL     OW19219   1.990   4.835   4.795
 6107SOL    HW119220   1.977   4.744   4.832
 6107SOL    HW219221   2.077   4.839   4.746
 6108SOL     OW19222   0.875   2.406   4.136
 6108SOL    HW119223   0.822   2.326   4.112
 6108SOL    HW219224   0.947   2.381   4.201
 6109SOL     OW19225   5.612   2.788   0.485
 6109SOL    HW119226   5.635   2.691   0.476
 6109SOL    HW219227   5.532   2.798   0.545
 6110SOL     OW19228   3.087   1.886   5.750
 6110SOL    HW119229   3.023   1.815   5.721
 6110SOL    HW219230   3.081   1.898   5.849
 6111SOL     OW19231   0.999   4.636   3.011
 6111SOL    HW119232   1.063   4.666   3.082
 6111SOL    HW219233   0.931   4.575   3.051
 6112SOL     OW19234   1.733   1.655   3.134
 6112SOL    HW119235   1.683   1.704   3.063
 6112SOL    HW219236   1.831   1.653   3.110
 6113SOL     OW19237   1.442   0.894   6.165
 6113SOL    HW119238   1.423   0.934   6.255
 6113SOL    HW219239   1.370   0.922   6.101
 6114SOL     OW19240   5.256   5.596   0.407
 6114SOL    HW119241   5.316   5.649   0.467
 6114SOL    HW219242   5.216   5.520   0.459
 6115SOL     OW19243   4.851   5.131   2.806
 6115SOL    HW119244   4.826   5.044   2.848
 6115SOL    HW219245   4.773   5.193   2.808
 6116SOL     OW19246   3.172   1.061   1.589
 6116SOL    HW119247   3.078   1.075   1.557
 6116SOL    HW219248   3.234   1.059   1.511
 6117SOL     OW19249   6.074   6.881   4.255
 6117SOL    HW119250   6.155   6.931   4.225
 6117SOL    HW219251   6.018   6.857   4.176
 6118SOL     OW19252   6.382   1.531   3.152
 6118SOL    HW119253   6.343   1.441   3.176
 6118SOL    HW219254   6.424   1.525   3.061
 6119SOL     OW19255   0.265   5.366   4.819
 6119SOL    HW119256   0.225   5.377   4.910
 6119SOL    HW219257   0.192   5.362   4.751
 6120SOL     OW19258   3.540   0.236   3.534
 6120SOL    HW119259   3.472   0.207   3.602
 6120SOL    HW219260   3.544   0.336   3.533
 6121SOL     OW19261   0.460   2.670   3.302
 6121SOL    HW119262   0.399   2.680   3.224
 6121SOL    HW219263   0.407   2.675   3.387
 6122SOL     OW19264   3.946   5.844   3.310
 6122SOL    HW119265   3.852   5.829   3.341
 6122SOL    HW219266   3.963   5.943   3.301
 6123SOL     OW19267   6.980   0.990   1.491
 6123SOL    HW119268   6.907   0.963   1.428
 6123SOL    HW219269   0.038   1.008   1.439
 6124SOL     OW19270   3.398   0.283   5.406
 6124SOL    HW119271   3.421   0.263   5.311
 6124SOL    HW219272   3.480   0.310   5.456
 6125SOL     OW19273   1.803   5.977   1.836
 6125SOL    HW119274   1.815   5.945   1.930
 6125SOL    HW219275   1.852   5.916   1.774
 6126SOL     OW19276   4.745   4.848   3.434
 6126SOL    HW119277   4.742   4.813   3.528
 6126SOL    HW219278   4.814   4.797   3.382
 6127SOL     OW19279   2.201   6.334   1.000
 6127SOL    HW119280   2.216   6.284   1.085
 6127SOL    HW219281   2.191   6.432   1.019
 6128SOL     OW19282   0.517   2.780   0.712
 6128SOL    HW119283   0.457   2.841   0.662
 6128SOL    HW219284   0.611   2.790   0.679
 6129SOL     OW19285   6.156   3.635   2.730
 6129SOL    HW119286   6.181   3.575   2.806
 6129SOL    HW219287   6.067   3.678   2.750
 6130SOL     OW19288   5.353   2.842   3.579
 6130SOL    HW119289   5.366   2.901   3.499
 6130SOL    HW219290   5.369   2.747   3.552
 6131SOL     OW19291   6.920   1.249   6.121
 6131SOL    HW119292   6.882   1.327   6.170
 6131SOL    HW219293   6.911   1.263   6.022
 6132SOL     OW19294   3.782   2.535   0.263
 6132SOL    HW119295   3.838   2.567   0.187
 6132SOL    HW219296   3.759   2.613   0.322
 6133SOL     OW19297   0.648   3.572   1.459
 6133SOL    HW119298   0.606   3.600   1.373
 6133SOL    HW219299   0.597   3.611   1.535
 6134SOL     OW19300   3.301   3.640   6.559
 6134SOL    HW119301   3.312   3.729   6.602
 6134SOL    HW219302   3.204   3.621   6.545
 6135SOL     OW19303   6.355   6.856   1.090
 6135SOL    HW119304   6.409   6.931   1.050
 6135SOL    HW219305   6.346   6.783   1.023
 6136SOL     OW19306   1.232   1.881   2.527
 6136SOL    HW119307   1.270   1.950   2.466
 6136SOL    HW219308   1.280   1.794   2.512
 6137SOL     OW19309   3.318   6.599   5.852
 6137SOL    HW119310   3.313   6.518   5.911
 6137SOL    HW219311   3.412   6.613   5.823
 6138SOL     OW19312   3.754   6.869   2.409
 6138SOL    HW119313   3.849   6.899   2.409
 6138SOL    HW219314   3.750   6.769   2.398
 6139SOL     OW19315   1.574   4.354   4.982
 6139SOL    HW119316   1.536   4.274   5.028
 6139SOL    HW219317   1.669   4.335   4.956
 6140SOL     OW19318   0.955   0.406   1.962
 6140SOL    HW119319   0.949   0.477   2.032
 6140SOL    HW219320   1.013   0.437   1.886
 6141SOL     OW19321   6.966   5.428   5.808
 6141SOL    HW119322   6.926   5.390   5.892
 6141SOL    HW219323   0.040   5.417   5.812
 6142SOL     OW19324   6.847   3.843   0.624
 6142SOL    HW119325   6.853   3.766   0.560
 6142SOL    HW219326   6.758   3.842   0.670
 6143SOL     OW19327   6.085   5.267   6.346
 6143SOL    HW119328   6.030   5.344   6.377
 6143SOL    HW219329   6.044   5.227   6.264
 6144SOL     OW19330   0.074   4.205   3.337
 6144SOL    HW119331   0.171   4.196   3.315
 6144SOL    HW219332   0.032   4.114   3.338
 6145SOL     OW19333   5.175   5.378   3.038
 6145SOL    HW119334   5.078   5.378   3.061
 6145SOL    HW219335   5.186   5.369   2.939
 6146SOL     OW19336   5.146   1.442   3.265
 6146SOL    HW119337   5.231   1.390   3.271
 6146SOL    HW219338   5.150   1.520   3.327
 6147SOL     OW19339   2.149   4.424   2.914
 6147SOL    HW119340   2.200   4.509   2.897
 6147SOL    HW219341   2.172   4.357   2.844
 6148SOL     OW19342   5.835   6.256   4.803
 6148SOL    HW119343   5.864   6.311   4.726
 6148SOL    HW219344   5.891   6.173   4.808
 6149SOL     OW19345   3.183   4.933   3.069
 6149SOL    HW119346   3.246   4.927   3.147
 6149SOL    HW219347   3.089   4.936   3.104
 6150SOL     OW19348   4.549   6.046   6.622
 6150SOL    HW119349   4.512   6.073   6.533
 6150SOL    HW219350   4.626   5.985   6.609
 6151SOL     OW19351   4.639   2.364   5.461
 6151SOL    HW119352   4.556   2.309   5.478
 6151SOL    HW219353   4.614   2.460   5.452
 6152SOL     OW19354   5.588   4.652   6.651
 6152SOL    HW119355   5.637   4.680   6.568
 6152SOL    HW219356   5.553   4.559   6.640
 6153SOL     OW19357   4.670   4.091   1.350
 6153SOL    HW119358   4.639   4.127   1.262
 6153SOL    HW219359   4.683   3.992   1.343
 6154SOL     OW19360   6.062   1.979   2.415
 6154SOL    HW119361   5.965   1.964   2.434
 6154SOL    HW219362   6.116   1.950   2.494
 6155SOL     OW19363   0.414   3.471   4.430
 6155SOL    HW119364   0.328   3.423   4.414
 6155SOL    HW219365   0.491   3.407   4.419
 6156SOL     OW19366   5.613   6.525   3.107
 6156SOL    HW119367   5.592   6.460   3.034
 6156SOL    HW219368   5.562   6.610   3.092
 6157SOL     OW19369   1.818   1.961   3.793
 6157SOL    HW119370   1.831   1.964   3.694
 6157SOL    HW219371   1.877   1.890   3.832
 6158SOL     OW19372   4.497   0.857   6.806
 6158SOL    HW119373   4.510   0.758   6.798
 6158SOL    HW219374   4.421   0.876   6.867
 6159SOL     OW19375   5.105   2.284   0.079
 6159SOL    HW119376   5.163   2.250   0.153
 6159SOL    HW219377   5.132   2.378   0.056
 6160SOL     OW19378   5.610   5.769   0.836
 6160SOL    HW119379   5.601   5.718   0.922
 6160SOL    HW219380   5.619   5.866   0.856
 6161SOL     OW19381   5.918   0.611   5.786
 6161SOL    HW119382   5.864   0.645   5.708
 6161SOL    HW219383   5.863   0.617   5.869
 6162SOL     OW19384   1.029   5.377   4.705
 6162SOL    HW119385   0.961   5.433   4.657
 6162SOL    HW219386   1.073   5.316   4.640
 6163SOL     OW19387   5.920   4.198   0.674
 6163SOL    HW119388   5.990   4.165   0.610
 6163SOL    HW219389   5.856   4.257   0.625
 6164SOL     OW19390   3.025   1.317   1.038
 6164SOL    HW119391   3.067   1.366   0.961
 6164SOL    HW219392   3.080   1.237   1.060
 6165SOL     OW19393   4.309   6.106   0.495
 6165SOL    HW119394   4.385   6.164   0.525
 6165SOL    HW219395   4.223   6.149   0.520
 6166SOL     OW19396   2.866   1.702   5.752
 6166SOL    HW119397   2.782   1.735   5.708
 6166SOL    HW219398   2.858   1.712   5.851
 6167SOL     OW19399   0.491   4.421   2.739
 6167SOL    HW119400   0.420   4.466   2.685
 6167SOL    HW219401   0.450   4.350   2.796
 6168SOL     OW19402   0.240   4.017   1.929
 6168SOL    HW119403   0.299   3.937   1.917
 6168SOL    HW219404   0.288   4.086   1.982
 6169SOL     OW19405   2.246   4.075   2.047
 6169SOL    HW119406   2.313   4.057   1.975
 6169SOL    HW219407   2.214   3.988   2.085
 6170SOL     OW19408   0.120   3.347   5.280
 6170SOL    HW119409   0.165   3.286   5.215
 6170SOL    HW219410   0.023   3.355   5.258
 6171SOL     OW19411   0.482   0.586   0.399
 6171SOL    HW119412   0.451   0.641   0.476
 6171SOL    HW219413   0.523   0.645   0.329
 6172SOL     OW19414   0.678   2.598   2.728
 6172SOL    HW119415   0.705   2.549   2.811
 6172SOL    HW219416   0.732   2.682   2.720
 6173SOL     OW19417   6.539   6.645   2.985
 6173SOL    HW119418   6.440   6.648   2.973
 6173SOL    HW219419   6.581   6.725   2.941
 6174SOL     OW19420   5.563   4.383   2.352
 6174SOL    HW119421   5.640   4.407   2.411
 6174SOL    HW219422   5.498   4.327   2.403
 6175SOL     OW19423   2.635   1.510   5.274
 6175SOL    HW119424   2.608   1.516   5.178
 6175SOL    HW219425   2.734   1.518   5.281
 6176SOL     OW19426   4.266   4.332   5.409
 6176SOL    HW119427   4.230   4.376   5.326
 6176SOL    HW219428   4.340   4.270   5.384
 6177SOL     OW19429   5.453   1.071   1.852
 6177SOL    HW119430   5.463   1.073   1.951
 6177SOL    HW219431   5.356   1.071   1.828
 6178SOL     OW19432   5.377   4.137   2.122
 6178SOL    HW119433   5.476   4.131   2.138
 6178SOL    HW219434   5.330   4.142   2.209
 6179SOL     OW19435   6.577   5.268   2.215
 6179SOL    HW119436   6.618   5.264   2.306
 6179SOL    HW219437   6.640   5.315   2.153
 6180SOL     OW19438   2.723   4.948   0.534
 6180SOL    HW119439   2.715   4.857   0.575
 6180SOL    HW219440   2.820   4.971   0.524
 6181SOL     OW19441   4.785   5.387   6.557
 6181SOL    HW119442   4.686   5.391   6.548
 6181SOL    HW219443   4.826   5.367   6.468
 6182SOL     OW19444   3.169   3.365   0.267
 6182SOL    HW119445   3.259   3.345   0.229
 6182SOL    HW219446   3.101   3.365   0.193
 6183SOL     OW19447   1.065   2.009   1.195
 6183SOL    HW119448   1.149   1.957   1.179
 6183SOL    HW219449   1.041   2.059   1.111
 6184SOL     OW19450   2.853   0.899   6.104
 6184SOL    HW119451   2.931   0.962   6.105
 6184SOL    HW219452   2.868   0.829   6.034
 6185SOL     OW19453   3.524   2.909   5.226
 6185SOL    HW119454   3.500   2.888   5.131
 6185SOL    HW219455   3.440   2.922   5.279
 6186SOL     OW19456   6.174   1.873   1.913
 6186SOL    HW119457   6.184   1.774   1.922
 6186SOL    HW219458   6.207   1.901   1.822
 6187SOL     OW19459   5.119   2.436   5.222
 6187SOL    HW119460   5.204   2.462   5.177
 6187SOL    HW219461   5.043   2.489   5.184
 6188SOL     OW19462   1.796   1.998   4.946
 6188SOL    HW119463   1.771   1.902   4.955
 6188SOL    HW219464   1.826   2.015   4.852
 6189SOL     OW19465   4.787   6.344   2.039
 6189SOL    HW119466   4.774   6.261   1.985
 6189SOL    HW219467   4.700   6.393   2.048
 6190SOL     OW19468   6.428   2.212   5.148
 6190SOL    HW119469   6.483   2.295   5.156
 6190SOL    HW219470   6.480   2.142   5.099
 6191SOL     OW19471   3.014   3.631   6.536
 6191SOL    HW119472   3.029   3.573   6.456
 6191SOL    HW219473   2.994   3.573   6.615
 6192SOL     OW19474   2.654   1.716   0.619
 6192SOL    HW119475   2.714   1.777   0.672
 6192SOL    HW219476   2.689   1.707   0.526
 6193SOL     OW19477   5.129   5.700   0.679
 6193SOL    HW119478   5.153   5.604   0.664
 6193SOL    HW219479   5.041   5.720   0.634
 6194SOL     OW19480   6.752   0.755   6.452
 6194SOL    HW119481   6.809   0.687   6.499
 6194SOL    HW219482   6.811   0.829   6.419
 6195SOL     OW19483   6.497   6.969   5.353
 6195SOL    HW119484   6.492   0.040   5.331
 6195SOL    HW219485   6.426   6.920   5.302
 6196SOL     OW19486   5.275   3.612   2.736
 6196SOL    HW119487   5.298   3.618   2.639
 6196SOL    HW219488   5.326   3.537   2.778
 6197SOL     OW19489   2.716   5.574   2.335
 6197SOL    HW119490   2.753   5.639   2.402
 6197SOL    HW219491   2.616   5.574   2.341
 6198SOL     OW19492   5.834   6.539   6.801
 6198SOL    HW119493   5.911   6.511   6.743
 6198SOL    HW219494   5.831   6.481   6.882
 6199SOL     OW19495   1.113   0.244   0.669
 6199SOL    HW119496   1.209   0.219   0.683
 6199SOL    HW219497   1.054   0.178   0.714
 6200SOL     OW19498   2.368   2.270   2.451
 6200SOL    HW119499   2.349   2.215   2.533
 6200SOL    HW219500   2.465   2.265   2.430
 6201SOL     OW19501   6.712   3.382   3.815
 6201SOL    HW119502   6.650   3.434   3.874
 6201SOL    HW219503   6.802   3.377   3.858
 6202SOL     OW19504   6.378   1.286   2.873
 6202SOL    HW119505   6.359   1.188   2.865
 6202SOL    HW219506   6.319   1.337   2.810
 6203SOL     OW19507   6.747   5.675   1.816
 6203SOL    HW119508   6.662   5.729   1.812
 6203SOL    HW219509   6.810   5.708   1.747
 6204SOL     OW19510   1.565   6.998   5.311
 6204SOL    HW119511   1.471   6.965   5.302
 6204SOL    HW219512   1.564   0.066   5.346
 6205SOL     OW19513   4.934   4.009   2.025
 6205SOL    HW119514   5.019   4.059   2.005
 6205SOL    HW219515   4.925   3.999   2.124
 6206SOL     OW19516   5.226   2.035   4.315
 6206SOL    HW119517   5.218   2.133   4.300
 6206SOL    HW219518   5.238   2.016   4.412
 6207SOL     OW19519   1.874   5.753   4.499
 6207SOL    HW119520   1.784   5.786   4.525
 6207SOL    HW219521   1.876   5.653   4.502
 6208SOL     OW19522   3.500   2.630   5.888
 6208SOL    HW119523   3.562   2.644   5.966
 6208SOL    HW219524   3.532   2.685   5.810
 6209SOL     OW19525   3.823   3.970   1.219
 6209SOL    HW119526   3.725   3.956   1.235
 6209SOL    HW219527   3.866   3.883   1.196
 6210SOL     OW19528   4.871   2.506   3.510
 6210SOL    HW119529   4.780   2.535   3.539
 6210SOL    HW219530   4.885   2.410   3.537
 6211SOL     OW19531   4.746   5.271   4.991
 6211SOL    HW119532   4.750   5.217   4.907
 6211SOL    HW219533   4.782   5.362   4.973
 6212SOL     OW19534   3.919   5.271   6.146
 6212SOL    HW119535   4.016   5.262   6.125
 6212SOL    HW219536   3.877   5.336   6.082
 6213SOL     OW19537   4.450   5.753   0.492
 6213SOL    HW119538   4.397   5.831   0.459
 6213SOL    HW219539   4.510   5.721   0.419
 6214SOL     OW19540   6.233   6.025   5.277
 6214SOL    HW119541   6.192   5.974   5.201
 6214SOL    HW219542   6.257   6.117   5.246
 6215SOL     OW19543   5.062   2.348   6.255
 6215SOL    HW119544   5.126   2.419   6.226
 6215SOL    HW219545   5.055   2.277   6.185
 6216SOL     OW19546   4.772   2.802   3.180
 6216SOL    HW119547   4.717   2.748   3.116
 6216SOL    HW219548   4.840   2.743   3.223
 6217SOL     OW19549   1.020   4.385   2.445
 6217SOL    HW119550   0.992   4.299   2.487
 6217SOL    HW219551   1.082   4.367   2.369
 6218SOL     OW19552   4.848   6.818   0.501
 6218SOL    HW119553   4.752   6.796   0.486
 6218SOL    HW219554   4.901   6.800   0.418
 6219SOL     OW19555   1.374   1.032   5.555
 6219SOL    HW119556   1.304   1.001   5.491
 6219SOL    HW219557   1.335   1.038   5.647
 6220SOL     OW19558   3.983   0.803   1.016
 6220SOL    HW119559   3.931   0.843   0.941
 6220SOL    HW219560   3.980   0.864   1.096
 6221SOL     OW19561   6.282   6.213   6.468
 6221SOL    HW119562   6.243   6.160   6.393
 6221SOL    HW219563   6.208   6.253   6.522
 6222SOL     OW19564   6.480   1.545   2.535
 6222SOL    HW119565   6.506   1.456   2.574
 6222SOL    HW219566   6.473   1.538   2.436
 6223SOL     OW19567   0.668   5.393   3.983
 6223SOL    HW119568   0.692   5.360   4.074
 6223SOL    HW219569   0.568   5.398   3.974
 6224SOL     OW19570   4.342   1.795   6.624
 6224SOL    HW119571   4.279   1.871   6.640
 6224SOL    HW219572   4.429   1.830   6.590
 6225SOL     OW19573   3.773   6.753   6.420
 6225SOL    HW119574   3.870   6.731   6.433
 6225SOL    HW219575   3.732   6.685   6.359
 6226SOL     OW19576   0.968   1.520   4.019
 6226SOL    HW119577   1.063   1.513   4.049
 6226SOL    HW219578   0.942   1.437   3.970
 6227SOL     OW19579   3.177   3.874   5.286
 6227SOL    HW119580   3.163   3.794   5.228
 6227SOL    HW219581   3.121   3.950   5.252
 6228SOL     OW19582   1.899   2.727   4.023
 6228SOL    HW119583   1.820   2.669   4.001
 6228SOL    HW219584   1.982   2.683   3.989
 6229SOL     OW19585   0.455   3.643   4.203
 6229SOL    HW119586   0.450   3.583   4.282
 6229SOL    HW219587   0.505   3.598   4.129
 6230SOL     OW19588   0.468   0.736   1.941
 6230SOL    HW119589   0.441   0.735   1.845
 6230SOL    HW219590   0.409   0.799   1.992
 6231SOL     OW19591   6.654   4.749   0.169
 6231SOL    HW119592   6.745   4.715   0.194
 6231SOL    HW219593   6.637   4.836   0.216
 6232SOL     OW19594   5.404   1.384   6.921
 6232SOL    HW119595   5.416   1.483   6.910
 6232SOL    HW219596   5.413   1.360   7.017
 6233SOL     OW19597   0.225   3.721   1.155
 6233SOL    HW119598   0.205   3.637   1.105
 6233SOL    HW219599   0.230   3.797   1.091
 6234SOL     OW19600   6.568   6.941   4.435
 6234SOL    HW119601   6.495   6.966   4.499
 6234SOL    HW219602   6.644   6.901   4.485
 6235SOL     OW19603   6.784   0.879   2.450
 6235SOL    HW119604   6.832   0.792   2.439
 6235SOL    HW219605   6.687   0.867   2.431
 6236SOL     OW19606   0.538   4.343   0.762
 6236SOL    HW119607   0.609   4.283   0.798
 6236SOL    HW219608   0.504   4.403   0.834
 6237SOL     OW19609   3.509   0.859   1.548
 6237SOL    HW119610   3.415   0.828   1.555
 6237SOL    HW219611   3.569   0.782   1.528
 6238SOL     OW19612   2.280   6.504   4.437
 6238SOL    HW119613   2.189   6.508   4.479
 6238SOL    HW219614   2.348   6.488   4.508
 6239SOL     OW19615   4.821   0.808   3.435
 6239SOL    HW119616   4.834   0.749   3.515
 6239SOL    HW219617   4.783   0.896   3.465
 6240SOL     OW19618   3.866   2.998   4.545
 6240SOL    HW119619   3.821   2.927   4.600
 6240SOL    HW219620   3.870   2.969   4.450
 6241SOL     OW19621   2.957   6.744   3.778
 6241SOL    HW119622   2.940   6.732   3.680
 6241SOL    HW219623   2.879   6.791   3.820
 6242SOL     OW19624   3.353   1.523   3.775
 6242SOL    HW119625   3.424   1.591   3.757
 6242SOL    HW219626   3.295   1.554   3.850
 6243SOL     OW19627   5.374   1.485   5.937
 6243SOL    HW119628   5.365   1.386   5.929
 6243SOL    HW219629   5.451   1.508   5.996
 6244SOL     OW19630   4.476   4.569   2.583
 6244SOL    HW119631   4.429   4.559   2.496
 6244SOL    HW219632   4.574   4.552   2.571
 6245SOL     OW19633   0.650   4.512   2.263
 6245SOL    HW119634   0.656   4.540   2.168
 6245SOL    HW219635   0.679   4.416   2.272
 6246SOL     OW19636   0.607   6.611   4.528
 6246SOL    HW119637   0.631   6.631   4.433
 6246SOL    HW219638   0.597   6.513   4.540
 6247SOL     OW19639   6.721   5.670   3.311
 6247SOL    HW119640   6.691   5.730   3.237
 6247SOL    HW219641   6.806   5.624   3.284
 6248SOL     OW19642   3.423   3.147   6.835
 6248SOL    HW119643   3.332   3.188   6.831
 6248SOL    HW219644   3.419   3.061   6.885
 6249SOL     OW19645   6.382   2.658   0.686
 6249SOL    HW119646   6.411   2.566   0.660
 6249SOL    HW219647   6.411   2.723   0.617
 6250SOL     OW19648   0.169   0.677   0.712
 6250SOL    HW119649   0.090   0.721   0.669
 6250SOL    HW219650   0.142   0.642   0.802
 6251SOL     OW19651   2.997   6.786   4.547
 6251SOL    HW119652   2.989   6.852   4.621
 6251SOL    HW219653   3.017   6.696   4.584
 6252SOL     OW19654   2.666   5.760   7.019
 6252SOL    HW119655   2.585   5.810   0.024
 6252SOL    HW219656   2.648   5.717   6.931
 6253SOL     OW19657   3.162   4.955   4.877
 6253SOL    HW119658   3.105   4.959   4.795
 6253SOL    HW219659   3.125   4.888   4.941
 6254SOL     OW19660   7.008   5.922   0.770
 6254SOL    HW119661   6.989   6.016   0.742
 6254SOL    HW219662   0.040   5.878   0.702
 6255SOL     OW19663   0.233   1.667   1.360
 6255SOL    HW119664   0.295   1.745   1.356
 6255SOL    HW219665   0.193   1.660   1.452
 6256SOL     OW19666   4.542   5.347   2.820
 6256SOL    HW119667   4.524   5.271   2.881
 6256SOL    HW219668   4.605   5.411   2.863
 6257SOL     OW19669   4.288   4.084   1.447
 6257SOL    HW119670   4.245   4.075   1.357
 6257SOL    HW219671   4.219   4.100   1.517
 6258SOL     OW19672   4.905   6.391   5.853
 6258SOL    HW119673   4.824   6.443   5.881
 6258SOL    HW219674   4.928   6.324   5.924
 6259SOL     OW19675   2.142   0.199   5.063
 6259SOL    HW119676   2.127   0.210   4.965
 6259SOL    HW219677   2.187   0.281   5.099
 6260SOL     OW19678   2.032   0.916   0.625
 6260SOL    HW119679   2.084   0.881   0.548
 6260SOL    HW219680   2.086   0.908   0.709
 6261SOL     OW19681   3.790   6.036   1.632
 6261SOL    HW119682   3.727   6.084   1.692
 6261SOL    HW219683   3.750   5.948   1.604
 6262SOL     OW19684   6.800   6.684   2.143
 6262SOL    HW119685   6.705   6.669   2.117
 6262SOL    HW219686   6.838   6.600   2.182
 6263SOL     OW19687   6.613   5.918   5.424
 6263SOL    HW119688   6.592   5.868   5.341
 6263SOL    HW219689   6.576   5.869   5.503
 6264SOL     OW19690   0.998   0.223   1.045
 6264SOL    HW119691   1.071   0.280   1.008
 6264SOL    HW219692   0.934   0.281   1.096
 6265SOL     OW19693   4.800   2.061   0.102
 6265SOL    HW119694   4.722   2.107   0.144
 6265SOL    HW219695   4.791   1.962   0.112
 6266SOL     OW19696   2.784   5.610   3.488
 6266SOL    HW119697   2.693   5.628   3.526
 6266SOL    HW219698   2.849   5.676   3.525
 6267SOL     OW19699   1.136   6.885   4.949
 6267SOL    HW119700   1.171   6.971   4.985
 6267SOL    HW219701   1.087   6.836   5.022
 6268SOL     OW19702   3.281   0.513   1.925
 6268SOL    HW119703   3.346   0.446   1.890
 6268SOL    HW219704   3.238   0.561   1.848
 6269SOL     OW19705   5.780   5.764   1.349
 6269SOL    HW119706   5.791   5.698   1.423
 6269SOL    HW219707   5.747   5.717   1.267
 6270SOL     OW19708   1.548   6.115   0.291
 6270SOL    HW119709   1.450   6.097   0.281
 6270SOL    HW219710   1.590   6.122   0.201
 6271SOL     OW19711   6.050   3.454   6.709
 6271SOL    HW119712   6.014   3.492   6.624
 6271SOL    HW219713   6.001   3.370   6.731
 6272SOL     OW19714   6.420   0.391   0.433
 6272SOL    HW119715   6.346   0.371   0.497
 6272SOL    HW219716   6.437   0.489   0.431
 6273SOL     OW19717   0.119   0.134   1.578
 6273SOL    HW119718   0.042   0.197   1.591
 6273SOL    HW219719   0.085   0.042   1.559
 6274SOL     OW19720   3.835   5.770   5.049
 6274SOL    HW119721   3.821   5.697   5.116
 6274SOL    HW219722   3.776   5.753   4.969
 6275SOL     OW19723   1.691   5.376   6.966
 6275SOL    HW119724   1.654   5.430   0.016
 6275SOL    HW219725   1.687   5.279   6.990
 6276SOL     OW19726   2.144   5.740   2.795
 6276SOL    HW119727   2.154   5.647   2.830
 6276SOL    HW219728   2.113   5.800   2.869
 6277SOL     OW19729   5.610   2.647   1.401
 6277SOL    HW119730   5.585   2.581   1.329
 6277SOL    HW219731   5.574   2.737   1.376
 6278SOL     OW19732   3.074   6.959   6.308
 6278SOL    HW119733   3.151   6.953   6.373
 6278SOL    HW219734   3.000   7.012   6.350
 6279SOL     OW19735   3.082   0.003   1.840
 6279SOL    HW119736   2.990   0.022   1.874
 6279SOL    HW219737   3.094   6.930   1.831
 6280SOL     OW19738   6.746   1.835   6.663
 6280SOL    HW119739   6.753   1.826   6.762
 6280SOL    HW219740   6.726   1.930   6.639
 6281SOL     OW19741   6.178   4.334   5.357
 6281SOL    HW119742   6.142   4.427   5.350
 6281SOL    HW219743   6.102   4.269   5.360
 6282SOL     OW19744   0.520   3.572   5.943
 6282SOL    HW119745   0.599   3.512   5.937
 6282SOL    HW219746   0.446   3.535   5.886
 6283SOL     OW19747   0.905   6.496   5.444
 6283SOL    HW119748   0.920   6.444   5.360
 6283SOL    HW219749   0.898   6.433   5.521
 6284SOL     OW19750   2.133   4.877   6.494
 6284SOL    HW119751   2.085   4.789   6.495
 6284SOL    HW219752   2.115   4.926   6.579
 6285SOL     OW19753   1.091   3.334   3.376
 6285SOL    HW119754   1.056   3.411   3.323
 6285SOL    HW219755   1.178   3.360   3.418
 6286SOL     OW19756   0.627   3.125   5.006
 6286SOL    HW119757   0.603   3.151   4.912
 6286SOL    HW219758   0.635   3.025   5.012
 6287SOL     OW19759   4.537   4.799   5.218
 6287SOL    HW119760   4.513   4.894   5.196
 6287SOL    HW219761   4.596   4.798   5.299
 6288SOL     OW19762   3.778   3.158   6.667
 6288SOL    HW119763   3.765   3.059   6.665
 6288SOL    HW219764   3.876   3.178   6.680
 6289SOL     OW19765   2.680   4.884   5.964
 6289SOL    HW119766   2.764   4.830   5.974
 6289SOL    HW219767   2.616   4.834   5.906
 6290SOL     OW19768   5.263   5.375   5.043
 6290SOL    HW119769   5.329   5.417   4.981
 6290SOL    HW219770   5.227   5.444   5.106
 6291SOL     OW19771   2.997   3.143   2.793
 6291SOL    HW119772   3.017   3.123   2.889
 6291SOL    HW219773   2.987   3.057   2.743
 6292SOL     OW19774   1.875   3.367   4.649
 6292SOL    HW119775   1.864   3.361   4.748
 6292SOL    HW219776   1.885   3.275   4.610
 6293SOL     OW19777   4.336   0.836   6.569
 6293SOL    HW119778   4.382   0.923   6.548
 6293SOL    HW219779   4.371   0.800   6.655
 6294SOL     OW19780   2.296   1.497   3.760
 6294SOL    HW119781   2.305   1.550   3.844
 6294SOL    HW219782   2.359   1.535   3.691
 6295SOL     OW19783   5.612   4.080   5.252
 6295SOL    HW119784   5.558   3.998   5.271
 6295SOL    HW219785   5.625   4.132   5.337
 6296SOL     OW19786   0.500   2.567   6.493
 6296SOL    HW119787   0.429   2.587   6.425
 6296SOL    HW219788   0.542   2.479   6.472
 6297SOL     OW19789   6.063   0.450   3.877
 6297SOL    HW119790   6.096   0.360   3.849
 6297SOL    HW219791   6.094   0.471   3.969
 6298SOL     OW19792   5.932   5.108   0.506
 6298SOL    HW119793   5.862   5.169   0.542
 6298SOL    HW219794   5.901   5.068   0.420
 6299SOL     OW19795   4.963   2.152   3.003
 6299SOL    HW119796   5.045   2.155   2.945
 6299SOL    HW219797   4.885   2.189   2.953
 6300SOL     OW19798   3.135   0.035   5.775
 6300SOL    HW119799   3.175   6.991   5.834
 6300SOL    HW219800   3.204   0.068   5.711
 6301SOL     OW19801   3.347   6.544   0.618
 6301SOL    HW119802   3.339   6.612   0.690
 6301SOL    HW219803   3.350   6.453   0.659
 6302SOL     OW19804   2.580   1.187   5.766
 6302SOL    HW119805   2.504   1.126   5.789
 6302SOL    HW219806   2.662   1.158   5.815
 6303SOL     OW19807   1.268   5.761   5.714
 6303SOL    HW119808   1.260   5.768   5.615
 6303SOL    HW219809   1.241   5.669   5.743
 6304SOL     OW19810   3.962   1.130   3.229
 6304SOL    HW119811   3.899   1.082   3.290
 6304SOL    HW219812   4.002   1.208   3.277
 6305SOL     OW19813   0.351   6.407   6.080
 6305SOL    HW119814   0.372   6.311   6.103
 6305SOL    HW219815   0.388   6.428   5.990
 6306SOL     OW19816   6.932   4.707   3.845
 6306SOL    HW119817   6.967   4.620   3.880
 6306SOL    HW219818   6.943   4.710   3.746
 6307SOL     OW19819   4.027   3.499   3.224
 6307SOL    HW119820   4.051   3.402   3.215
 6307SOL    HW219821   4.063   3.549   3.146
 6308SOL     OW19822   0.568   2.744   6.976
 6308SOL    HW119823   0.511   2.707   0.023
 6308SOL    HW219824   0.548   2.696   6.890
 6309SOL     OW19825   1.914   5.970   4.327
 6309SOL    HW119826   1.927   5.890   4.385
 6309SOL    HW219827   2.001   5.993   4.282
 6310SOL     OW19828   1.857   6.399   3.175
 6310SOL    HW119829   1.951   6.430   3.171
 6310SOL    HW219830   1.795   6.475   3.153
 6311SOL     OW19831   5.143   1.022   6.360
 6311SOL    HW119832   5.174   1.103   6.410
 6311SOL    HW219833   5.059   1.043   6.311
 6312SOL     OW19834   3.147   6.681   6.981
 6312SOL    HW119835   3.142   6.758   0.018
 6312SOL    HW219836   3.169   6.597   0.005
 6313SOL     OW19837   5.811   6.281   3.334
 6313SOL    HW119838   5.724   6.241   3.307
 6313SOL    HW219839   5.811   6.379   3.316
 6314SOL     OW19840   1.963   6.880   1.688
 6314SOL    HW119841   2.043   6.936   1.711
 6314SOL    HW219842   1.890   6.939   1.654
 6315SOL     OW19843   2.303   2.823   4.032
 6315SOL    HW119844   2.280   2.906   3.981
 6315SOL    HW219845   2.295   2.841   4.130
 6316SOL     OW19846   5.721   1.629   4.676
 6316SOL    HW119847   5.721   1.538   4.718
 6316SOL    HW219848   5.640   1.639   4.618
 6317SOL     OW19849   4.914   4.728   1.953
 6317SOL    HW119850   4.869   4.742   1.865
 6317SOL    HW219851   4.999   4.781   1.957
 6318SOL     OW19852   6.284   0.276   5.736
 6318SOL    HW119853   6.285   0.258   5.834
 6318SOL    HW219854   6.195   0.251   5.698
 6319SOL     OW19855   5.663   1.942   4.321
 6319SOL    HW119856   5.598   2.012   4.291
 6319SOL    HW219857   5.676   1.949   4.419
 6320SOL     OW19858   6.627   1.376   4.290
 6320SOL    HW119859   6.630   1.432   4.373
 6320SOL    HW219860   6.559   1.303   4.301
 6321SOL     OW19861   5.668   2.109   0.463
 6321SOL    HW119862   5.681   2.040   0.534
 6321SOL    HW219863   5.609   2.073   0.391
 6322SOL     OW19864   1.587   0.863   1.464
 6322SOL    HW119865   1.600   0.841   1.560
 6322SOL    HW219866   1.662   0.922   1.433
 6323SOL     OW19867   2.918   3.181   1.478
 6323SOL    HW119868   2.838   3.159   1.422
 6323SOL    HW219869   2.959   3.266   1.444
 6324SOL     OW19870   4.607   1.420   0.845
 6324SOL    HW119871   4.534   1.355   0.865
 6324SOL    HW219872   4.682   1.407   0.911
 6325SOL     OW19873   1.833   2.522   3.483
 6325SOL    HW119874   1.796   2.552   3.395
 6325SOL    HW219875   1.928   2.492   3.471
 6326SOL     OW19876   5.348   4.777   6.157
 6326SOL    HW119877   5.429   4.834   6.148
 6326SOL    HW219878   5.360   4.713   6.233
 6327SOL     OW19879   6.942   0.262   3.417
 6327SOL    HW119880   7.015   0.201   3.385
 6327SOL    HW219881   6.953   0.279   3.515
 6328SOL     OW19882   4.293   3.675   5.643
 6328SOL    HW119883   4.376   3.621   5.662
 6328SOL    HW219884   4.230   3.621   5.588
 6329SOL     OW19885   1.705   3.023   5.403
 6329SOL    HW119886   1.776   3.014   5.332
 6329SOL    HW219887   1.746   3.008   5.493
 6330SOL     OW19888   5.482   0.760   3.373
 6330SOL    HW119889   5.474   0.846   3.323
 6330SOL    HW219890   5.502   0.780   3.469
 6331SOL     OW19891   0.089   3.345   2.444
 6331SOL    HW119892   0.126   3.294   2.367
 6331SOL    HW219893   7.016   3.351   2.435
 6332SOL     OW19894   2.695   1.457   0.999
 6332SOL    HW119895   2.781   1.418   0.966
 6332SOL    HW219896   2.660   1.403   1.075
 6333SOL     OW19897   4.600   1.318   0.449
 6333SOL    HW119898   4.564   1.405   0.482
 6333SOL    HW219899   4.578   1.246   0.514
 6334SOL     OW19900   1.996   1.068   1.683
 6334SOL    HW119901   2.002   1.167   1.674
 6334SOL    HW219902   1.924   1.033   1.622
 6335SOL     OW19903   6.247   1.592   0.552
 6335SOL    HW119904   6.150   1.594   0.529
 6335SOL    HW219905   6.261   1.541   0.636
 6336SOL     OW19906   0.855   3.290   6.126
 6336SOL    HW119907   0.825   3.199   6.096
 6336SOL    HW219908   0.952   3.286   6.150
 6337SOL     OW19909   4.670   5.853   5.126
 6337SOL    HW119910   4.719   5.872   5.041
 6337SOL    HW219911   4.588   5.799   5.107
 6338SOL     OW19912   3.031   1.746   4.190
 6338SOL    HW119913   2.951   1.772   4.137
 6338SOL    HW219914   3.012   1.663   4.242
 6339SOL     OW19915   1.424   4.341   3.570
 6339SOL    HW119916   1.397   4.263   3.513
 6339SOL    HW219917   1.352   4.409   3.570
 6340SOL     OW19918   2.189   4.126   1.612
 6340SOL    HW119919   2.235   4.181   1.542
 6340SOL    HW219920   2.148   4.186   1.680
 6341SOL     OW19921   1.223   4.506   3.559
 6341SOL    HW119922   1.197   4.594   3.599
 6341SOL    HW219923   1.147   4.442   3.569
 6342SOL     OW19924   1.907   1.657   2.074
 6342SOL    HW119925   1.940   1.724   2.140
 6342SOL    HW219926   1.878   1.704   1.990
 6343SOL     OW19927   2.243   6.215   1.240
 6343SOL    HW119928   2.182   6.136   1.240
 6343SOL    HW219929   2.268   6.238   1.334
 6344SOL     OW19930   6.841   1.488   3.569
 6344SOL    HW119931   6.873   1.398   3.539
 6344SOL    HW219932   6.847   1.553   3.493
 6345SOL     OW19933   5.846   3.646   1.319
 6345SOL    HW119934   5.774   3.576   1.311
 6345SOL    HW219935   5.823   3.725   1.263
 6346SOL     OW19936   0.156   4.406   5.532
 6346SOL    HW119937   0.058   4.417   5.551
 6346SOL    HW219938   0.170   4.322   5.481
 6347SOL     OW19939   2.252   1.784   2.715
 6347SOL    HW119940   2.199   1.827   2.788
 6347SOL    HW219941   2.276   1.691   2.741
 6348SOL     OW19942   6.945   2.506   5.492
 6348SOL    HW119943   6.964   2.408   5.487
 6348SOL    HW219944   0.002   2.558   5.476
 6349SOL     OW19945   0.007   1.102   6.959
 6349SOL    HW119946   0.087   1.127   7.013
 6349SOL    HW219947   0.023   1.126   6.863
 6350SOL     OW19948   1.530   4.632   1.737
 6350SOL    HW119949   1.533   4.708   1.672
 6350SOL    HW219950   1.584   4.656   1.818
 6351SOL     OW19951   5.590   3.272   2.108
 6351SOL    HW119952   5.530   3.292   2.185
 6351SOL    HW219953   5.538   3.283   2.023
 6352SOL     OW19954   2.421   0.246   4.846
 6352SOL    HW119955   2.445   0.274   4.753
 6352SOL    HW219956   2.322   0.230   4.851
 6353SOL     OW19957   3.253   6.299   6.638
 6353SOL    HW119958   3.225   6.373   6.698
 6353SOL    HW219959   3.237   6.325   6.543
 6354SOL     OW19960   4.497   4.855   2.463
 6354SOL    HW119961   4.461   4.766   2.436
 6354SOL    HW219962   4.485   4.868   2.561
 6355SOL     OW19963   2.895   4.693   0.737
 6355SOL    HW119964   2.953   4.773   0.719
 6355SOL    HW219965   2.902   4.668   0.833
 6356SOL     OW19966   5.853   3.808   6.387
 6356SOL    HW119967   5.817   3.838   6.476
 6356SOL    HW219968   5.900   3.884   6.343
 6357SOL     OW19969   5.252   1.348   1.197
 6357SOL    HW119970   5.249   1.276   1.266
 6357SOL    HW219971   5.276   1.435   1.241
 6358SOL     OW19972   1.440   2.541   6.770
 6358SOL    HW119973   1.480   2.632   6.768
 6358SOL    HW219974   1.422   2.510   6.676
 6359SOL     OW19975   6.013   6.067   0.214
 6359SOL    HW119976   5.972   6.098   0.300
 6359SOL    HW219977   6.003   5.968   0.207
 6360SOL     OW19978   0.935   2.627   2.187
 6360SOL    HW119979   0.897   2.537   2.207
 6360SOL    HW219980   1.035   2.624   2.196
 6361SOL     OW19981   0.493   0.764   0.105
 6361SOL    HW119982   0.562   0.696   0.130
 6361SOL    HW219983   0.402   0.727   0.124
 6362SOL     OW19984   0.935   5.346   0.111
 6362SOL    HW119985   0.961   5.429   0.060
 6362SOL    HW219986   0.858   5.367   0.172
 6363SOL     OW19987   2.791   5.144   3.759
 6363SOL    HW119988   2.886   5.131   3.733
 6363SOL    HW219989   2.761   5.066   3.815
 6364SOL     OW19990   2.457   2.557   4.884
 6364SOL    HW119991   2.358   2.559   4.894
 6364SOL    HW219992   2.482   2.584   4.791
 6365SOL     OW19993   6.141   5.120   3.675
 6365SOL    HW119994   6.095   5.195   3.722
 6365SOL    HW219995   6.178   5.056   3.742
 6366SOL     OW19996   5.804   6.877   4.672
 6366SOL    HW119997   5.713   6.915   4.657
 6366SOL    HW219998   5.869   6.920   4.609
 6367SOL     OW19999   2.481   1.917   2.910
 6367SOL    HW120000   2.415   1.904   2.836
 6367SOL    HW220001   2.436   1.964   2.987
 6368SOL     OW20002   5.221   3.150   4.867
 6368SOL    HW120003   5.214   3.160   4.966
 6368SOL    HW220004   5.212   3.239   4.824
 6369SOL     OW20005   2.837   6.115   6.431
 6369SOL    HW120006   2.807   6.052   6.360
 6369SOL    HW220007   2.828   6.209   6.398
 6370SOL     OW20008   5.419   3.521   3.891
 6370SOL    HW120009   5.426   3.512   3.791
 6370SOL    HW220010   5.323   3.508   3.918
 6371SOL     OW20011   5.499   3.840   1.715
 6371SOL    HW120012   5.575   3.776   1.704
 6371SOL    HW220013   5.416   3.801   1.674
 6372SOL     OW20014   6.843   1.030   2.963
 6372SOL    HW120015   6.765   1.052   2.904
 6372SOL    HW220016   6.820   0.951   3.020
 6373SOL     OW20017   5.436   3.633   1.375
 6373SOL    HW120018   5.430   3.652   1.473
 6373SOL    HW220019   5.455   3.718   1.326
 6374SOL     OW20020   4.826   2.949   0.175
 6374SOL    HW120021   4.728   2.931   0.187
 6374SOL    HW220022   4.849   3.036   0.218
 6375SOL     OW20023   6.650   2.709   1.840
 6375SOL    HW120024   6.662   2.669   1.749
 6375SOL    HW220025   6.694   2.651   1.908
 6376SOL     OW20026   3.296   0.767   6.426
 6376SOL    HW120027   3.257   0.743   6.337
 6376SOL    HW220028   3.382   0.816   6.413
 6377SOL     OW20029   6.889   0.803   0.600
 6377SOL    HW120030   6.843   0.727   0.646
 6377SOL    HW220031   6.858   0.889   0.639
 6378SOL     OW20032   5.640   5.544   3.083
 6378SOL    HW120033   5.598   5.614   3.025
 6378SOL    HW220034   5.572   5.473   3.105
 6379SOL     OW20035   2.937   6.107   0.224
 6379SOL    HW120036   2.988   6.029   0.187
 6379SOL    HW220037   2.993   6.153   0.293
 6380SOL     OW20038   1.404   3.362   5.160
 6380SOL    HW120039   1.339   3.289   5.135
 6380SOL    HW220040   1.438   3.345   5.252
 6381SOL     OW20041   4.548   2.838   0.181
 6381SOL    HW120042   4.520   2.754   0.228
 6381SOL    HW220043   4.497   2.847   0.095
 6382SOL     OW20044   1.969   1.772   1.120
 6382SOL    HW120045   2.025   1.794   1.199
 6382SOL    HW220046   2.006   1.690   1.075
 6383SOL     OW20047   1.880   2.117   2.329
 6383SOL    HW120048   1.800   2.141   2.384
 6383SOL    HW220049   1.879   2.168   2.243
 6384SOL     OW20050   6.419   2.592   2.059
 6384SOL    HW120051   6.405   2.496   2.035
 6384SOL    HW220052   6.407   2.649   1.977
 6385SOL     OW20053   0.221   2.897   1.076
 6385SOL    HW120054   0.188   2.930   1.164
 6385SOL    HW220055   0.160   2.929   1.003
 6386SOL     OW20056   2.292   3.345   0.099
 6386SOL    HW120057   2.382   3.339   0.143
 6386SOL    HW220058   2.300   3.318   0.003
 6387SOL     OW20059   6.741   0.166   6.777
 6387SOL    HW120060   6.696   0.103   6.841
 6387SOL    HW220061   6.781   0.114   6.702
 6388SOL     OW20062   6.202   5.569   2.530
 6388SOL    HW120063   6.178   5.506   2.456
 6388SOL    HW220064   6.150   5.654   2.519
 6389SOL     OW20065   1.246   0.834   6.605
 6389SOL    HW120066   1.218   0.886   6.525
 6389SOL    HW220067   1.340   0.802   6.592
 6390SOL     OW20068   6.777   1.403   6.281
 6390SOL    HW120069   6.737   1.369   6.366
 6390SOL    HW220070   6.807   1.497   6.293
 6391SOL     OW20071   0.984   1.472   5.130
 6391SOL    HW120072   1.044   1.508   5.058
 6391SOL    HW220073   1.040   1.427   5.200
 6392SOL     OW20074   4.298   6.428   3.885
 6392SOL    HW120075   4.395   6.418   3.905
 6392SOL    HW220076   4.257   6.338   3.870
 6393SOL     OW20077   6.953   5.663   1.266
 6393SOL    HW120078   7.017   5.615   1.207
 6393SOL    HW220079   6.873   5.605   1.283
 6394SOL     OW20080   1.323   5.661   1.092
 6394SOL    HW120081   1.409   5.673   1.142
 6394SOL    HW220082   1.334   5.589   1.024
 6395SOL     OW20083   1.891   4.398   3.552
 6395SOL    HW120084   1.818   4.406   3.620
 6395SOL    HW220085   1.973   4.360   3.595
 6396SOL     OW20086   0.619   3.223   0.476
 6396SOL    HW120087   0.681   3.165   0.424
 6396SOL    HW220088   0.528   3.182   0.479
 6397SOL     OW20089   5.972   2.387   3.700
 6397SOL    HW120090   5.964   2.309   3.763
 6397SOL    HW220091   6.060   2.384   3.653
 6398SOL     OW20092   1.457   7.011   0.982
 6398SOL    HW120093   1.554   6.989   0.994
 6398SOL    HW220094   1.406   6.927   0.960
 6399SOL     OW20095   2.532   0.556   6.216
 6399SOL    HW120096   2.452   0.602   6.176
 6399SOL    HW220097   2.531   0.567   6.315
 6400SOL     OW20098   1.230   5.729   3.162
 6400SOL    HW120099   1.240   5.661   3.089
 6400SOL    HW220100   1.233   5.684   3.251
 6401SOL     OW20101   3.719   6.006   3.543
 6401SOL    HW120102   3.684   6.003   3.637
 6401SOL    HW220103   3.699   5.919   3.498
 6402SOL     OW20104   2.121   4.814   5.112
 6402SOL    HW120105   2.115   4.794   5.015
 6402SOL    HW220106   2.125   4.728   5.164
 6403SOL     OW20107   4.784   5.885   4.898
 6403SOL    HW120108   4.750   5.962   4.844
 6403SOL    HW220109   4.836   5.823   4.839
 6404SOL     OW20110   4.094   0.369   2.248
 6404SOL    HW120111   4.112   0.454   2.197
 6404SOL    HW220112   4.006   0.332   2.221
 6405SOL     OW20113   5.430   1.454   2.338
 6405SOL    HW120114   5.336   1.487   2.323
 6405SOL    HW220115   5.484   1.469   2.256
 6406SOL     OW20116   1.056   2.506   2.579
 6406SOL    HW120117   1.033   2.455   2.496
 6406SOL    HW220118   1.057   2.604   2.558
 6407SOL     OW20119   1.897   6.157   2.742
 6407SOL    HW120120   1.900   6.241   2.688
 6407SOL    HW220121   1.864   6.177   2.834
 6408SOL     OW20122   6.568   1.129   0.874
 6408SOL    HW120123   6.627   1.050   0.860
 6408SOL    HW220124   6.607   1.187   0.945
 6409SOL     OW20125   6.594   4.722   3.697
 6409SOL    HW120126   6.610   4.820   3.704
 6409SOL    HW220127   6.665   4.680   3.640
 6410SOL     OW20128   2.979   1.694   5.452
 6410SOL    HW120129   3.009   1.784   5.421
 6410SOL    HW220130   2.977   1.692   5.552
 6411SOL     OW20131   0.502   2.302   2.418
 6411SOL    HW120132   0.589   2.349   2.434
 6411SOL    HW220133   0.427   2.360   2.450
 6412SOL     OW20134   3.046   0.342   0.119
 6412SOL    HW120135   2.960   0.293   0.135
 6412SOL    HW220136   3.034   0.405   0.042
 6413SOL     OW20137   4.775   5.273   3.872
 6413SOL    HW120138   4.682   5.281   3.908
 6413SOL    HW220139   4.777   5.205   3.798
 6414SOL     OW20140   1.321   6.845   0.214
 6414SOL    HW120141   1.268   6.883   0.289
 6414SOL    HW220142   1.277   6.867   0.127
 6415SOL     OW20143   0.995   2.787   2.940
 6415SOL    HW120144   0.985   2.694   2.906
 6415SOL    HW220145   1.082   2.825   2.909
 6416SOL     OW20146   2.662   0.686   0.069
 6416SOL    HW120147   2.635   0.743   7.017
 6416SOL    HW220148   2.657   0.740   0.153
 6417SOL     OW20149   3.961   1.668   0.502
 6417SOL    HW120150   3.940   1.626   0.414
 6417SOL    HW220151   3.876   1.677   0.555
 6418SOL     OW20152   4.528   5.324   1.129
 6418SOL    HW120153   4.621   5.357   1.140
 6418SOL    HW220154   4.463   5.397   1.151
 6419SOL     OW20155   0.709   6.724   6.850
 6419SOL    HW120156   0.744   6.647   6.796
 6419SOL    HW220157   0.768   6.804   6.837
 6420SOL     OW20158   1.946   3.634   4.070
 6420SOL    HW120159   1.951   3.664   3.975
 6420SOL    HW220160   2.038   3.620   4.106
 6421SOL     OW20161   5.006   0.175   1.772
 6421SOL    HW120162   5.015   0.221   1.860
 6421SOL    HW220163   4.968   0.238   1.704
 6422SOL     OW20164   6.175   2.419   4.933
 6422SOL    HW120165   6.081   2.417   4.968
 6422SOL    HW220166   6.189   2.341   4.872
 6423SOL     OW20167   2.426   4.498   4.239
 6423SOL    HW120168   2.450   4.431   4.169
 6423SOL    HW220169   2.431   4.590   4.200
 6424SOL     OW20170   0.011   4.452   4.578
 6424SOL    HW120171   0.088   4.445   4.641
 6424SOL    HW220172   6.986   4.536   4.596
 6425SOL     OW20173   0.290   6.193   3.208
 6425SOL    HW120174   0.297   6.110   3.153
 6425SOL    HW220175   0.287   6.168   3.305
 6426SOL     OW20176   4.358   4.645   4.759
 6426SOL    HW120177   4.353   4.592   4.844
 6426SOL    HW220178   4.431   4.609   4.702
 6427SOL     OW20179   3.072   3.233   3.355
 6427SOL    HW120180   3.018   3.318   3.352
 6427SOL    HW220181   3.030   3.165   3.296
 6428SOL     OW20182   5.195   2.504   0.350
 6428SOL    HW120183   5.141   2.425   0.323
 6428SOL    HW220184   5.289   2.475   0.368
 6429SOL     OW20185   2.149   0.658   5.527
 6429SOL    HW120186   2.223   0.656   5.460
 6429SOL    HW220187   2.095   0.742   5.516
 6430SOL     OW20188   6.360   0.448   4.874
 6430SOL    HW120189   6.275   0.395   4.879
 6430SOL    HW220190   6.437   0.389   4.898
 6431SOL     OW20191   3.989   4.473   1.705
 6431SOL    HW120192   4.023   4.532   1.631
 6431SOL    HW220193   4.066   4.433   1.753
 6432SOL     OW20194   4.519   4.673   6.018
 6432SOL    HW120195   4.545   4.738   6.089
 6432SOL    HW220196   4.589   4.602   6.010
 6433SOL     OW20197   2.182   5.988   6.473
 6433SOL    HW120198   2.206   5.990   6.570
 6433SOL    HW220199   2.094   5.942   6.461
 6434SOL     OW20200   3.301   5.571   5.607
 6434SOL    HW120201   3.320   5.608   5.516
 6434SOL    HW220202   3.276   5.646   5.669
 6435SOL     OW20203   4.950   0.986   1.042
 6435SOL    HW120204   5.042   0.949   1.055
 6435SOL    HW220205   4.892   0.959   1.119
 6436SOL     OW20206   0.325   4.190   4.132
 6436SOL    HW120207   0.288   4.228   4.217
 6436SOL    HW220208   0.318   4.090   4.135
 6437SOL     OW20209   0.464   1.698   5.801
 6437SOL    HW120210   0.478   1.622   5.737
 6437SOL    HW220211   0.518   1.776   5.771
 6438SOL     OW20212   0.541   5.815   0.504
 6438SOL    HW120213   0.524   5.735   0.560
 6438SOL    HW220214   0.496   5.804   0.415
 6439SOL     OW20215   5.182   7.004   3.251
 6439SOL    HW120216   5.170   6.984   3.348
 6439SOL    HW220217   5.099   6.980   3.201
 6440SOL     OW20218   2.328   1.306   6.130
 6440SOL    HW120219   2.329   1.221   6.183
 6440SOL    HW220220   2.276   1.292   6.045
 6441SOL     OW20221   0.700   0.942   2.749
 6441SOL    HW120222   0.629   0.944   2.678
 6441SOL    HW220223   0.669   0.884   2.825
 6442SOL     OW20224   2.921   2.796   5.359
 6442SOL    HW120225   2.919   2.834   5.452
 6442SOL    HW220226   2.840   2.738   5.345
 6443SOL     OW20227   4.714   2.566   1.167
 6443SOL    HW120228   4.662   2.613   1.238
 6443SOL    HW220229   4.700   2.613   1.080
 6444SOL     OW20230   6.833   3.216   4.893
 6444SOL    HW120231   6.768   3.292   4.894
 6444SOL    HW220232   6.885   3.216   4.979
 6445SOL     OW20233   3.214   4.140   3.447
 6445SOL    HW120234   3.302   4.153   3.492
 6445SOL    HW220235   3.226   4.141   3.348
 6446SOL     OW20236   2.493   1.408   6.464
 6446SOL    HW120237   2.398   1.411   6.494
 6446SOL    HW220238   2.500   1.349   6.383
 6447SOL     OW20239   6.472   4.129   0.867
 6447SOL    HW120240   6.388   4.092   0.907
 6447SOL    HW220241   6.452   4.215   0.820
 6448SOL     OW20242   4.308   5.246   1.660
 6448SOL    HW120243   4.402   5.221   1.683
 6448SOL    HW220244   4.273   5.183   1.591
 6449SOL     OW20245   2.672   6.146   1.341
 6449SOL    HW120246   2.624   6.060   1.330
 6449SOL    HW220247   2.612   6.222   1.315
 6450SOL     OW20248   0.237   3.838   0.853
 6450SOL    HW120249   0.330   3.805   0.841
 6450SOL    HW220250   0.175   3.786   0.793
 6451SOL     OW20251   3.605   2.168   1.570
 6451SOL    HW120252   3.548   2.241   1.607
 6451SOL    HW220253   3.547   2.096   1.534
 6452SOL     OW20254   5.221   2.512   3.294
 6452SOL    HW120255   5.126   2.542   3.305
 6452SOL    HW220256   5.226   2.448   3.217
 6453SOL     OW20257   3.535   6.960   0.657
 6453SOL    HW120258   3.537   0.007   0.725
 6453SOL    HW220259   3.566   6.875   0.698
 6454SOL     OW20260   5.615   2.512   2.479
 6454SOL    HW120261   5.681   2.572   2.434
 6454SOL    HW220262   5.663   2.453   2.544
 6455SOL     OW20263   6.523   3.270   3.640
 6455SOL    HW120264   6.588   3.284   3.715
 6455SOL    HW220265   6.572   3.243   3.557
 6456SOL     OW20266   6.095   1.384   3.033
 6456SOL    HW120267   6.035   1.439   3.091
 6456SOL    HW220268   6.142   1.316   3.088
 6457SOL     OW20269   4.682   0.517   2.223
 6457SOL    HW120270   4.632   0.593   2.182
 6457SOL    HW220271   4.620   0.462   2.279
 6458SOL     OW20272   0.846   4.525   3.836
 6458SOL    HW120273   0.770   4.550   3.896
 6458SOL    HW220274   0.925   4.584   3.855
 6459SOL     OW20275   6.489   2.787   2.430
 6459SOL    HW120276   6.533   2.737   2.355
 6459SOL    HW220277   6.401   2.822   2.400
 6460SOL     OW20278   0.321   5.626   6.775
 6460SOL    HW120279   0.388   5.689   6.816
 6460SOL    HW220280   0.229   5.664   6.786
 6461SOL     OW20281   2.774   4.852   1.287
 6461SOL    HW120282   2.868   4.873   1.262
 6461SOL    HW220283   2.748   4.906   1.367
 6462SOL     OW20284   1.444   3.822   5.157
 6462SOL    HW120285   1.387   3.809   5.076
 6462SOL    HW220286   1.523   3.761   5.153
 6463SOL     OW20287   4.243   1.504   1.580
 6463SOL    HW120288   4.206   1.517   1.488
 6463SOL    HW220289   4.200   1.569   1.643
 6464SOL     OW20290   0.821   5.935   4.671
 6464SOL    HW120291   0.783   5.866   4.732
 6464SOL    HW220292   0.824   5.899   4.578
 6465SOL     OW20293   4.449   1.622   3.673
 6465SOL    HW120294   4.499   1.604   3.588
 6465SOL    HW220295   4.513   1.637   3.748
 6466SOL     OW20296   0.559   3.367   6.631
 6466SOL    HW120297   0.634   3.311   6.594
 6466SOL    HW220298   0.474   3.343   6.585
 6467SOL     OW20299   3.135   1.060   0.671
 6467SOL    HW120300   3.208   0.993   0.678
 6467SOL    HW220301   3.170   1.144   0.628
 6468SOL     OW20302   3.007   0.172   0.421
 6468SOL    HW120303   2.985   0.257   0.470
 6468SOL    HW220304   2.958   0.170   0.334
 6469SOL     OW20305   3.819   1.884   3.194
 6469SOL    HW120306   3.823   1.954   3.266
 6469SOL    HW220307   3.911   1.868   3.158
 6470SOL     OW20308   6.444   1.915   6.904
 6470SOL    HW120309   6.357   1.934   6.857
 6470SOL    HW220310   6.466   1.818   6.894
 6471SOL     OW20311   0.032   6.002   5.577
 6471SOL    HW120312   7.019   6.011   5.485
 6471SOL    HW220313   0.125   5.966   5.570
 6472SOL     OW20314   6.841   5.640   2.675
 6472SOL    HW120315   6.806   5.569   2.614
 6472SOL    HW220316   6.795   5.634   2.763
 6473SOL     OW20317   2.374   1.129   4.187
 6473SOL    HW120318   2.369   1.084   4.276
 6473SOL    HW220319   2.404   1.064   4.117
 6474SOL     OW20320   4.116   5.550   5.273
 6474SOL    HW120321   4.130   5.496   5.190
 6474SOL    HW220322   4.139   5.645   5.255
 6475SOL     OW20323   5.597   4.858   2.850
 6475SOL    HW120324   5.626   4.847   2.945
 6475SOL    HW220325   5.668   4.821   2.789
 6476SOL     OW20326   3.684   1.310   6.523
 6476SOL    HW120327   3.593   1.287   6.557
 6476SOL    HW220328   3.681   1.316   6.423
 6477SOL     OW20329   6.699   6.300   1.391
 6477SOL    HW120330   6.786   6.315   1.439
 6477SOL    HW220331   6.717   6.258   1.303
 6478SOL     OW20332   3.545   5.678   2.136
 6478SOL    HW120333   3.528   5.592   2.087
 6478SOL    HW220334   3.629   5.720   2.101
 6479SOL     OW20335   3.221   6.281   3.954
 6479SOL    HW120336   3.142   6.267   3.894
 6479SOL    HW220337   3.190   6.277   4.049
 6480SOL     OW20338   3.243   1.224   0.045
 6480SOL    HW120339   3.280   1.304   7.024
 6480SOL    HW220340   3.172   1.253   0.109
 6481SOL     OW20341   3.345   2.657   1.783
 6481SOL    HW120342   3.326   2.663   1.881
 6481SOL    HW220343   3.278   2.597   1.739
 6482SOL     OW20344   6.709   3.506   5.537
 6482SOL    HW120345   6.676   3.418   5.503
 6482SOL    HW220346   6.741   3.562   5.460
 6483SOL     OW20347   1.021   5.647   5.476
 6483SOL    HW120348   1.106   5.692   5.449
 6483SOL    HW220349   1.028   5.549   5.460
 6484SOL     OW20350   2.545   0.757   4.355
 6484SOL    HW120351   2.494   0.798   4.430
 6484SOL    HW220352   2.622   0.816   4.330
 6485SOL     OW20353   2.455   6.975   4.339
 6485SOL    HW120354   2.516   0.020   4.303
 6485SOL    HW220355   2.508   6.911   4.395
 6486SOL     OW20356   1.609   5.564   3.247
 6486SOL    HW120357   1.538   5.520   3.192
 6486SOL    HW220358   1.647   5.642   3.198
 6487SOL     OW20359   6.925   4.880   4.089
 6487SOL    HW120360   7.022   4.871   4.113
 6487SOL    HW220361   6.910   4.841   3.998
 6488SOL     OW20362   4.382   5.356   4.761
 6488SOL    HW120363   4.362   5.299   4.841
 6488SOL    HW220364   4.318   5.433   4.758
 6489SOL     OW20365   4.049   3.299   5.652
 6489SOL    HW120366   4.115   3.350   5.707
 6489SOL    HW220367   4.074   3.203   5.650
 6490SOL     OW20368   1.829   2.323   6.640
 6490SOL    HW120369   1.757   2.337   6.707
 6490SOL    HW220370   1.877   2.237   6.659
 6491SOL     OW20371   1.963   0.671   0.234
 6491SOL    HW120372   1.994   0.577   0.246
 6491SOL    HW220373   1.863   0.673   0.230
 6492SOL     OW20374   3.543   3.909   4.741
 6492SOL    HW120375   3.641   3.897   4.756
 6492SOL    HW220376   3.506   3.969   4.813
 6493SOL     OW20377   1.241   4.412   5.710
 6493SOL    HW120378   1.158   4.360   5.731
 6493SOL    HW220379   1.316   4.381   5.769
 6494SOL     OW20380   6.242   6.658   2.117
 6494SOL    HW120381   6.146   6.630   2.117
 6494SOL    HW220382   6.276   6.662   2.211
 6495SOL     OW20383   6.609   0.020   3.625
 6495SOL    HW120384   6.675   7.004   3.687
 6495SOL    HW220385   6.637   0.114   3.606
 6496SOL     OW20386   4.659   0.914   1.734
 6496SOL    HW120387   4.748   0.887   1.769
 6496SOL    HW220388   4.656   1.013   1.720
 6497SOL     OW20389   0.172   2.010   0.645
 6497SOL    HW120390   0.144   1.954   0.567
 6497SOL    HW220391   0.150   1.962   0.730
 6498SOL     OW20392   1.084   4.358   4.130
 6498SOL    HW120393   1.029   4.438   4.155
 6498SOL    HW220394   1.057   4.280   4.185
 6499SOL     OW20395   5.558   3.481   3.623
 6499SOL    HW120396   5.529   3.466   3.528
 6499SOL    HW220397   5.650   3.520   3.624
 6500SOL     OW20398   1.548   4.074   2.946
 6500SOL    HW120399   1.547   3.988   2.896
 6500SOL    HW220400   1.583   4.058   3.039
 6501SOL     OW20401   6.420   1.955   1.036
 6501SOL    HW120402   6.406   2.021   1.110
 6501SOL    HW220403   6.511   1.914   1.045
 6502SOL     OW20404   6.242   4.007   0.970
 6502SOL    HW120405   6.198   4.058   1.044
 6502SOL    HW220406   6.180   3.936   0.936
 6503SOL     OW20407   6.634   3.281   5.410
 6503SOL    HW120408   6.619   3.225   5.491
 6503SOL    HW220409   6.564   3.260   5.342
 6504SOL     OW20410   4.323   6.146   6.157
 6504SOL    HW120411   4.341   6.180   6.064
 6504SOL    HW220412   4.250   6.201   6.198
 6505SOL     OW20413   5.698   5.435   7.018
 6505SOL    HW120414   5.734   5.472   0.078
 6505SOL    HW220415   5.608   5.475   6.999
 6506SOL     OW20416   0.013   2.913   2.352
 6506SOL    HW120417   0.080   2.939   2.422
 6506SOL    HW220418   0.021   2.974   2.274
 6507SOL     OW20419   3.789   4.659   6.702
 6507SOL    HW120420   3.769   4.566   6.672
 6507SOL    HW220421   3.735   4.724   6.648
 6508SOL     OW20422   1.201   6.252   2.052
 6508SOL    HW120423   1.251   6.335   2.024
 6508SOL    HW220424   1.171   6.203   1.971
 6509SOL     OW20425   3.699   1.753   5.907
 6509SOL    HW120426   3.639   1.760   5.987
 6509SOL    HW220427   3.647   1.720   5.829
 6510SOL     OW20428   4.677   5.907   5.610
 6510SOL    HW120429   4.650   5.825   5.660
 6510SOL    HW220430   4.766   5.939   5.644
 6511SOL     OW20431   2.916   0.836   0.600
 6511SOL    HW120432   2.977   0.888   0.541
 6511SOL    HW220433   2.912   0.879   0.691
 6512SOL     OW20434   3.386   0.656   1.298
 6512SOL    HW120435   3.314   0.657   1.368
 6512SOL    HW220436   3.345   0.643   1.208
 6513SOL     OW20437   2.472   5.541   3.954
 6513SOL    HW120438   2.534   5.463   3.941
 6513SOL    HW220439   2.461   5.559   4.051
 6514SOL     OW20440   5.744   0.314   5.558
 6514SOL    HW120441   5.680   0.391   5.558
 6514SOL    HW220442   5.707   0.241   5.614
 6515SOL     OW20443   2.221   4.947   2.619
 6515SOL    HW120444   2.168   4.959   2.535
 6515SOL    HW220445   2.177   4.877   2.676
 6516SOL     OW20446   7.021   3.332   0.737
 6516SOL    HW120447   6.953   3.334   0.663
 6516SOL    HW220448   6.982   3.286   0.816
 6517SOL     OW20449   0.206   2.575   6.917
 6517SOL    HW120450   0.169   2.656   6.870
 6517SOL    HW220451   0.134   2.507   6.927
 6518SOL     OW20452   1.444   1.585   2.890
 6518SOL    HW120453   1.413   1.532   2.969
 6518SOL    HW220454   1.511   1.531   2.839
 6519SOL     OW20455   1.407   1.591   3.166
 6519SOL    HW120456   1.449   1.680   3.183
 6519SOL    HW220457   1.432   1.527   3.238
 6520SOL     OW20458   0.366   5.813   0.299
 6520SOL    HW120459   0.339   5.828   0.394
 6520SOL    HW220460   0.312   5.737   0.261
 6521SOL     OW20461   1.021   3.224   4.607
 6521SOL    HW120462   1.090   3.240   4.678
 6521SOL    HW220463   1.065   3.182   4.527
 6522SOL     OW20464   2.581   3.854   5.310
 6522SOL    HW120465   2.508   3.901   5.262
 6522SOL    HW220466   2.664   3.911   5.308
 6523SOL     OW20467   6.290   0.604   6.952
 6523SOL    HW120468   6.270   0.524   7.009
 6523SOL    HW220469   6.231   0.604   6.872
 6524SOL     OW20470   1.913   2.178   1.728
 6524SOL    HW120471   1.961   2.116   1.666
 6524SOL    HW220472   1.823   2.141   1.749
 6525SOL     OW20473   1.139   4.623   3.239
 6525SOL    HW120474   1.063   4.618   3.304
 6525SOL    HW220475   1.210   4.683   3.275
 6526SOL     OW20476   0.059   6.919   0.655
 6526SOL    HW120477   0.125   6.994   0.645
 6526SOL    HW220478   0.057   6.865   0.571
 6527SOL     OW20479   0.694   2.354   0.469
 6527SOL    HW120480   0.595   2.340   0.458
 6527SOL    HW220481   0.719   2.333   0.564
 6528SOL     OW20482   5.557   0.836   5.871
 6528SOL    HW120483   5.496   0.885   5.809
 6528SOL    HW220484   5.648   0.878   5.868
 6529SOL     OW20485   0.188   1.343   2.289
 6529SOL    HW120486   0.140   1.362   2.374
 6529SOL    HW220487   0.166   1.250   2.258
 6530SOL     OW20488   0.626   2.593   2.267
 6530SOL    HW120489   0.617   2.539   2.183
 6530SOL    HW220490   0.550   2.658   2.273
 6531SOL     OW20491   3.894   3.374   5.334
 6531SOL    HW120492   3.934   3.441   5.396
 6531SOL    HW220493   3.967   3.320   5.291
 6532SOL     OW20494   1.146   0.796   0.494
 6532SOL    HW120495   1.171   0.723   0.430
 6532SOL    HW220496   1.074   0.853   0.454
 6533SOL     OW20497   4.738   3.714   0.300
 6533SOL    HW120498   4.693   3.712   0.389
 6533SOL    HW220499   4.786   3.628   0.284
 6534SOL     OW20500   6.429   4.443   2.607
 6534SOL    HW120501   6.503   4.439   2.539
 6534SOL    HW220502   6.467   4.468   2.696
 6535SOL     OW20503   6.371   3.304   5.097
 6535SOL    HW120504   6.396   3.208   5.111
 6535SOL    HW220505   6.342   3.343   5.184
 6536SOL     OW20506   1.035   3.806   4.911
 6536SOL    HW120507   1.003   3.889   4.865
 6536SOL    HW220508   1.043   3.823   5.009
 6537SOL     OW20509   6.015   5.254   4.091
 6537SOL    HW120510   6.028   5.333   4.150
 6537SOL    HW220511   6.015   5.283   3.995
 6538SOL     OW20512   2.476   3.616   5.406
 6538SOL    HW120513   2.532   3.692   5.372
 6538SOL    HW220514   2.518   3.529   5.383
 6539SOL     OW20515   6.321   0.710   6.288
 6539SOL    HW120516   6.380   0.635   6.316
 6539SOL    HW220517   6.225   0.680   6.288
 6540SOL     OW20518   4.701   2.713   5.903
 6540SOL    HW120519   4.641   2.787   5.934
 6540SOL    HW220520   4.754   2.678   5.980
 6541SOL     OW20521   5.932   1.063   4.438
 6541SOL    HW120522   5.971   1.006   4.365
 6541SOL    HW220523   5.957   1.024   4.527
 6542SOL     OW20524   1.514   3.763   4.528
 6542SOL    HW120525   1.573   3.684   4.508
 6542SOL    HW220526   1.425   3.749   4.486
 6543SOL     OW20527   3.800   2.066   5.201
 6543SOL    HW120528   3.722   2.104   5.152
 6543SOL    HW220529   3.769   1.991   5.259
 6544SOL     OW20530   1.056   6.249   2.285
 6544SOL    HW120531   0.966   6.226   2.248
 6544SOL    HW220532   1.121   6.263   2.211
 6545SOL     OW20533   4.784   6.983   1.494
 6545SOL    HW120534   4.735   6.973   1.407
 6545SOL    HW220535   4.719   6.995   1.568
 6546SOL     OW20536   4.962   3.637   6.093
 6546SOL    HW120537   4.933   3.601   6.004
 6546SOL    HW220538   4.977   3.736   6.085
 6547SOL     OW20539   5.743   6.014   6.811
 6547SOL    HW120540   5.816   6.030   6.878
 6547SOL    HW220541   5.737   5.916   6.791
 6548SOL     OW20542   0.674   2.276   5.463
 6548SOL    HW120543   0.628   2.241   5.381
 6548SOL    HW220544   0.636   2.231   5.544
 6549SOL     OW20545   5.378   6.802   1.860
 6549SOL    HW120546   5.322   6.879   1.829
 6549SOL    HW220547   5.431   6.766   1.784
 6550SOL     OW20548   6.202   6.801   3.204
 6550SOL    HW120549   6.250   6.889   3.195
 6550SOL    HW220550   6.237   6.751   3.283
 6551SOL     OW20551   3.177   3.378   1.676
 6551SOL    HW120552   3.107   3.417   1.617
 6551SOL    HW220553   3.267   3.389   1.634
 6552SOL     OW20554   2.043   6.871   0.282
 6552SOL    HW120555   1.991   6.956   0.288
 6552SOL    HW220556   2.128   6.888   0.233
 6553SOL     OW20557   0.160   0.621   3.033
 6553SOL    HW120558   0.218   0.686   2.984
 6553SOL    HW220559   0.079   0.667   3.068
 6554SOL     OW20560   3.140   1.363   4.650
 6554SOL    HW120561   3.081   1.400   4.722
 6554SOL    HW220562   3.224   1.417   4.645
 6555SOL     OW20563   6.787   2.141   4.235
 6555SOL    HW120564   6.716   2.111   4.171
 6555SOL    HW220565   6.826   2.228   4.204
 6556SOL     OW20566   4.924   2.648   3.761
 6556SOL    HW120567   4.925   2.583   3.685
 6556SOL    HW220568   4.926   2.742   3.725
 6557SOL     OW20569   1.934   6.960   2.105
 6557SOL    HW120570   1.846   6.938   2.148
 6557SOL    HW220571   1.951   6.897   2.030
 6558SOL     OW20572   5.182   5.049   0.405
 6558SOL    HW120573   5.171   5.051   0.504
 6558SOL    HW220574   5.095   5.025   0.362
 6559SOL     OW20575   6.494   2.962   6.322
 6559SOL    HW120576   6.427   3.021   6.276
 6559SOL    HW220577   6.570   2.943   6.261
 6560SOL     OW20578   4.929   4.751   0.481
 6560SOL    HW120579   4.895   4.659   0.463
 6560SOL    HW220580   4.932   4.767   0.580
 6561SOL     OW20581   3.813   4.710   0.319
 6561SOL    HW120582   3.722   4.713   0.362
 6561SOL    HW220583   3.878   4.668   0.383
 6562SOL     OW20584   5.876   2.942   1.094
 6562SOL    HW120585   5.905   3.027   1.137
 6562SOL    HW220586   5.926   2.865   1.136
 6563SOL     OW20587   5.328   6.325   4.937
 6563SOL    HW120588   5.293   6.246   4.887
 6563SOL    HW220589   5.417   6.352   4.898
 6564SOL     OW20590   6.966   3.776   2.589
 6564SOL    HW120591   6.943   3.870   2.562
 6564SOL    HW220592   6.967   3.717   2.509
 6565SOL     OW20593   5.640   0.015   3.110
 6565SOL    HW120594   5.708   6.990   3.163
 6565SOL    HW220595   5.668   0.111   3.104
 6566SOL     OW20596   3.724   6.192   2.630
 6566SOL    HW120597   3.783   6.192   2.711
 6566SOL    HW220598   3.629   6.181   2.660
 6567SOL     OW20599   4.119   0.517   1.270
 6567SOL    HW120600   4.065   0.449   1.221
 6567SOL    HW220601   4.217   0.496   1.260
 6568SOL     OW20602   3.614   1.161   1.878
 6568SOL    HW120603   3.670   1.160   1.961
 6568SOL    HW220604   3.611   1.069   1.839
 6569SOL     OW20605   0.503   3.844   5.996
 6569SOL    HW120606   0.407   3.861   5.974
 6569SOL    HW220607   0.521   3.746   5.991
 6570SOL     OW20608   3.681   6.305   2.011
 6570SOL    HW120609   3.687   6.306   2.111
 6570SOL    HW220610   3.713   6.393   1.975
 6571SOL     OW20611   2.636   5.006   3.087
 6571SOL    HW120612   2.634   5.085   3.148
 6571SOL    HW220613   2.644   5.037   2.992
 6572SOL     OW20614   0.423   6.125   3.827
 6572SOL    HW120615   0.496   6.058   3.835
 6572SOL    HW220616   0.370   6.127   3.912
 6573SOL     OW20617   2.131   1.370   2.902
 6573SOL    HW120618   2.174   1.286   2.868
 6573SOL    HW220619   2.044   1.348   2.945
 6574SOL     OW20620   1.987   6.077   2.204
 6574SOL    HW120621   1.955   6.144   2.137
 6574SOL    HW220622   1.956   5.986   2.178
 6575SOL     OW20623   6.812   0.082   2.867
 6575SOL    HW120624   6.794   0.142   2.789
 6575SOL    HW220625   6.741   0.095   2.936
 6576SOL     OW20626   3.541   6.230   0.675
 6576SOL    HW120627   3.611   6.159   0.666
 6576SOL    HW220628   3.561   6.286   0.755
 6577SOL     OW20629   1.706   2.255   4.053
 6577SOL    HW120630   1.768   2.297   3.987
 6577SOL    HW220631   1.709   2.155   4.043
 6578SOL     OW20632   1.808   5.204   2.067
 6578SOL    HW120633   1.874   5.161   2.005
 6578SOL    HW220634   1.719   5.210   2.021
 6579SOL     OW20635   0.079   1.417   3.712
 6579SOL    HW120636   0.064   1.348   3.642
 6579SOL    HW220637   0.009   1.488   3.706
 6580SOL     OW20638   0.943   0.182   7.011
 6580SOL    HW120639   0.971   0.144   0.073
 6580SOL    HW220640   0.843   0.186   7.007
 6581SOL     OW20641   1.655   1.834   6.927
 6581SOL    HW120642   1.591   1.764   6.960
 6581SOL    HW220643   1.644   1.845   6.828
 6582SOL     OW20644   6.318   1.013   2.866
 6582SOL    HW120645   6.250   0.945   2.893
 6582SOL    HW220646   6.394   0.968   2.819
 6583SOL     OW20647   4.213   6.175   0.022
 6583SOL    HW120648   4.257   6.143   6.965
 6583SOL    HW220649   4.221   6.106   0.094
 6584SOL     OW20650   3.451   2.282   1.185
 6584SOL    HW120651   3.417   2.348   1.253
 6584SOL    HW220652   3.480   2.199   1.232
 6585SOL     OW20653   5.869   0.526   1.574
 6585SOL    HW120654   5.770   0.541   1.570
 6585SOL    HW220655   5.911   0.596   1.632
 6586SOL     OW20656   6.369   2.038   6.212
 6586SOL    HW120657   6.289   2.086   6.177
 6586SOL    HW220658   6.340   1.968   6.278
 6587SOL     OW20659   1.606   4.140   5.412
 6587SOL    HW120660   1.546   4.143   5.493
 6587SOL    HW220661   1.650   4.229   5.400
 6588SOL     OW20662   0.717   2.926   0.536
 6588SOL    HW120663   0.745   2.972   0.452
 6588SOL    HW220664   0.705   2.994   0.609
 6589SOL     OW20665   7.017   1.132   1.724
 6589SOL    HW120666   6.989   1.067   1.653
 6589SOL    HW220667   6.955   1.210   1.724
 6590SOL     OW20668   1.283   0.539   4.281
 6590SOL    HW120669   1.210   0.606   4.294
 6590SOL    HW220670   1.266   0.459   4.338
 6591SOL     OW20671   5.204   4.670   3.952
 6591SOL    HW120672   5.157   4.587   3.921
 6591SOL    HW220673   5.136   4.741   3.972
 6592SOL     OW20674   4.894   6.335   3.105
 6592SOL    HW120675   4.925   6.393   3.030
 6592SOL    HW220676   4.794   6.325   3.100
 6593SOL     OW20677   2.634   2.125   2.743
 6593SOL    HW120678   2.733   2.121   2.731
 6593SOL    HW220679   2.589   2.069   2.673
 6594SOL     OW20680   3.818   1.898   6.413
 6594SOL    HW120681   3.806   1.846   6.328
 6594SOL    HW220682   3.907   1.943   6.412
 6595SOL     OW20683   1.562   2.317   4.881
 6595SOL    HW120684   1.600   2.396   4.834
 6595SOL    HW220685   1.553   2.241   4.817
 6596SOL     OW20686   5.585   6.063   2.433
 6596SOL    HW120687   5.586   5.977   2.485
 6596SOL    HW220688   5.679   6.092   2.416
 6597SOL     OW20689   1.511   4.778   2.493
 6597SOL    HW120690   1.482   4.816   2.405
 6597SOL    HW220691   1.479   4.838   2.567
 6598SOL     OW20692   1.901   4.867   4.280
 6598SOL    HW120693   1.832   4.871   4.352
 6598SOL    HW220694   1.866   4.909   4.197
 6599SOL     OW20695   5.765   5.985   6.256
 6599SOL    HW120696   5.712   5.904   6.231
 6599SOL    HW220697   5.841   5.958   6.316
 6600SOL     OW20698   4.509   6.797   5.442
 6600SOL    HW120699   4.437   6.805   5.373
 6600SOL    HW220700   4.472   6.822   5.531
 6601SOL     OW20701   1.498   2.980   2.361
 6601SOL    HW120702   1.558   2.990   2.440
 6601SOL    HW220703   1.535   3.034   2.285
 6602SOL     OW20704   2.144   6.815   1.370
 6602SOL    HW120705   2.223   6.757   1.350
 6602SOL    HW220706   2.152   6.849   1.464
 6603SOL     OW20707   0.714   2.845   3.227
 6603SOL    HW120708   0.741   2.941   3.229
 6603SOL    HW220709   0.626   2.834   3.274
 6604SOL     OW20710   1.716   6.601   2.018
 6604SOL    HW120711   1.662   6.652   1.951
 6604SOL    HW220712   1.699   6.503   2.006
 6605SOL     OW20713   6.262   5.382   1.283
 6605SOL    HW120714   6.334   5.314   1.274
 6605SOL    HW220715   6.253   5.433   1.198
 6606SOL     OW20716   1.900   3.236   3.842
 6606SOL    HW120717   1.937   3.143   3.839
 6606SOL    HW220718   1.975   3.302   3.834
 6607SOL     OW20719   5.706   3.883   3.419
 6607SOL    HW120720   5.744   3.833   3.497
 6607SOL    HW220721   5.732   3.837   3.334
 6608SOL     OW20722   0.183   0.120   6.147
 6608SOL    HW120723   0.210   0.185   6.218
 6608SOL    HW220724   0.265   0.081   6.104
 6609SOL     OW20725   4.368   2.126   5.854
 6609SOL    HW120726   4.398   2.033   5.832
 6609SOL    HW220727   4.293   2.152   5.794
 6610SOL     OW20728   3.029   4.936   1.264
 6610SOL    HW120729   3.081   4.955   1.348
 6610SOL    HW220730   3.092   4.935   1.186
 6611SOL     OW20731   4.568   2.028   4.182
 6611SOL    HW120732   4.527   1.966   4.249
 6611SOL    HW220733   4.627   1.976   4.120
 6612SOL     OW20734   5.684   2.045   6.161
 6612SOL    HW120735   5.767   1.993   6.184
 6612SOL    HW220736   5.648   2.088   6.243
 6613SOL     OW20737   4.798   0.398   6.771
 6613SOL    HW120738   4.778   0.493   6.748
 6613SOL    HW220739   4.884   0.394   6.822
 6614SOL     OW20740   4.412   5.766   2.059
 6614SOL    HW120741   4.371   5.853   2.089
 6614SOL    HW220742   4.445   5.716   2.139
 6615SOL     OW20743   2.563   5.813   0.797
 6615SOL    HW120744   2.633   5.749   0.827
 6615SOL    HW220745   2.532   5.867   0.875
 6616SOL     OW20746   4.424   0.869   5.922
 6616SOL    HW120747   4.459   0.963   5.915
 6616SOL    HW220748   4.494   0.812   5.965
 6617SOL     OW20749   4.129   0.610   3.549
 6617SOL    HW120750   4.209   0.549   3.555
 6617SOL    HW220751   4.144   0.678   3.478
 6618SOL     OW20752   0.594   2.251   2.708
 6618SOL    HW120753   0.536   2.313   2.654
 6618SOL    HW220754   0.538   2.177   2.745
 6619SOL     OW20755   5.023   6.474   3.870
 6619SOL    HW120756   5.020   6.403   3.800
 6619SOL    HW220757   5.052   6.561   3.828
 6620SOL     OW20758   0.503   3.364   3.672
 6620SOL    HW120759   0.448   3.354   3.589
 6620SOL    HW220760   0.443   3.382   3.750
 6621SOL     OW20761   3.945   3.117   4.780
 6621SOL    HW120762   3.937   3.081   4.687
 6621SOL    HW220763   3.966   3.215   4.776
 6622SOL     OW20764   0.158   6.264   0.799
 6622SOL    HW120765   0.068   6.240   0.763
 6622SOL    HW220766   0.214   6.304   0.726
 6623SOL     OW20767   3.318   4.452   5.828
 6623SOL    HW120768   3.366   4.389   5.767
 6623SOL    HW220769   3.256   4.400   5.887
 6624SOL     OW20770   0.780   2.304   4.526
 6624SOL    HW120771   0.865   2.327   4.574
 6624SOL    HW220772   0.731   2.388   4.503
 6625SOL     OW20773   5.883   2.273   5.413
 6625SOL    HW120774   5.921   2.309   5.498
 6625SOL    HW220775   5.805   2.329   5.385
 6626SOL     OW20776   2.824   6.557   4.843
 6626SOL    HW120777   2.829   6.638   4.901
 6626SOL    HW220778   2.783   6.482   4.893
 6627SOL     OW20779   1.010   6.024   4.427
 6627SOL    HW120780   1.009   6.123   4.438
 6627SOL    HW220781   0.962   5.998   4.344
 6628SOL     OW20782   4.569   5.747   4.052
 6628SOL    HW120783   4.569   5.768   4.149
 6628SOL    HW220784   4.621   5.663   4.036
 6629SOL     OW20785   5.456   6.214   6.944
 6629SOL    HW120786   5.552   6.234   6.964
 6629SOL    HW220787   5.450   6.133   6.885
 6630SOL     OW20788   2.049   1.609   1.564
 6630SOL    HW120789   2.030   1.546   1.488
 6630SOL    HW220790   2.142   1.593   1.597
 6631SOL     OW20791   1.706   4.746   5.949
 6631SOL    HW120792   1.754   4.757   5.862
 6631SOL    HW220793   1.771   4.718   6.020
 6632SOL     OW20794   1.045   0.100   0.204
 6632SOL    HW120795   1.006   0.157   0.277
 6632SOL    HW220796   1.031   0.003   0.227
 6633SOL     OW20797   2.935   5.701   6.636
 6633SOL    HW120798   2.942   5.738   6.543
 6633SOL    HW220799   2.839   5.685   6.658
 6634SOL     OW20800   4.890   1.424   5.034
 6634SOL    HW120801   4.860   1.492   4.968
 6634SOL    HW220802   4.854   1.446   5.124
 6635SOL     OW20803   5.661   4.727   1.868
 6635SOL    HW120804   5.672   4.631   1.895
 6635SOL    HW220805   5.595   4.733   1.794
 6636SOL     OW20806   3.619   0.148   1.735
 6636SOL    HW120807   3.544   0.136   1.669
 6636SOL    HW220808   3.661   0.059   1.754
 6637SOL     OW20809   1.398   1.124   0.755
 6637SOL    HW120810   1.440   1.072   0.829
 6637SOL    HW220811   1.454   1.115   0.672
 6638SOL     OW20812   3.248   4.040   3.758
 6638SOL    HW120813   3.182   4.079   3.694
 6638SOL    HW220814   3.334   4.091   3.753
 6639SOL     OW20815   4.834   2.975   1.357
 6639SOL    HW120816   4.841   3.072   1.378
 6639SOL    HW220817   4.743   2.955   1.320
 6640SOL     OW20818   1.178   2.845   5.418
 6640SOL    HW120819   1.087   2.807   5.431
 6640SOL    HW220820   1.171   2.934   5.372
 6641SOL     OW20821   4.110   2.035   1.432
 6641SOL    HW120822   4.066   2.125   1.431
 6641SOL    HW220823   4.209   2.046   1.440
 6642SOL     OW20824   1.170   5.350   0.242
 6642SOL    HW120825   1.167   5.374   0.339
 6642SOL    HW220826   1.080   5.362   0.201
 6643SOL     OW20827   4.773   6.835   0.085
 6643SOL    HW120828   4.854   6.811   0.138
 6643SOL    HW220829   4.711   6.890   0.140
 6644SOL     OW20830   1.942   6.692   3.020
 6644SOL    HW120831   1.982   6.714   3.110
 6644SOL    HW220832   1.857   6.641   3.033
 6645SOL     OW20833   6.499   2.870   0.539
 6645SOL    HW120834   6.463   2.957   0.505
 6645SOL    HW220835   6.598   2.866   0.525
 6646SOL     OW20836   3.889   6.960   6.958
 6646SOL    HW120837   3.962   7.021   6.925
 6646SOL    HW220838   3.928   6.896   7.024
 6647SOL     OW20839   4.541   5.034   1.196
 6647SOL    HW120840   4.627   5.006   1.240
 6647SOL    HW220841   4.549   5.129   1.166
 6648SOL     OW20842   2.766   6.212   5.242
 6648SOL    HW120843   2.789   6.121   5.209
 6648SOL    HW220844   2.754   6.274   5.165
 6649SOL     OW20845   6.012   2.306   6.789
 6649SOL    HW120846   5.992   2.402   6.767
 6649SOL    HW220847   6.073   2.302   6.868
 6650SOL     OW20848   2.917   1.132   5.368
 6650SOL    HW120849   2.885   1.038   5.358
 6650SOL    HW220850   2.956   1.163   5.281
 6651SOL     OW20851   0.603   1.779   6.703
 6651SOL    HW120852   0.573   1.781   6.607
 6651SOL    HW220853   0.552   1.709   6.753
 6652SOL     OW20854   1.048   4.773   0.398
 6652SOL    HW120855   1.122   4.839   0.408
 6652SOL    HW220856   1.086   4.681   0.387
 6653SOL     OW20857   5.680   2.512   0.546
 6653SOL    HW120858   5.719   2.564   0.622
 6653SOL    HW220859   5.682   2.415   0.567
 6654SOL     OW20860   0.747   4.421   2.829
 6654SOL    HW120861   0.660   4.408   2.781
 6654SOL    HW220862   0.734   4.485   2.905
 6655SOL     OW20863   6.810   5.315   1.809
 6655SOL    HW120864   6.901   5.281   1.784
 6655SOL    HW220865   6.777   5.377   1.738
 6656SOL     OW20866   4.468   1.723   2.652
 6656SOL    HW120867   4.505   1.649   2.708
 6656SOL    HW220868   4.541   1.765   2.599
 6657SOL     OW20869   5.576   2.208   4.328
 6657SOL    HW120870   5.658   2.215   4.386
 6657SOL    HW220871   5.505   2.268   4.363
 6658SOL     OW20872   6.116   6.447   4.890
 6658SOL    HW120873   6.086   6.427   4.983
 6658SOL    HW220874   6.063   6.523   4.854
 6659SOL     OW20875   1.213   4.877   2.034
 6659SOL    HW120876   1.119   4.888   2.067
 6659SOL    HW220877   1.213   4.815   1.955
 6660SOL     OW20878   0.607   5.905   3.097
 6660SOL    HW120879   0.568   5.838   3.034
 6660SOL    HW220880   0.701   5.879   3.119
 6661SOL     OW20881   2.943   6.471   4.032
 6661SOL    HW120882   3.014   6.421   4.081
 6661SOL    HW220883   2.963   6.470   3.934
 6662SOL     OW20884   2.854   0.089   1.994
 6662SOL    HW120885   2.821   0.182   2.008
 6662SOL    HW220886   2.776   0.026   1.990
 6663SOL     OW20887   1.572   4.504   5.894
 6663SOL    HW120888   1.610   4.589   5.930
 6663SOL    HW220889   1.560   4.511   5.795
 6664SOL     OW20890   3.033   0.848   1.994
 6664SOL    HW120891   3.109   0.853   2.059
 6664SOL    HW220892   3.062   0.796   1.913
 6665SOL     OW20893   2.695   0.500   6.013
 6665SOL    HW120894   2.751   0.420   6.035
 6665SOL    HW220895   2.642   0.526   6.093
 6666SOL     OW20896   5.710   5.947   4.929
 6666SOL    HW120897   5.743   5.875   4.867
 6666SOL    HW220898   5.661   6.016   4.876
 6667SOL     OW20899   6.348   6.515   6.310
 6667SOL    HW120900   6.409   6.521   6.231
 6667SOL    HW220901   6.324   6.420   6.327
 6668SOL     OW20902   0.143   6.262   1.365
 6668SOL    HW120903   0.169   6.206   1.443
 6668SOL    HW220904   0.068   6.218   1.315
 6669SOL     OW20905   2.160   1.489   2.054
 6669SOL    HW120906   2.079   1.545   2.073
 6669SOL    HW220907   2.134   1.412   1.996
 6670SOL     OW20908   3.196   2.261   0.186
 6670SOL    HW120909   3.189   2.292   0.091
 6670SOL    HW220910   3.203   2.161   0.187
 6671SOL     OW20911   5.134   6.382   0.178
 6671SOL    HW120912   5.043   6.339   0.173
 6671SOL    HW220913   5.145   6.444   0.101
 6672SOL     OW20914   1.415   2.371   0.347
 6672SOL    HW120915   1.463   2.364   0.435
 6672SOL    HW220916   1.479   2.350   0.273
 6673SOL     OW20917   5.792   3.585   4.328
 6673SOL    HW120918   5.727   3.511   4.345
 6673SOL    HW220919   5.742   3.667   4.300
 6674SOL     OW20920   0.331   2.895   6.873
 6674SOL    HW120921   0.391   2.974   6.880
 6674SOL    HW220922   0.381   2.820   6.829
 6675SOL     OW20923   4.466   2.856   6.945
 6675SOL    HW120924   4.440   2.949   6.972
 6675SOL    HW220925   4.464   2.848   6.846
 6676SOL     OW20926   1.344   3.807   3.724
 6676SOL    HW120927   1.429   3.771   3.686
 6676SOL    HW220928   1.310   3.746   3.795
 6677SOL     OW20929   0.218   1.583   0.124
 6677SOL    HW120930   0.191   1.537   0.040
 6677SOL    HW220931   0.172   1.672   0.130
 6678SOL     OW20932   1.855   4.759   0.333
 6678SOL    HW120933   1.790   4.834   0.321
 6678SOL    HW220934   1.807   4.678   0.368
 6679SOL     OW20935   2.449   1.002   3.928
 6679SOL    HW120936   2.434   0.936   3.854
 6679SOL    HW220937   2.417   1.092   3.898
 6680SOL     OW20938   5.613   6.718   0.347
 6680SOL    HW120939   5.548   6.643   0.343
 6680SOL    HW220940   5.684   6.697   0.414
 6681SOL     OW20941   4.509   5.489   1.464
 6681SOL    HW120942   4.554   5.405   1.434
 6681SOL    HW220943   4.425   5.467   1.513
 6682SOL     OW20944   3.239   5.664   0.144
 6682SOL    HW120945   3.209   5.759   0.144
 6682SOL    HW220946   3.196   5.616   0.067
 6683SOL     OW20947   5.800   3.481   7.002
 6683SOL    HW120948   5.860   3.560   6.998
 6683SOL    HW220949   5.785   3.445   6.910
 6684SOL     OW20950   3.352   6.911   1.612
 6684SOL    HW120951   3.385   6.999   1.647
 6684SOL    HW220952   3.253   6.917   1.598
 6685SOL     OW20953   3.973   3.579   6.769
 6685SOL    HW120954   4.000   3.638   6.846
 6685SOL    HW220955   4.053   3.532   6.733
 6686SOL     OW20956   5.655   5.188   3.846
 6686SOL    HW120957   5.567   5.213   3.885
 6686SOL    HW220958   5.699   5.119   3.904
 6687SOL     OW20959   6.513   2.357   1.894
 6687SOL    HW120960   6.466   2.393   1.814
 6687SOL    HW220961   6.587   2.418   1.920
 6688SOL     OW20962   4.041   5.062   1.136
 6688SOL    HW120963   3.956   5.092   1.093
 6688SOL    HW220964   4.116   5.122   1.107
 6689SOL     OW20965   2.995   4.996   6.303
 6689SOL    HW120966   3.027   5.069   6.363
 6689SOL    HW220967   2.930   5.034   6.237
 6690SOL     OW20968   0.797   0.371   5.818
 6690SOL    HW120969   0.822   0.414   5.904
 6690SOL    HW220970   0.835   0.278   5.815
 6691SOL     OW20971   1.998   1.785   2.543
 6691SOL    HW120972   2.060   1.830   2.607
 6691SOL    HW220973   1.904   1.792   2.577
 6692SOL     OW20974   4.548   4.757   1.524
 6692SOL    HW120975   4.462   4.800   1.550
 6692SOL    HW220976   4.612   4.761   1.600
 6693SOL     OW20977   4.234   1.320   4.809
 6693SOL    HW120978   4.277   1.300   4.897
 6693SOL    HW220979   4.215   1.418   4.803
 6694SOL     OW20980   3.947   5.628   1.096
 6694SOL    HW120981   3.970   5.725   1.096
 6694SOL    HW220982   3.997   5.582   1.021
 6695SOL     OW20983   2.989   1.834   0.097
 6695SOL    HW120984   2.987   1.899   0.020
 6695SOL    HW220985   2.906   1.846   0.152
 6696SOL     OW20986   3.989   3.853   4.346
 6696SOL    HW120987   3.939   3.858   4.260
 6696SOL    HW220988   3.939   3.902   4.417
 6697SOL     OW20989   4.871   2.334   2.331
 6697SOL    HW120990   4.930   2.286   2.396
 6697SOL    HW220991   4.780   2.290   2.330
 6698SOL     OW20992   3.564   4.132   1.731
 6698SOL    HW120993   3.473   4.160   1.701
 6698SOL    HW220994   3.631   4.201   1.703
 6699SOL     OW20995   1.236   4.916   5.532
 6699SOL    HW120996   1.229   4.822   5.498
 6699SOL    HW220997   1.316   4.924   5.592
 6700SOL     OW20998   5.976   0.584   0.706
 6700SOL    HW120999   6.004   0.511   0.768
 6700SOL    HW221000   5.877   0.578   0.691
 6701SOL     OW21001   5.749   6.726   1.559
 6701SOL    HW121002   5.687   6.674   1.617
 6701SOL    HW221003   5.788   6.666   1.490
 6702SOL     OW21004   2.582   2.053   0.788
 6702SOL    HW121005   2.612   2.050   0.883
 6702SOL    HW221006   2.645   2.109   0.734
 6703SOL     OW21007   1.963   2.078   5.814
 6703SOL    HW121008   1.877   2.126   5.796
 6703SOL    HW221009   1.972   1.999   5.753
 6704SOL     OW21010   3.874   1.665   5.126
 6704SOL    HW121011   3.810   1.648   5.201
 6704SOL    HW221012   3.884   1.583   5.071
 6705SOL     OW21013   6.389   3.593   1.184
 6705SOL    HW121014   6.431   3.659   1.122
 6705SOL    HW221015   6.297   3.571   1.150
 6706SOL     OW21016   0.704   6.280   1.451
 6706SOL    HW121017   0.712   6.352   1.381
 6706SOL    HW221018   0.711   6.321   1.542
 6707SOL     OW21019   6.259   0.430   2.578
 6707SOL    HW121020   6.211   0.384   2.653
 6707SOL    HW221021   6.194   0.452   2.505
 6708SOL     OW21022   0.251   4.015   1.301
 6708SOL    HW121023   0.314   3.962   1.358
 6708SOL    HW221024   0.158   3.980   1.313
 6709SOL     OW21025   1.213   4.656   2.345
 6709SOL    HW121026   1.196   4.622   2.252
 6709SOL    HW221027   1.285   4.725   2.343
 6710SOL     OW21028   4.263   0.932   2.134
 6710SOL    HW121029   4.165   0.948   2.120
 6710SOL    HW221030   4.315   0.981   2.064
 6711SOL     OW21031   4.522   6.131   6.344
 6711SOL    HW121032   4.448   6.124   6.277
 6711SOL    HW221033   4.532   6.227   6.372
 6712SOL     OW21034   5.724   3.674   0.638
 6712SOL    HW121035   5.794   3.653   0.570
 6712SOL    HW221036   5.749   3.759   0.686
 6713SOL     OW21037   1.737   0.195   4.102
 6713SOL    HW121038   1.804   0.121   4.101
 6713SOL    HW221039   1.730   0.232   4.194
 6714SOL     OW21040   5.819   1.154   0.483
 6714SOL    HW121041   5.841   1.140   0.580
 6714SOL    HW221042   5.748   1.090   0.455
 6715SOL     OW21043   1.169   1.099   1.253
 6715SOL    HW121044   1.233   1.073   1.326
 6715SOL    HW221045   1.171   1.030   1.181
 6716SOL     OW21046   6.690   5.473   2.510
 6716SOL    HW121047   6.613   5.526   2.547
 6716SOL    HW221048   6.673   5.376   2.524
 6717SOL     OW21049   3.294   2.599   6.767
 6717SOL    HW121050   3.377   2.543   6.761
 6717SOL    HW221051   3.216   2.546   6.731
 6718SOL     OW21052   3.479   0.973   2.187
 6718SOL    HW121053   3.481   0.954   2.285
 6718SOL    HW221054   3.571   0.965   2.149
 6719SOL     OW21055   1.963   0.207   6.782
 6719SOL    HW121056   1.900   0.270   6.736
 6719SOL    HW221057   1.989   0.246   6.871
 6720SOL     OW21058   2.461   0.657   5.824
 6720SOL    HW121059   2.499   0.731   5.768
 6720SOL    HW221060   2.535   0.597   5.855
 6721SOL     OW21061   0.463   1.282   0.386
 6721SOL    HW121062   0.393   1.211   0.395
 6721SOL    HW221063   0.493   1.311   0.477
 6722SOL     OW21064   6.349   2.885   0.184
 6722SOL    HW121065   6.370   2.972   0.140
 6722SOL    HW221066   6.302   2.902   0.271
 6723SOL     OW21067   1.571   1.950   6.150
 6723SOL    HW121068   1.551   1.976   6.056
 6723SOL    HW221069   1.638   1.875   6.151
 6724SOL     OW21070   2.048   3.340   5.784
 6724SOL    HW121071   2.010   3.249   5.804
 6724SOL    HW221072   2.046   3.355   5.685
 6725SOL     OW21073   5.941   2.900   3.148
 6725SOL    HW121074   5.884   2.931   3.072
 6725SOL    HW221075   5.944   2.800   3.149
 6726SOL     OW21076   0.267   1.325   5.507
 6726SOL    HW121077   0.334   1.293   5.440
 6726SOL    HW221078   0.226   1.247   5.553
 6727SOL     OW21079   1.067   4.605   5.549
 6727SOL    HW121080   1.120   4.655   5.481
 6727SOL    HW221081   1.128   4.552   5.608
 6728SOL     OW21082   4.066   1.918   3.559
 6728SOL    HW121083   4.136   1.847   3.550
 6728SOL    HW221084   4.110   2.005   3.582
 6729SOL     OW21085   5.115   1.807   1.078
 6729SOL    HW121086   5.127   1.793   0.980
 6729SOL    HW221087   5.178   1.879   1.109
 6730SOL     OW21088   1.641   1.254   0.954
 6730SOL    HW121089   1.666   1.203   1.036
 6730SOL    HW221090   1.542   1.246   0.939
 6731SOL     OW21091   2.721   6.391   0.991
 6731SOL    HW121092   2.657   6.347   1.054
 6731SOL    HW221093   2.737   6.330   0.913
 6732SOL     OW21094   5.704   4.436   4.422
 6732SOL    HW121095   5.781   4.442   4.486
 6732SOL    HW221096   5.695   4.342   4.389
 6733SOL     OW21097   3.118   5.890   0.126
 6733SOL    HW121098   3.165   5.940   0.055
 6733SOL    HW221099   3.161   5.909   0.215
 6734SOL     OW21100   5.170   1.398   4.984
 6734SOL    HW121101   5.081   1.443   4.984
 6734SOL    HW221102   5.242   1.464   5.003
 6735SOL     OW21103   5.922   3.158   3.850
 6735SOL    HW121104   5.898   3.062   3.864
 6735SOL    HW221105   5.998   3.164   3.785
 6736SOL     OW21106   3.336   3.936   1.085
 6736SOL    HW121107   3.425   3.891   1.077
 6736SOL    HW221108   3.306   3.966   0.995
 6737SOL     OW21109   1.163   2.616   1.488
 6737SOL    HW121110   1.126   2.680   1.421
 6737SOL    HW221111   1.167   2.660   1.578
 6738SOL     OW21112   1.441   5.771   3.438
 6738SOL    HW121113   1.411   5.710   3.511
 6738SOL    HW221114   1.447   5.720   3.352
 6739SOL     OW21115   6.635   6.982   4.126
 6739SOL    HW121116   6.663   6.964   4.032
 6739SOL    HW221117   6.697   6.936   4.190
 6740SOL     OW21118   6.486   6.497   4.251
 6740SOL    HW121119   6.417   6.566   4.272
 6740SOL    HW221120   6.562   6.539   4.201
 6741SOL     OW21121   4.773   1.809   6.049
 6741SOL    HW121122   4.868   1.782   6.060
 6741SOL    HW221123   4.714   1.745   6.098
 6742SOL     OW21124   5.659   4.492   3.269
 6742SOL    HW121125   5.589   4.492   3.198
 6742SOL    HW221126   5.672   4.584   3.304
 6743SOL     OW21127   4.134   4.049   0.015
 6743SOL    HW121128   4.081   3.989   0.074
 6743SOL    HW221129   4.125   4.020   6.946
 6744SOL     OW21130   6.473   5.406   6.279
 6744SOL    HW121131   6.535   5.467   6.328
 6744SOL    HW221132   6.472   5.431   6.182
 6745SOL     OW21133   0.037   6.308   4.268
 6745SOL    HW121134   0.110   6.323   4.334
 6745SOL    HW221135   6.978   6.348   4.302
 6746SOL     OW21136   1.893   1.528   2.776
 6746SOL    HW121137   1.910   1.565   2.867
 6746SOL    HW221138   1.861   1.601   2.716
 6747SOL     OW21139   0.682   6.731   6.395
 6747SOL    HW121140   0.759   6.746   6.334
 6747SOL    HW221141   0.622   6.661   6.357
 6748SOL     OW21142   2.938   1.567   3.949
 6748SOL    HW121143   2.852   1.544   3.995
 6748SOL    HW221144   2.946   1.514   3.865
 6749SOL     OW21145   3.510   4.105   0.698
 6749SOL    HW121146   3.490   4.203   0.693
 6749SOL    HW221147   3.582   4.089   0.765
 6750SOL     OW21148   2.738   1.516   4.396
 6750SOL    HW121149   2.709   1.606   4.429
 6750SOL    HW221150   2.691   1.445   4.448
 6751SOL     OW21151   4.616   6.985   3.600
 6751SOL    HW121152   4.579   6.918   3.665
 6751SOL    HW221153   4.627   6.941   3.510
 6752SOL     OW21154   1.775   6.627   2.765
 6752SOL    HW121155   1.847   6.691   2.791
 6752SOL    HW221156   1.788   6.601   2.669
 6753SOL     OW21157   3.720   2.490   5.640
 6753SOL    HW121158   3.741   2.484   5.543
 6753SOL    HW221159   3.673   2.576   5.659
 6754SOL     OW21160   5.962   0.603   1.104
 6754SOL    HW121161   5.941   0.545   1.182
 6754SOL    HW221162   5.901   0.581   1.028
 6755SOL     OW21163   3.130   4.910   0.991
 6755SOL    HW121164   3.069   4.831   0.992
 6755SOL    HW221165   3.171   4.919   0.900
 6756SOL     OW21166   2.487   1.633   5.715
 6756SOL    HW121167   2.444   1.543   5.718
 6756SOL    HW221168   2.515   1.654   5.621
 6757SOL     OW21169   3.272   0.904   0.971
 6757SOL    HW121170   3.355   0.920   1.025
 6757SOL    HW221171   3.249   0.806   0.973
 6758SOL     OW21172   5.229   2.504   1.072
 6758SOL    HW121173   5.230   2.604   1.064
 6758SOL    HW221174   5.180   2.466   0.994
 6759SOL     OW21175   0.185   3.420   2.704
 6759SOL    HW121176   0.156   3.394   2.612
 6759SOL    HW221177   0.136   3.503   2.733
 6760SOL     OW21178   5.830   2.780   2.581
 6760SOL    HW121179   5.907   2.827   2.539
 6760SOL    HW221180   5.749   2.838   2.578
 6761SOL     OW21181   4.902   2.267   4.532
 6761SOL    HW121182   4.832   2.229   4.593
 6761SOL    HW221183   4.862   2.285   4.442
 6762SOL     OW21184   0.137   5.278   4.040
 6762SOL    HW121185   0.074   5.227   3.980
 6762SOL    HW221186   0.092   5.296   4.127
 6763SOL     OW21187   5.042   5.986   4.989
 6763SOL    HW121188   5.027   6.083   4.970
 6763SOL    HW221189   4.957   5.936   4.975
 6764SOL     OW21190   1.396   5.576   2.030
 6764SOL    HW121191   1.453   5.584   1.948
 6764SOL    HW221192   1.454   5.571   2.111
 6765SOL     OW21193   6.416   5.118   3.939
 6765SOL    HW121194   6.415   5.087   4.034
 6765SOL    HW221195   6.408   5.040   3.877
 6766SOL     OW21196   4.636   6.246   0.311
 6766SOL    HW121197   4.657   6.164   0.363
 6766SOL    HW221198   4.687   6.323   0.349
 6767SOL     OW21199   2.946   0.349   0.657
 6767SOL    HW121200   2.857   0.333   0.700
 6767SOL    HW221201   2.944   0.437   0.609
 6768SOL     OW21202   1.900   0.888   6.484
 6768SOL    HW121203   1.960   0.849   6.414
 6768SOL    HW221204   1.955   0.922   6.560
 6769SOL     OW21205   3.121   2.361   0.467
 6769SOL    HW121206   3.198   2.339   0.406
 6769SOL    HW221207   3.043   2.389   0.413
 6770SOL     OW21208   6.918   0.902   1.903
 6770SOL    HW121209   6.838   0.914   1.845
 6770SOL    HW221210   6.998   0.885   1.846
 6771SOL     OW21211   4.701   2.301   3.207
 6771SOL    HW121212   4.787   2.344   3.181
 6771SOL    HW221213   4.718   2.227   3.273
 6772SOL     OW21214   3.153   1.481   2.464
 6772SOL    HW121215   3.212   1.472   2.544
 6772SOL    HW221216   3.179   1.412   2.396
 6773SOL     OW21217   6.699   4.410   1.679
 6773SOL    HW121218   6.760   4.366   1.745
 6773SOL    HW221219   6.734   4.396   1.587
 6774SOL     OW21220   6.894   2.879   5.934
 6774SOL    HW121221   6.945   2.825   6.001
 6774SOL    HW221222   6.917   2.976   5.943
 6775SOL     OW21223   2.400   3.580   0.674
 6775SOL    HW121224   2.365   3.570   0.767
 6775SOL    HW221225   2.377   3.499   0.620
 6776SOL     OW21226   4.100   4.575   0.087
 6776SOL    HW121227   4.062   4.641   0.022
 6776SOL    HW221228   4.136   4.496   0.038
 6777SOL     OW21229   3.792   4.568   6.285
 6777SOL    HW121230   3.791   4.559   6.185
 6777SOL    HW221231   3.727   4.503   6.325
 6778SOL     OW21232   0.364   4.337   1.931
 6778SOL    HW121233   0.435   4.289   1.879
 6778SOL    HW221234   0.398   4.426   1.959
 6779SOL     OW21235   6.607   4.175   6.597
 6779SOL    HW121236   6.561   4.147   6.681
 6779SOL    HW221237   6.631   4.272   6.603
 6780SOL     OW21238   0.959   2.353   2.357
 6780SOL    HW121239   0.889   2.393   2.415
 6780SOL    HW221240   0.941   2.256   2.345
 6781SOL     OW21241   5.548   6.580   5.233
 6781SOL    HW121242   5.549   6.623   5.323
 6781SOL    HW221243   5.457   6.592   5.192
 6782SOL     OW21244   0.253   0.177   2.652
 6782SOL    HW121245   0.181   0.111   2.672
 6782SOL    HW221246   0.240   0.260   2.707
 6783SOL     OW21247   0.446   6.972   6.127
 6783SOL    HW121248   0.426   6.943   6.221
 6783SOL    HW221249   0.497   0.032   6.128
 6784SOL     OW21250   3.794   3.810   0.497
 6784SOL    HW121251   3.837   3.743   0.436
 6784SOL    HW221252   3.865   3.863   0.543
 6785SOL     OW21253   5.881   4.665   2.323
 6785SOL    HW121254   5.885   4.730   2.247
 6785SOL    HW221255   5.972   4.628   2.340
 6786SOL     OW21256   1.353   1.762   6.795
 6786SOL    HW121257   1.265   1.716   6.813
 6786SOL    HW221258   1.338   1.860   6.790
 6787SOL     OW21259   2.010   3.561   0.937
 6787SOL    HW121260   2.056   3.512   1.012
 6787SOL    HW221261   2.044   3.655   0.933
 6788SOL     OW21262   2.786   3.822   1.644
 6788SOL    HW121263   2.848   3.812   1.722
 6788SOL    HW221264   2.707   3.761   1.657
 6789SOL     OW21265   0.430   7.016   2.481
 6789SOL    HW121266   0.349   0.029   2.437
 6789SOL    HW221267   0.447   0.035   2.568
 6790SOL     OW21268   1.471   4.296   0.356
 6790SOL    HW121269   1.497   4.296   0.453
 6790SOL    HW221270   1.397   4.230   0.342
 6791SOL     OW21271   3.873   2.482   0.760
 6791SOL    HW121272   3.875   2.581   0.774
 6791SOL    HW221273   3.949   2.439   0.809
 6792SOL     OW21274   6.694   6.314   6.160
 6792SOL    HW121275   6.708   6.217   6.177
 6792SOL    HW221276   6.763   6.347   6.096
 6793SOL     OW21277   0.737   2.366   0.787
 6793SOL    HW121278   0.780   2.436   0.731
 6793SOL    HW221279   0.638   2.380   0.789
 6794SOL     OW21280   5.257   1.155   4.919
 6794SOL    HW121281   5.213   1.243   4.939
 6794SOL    HW221282   5.344   1.149   4.969
 6795SOL     OW21283   2.467   6.218   0.872
 6795SOL    HW121284   2.521   6.174   0.800
 6795SOL    HW221285   2.376   6.176   0.876
 6796SOL     OW21286   5.995   0.801   2.577
 6796SOL    HW121287   5.975   0.845   2.490
 6796SOL    HW221288   6.041   0.866   2.638
 6797SOL     OW21289   4.859   3.541   1.578
 6797SOL    HW121290   4.920   3.535   1.500
 6797SOL    HW221291   4.889   3.478   1.650
 6798SOL     OW21292   5.516   5.794   2.976
 6798SOL    HW121293   5.486   5.771   2.883
 6798SOL    HW221294   5.559   5.884   2.976
 6799SOL     OW21295   5.803   5.601   0.216
 6799SOL    HW121296   5.865   5.678   0.228
 6799SOL    HW221297   5.778   5.564   0.306
 6800SOL     OW21298   2.155   4.415   0.926
 6800SOL    HW121299   2.166   4.340   0.991
 6800SOL    HW221300   2.238   4.423   0.870
 6801SOL     OW21301   1.811   1.253   2.152
 6801SOL    HW121302   1.879   1.225   2.084
 6801SOL    HW221303   1.856   1.302   2.226
 6802SOL     OW21304   2.644   6.063   0.660
 6802SOL    HW121305   2.637   5.965   0.678
 6802SOL    HW221306   2.620   6.081   0.564
 6803SOL     OW21307   4.527   2.483   6.329
 6803SOL    HW121308   4.503   2.569   6.374
 6803SOL    HW221309   4.523   2.409   6.395
 6804SOL     OW21310   2.484   5.360   3.577
 6804SOL    HW121311   2.445   5.269   3.591
 6804SOL    HW221312   2.422   5.414   3.519
 6805SOL     OW21313   5.769   6.384   4.555
 6805SOL    HW121314   5.707   6.444   4.606
 6805SOL    HW221315   5.719   6.341   4.479
 6806SOL     OW21316   5.262   1.094   3.475
 6806SOL    HW121317   5.288   1.113   3.381
 6806SOL    HW221318   5.311   1.157   3.537
 6807SOL     OW21319   2.497   3.477   0.350
 6807SOL    HW121320   2.548   3.553   0.311
 6807SOL    HW221321   2.561   3.408   0.385
 6808SOL     OW21322   0.784   2.939   5.582
 6808SOL    HW121323   0.869   2.976   5.620
 6808SOL    HW221324   0.719   3.014   5.568
 6809SOL     OW21325   1.694   4.203   6.927
 6809SOL    HW121326   1.603   4.237   6.904
 6809SOL    HW221327   1.749   4.278   6.964
 6810SOL     OW21328   1.614   0.340   1.624
 6810SOL    HW121329   1.571   0.430   1.627
 6810SOL    HW221330   1.637   0.317   1.530
 6811SOL     OW21331   4.715   4.210   0.299
 6811SOL    HW121332   4.618   4.231   0.285
 6811SOL    HW221333   4.765   4.233   0.216
 6812SOL     OW21334   3.559   3.185   3.359
 6812SOL    HW121335   3.532   3.095   3.393
 6812SOL    HW221336   3.477   3.239   3.339
 6813SOL     OW21337   4.571   1.512   1.472
 6813SOL    HW121338   4.535   1.604   1.482
 6813SOL    HW221339   4.522   1.450   1.535
 6814SOL     OW21340   3.288   2.789   0.657
 6814SOL    HW121341   3.198   2.824   0.631
 6814SOL    HW221342   3.359   2.840   0.611
 6815SOL     OW21343   3.188   0.157   1.147
 6815SOL    HW121344   3.279   0.122   1.126
 6815SOL    HW221345   3.142   0.185   1.063
 6816SOL     OW21346   6.902   5.669   0.022
 6816SOL    HW121347   6.888   5.583   6.999
 6816SOL    HW221348   6.885   5.746   6.986
 6817SOL     OW21349   6.589   1.836   5.287
 6817SOL    HW121350   6.674   1.788   5.307
 6817SOL    HW221351   6.532   1.837   5.369
 6818SOL     OW21352   2.534   6.033   2.122
 6818SOL    HW121353   2.482   6.032   2.207
 6818SOL    HW221354   2.564   5.940   2.100
 6819SOL     OW21355   3.594   0.806   4.179
 6819SOL    HW121356   3.525   0.836   4.113
 6819SOL    HW221357   3.648   0.731   4.139
 6820SOL     OW21358   1.209   5.103   3.218
 6820SOL    HW121359   1.234   5.124   3.313
 6820SOL    HW221360   1.290   5.113   3.160
 6821SOL     OW21361   2.898   1.524   5.102
 6821SOL    HW121362   2.957   1.602   5.083
 6821SOL    HW221363   2.913   1.493   5.196
 6822SOL     OW21364   5.783   1.829   5.924
 6822SOL    HW121365   5.842   1.776   5.986
 6822SOL    HW221366   5.690   1.794   5.929
 6823SOL     OW21367   3.843   3.191   3.794
 6823SOL    HW121368   3.798   3.267   3.747
 6823SOL    HW221369   3.921   3.160   3.740
 6824SOL     OW21370   0.618   2.996   6.272
 6824SOL    HW121371   0.603   2.945   6.357
 6824SOL    HW221372   0.556   3.074   6.270
 6825SOL     OW21373   5.133   6.720   2.530
 6825SOL    HW121374   5.075   6.639   2.537
 6825SOL    HW221375   5.121   6.778   2.610
 6826SOL     OW21376   2.181   4.035   2.922
 6826SOL    HW121377   2.165   4.073   3.013
 6826SOL    HW221378   2.217   4.107   2.863
 6827SOL     OW21379   5.277   6.063   0.377
 6827SOL    HW121380   5.309   6.082   0.285
 6827SOL    HW221381   5.217   6.137   0.408
 6828SOL     OW21382   2.020   2.025   1.522
 6828SOL    HW121383   2.077   1.950   1.489
 6828SOL    HW221384   2.035   2.105   1.464
 6829SOL     OW21385   5.059   6.733   3.783
 6829SOL    HW121386   5.107   6.781   3.710
 6829SOL    HW221387   5.078   6.777   3.871
 6830SOL     OW21388   5.500   1.284   2.971
 6830SOL    HW121389   5.537   1.195   2.996
 6830SOL    HW221390   5.410   1.273   2.929
 6831SOL     OW21391   1.032   0.377   6.271
 6831SOL    HW121392   1.006   0.319   6.348
 6831SOL    HW221393   1.104   0.332   6.218
 6832SOL     OW21394   2.568   4.383   1.415
 6832SOL    HW121395   2.477   4.350   1.441
 6832SOL    HW221396   2.564   4.481   1.396
 6833SOL     OW21397   4.477   5.295   0.031
 6833SOL    HW121398   4.475   5.196   0.039
 6833SOL    HW221399   4.443   5.337   0.115
 6834SOL     OW21400   4.630   6.547   1.816
 6834SOL    HW121401   4.620   6.613   1.741
 6834SOL    HW221402   4.566   6.570   1.889
 6835SOL     OW21403   4.298   6.879   5.312
 6835SOL    HW121404   4.211   6.918   5.341
 6835SOL    HW221405   4.284   6.821   5.232
 6836SOL     OW21406   3.207   6.338   0.729
 6836SOL    HW121407   3.165   6.423   0.698
 6836SOL    HW221408   3.185   6.324   0.826
 6837SOL     OW21409   1.366   3.382   2.420
 6837SOL    HW121410   1.327   3.292   2.402
 6837SOL    HW221411   1.451   3.393   2.368
 6838SOL     OW21412   1.523   0.687   0.964
 6838SOL    HW121413   1.573   0.616   1.014
 6838SOL    HW221414   1.492   0.651   0.876
 6839SOL     OW21415   5.035   1.206   0.384
 6839SOL    HW121416   4.965   1.178   0.450
 6839SOL    HW221417   5.005   1.288   0.337
 6840SOL     OW21418   2.270   2.014   5.101
 6840SOL    HW121419   2.171   2.024   5.089
 6840SOL    HW221420   2.290   1.975   5.191
 6841SOL     OW21421   5.647   3.642   5.846
 6841SOL    HW121422   5.578   3.638   5.773
 6841SOL    HW221423   5.621   3.580   5.920
 6842SOL     OW21424   2.391   4.459   1.154
 6842SOL    HW121425   2.409   4.507   1.240
 6842SOL    HW221426   2.433   4.369   1.156
 6843SOL     OW21427   5.153   0.234   6.620
 6843SOL    HW121428   5.142   0.333   6.614
 6843SOL    HW221429   5.069   0.189   6.591
 6844SOL     OW21430   5.751   0.769   4.192
 6844SOL    HW121431   5.674   0.812   4.145
 6844SOL    HW221432   5.723   0.746   4.286
 6845SOL     OW21433   6.096   2.748   2.782
 6845SOL    HW121434   6.024   2.687   2.747
 6845SOL    HW221435   6.055   2.828   2.824
 6846SOL     OW21436   2.937   4.128   6.977
 6846SOL    HW121437   2.943   4.075   0.035
 6846SOL    HW221438   3.016   4.190   6.972
 6847SOL     OW21439   6.580   3.999   4.589
 6847SOL    HW121440   6.644   3.953   4.527
 6847SOL    HW221441   6.586   3.958   4.680
 6848SOL     OW21442   5.297   4.210   3.906
 6848SOL    HW121443   5.235   4.133   3.918
 6848SOL    HW221444   5.343   4.231   3.992
 6849SOL     OW21445   3.328   4.698   5.661
 6849SOL    HW121446   3.259   4.769   5.674
 6849SOL    HW221447   3.303   4.617   5.715
 6850SOL     OW21448   4.195   2.243   3.106
 6850SOL    HW121449   4.109   2.249   3.156
 6850SOL    HW221450   4.177   2.248   3.008
 6851SOL     OW21451   1.953   2.964   2.877
 6851SOL    HW121452   2.046   2.969   2.842
 6851SOL    HW221453   1.952   2.908   2.961
 6852SOL     OW21454   2.588   5.221   1.046
 6852SOL    HW121455   2.492   5.195   1.036
 6852SOL    HW221456   2.646   5.150   1.007
 6853SOL     OW21457   5.385   3.281   5.928
 6853SOL    HW121458   5.386   3.350   6.002
 6853SOL    HW221459   5.427   3.197   5.961
 6854SOL     OW21460   5.312   6.098   5.642
 6854SOL    HW121461   5.305   6.173   5.707
 6854SOL    HW221462   5.408   6.079   5.621
 6855SOL     OW21463   4.615   5.626   3.657
 6855SOL    HW121464   4.594   5.529   3.668
 6855SOL    HW221465   4.591   5.655   3.564
 6856SOL     OW21466   0.504   2.396   6.097
 6856SOL    HW121467   0.465   2.477   6.052
 6856SOL    HW221468   0.536   2.332   6.027
 6857SOL     OW21469   1.053   3.312   6.546
 6857SOL    HW121470   1.086   3.394   6.593
 6857SOL    HW221471   1.121   3.239   6.555
 6858SOL     OW21472   3.337   4.204   1.625
 6858SOL    HW121473   3.275   4.231   1.699
 6858SOL    HW221474   3.329   4.268   1.549
 6859SOL     OW21475   0.876   1.442   1.596
 6859SOL    HW121476   0.813   1.410   1.667
 6859SOL    HW221477   0.848   1.403   1.508
 6860SOL     OW21478   0.166   4.922   2.478
 6860SOL    HW121479   0.263   4.896   2.478
 6860SOL    HW221480   0.130   4.916   2.385
 6861SOL     OW21481   4.899   3.319   5.752
 6861SOL    HW121482   4.905   3.298   5.655
 6861SOL    HW221483   4.805   3.343   5.776
 6862SOL     OW21484   0.854   5.174   6.069
 6862SOL    HW121485   0.936   5.119   6.051
 6862SOL    HW221486   0.859   5.212   6.162
 6863SOL     OW21487   0.070   6.027   4.940
 6863SOL    HW121488   0.042   5.997   4.848
 6863SOL    HW221489   0.138   5.964   4.976
 6864SOL     OW21490   1.777   4.112   6.008
 6864SOL    HW121491   1.699   4.051   6.000
 6864SOL    HW221492   1.777   4.177   5.932
 6865SOL     OW21493   2.205   0.881   5.137
 6865SOL    HW121494   2.172   0.790   5.113
 6865SOL    HW221495   2.256   0.920   5.060
 6866SOL     OW21496   6.220   4.242   1.995
 6866SOL    HW121497   6.134   4.229   1.947
 6866SOL    HW221498   6.219   4.330   2.042
 6867SOL     OW21499   1.658   4.240   1.166
 6867SOL    HW121500   1.611   4.265   1.081
 6867SOL    HW221501   1.746   4.199   1.145
 6868SOL     OW21502   2.321   5.783   5.400
 6868SOL    HW121503   2.404   5.754   5.449
 6868SOL    HW221504   2.265   5.703   5.380
 6869SOL     OW21505   3.797   0.011   5.489
 6869SOL    HW121506   3.792   6.972   5.565
 6869SOL    HW221507   3.822   0.102   5.524
 6870SOL     OW21508   1.009   3.360   6.965
 6870SOL    HW121509   0.993   3.339   0.035
 6870SOL    HW221510   0.942   3.312   6.908
 6871SOL     OW21511   6.794   3.322   2.133
 6871SOL    HW121512   6.880   3.276   2.157
 6871SOL    HW221513   6.798   3.417   2.163
 6872SOL     OW21514   1.393   2.733   2.384
 6872SOL    HW121515   1.436   2.822   2.362
 6872SOL    HW221516   1.443   2.660   2.336
 6873SOL     OW21517   1.443   3.975   4.221
 6873SOL    HW121518   1.418   3.893   4.272
 6873SOL    HW221519   1.526   3.956   4.167
 6874SOL     OW21520   6.254   5.017   3.014
 6874SOL    HW121521   6.167   4.991   2.973
 6874SOL    HW221522   6.251   5.113   3.042
 6875SOL     OW21523   1.673   2.834   1.733
 6875SOL    HW121524   1.638   2.773   1.662
 6875SOL    HW221525   1.665   2.929   1.703
 6876SOL     OW21526   3.700   0.449   3.241
 6876SOL    HW121527   3.719   0.425   3.336
 6876SOL    HW221528   3.758   0.526   3.214
 6877SOL     OW21529   2.715   4.246   1.629
 6877SOL    HW121530   2.648   4.319   1.618
 6877SOL    HW221531   2.803   4.285   1.656
 6878SOL     OW21532   2.258   1.615   4.006
 6878SOL    HW121533   2.231   1.560   4.086
 6878SOL    HW221534   2.231   1.710   4.021
 6879SOL     OW21535   2.189   2.207   0.422
 6879SOL    HW121536   2.273   2.183   0.471
 6879SOL    HW221537   2.160   2.128   0.367
 6880SOL     OW21538   1.049   5.977   6.040
 6880SOL    HW121539   1.130   5.924   6.016
 6880SOL    HW221540   1.072   6.046   6.109
 6881SOL     OW21541   1.657   3.700   0.817
 6881SOL    HW121542   1.601   3.775   0.785
 6881SOL    HW221543   1.603   3.641   0.877
 6882SOL     OW21544   2.583   0.996   0.164
 6882SOL    HW121545   2.488   1.008   0.190
 6882SOL    HW221546   2.629   1.085   0.159
 6883SOL     OW21547   5.140   0.740   6.743
 6883SOL    HW121548   5.208   0.668   6.742
 6883SOL    HW221549   5.125   0.774   6.650
 6884SOL     OW21550   1.912   4.259   2.974
 6884SOL    HW121551   1.980   4.333   2.970
 6884SOL    HW221552   1.839   4.285   3.037
 6885SOL     OW21553   4.765   4.639   4.298
 6885SOL    HW121554   4.862   4.623   4.317
 6885SOL    HW221555   4.733   4.571   4.232
 6886SOL     OW21556   5.872   1.478   4.980
 6886SOL    HW121557   5.813   1.558   4.982
 6886SOL    HW221558   5.835   1.407   5.040
 6887SOL     OW21559   4.969   5.860   7.018
 6887SOL    HW121560   5.020   5.779   6.989
 6887SOL    HW221561   5.015   5.901   0.071
 6888SOL     OW21562   5.697   4.211   6.328
 6888SOL    HW121563   5.645   4.164   6.398
 6888SOL    HW221564   5.687   4.310   6.340
 6889SOL     OW21565   1.542   2.849   5.781
 6889SOL    HW121566   1.550   2.881   5.687
 6889SOL    HW221567   1.530   2.750   5.782
 6890SOL     OW21568   3.697   5.533   3.181
 6890SOL    HW121569   3.600   5.547   3.159
 6890SOL    HW221570   3.753   5.590   3.122
 6891SOL     OW21571   2.419   2.875   1.520
 6891SOL    HW121572   2.332   2.838   1.487
 6891SOL    HW221573   2.437   2.840   1.612
 6892SOL     OW21574   3.386   1.514   4.232
 6892SOL    HW121575   3.468   1.525   4.176
 6892SOL    HW221576   3.348   1.604   4.253
 6893SOL     OW21577   6.024   3.656   6.955
 6893SOL    HW121578   6.108   3.658   7.010
 6893SOL    HW221579   6.022   3.572   6.900
 6894SOL     OW21580   5.280   3.928   1.112
 6894SOL    HW121581   5.327   3.922   1.200
 6894SOL    HW221582   5.184   3.902   1.125
 6895SOL     OW21583   1.342   6.126   0.849
 6895SOL    HW121584   1.324   6.214   0.807
 6895SOL    HW221585   1.432   6.093   0.823
 6896SOL     OW21586   3.726   1.681   4.441
 6896SOL    HW121587   3.723   1.714   4.346
 6896SOL    HW221588   3.668   1.600   4.449
 6897SOL     OW21589   4.889   3.870   4.944
 6897SOL    HW121590   4.836   3.790   4.975
 6897SOL    HW221591   4.973   3.839   4.899
 6898SOL     OW21592   2.791   1.380   1.371
 6898SOL    HW121593   2.771   1.439   1.449
 6898SOL    HW221594   2.843   1.300   1.401
 6899SOL     OW21595   5.526   5.828   2.530
 6899SOL    HW121596   5.565   5.773   2.604
 6899SOL    HW221597   5.429   5.806   2.519
 6900SOL     OW21598   6.834   4.540   6.329
 6900SOL    HW121599   6.764   4.542   6.256
 6900SOL    HW221600   6.915   4.491   6.295
 6901SOL     OW21601   4.563   4.711   6.776
 6901SOL    HW121602   4.617   4.767   6.839
 6901SOL    HW221603   4.624   4.663   6.714
 6902SOL     OW21604   6.740   5.944   5.907
 6902SOL    HW121605   6.753   6.025   5.850
 6902SOL    HW221606   6.718   5.973   6.001
 6903SOL     OW21607   2.488   4.994   5.359
 6903SOL    HW121608   2.537   5.053   5.295
 6903SOL    HW221609   2.435   4.926   5.308
 6904SOL     OW21610   0.415   6.185   5.563
 6904SOL    HW121611   0.514   6.182   5.553
 6904SOL    HW221612   0.389   6.153   5.654
 6905SOL     OW21613   5.461   5.310   0.170
 6905SOL    HW121614   5.486   5.402   0.200
 6905SOL    HW221615   5.540   5.250   0.179
 6906SOL     OW21616   3.680   1.841   3.928
 6906SOL    HW121617   3.764   1.858   3.875
 6906SOL    HW221618   3.668   1.913   3.995
 6907SOL     OW21619   6.283   2.003   1.694
 6907SOL    HW121620   6.250   1.933   1.630
 6907SOL    HW221621   6.227   2.086   1.684
 6908SOL     OW21622   2.313   4.617   6.770
 6908SOL    HW121623   2.331   4.551   6.698
 6908SOL    HW221624   2.376   4.600   6.847
 6909SOL     OW21625   5.166   4.832   2.024
 6909SOL    HW121626   5.159   4.902   2.094
 6909SOL    HW221627   5.180   4.875   1.935
 6910SOL     OW21628   1.358   3.261   3.182
 6910SOL    HW121629   1.385   3.321   3.107
 6910SOL    HW221630   1.439   3.236   3.235
 6911SOL     OW21631   3.714   0.102   5.234
 6911SOL    HW121632   3.792   0.154   5.199
 6911SOL    HW221633   3.729   0.081   5.331
 6912SOL     OW21634   2.292   3.235   5.934
 6912SOL    HW121635   2.253   3.278   5.853
 6912SOL    HW221636   2.386   3.208   5.915
 6913SOL     OW21637   5.312   6.398   5.222
 6913SOL    HW121638   5.335   6.316   5.276
 6913SOL    HW221639   5.279   6.370   5.132
 6914SOL     OW21640   6.291   4.093   1.660
 6914SOL    HW121641   6.207   4.101   1.713
 6914SOL    HW221642   6.283   4.017   1.596
 6915SOL     OW21643   1.033   3.312   2.197
 6915SOL    HW121644   1.062   3.277   2.108
 6915SOL    HW221645   0.934   3.325   2.198
 6916SOL     OW21646   5.167   1.058   6.020
 6916SOL    HW121647   5.145   0.963   6.000
 6916SOL    HW221648   5.089   1.102   6.063
 6917SOL     OW21649   4.902   5.588   1.881
 6917SOL    HW121650   4.902   5.523   1.804
 6917SOL    HW221651   4.988   5.579   1.931
 6918SOL     OW21652   0.486   3.185   2.143
 6918SOL    HW121653   0.423   3.113   2.114
 6918SOL    HW221654   0.575   3.144   2.163
 6919SOL     OW21655   6.035   6.535   2.926
 6919SOL    HW121656   5.953   6.591   2.916
 6919SOL    HW221657   6.018   6.461   2.991
 6920SOL     OW21658   4.750   6.866   5.331
 6920SOL    HW121659   4.694   6.921   5.269
 6920SOL    HW221660   4.694   6.836   5.408
 6921SOL     OW21661   4.202   0.171   4.109
 6921SOL    HW121662   4.260   0.247   4.139
 6921SOL    HW221663   4.260   0.094   4.082
 6922SOL     OW21664   1.850   6.178   4.477
 6922SOL    HW121665   1.864   6.105   4.410
 6922SOL    HW221666   1.755   6.176   4.508
 6923SOL     OW21667   5.912   6.175   2.810
 6923SOL    HW121668   5.933   6.257   2.864
 6923SOL    HW221669   5.950   6.094   2.856
 6924SOL     OW21670   3.512   5.964   1.471
 6924SOL    HW121671   3.549   5.882   1.514
 6924SOL    HW221672   3.461   5.938   1.389
 6925SOL     OW21673   4.856   6.154   6.387
 6925SOL    HW121674   4.913   6.215   6.331
 6925SOL    HW221675   4.820   6.205   6.465
 6926SOL     OW21676   2.230   1.323   0.218
 6926SOL    HW121677   2.143   1.330   0.169
 6926SOL    HW221678   2.221   1.367   0.308
 6927SOL     OW21679   4.086   0.997   0.303
 6927SOL    HW121680   4.068   0.925   0.371
 6927SOL    HW221681   4.032   1.078   0.325
 6928SOL     OW21682   4.982   5.290   0.613
 6928SOL    HW121683   4.916   5.343   0.667
 6928SOL    HW221684   4.940   5.264   0.526
 6929SOL     OW21685   5.549   5.169   1.642
 6929SOL    HW121686   5.621   5.211   1.698
 6929SOL    HW221687   5.589   5.095   1.587
 6930SOL     OW21688   0.767   1.205   0.560
 6930SOL    HW121689   0.701   1.280   0.572
 6930SOL    HW221690   0.853   1.242   0.526
 6931SOL     OW21691   2.404   1.892   1.117
 6931SOL    HW121692   2.366   1.801   1.101
 6931SOL    HW221693   2.330   1.958   1.129
 6932SOL     OW21694   4.545   4.760   0.601
 6932SOL    HW121695   4.532   4.728   0.507
 6932SOL    HW221696   4.610   4.836   0.601
 6933SOL     OW21697   3.752   6.108   6.133
 6933SOL    HW121698   3.699   6.160   6.066
 6933SOL    HW221699   3.842   6.150   6.144
 6934SOL     OW21700   4.858   3.831   6.371
 6934SOL    HW121701   4.849   3.747   6.425
 6934SOL    HW221702   4.930   3.819   6.302
 6935SOL     OW21703   4.603   5.637   2.597
 6935SOL    HW121704   4.672   5.694   2.642
 6935SOL    HW221705   4.545   5.593   2.666
 6936SOL     OW21706   0.484   2.288   4.310
 6936SOL    HW121707   0.385   2.293   4.325
 6936SOL    HW221708   0.521   2.210   4.360
 6937SOL     OW21709   5.933   6.102   0.491
 6937SOL    HW121710   5.878   6.185   0.492
 6937SOL    HW221711   6.018   6.117   0.541
 6938SOL     OW21712   0.366   0.802   4.781
 6938SOL    HW121713   0.281   0.794   4.729
 6938SOL    HW221714   0.424   0.723   4.761
 6939SOL     OW21715   6.678   5.270   3.598
 6939SOL    HW121716   6.732   5.335   3.544
 6939SOL    HW221717   6.700   5.281   3.695
 6940SOL     OW21718   4.994   6.799   0.269
 6940SOL    HW121719   5.059   6.722   0.272
 6940SOL    HW221720   5.045   6.885   0.272
 6941SOL     OW21721   2.975   3.647   2.197
 6941SOL    HW121722   2.942   3.570   2.252
 6941SOL    HW221723   2.918   3.656   2.115
 6942SOL     OW21724   6.335   6.460   1.784
 6942SOL    HW121725   6.363   6.438   1.691
 6942SOL    HW221726   6.416   6.464   1.843
 6943SOL     OW21727   3.732   4.888   7.023
 6943SOL    HW121728   3.751   4.954   0.069
 6943SOL    HW221729   3.675   4.931   6.953
 6944SOL     OW21730   0.924   4.819   6.163
 6944SOL    HW121731   0.936   4.872   6.248
 6944SOL    HW221732   0.972   4.866   6.089
 6945SOL     OW21733   6.504   2.431   0.625
 6945SOL    HW121734   6.458   2.350   0.590
 6945SOL    HW221735   6.552   2.477   0.551
 6946SOL     OW21736   3.878   6.027   2.049
 6946SOL    HW121737   3.822   6.030   2.133
 6946SOL    HW221738   3.889   6.120   2.014
 6947SOL     OW21739   4.182   4.948   6.205
 6947SOL    HW121740   4.128   4.865   6.219
 6947SOL    HW221741   4.249   4.956   6.279
 6948SOL     OW21742   0.213   6.501   1.298
 6948SOL    HW121743   0.137   6.565   1.305
 6948SOL    HW221744   0.185   6.412   1.332
 6949SOL     OW21745   2.578   2.331   3.311
 6949SOL    HW121746   2.578   2.385   3.395
 6949SOL    HW221747   2.598   2.391   3.233
 6950SOL     OW21748   1.163   0.099   4.079
 6950SOL    HW121749   1.250   0.068   4.040
 6950SOL    HW221750   1.088   0.069   4.021
 6951SOL     OW21751   6.399   5.333   6.803
 6951SOL    HW121752   6.361   5.263   6.864
 6951SOL    HW221753   6.368   5.316   6.710
 6952SOL     OW21754   2.931   4.968   3.155
 6952SOL    HW121755   2.842   4.994   3.192
 6952SOL    HW221756   2.922   4.941   3.060
 6953SOL     OW21757   5.318   0.031   0.713
 6953SOL    HW121758   5.239   7.022   0.662
 6953SOL    HW221759   5.299   0.027   0.811
 6954SOL     OW21760   0.004   3.376   1.110
 6954SOL    HW121761   6.936   3.400   1.136
 6954SOL    HW221762   0.051   3.457   1.076
 6955SOL     OW21763   5.106   0.119   2.593
 6955SOL    HW121764   5.139   0.131   2.499
 6955SOL    HW221765   5.094   0.022   2.611
 6956SOL     OW21766   5.886   5.748   2.098
 6956SOL    HW121767   5.860   5.710   2.187
 6956SOL    HW221768   5.849   5.840   2.089
 6957SOL     OW21769   5.207   6.097   6.435
 6957SOL    HW121770   5.275   6.024   6.437
 6957SOL    HW221771   5.174   6.110   6.342
 6958SOL     OW21772   3.624   3.511   4.087
 6958SOL    HW121773   3.526   3.530   4.085
 6958SOL    HW221774   3.661   3.522   3.995
 6959SOL     OW21775   1.643   3.909   3.173
 6959SOL    HW121776   1.735   3.891   3.207
 6959SOL    HW221777   1.610   3.828   3.124
 6960SOL     OW21778   1.491   4.661   0.842
 6960SOL    HW121779   1.500   4.760   0.852
 6960SOL    HW221780   1.396   4.637   0.821
 6961SOL     OW21781   4.327   1.160   4.601
 6961SOL    HW121782   4.265   1.202   4.668
 6961SOL    HW221783   4.420   1.159   4.638
 6962SOL     OW21784   3.451   6.471   0.047
 6962SOL    HW121785   3.501   6.421   7.003
 6962SOL    HW221786   3.448   6.568   0.022
 6963SOL     OW21787   5.103   5.896   0.248
 6963SOL    HW121788   5.158   5.956   0.306
 6963SOL    HW221789   5.146   5.806   0.243
 6964SOL     OW21790   3.000   0.265   5.565
 6964SOL    HW121791   3.079   0.217   5.528
 6964SOL    HW221792   2.944   0.200   5.618
 6965SOL     OW21793   1.132   2.157   0.112
 6965SOL    HW121794   1.051   2.205   0.079
 6965SOL    HW221795   1.203   2.160   0.041
 6966SOL     OW21796   1.403   1.002   1.915
 6966SOL    HW121797   1.401   1.070   1.988
 6966SOL    HW221798   1.318   0.950   1.915
 6967SOL     OW21799   3.657   1.372   6.234
 6967SOL    HW121800   3.696   1.433   6.166
 6967SOL    HW221801   3.568   1.407   6.263
 6968SOL     OW21802   3.575   0.073   3.270
 6968SOL    HW121803   3.568   0.138   3.346
 6968SOL    HW221804   3.644   0.105   3.205
 6969SOL     OW21805   3.002   1.779   1.163
 6969SOL    HW121806   2.983   1.681   1.163
 6969SOL    HW221807   2.943   1.824   1.229
 6970SOL     OW21808   3.213   4.852   6.202
 6970SOL    HW121809   3.171   4.763   6.223
 6970SOL    HW221810   3.145   4.924   6.215
 6971SOL     OW21811   5.270   4.224   1.202
 6971SOL    HW121812   5.208   4.148   1.183
 6971SOL    HW221813   5.233   4.280   1.276
 6972SOL     OW21814   4.893   3.484   3.071
 6972SOL    HW121815   4.899   3.537   3.156
 6972SOL    HW221816   4.967   3.416   3.070
 6973SOL     OW21817   1.351   2.297   2.713
 6973SOL    HW121818   1.383   2.306   2.618
 6973SOL    HW221819   1.271   2.355   2.727
 6974SOL     OW21820   3.056   3.933   2.388
 6974SOL    HW121821   3.061   3.849   2.334
 6974SOL    HW221822   2.961   3.966   2.389
 6975SOL     OW21823   3.228   5.545   4.646
 6975SOL    HW121824   3.135   5.547   4.610
 6975SOL    HW221825   3.238   5.468   4.709
 6976SOL     OW21826   4.880   4.041   5.321
 6976SOL    HW121827   4.794   4.089   5.304
 6976SOL    HW221828   4.917   4.007   5.235
 6977SOL     OW21829   4.054   4.164   1.579
 6977SOL    HW121830   4.056   4.074   1.622
 6977SOL    HW221831   3.974   4.171   1.519
 6978SOL     OW21832   5.956   3.033   0.858
 6978SOL    HW121833   6.010   3.114   0.882
 6978SOL    HW221834   5.915   2.995   0.941
 6979SOL     OW21835   1.176   3.432   1.425
 6979SOL    HW121836   1.089   3.462   1.464
 6979SOL    HW221837   1.251   3.486   1.464
 6980SOL     OW21838   1.655   0.692   2.915
 6980SOL    HW121839   1.662   0.636   2.998
 6980SOL    HW221840   1.571   0.746   2.918
 6981SOL     OW21841   3.732   3.411   6.849
 6981SOL    HW121842   3.717   3.469   6.928
 6981SOL    HW221843   3.824   3.427   6.813
 6982SOL     OW21844   1.095   1.071   4.004
 6982SOL    HW121845   1.168   1.061   4.072
 6982SOL    HW221846   1.088   0.986   3.951
 6983SOL     OW21847   4.159   1.152   5.067
 6983SOL    HW121848   4.150   1.144   4.968
 6983SOL    HW221849   4.250   1.123   5.095
 6984SOL     OW21850   1.537   2.577   2.959
 6984SOL    HW121851   1.564   2.539   2.871
 6984SOL    HW221852   1.441   2.553   2.978
 6985SOL     OW21853   6.847   4.499   0.164
 6985SOL    HW121854   6.817   4.503   0.068
 6985SOL    HW221855   6.825   4.409   0.202
 6986SOL     OW21856   3.842   6.236   6.362
 6986SOL    HW121857   3.882   6.148   6.386
 6986SOL    HW221858   3.823   6.288   6.446
 6987SOL     OW21859   0.107   1.738   5.462
 6987SOL    HW121860   0.044   1.815   5.455
 6987SOL    HW221861   0.113   1.708   5.557
 6988SOL     OW21862   2.861   0.281   6.119
 6988SOL    HW121863   2.867   0.220   6.198
 6988SOL    HW221864   2.897   0.235   6.038
 6989SOL     OW21865   6.733   4.335   2.116
 6989SOL    HW121866   6.819   4.309   2.159
 6989SOL    HW221867   6.663   4.268   2.139
 6990SOL     OW21868   3.907   3.040   1.992
 6990SOL    HW121869   3.994   3.058   2.036
 6990SOL    HW221870   3.841   3.006   2.059
 6991SOL     OW21871   5.340   4.670   3.182
 6991SOL    HW121872   5.368   4.706   3.093
 6991SOL    HW221873   5.306   4.744   3.239
 6992SOL     OW21874   0.252   6.650   0.489
 6992SOL    HW121875   0.211   6.702   0.414
 6992SOL    HW221876   0.179   6.614   0.548
 6993SOL     OW21877   5.728   1.078   1.837
 6993SOL    HW121878   5.751   1.044   1.746
 6993SOL    HW221879   5.630   1.098   1.841
 6994SOL     OW21880   1.473   0.003   3.579
 6994SOL    HW121881   1.539   0.045   3.641
 6994SOL    HW221882   1.515   6.950   3.535
 6995SOL     OW21883   0.781   3.733   0.163
 6995SOL    HW121884   0.754   3.637   0.175
 6995SOL    HW221885   0.727   3.791   0.224
 6996SOL     OW21886   1.527   0.939   6.784
 6996SOL    HW121887   1.492   0.855   6.743
 6996SOL    HW221888   1.481   0.955   6.871
 6997SOL     OW21889   6.939   4.694   5.278
 6997SOL    HW121890   6.959   4.760   5.206
 6997SOL    HW221891   6.883   4.620   5.242
 6998SOL     OW21892   1.166   1.517   1.347
 6998SOL    HW121893   1.123   1.459   1.279
 6998SOL    HW221894   1.174   1.467   1.433
 6999SOL     OW21895   0.590   2.840   6.500
 6999SOL    HW121896   0.575   2.741   6.503
 6999SOL    HW221897   0.636   2.869   6.584
 7000SOL     OW21898   6.072   0.349   2.792
 7000SOL    HW121899   6.033   0.258   2.801
 7000SOL    HW221900   6.006   0.409   2.746
 7001SOL     OW21901   0.992   1.471   4.409
 7001SOL    HW121902   1.074   1.464   4.353
 7001SOL    HW221903   0.944   1.383   4.408
 7002SOL     OW21904   0.688   5.629   3.829
 7002SOL    HW121905   0.671   5.559   3.899
 7002SOL    HW221906   0.783   5.622   3.799
 7003SOL     OW21907   5.848   4.703   0.827
 7003SOL    HW121908   5.906   4.683   0.905
 7003SOL    HW221909   5.873   4.791   0.787
 7004SOL     OW21910   1.557   5.795   0.339
 7004SOL    HW121911   1.461   5.768   0.328
 7004SOL    HW221912   1.566   5.893   0.320
 7005SOL     OW21913   1.078   0.440   6.985
 7005SOL    HW121914   1.041   0.350   7.008
 7005SOL    HW221915   1.076   0.498   0.041
 7006SOL     OW21916   6.779   6.548   3.528
 7006SOL    HW121917   6.831   6.613   3.473
 7006SOL    HW221918   6.829   6.529   3.613
 7007SOL     OW21919   4.203   0.745   5.712
 7007SOL    HW121920   4.127   0.809   5.723
 7007SOL    HW221921   4.248   0.732   5.800
 7008SOL     OW21922   6.601   4.278   3.454
 7008SOL    HW121923   6.649   4.224   3.524
 7008SOL    HW221924   6.558   4.216   3.389
 7009SOL     OW21925   3.877   6.553   2.286
 7009SOL    HW121926   3.812   6.488   2.324
 7009SOL    HW221927   3.829   6.619   2.228
 7010SOL     OW21928   5.641   4.002   2.548
 7010SOL    HW121929   5.659   4.042   2.458
 7010SOL    HW221930   5.633   4.074   2.616
 7011SOL     OW21931   3.608   6.568   0.501
 7011SOL    HW121932   3.521   6.579   0.550
 7011SOL    HW221933   3.605   6.622   0.417
 7012SOL     OW21934   1.399   2.962   0.934
 7012SOL    HW121935   1.403   3.049   0.886
 7012SOL    HW221936   1.358   2.893   0.875
 7013SOL     OW21937   2.576   0.857   6.883
 7013SOL    HW121938   2.568   0.956   6.882
 7013SOL    HW221939   2.499   0.816   6.834
 7014SOL     OW21940   5.992   3.847   1.004
 7014SOL    HW121941   5.894   3.845   1.022
 7014SOL    HW221942   6.033   3.761   1.035
 7015SOL     OW21943   6.007   4.179   2.481
 7015SOL    HW121944   6.084   4.201   2.420
 7015SOL    HW221945   6.033   4.197   2.575
 7016SOL     OW21946   3.374   4.866   1.135
 7016SOL    HW121947   3.380   4.954   1.182
 7016SOL    HW221948   3.294   4.865   1.075
 7017SOL     OW21949   3.877   4.839   3.506
 7017SOL    HW121950   3.799   4.878   3.554
 7017SOL    HW221951   3.962   4.875   3.545
 7018SOL     OW21952   4.983   3.165   4.376
 7018SOL    HW121953   4.966   3.104   4.299
 7018SOL    HW221954   4.897   3.206   4.407
 7019SOL     OW21955   4.829   5.397   2.199
 7019SOL    HW121956   4.907   5.350   2.159
 7019SOL    HW221957   4.790   5.342   2.273
 7020SOL     OW21958   0.795   3.254   6.569
 7020SOL    HW121959   0.800   3.173   6.626
 7020SOL    HW221960   0.887   3.291   6.556
 7021SOL     OW21961   0.792   2.708   5.129
 7021SOL    HW121962   0.839   2.727   5.216
 7021SOL    HW221963   0.786   2.610   5.115
 7022SOL     OW21964   4.159   0.534   6.999
 7022SOL    HW121965   4.125   0.441   7.009
 7022SOL    HW221966   4.106   0.595   0.033
 7023SOL     OW21967   0.614   1.659   1.986
 7023SOL    HW121968   0.582   1.582   1.931
 7023SOL    HW221969   0.538   1.696   2.040
 7024SOL     OW21970   3.728   2.948   3.832
 7024SOL    HW121971   3.725   2.924   3.930
 7024SOL    HW221972   3.763   3.041   3.822
 7025SOL     OW21973   3.178   0.120   6.997
 7025SOL    HW121974   3.240   0.151   6.926
 7025SOL    HW221975   3.177   0.186   0.046
 7026SOL     OW21976   3.435   1.535   1.203
 7026SOL    HW121977   3.513   1.596   1.211
 7026SOL    HW221978   3.351   1.585   1.227
 7027SOL     OW21979   2.350   5.782   3.156
 7027SOL    HW121980   2.363   5.881   3.155
 7027SOL    HW221981   2.270   5.758   3.102
 7028SOL     OW21982   2.700   0.788   3.863
 7028SOL    HW121983   2.760   0.737   3.801
 7028SOL    HW221984   2.616   0.736   3.877
 7029SOL     OW21985   3.225   3.356   5.665
 7029SOL    HW121986   3.257   3.438   5.619
 7029SOL    HW221987   3.304   3.306   5.702
 7030SOL     OW21988   0.566   1.747   4.680
 7030SOL    HW121989   0.582   1.823   4.743
 7030SOL    HW221990   0.556   1.662   4.731
 7031SOL     OW21991   4.572   5.992   0.644
 7031SOL    HW121992   4.536   6.083   0.664
 7031SOL    HW221993   4.508   5.923   0.675
 7032SOL     OW21994   4.002   0.309   3.993
 7032SOL    HW121995   4.070   0.245   4.030
 7032SOL    HW221996   3.936   0.259   3.937
 7033SOL     OW21997   1.393   2.515   4.972
 7033SOL    HW121998   1.455   2.510   4.894
 7033SOL    HW221999   1.408   2.436   5.032
 7034SOL     OW22000   6.409   2.310   3.415
 7034SOL    HW122001   6.368   2.356   3.336
 7034SOL    HW222002   6.476   2.244   3.382
 7035SOL     OW22003   1.745   0.139   1.798
 7035SOL    HW122004   1.710   0.223   1.840
 7035SOL    HW222005   1.812   0.162   1.728
 7036SOL     OW22006   0.403   1.184   2.209
 7036SOL    HW122007   0.340   1.260   2.229
 7036SOL    HW222008   0.474   1.181   2.279
 7037SOL     OW22009   0.168   0.227   5.369
 7037SOL    HW122010   0.197   0.310   5.322
 7037SOL    HW222011   0.128   0.251   5.458
 7038SOL     OW22012   2.350   4.468   6.208
 7038SOL    HW122013   2.285   4.456   6.133
 7038SOL    HW222014   2.428   4.407   6.195
 7039SOL     OW22015   0.796   5.342   3.285
 7039SOL    HW122016   0.697   5.354   3.275
 7039SOL    HW222017   0.816   5.250   3.320
 7040SOL     OW22018   4.324   2.019   5.025
 7040SOL    HW122019   4.256   2.084   4.991
 7040SOL    HW222020   4.330   2.026   5.125
 7041SOL     OW22021   1.077   1.464   3.422
 7041SOL    HW122022   0.991   1.448   3.375
 7041SOL    HW222023   1.137   1.384   3.410
 7042SOL     OW22024   4.449   6.068   5.043
 7042SOL    HW122025   4.499   6.146   5.006
 7042SOL    HW222026   4.436   6.000   4.971
 7043SOL     OW22027   2.394   4.464   3.527
 7043SOL    HW122028   2.434   4.420   3.446
 7043SOL    HW222029   2.315   4.519   3.498
 7044SOL     OW22030   4.896   6.428   4.449
 7044SOL    HW122031   4.930   6.367   4.520
 7044SOL    HW222032   4.836   6.378   4.387
 7045SOL     OW22033   6.093   5.420   2.335
 7045SOL    HW122034   6.055   5.445   2.247
 7045SOL    HW222035   6.021   5.386   2.395
 7046SOL     OW22036   2.967   2.111   4.336
 7046SOL    HW122037   2.883   2.090   4.386
 7046SOL    HW222038   3.029   2.163   4.395
 7047SOL     OW22039   0.565   0.566   1.555
 7047SOL    HW122040   0.629   0.530   1.623
 7047SOL    HW222041   0.512   0.640   1.595
 7048SOL     OW22042   6.728   6.340   5.305
 7048SOL    HW122043   6.694   6.308   5.217
 7048SOL    HW222044   6.828   6.332   5.307
 7049SOL     OW22045   4.009   1.533   1.944
 7049SOL    HW122046   4.064   1.593   1.884
 7049SOL    HW222047   3.927   1.505   1.896
 7050SOL     OW22048   3.728   4.964   0.824
 7050SOL    HW122049   3.713   5.016   0.908
 7050SOL    HW222050   3.641   4.950   0.777
 7051SOL     OW22051   0.301   0.037   1.950
 7051SOL    HW122052   0.287   0.129   1.986
 7051SOL    HW222053   0.290   6.997   2.024
 7052SOL     OW22054   5.450   6.759   3.103
 7052SOL    HW122055   5.494   6.840   3.064
 7052SOL    HW222056   5.464   6.758   3.202
 7053SOL     OW22057   1.394   3.241   3.906
 7053SOL    HW122058   1.305   3.208   3.876
 7053SOL    HW222059   1.391   3.263   4.004
 7054SOL     OW22060   0.022   0.302   1.160
 7054SOL    HW122061   7.004   0.390   1.180
 7054SOL    HW222062   0.115   0.318   1.126
 7055SOL     OW22063   1.760   0.384   6.633
 7055SOL    HW122064   1.730   0.334   6.552
 7055SOL    HW222065   1.682   0.430   6.674
 7056SOL     OW22066   6.280   5.923   1.257
 7056SOL    HW122067   6.322   5.996   1.204
 7056SOL    HW222068   6.348   5.851   1.274
 7057SOL     OW22069   2.948   4.853   4.709
 7057SOL    HW122070   2.884   4.779   4.729
 7057SOL    HW222071   2.902   4.923   4.654
 7058SOL     OW22072   5.172   2.135   6.752
 7058SOL    HW122073   5.131   2.172   6.670
 7058SOL    HW222074   5.212   2.045   6.732
 7059SOL     OW22075   1.979   1.578   4.722
 7059SOL    HW122076   2.009   1.505   4.783
 7059SOL    HW222077   2.026   1.570   4.634
 7060SOL     OW22078   3.191   6.961   2.646
 7060SOL    HW122079   3.106   6.993   2.605
 7060SOL    HW222080   3.256   6.937   2.574
 7061SOL     OW22081   1.749   2.037   2.679
 7061SOL    HW122082   1.729   2.047   2.776
 7061SOL    HW222083   1.674   2.078   2.625
 7062SOL     OW22084   4.655   1.681   3.841
 7062SOL    HW122085   4.714   1.601   3.857
 7062SOL    HW222086   4.671   1.749   3.912
 7063SOL     OW22087   0.650   6.697   2.511
 7063SOL    HW122088   0.556   6.663   2.503
 7063SOL    HW222089   0.656   6.788   2.470
 7064SOL     OW22090   4.735   1.855   5.625
 7064SOL    HW122091   4.755   1.912   5.545
 7064SOL    HW222092   4.796   1.776   5.625
 7065SOL     OW22093   3.599   4.730   5.532
 7065SOL    HW122094   3.550   4.659   5.583
 7065SOL    HW222095   3.651   4.689   5.458
 7066SOL     OW22096   4.725   0.196   6.954
 7066SOL    HW122097   4.631   0.163   6.943
 7066SOL    HW222098   4.742   0.272   6.892
 7067SOL     OW22099   1.880   3.313   6.952
 7067SOL    HW122100   1.909   3.409   6.952
 7067SOL    HW222101   1.819   3.297   0.004
 7068SOL     OW22102   5.708   4.230   4.223
 7068SOL    HW122103   5.646   4.154   4.242
 7068SOL    HW222104   5.695   4.261   4.129
 7069SOL     OW22105   6.042   1.246   5.637
 7069SOL    HW122106   6.012   1.151   5.638
 7069SOL    HW222107   6.047   1.280   5.731
 7070SOL     OW22108   0.276   6.667   4.993
 7070SOL    HW122109   0.247   6.686   5.087
 7070SOL    HW222110   0.357   6.608   4.995
 7071SOL     OW22111   4.991   6.535   6.557
 7071SOL    HW122112   5.080   6.568   6.524
 7071SOL    HW222113   5.001   6.443   6.595
 7072SOL     OW22114   0.584   4.178   6.621
 7072SOL    HW122115   0.532   4.197   6.538
 7072SOL    HW222116   0.635   4.093   6.609
 7073SOL     OW22117   4.306   0.294   3.437
 7073SOL    HW122118   4.299   0.297   3.337
 7073SOL    HW222119   4.342   0.381   3.471
 7074SOL     OW22120   6.650   3.220   3.397
 7074SOL    HW122121   6.720   3.192   3.331
 7074SOL    HW222122   6.570   3.255   3.349
 7075SOL     OW22123   3.411   4.718   5.300
 7075SOL    HW122124   3.328   4.662   5.300
 7075SOL    HW222125   3.454   4.714   5.391
 7076SOL     OW22126   5.950   3.370   1.733
 7076SOL    HW122127   6.000   3.440   1.682
 7076SOL    HW222128   5.858   3.404   1.754
 7077SOL     OW22129   2.408   5.029   2.263
 7077SOL    HW122130   2.488   4.991   2.310
 7077SOL    HW222131   2.376   5.110   2.312
 7078SOL     OW22132   5.632   6.916   0.560
 7078SOL    HW122133   5.588   6.973   0.629
 7078SOL    HW222134   5.568   6.900   0.484
 7079SOL     OW22135   1.068   6.977   3.719
 7079SOL    HW122136   1.031   6.924   3.643
 7079SOL    HW222137   1.149   0.001   3.688
 7080SOL     OW22138   4.200   1.795   4.951
 7080SOL    HW122139   4.246   1.881   4.974
 7080SOL    HW222140   4.150   1.761   5.031
 7081SOL     OW22141   1.452   1.161   0.153
 7081SOL    HW122142   1.377   1.185   0.216
 7081SOL    HW222143   1.538   1.196   0.190
 7082SOL     OW22144   6.721   3.627   2.050
 7082SOL    HW122145   6.643   3.565   2.059
 7082SOL    HW222146   6.690   3.713   2.010
 7083SOL     OW22147   6.693   2.619   2.545
 7083SOL    HW122148   6.635   2.563   2.486
 7083SOL    HW222149   6.653   2.710   2.553
 7084SOL     OW22150   0.573   5.620   6.992
 7084SOL    HW122151   0.523   5.702   6.964
 7084SOL    HW222152   0.671   5.641   6.995
 7085SOL     OW22153   0.212   2.615   2.601
 7085SOL    HW122154   0.165   2.703   2.594
 7085SOL    HW222155   0.190   2.572   2.688
 7086SOL     OW22156   6.333   0.920   6.729
 7086SOL    HW122157   6.385   0.842   6.695
 7086SOL    HW222158   6.390   1.002   6.724
 7087SOL     OW22159   5.485   2.948   2.897
 7087SOL    HW122160   5.522   3.011   2.965
 7087SOL    HW222161   5.547   2.942   2.819
 7088SOL     OW22162   5.654   1.618   5.137
 7088SOL    HW122163   5.628   1.714   5.134
 7088SOL    HW222164   5.741   1.609   5.186
 7089SOL     OW22165   4.318   5.497   2.419
 7089SOL    HW122166   4.398   5.466   2.368
 7089SOL    HW222167   4.318   5.597   2.424
 7090SOL     OW22168   3.672   1.570   0.884
 7090SOL    HW122169   3.578   1.556   0.916
 7090SOL    HW222170   3.736   1.554   0.960
 7091SOL     OW22171   0.702   0.057   0.305
 7091SOL    HW122172   0.708   6.984   0.300
 7091SOL    HW222173   0.756   0.091   0.382
 7092SOL     OW22174   4.167   1.985   6.668
 7092SOL    HW122175   4.144   2.040   6.749
 7092SOL    HW222176   4.132   2.031   6.586
 7093SOL     OW22177   3.140   3.768   0.641
 7093SOL    HW122178   3.181   3.716   0.567
 7093SOL    HW222179   3.091   3.706   0.702
 7094SOL     OW22180   2.227   6.966   5.515
 7094SOL    HW122181   2.253   6.871   5.497
 7094SOL    HW222182   2.165   6.999   5.444
 7095SOL     OW22183   3.018   4.857   5.523
 7095SOL    HW122184   3.018   4.956   5.507
 7095SOL    HW222185   2.924   4.823   5.519
 7096SOL     OW22186   6.774   0.624   1.063
 7096SOL    HW122187   6.840   0.633   1.137
 7096SOL    HW222188   6.758   0.714   1.022
 7097SOL     OW22189   5.702   0.097   1.798
 7097SOL    HW122190   5.724   0.091   1.701
 7097SOL    HW222191   5.756   0.029   1.849
 7098SOL     OW22192   1.524   6.955   4.121
 7098SOL    HW122193   1.472   6.969   4.037
 7098SOL    HW222194   1.542   0.018   4.165
 7099SOL     OW22195   3.450   2.037   4.330
 7099SOL    HW122196   3.465   1.950   4.378
 7099SOL    HW222197   3.427   2.108   4.396
 7100SOL     OW22198   0.807   3.375   0.904
 7100SOL    HW122199   0.846   3.284   0.888
 7100SOL    HW222200   0.805   3.426   0.818
 7101SOL     OW22201   1.917   6.777   5.248
 7101SOL    HW122202   1.942   6.690   5.290
 7101SOL    HW222203   1.975   6.793   5.167
 7102SOL     OW22204   4.796   1.044   0.472
 7102SOL    HW122205   4.866   0.974   0.486
 7102SOL    HW222206   4.782   1.096   0.557
 7103SOL     OW22207   5.273   5.279   2.409
 7103SOL    HW122208   5.304   5.197   2.457
 7103SOL    HW222209   5.198   5.322   2.460
 7104SOL     OW22210   5.652   3.076   3.137
 7104SOL    HW122211   5.601   3.102   3.219
 7104SOL    HW222212   5.658   2.976   3.132
 7105SOL     OW22213   3.451   4.188   3.890
 7105SOL    HW122214   3.499   4.104   3.916
 7105SOL    HW222215   3.425   4.238   3.973
 7106SOL     OW22216   3.778   2.884   1.518
 7106SOL    HW122217   3.696   2.849   1.564
 7106SOL    HW222218   3.832   2.938   1.582
 7107SOL     OW22219   4.355   6.813   0.127
 7107SOL    HW122220   4.326   6.718   0.117
 7107SOL    HW222221   4.377   6.851   0.036
 7108SOL     OW22222   2.954   6.260   2.738
 7108SOL    HW122223   2.964   6.272   2.837
 7108SOL    HW222224   2.929   6.347   2.696
 7109SOL     OW22225   1.608   0.430   6.248
 7109SOL    HW122226   1.677   0.502   6.241
 7109SOL    HW222227   1.653   0.341   6.252
 7110SOL     OW22228   3.103   6.461   4.582
 7110SOL    HW122229   3.145   6.473   4.672
 7110SOL    HW222230   3.097   6.363   4.561
 7111SOL     OW22231   1.334   0.758   4.100
 7111SOL    HW122232   1.369   0.689   4.164
 7111SOL    HW222233   1.405   0.782   4.034
 7112SOL     OW22234   2.040   4.464   4.510
 7112SOL    HW122235   2.042   4.561   4.486
 7112SOL    HW222236   2.132   4.426   4.504
 7113SOL     OW22237   3.044   4.793   5.154
 7113SOL    HW122238   2.967   4.755   5.103
 7113SOL    HW222239   3.090   4.720   5.205
 7114SOL     OW22240   4.932   5.319   1.228
 7114SOL    HW122241   4.907   5.383   1.301
 7114SOL    HW222242   5.020   5.277   1.249
 7115SOL     OW22243   6.161   4.459   6.735
 7115SOL    HW122244   6.067   4.442   6.703
 7115SOL    HW222245   6.200   4.536   6.686
 7116SOL     OW22246   6.542   3.468   4.019
 7116SOL    HW122247   6.528   3.539   4.087
 7116SOL    HW222248   6.463   3.407   4.018
 7117SOL     OW22249   6.123   0.254   3.331
 7117SOL    HW122250   6.124   0.214   3.423
 7117SOL    HW222251   6.075   0.193   3.268
 7118SOL     OW22252   3.991   4.486   5.283
 7118SOL    HW122253   4.001   4.566   5.343
 7118SOL    HW222254   4.070   4.480   5.222
 7119SOL     OW22255   5.003   0.156   4.898
 7119SOL    HW122256   4.908   0.162   4.928
 7119SOL    HW222257   5.023   0.062   4.869
 7120SOL     OW22258   5.034   1.243   1.064
 7120SOL    HW122259   5.025   1.144   1.067
 7120SOL    HW222260   5.106   1.272   1.127
 7121SOL     OW22261   0.818   6.456   3.442
 7121SOL    HW122262   0.908   6.430   3.474
 7121SOL    HW222263   0.748   6.412   3.498
 7122SOL     OW22264   2.935   0.146   5.917
 7122SOL    HW122265   3.016   0.094   5.891
 7122SOL    HW222266   2.862   0.128   5.851
 7123SOL     OW22267   6.013   5.111   4.931
 7123SOL    HW122268   6.103   5.107   4.972
 7123SOL    HW222269   5.975   5.019   4.924
 7124SOL     OW22270   0.806   2.568   1.519
 7124SOL    HW122271   0.882   2.519   1.560
 7124SOL    HW222272   0.774   2.518   1.438
 7125SOL     OW22273   0.926   0.320   1.505
 7125SOL    HW122274   0.971   0.249   1.560
 7125SOL    HW222275   0.995   0.366   1.449
 7126SOL     OW22276   4.052   6.193   1.696
 7126SOL    HW122277   3.967   6.144   1.677
 7126SOL    HW222278   4.129   6.128   1.693
 7127SOL     OW22279   3.109   5.983   5.125
 7127SOL    HW122280   3.164   6.008   5.205
 7127SOL    HW222281   3.015   5.967   5.154
 7128SOL     OW22282   3.273   4.369   6.545
 7128SOL    HW122283   3.320   4.424   6.476
 7128SOL    HW222284   3.243   4.428   6.620
 7129SOL     OW22285   0.354   1.197   1.415
 7129SOL    HW122286   0.379   1.292   1.394
 7129SOL    HW222287   0.431   1.137   1.395
 7130SOL     OW22288   2.751   6.803   4.390
 7130SOL    HW122289   2.764   6.848   4.302
 7130SOL    HW222290   2.838   6.801   4.440
 7131SOL     OW22291   3.941   0.713   2.537
 7131SOL    HW122292   3.846   0.704   2.569
 7131SOL    HW222293   3.942   0.755   2.447
 7132SOL     OW22294   5.434   3.712   6.805
 7132SOL    HW122295   5.496   3.652   6.753
 7132SOL    HW222296   5.442   3.806   6.771
 7133SOL     OW22297   3.403   5.811   3.424
 7133SOL    HW122298   3.397   5.797   3.522
 7133SOL    HW222299   3.348   5.743   3.376
 7134SOL     OW22300   6.068   5.557   1.538
 7134SOL    HW122301   6.072   5.633   1.602
 7134SOL    HW222302   6.125   5.577   1.459
 7135SOL     OW22303   2.149   3.190   2.047
 7135SOL    HW122304   2.063   3.178   1.998
 7135SOL    HW222305   2.188   3.280   2.024
 7136SOL     OW22306   3.055   1.870   1.606
 7136SOL    HW122307   3.141   1.911   1.634
 7136SOL    HW222308   2.980   1.935   1.620
 7137SOL     OW22309   2.877   2.057   1.671
 7137SOL    HW122310   2.905   2.130   1.609
 7137SOL    HW222311   2.919   2.071   1.761
 7138SOL     OW22312   2.077   1.887   0.650
 7138SOL    HW122313   2.052   1.837   0.566
 7138SOL    HW222314   2.175   1.878   0.665
 7139SOL     OW22315   6.055   5.640   1.908
 7139SOL    HW122316   6.082   5.688   1.824
 7139SOL    HW222317   6.018   5.707   1.973
 7140SOL     OW22318   6.610   3.481   0.639
 7140SOL    HW122319   6.637   3.546   0.710
 7140SOL    HW222320   6.691   3.440   0.598
 7141SOL     OW22321   4.045   6.729   1.259
 7141SOL    HW122322   4.018   6.649   1.205
 7141SOL    HW222323   3.969   6.756   1.319
 7142SOL     OW22324   3.449   0.684   4.591
 7142SOL    HW122325   3.414   0.707   4.500
 7142SOL    HW222326   3.546   0.708   4.596
 7143SOL     OW22327   2.612   4.651   6.474
 7143SOL    HW122328   2.691   4.620   6.420
 7143SOL    HW222329   2.636   4.647   6.572
 7144SOL     OW22330   6.856   1.209   4.293
 7144SOL    HW122331   6.760   1.235   4.297
 7144SOL    HW222332   6.883   1.170   4.381
 7145SOL     OW22333   4.937   2.163   0.331
 7145SOL    HW122334   4.875   2.137   0.405
 7145SOL    HW222335   4.895   2.140   0.243
 7146SOL     OW22336   2.345   0.782   5.358
 7146SOL    HW122337   2.291   0.795   5.275
 7146SOL    HW222338   2.352   0.869   5.407
 7147SOL     OW22339   5.808   4.430   2.474
 7147SOL    HW122340   5.788   4.520   2.436
 7147SOL    HW222341   5.901   4.403   2.448
 7148SOL     OW22342   6.754   6.092   0.945
 7148SOL    HW122343   6.739   6.003   0.988
 7148SOL    HW222344   6.834   6.086   0.885
 7149SOL     OW22345   6.643   5.188   4.408
 7149SOL    HW122346   6.673   5.179   4.313
 7149SOL    HW222347   6.592   5.107   4.434
 7150SOL     OW22348   4.130   3.562   0.128
 7150SOL    HW122349   4.044   3.514   0.143
 7150SOL    HW222350   4.179   3.571   0.214
 7151SOL     OW22351   3.900   0.250   0.778
 7151SOL    HW122352   3.974   0.288   0.722
 7151SOL    HW222353   3.857   0.322   0.831
 7152SOL     OW22354   0.556   1.220   6.840
 7152SOL    HW122355   0.598   1.131   6.820
 7152SOL    HW222356   0.457   1.213   6.831
 7153SOL     OW22357   4.448   6.523   1.147
 7153SOL    HW122358   4.490   6.439   1.112
 7153SOL    HW222359   4.394   6.566   1.075
 7154SOL     OW22360   4.531   1.400   2.391
 7154SOL    HW122361   4.454   1.371   2.448
 7154SOL    HW222362   4.564   1.322   2.338
 7155SOL     OW22363   3.438   1.877   2.450
 7155SOL    HW122364   3.506   1.805   2.459
 7155SOL    HW222365   3.368   1.848   2.385
 7156SOL     OW22366   6.200   3.860   0.180
 7156SOL    HW122367   6.260   3.937   0.204
 7156SOL    HW222368   6.231   3.778   0.228
 7157SOL     OW22369   6.060   4.323   6.222
 7157SOL    HW122370   6.072   4.292   6.128
 7157SOL    HW222371   6.129   4.280   6.280
 7158SOL     OW22372   4.833   6.831   4.085
 7158SOL    HW122373   4.765   6.764   4.055
 7158SOL    HW222374   4.862   6.886   4.007
 7159SOL     OW22375   0.570   5.877   3.783
 7159SOL    HW122376   0.607   5.889   3.691
 7159SOL    HW222377   0.608   5.793   3.823
 7160SOL     OW22378   5.354   0.099   3.087
 7160SOL    HW122379   5.451   0.080   3.105
 7160SOL    HW222380   5.298   0.050   3.153
 7161SOL     OW22381   3.823   3.264   3.407
 7161SOL    HW122382   3.735   3.233   3.373
 7161SOL    HW222383   3.820   3.362   3.427
 7162SOL     OW22384   0.315   5.272   2.299
 7162SOL    HW122385   0.241   5.316   2.351
 7162SOL    HW222386   0.322   5.176   2.325
 7163SOL     OW22387   1.016   1.618   1.979
 7163SOL    HW122388   1.090   1.553   1.969
 7163SOL    HW222389   0.977   1.640   1.890
 7164SOL     OW22390   1.848   1.253   6.071
 7164SOL    HW122391   1.805   1.340   6.051
 7164SOL    HW222392   1.841   1.233   6.169
 7165SOL     OW22393   6.186   0.391   0.057
 7165SOL    HW122394   6.257   0.328   0.089
 7165SOL    HW222395   6.117   0.339   0.006
 7166SOL     OW22396   5.328   6.780   6.309
 7166SOL    HW122397   5.412   6.764   6.256
 7166SOL    HW222398   5.271   6.846   6.260
 7167SOL     OW22399   5.820   2.102   4.764
 7167SOL    HW122400   5.907   2.054   4.769
 7167SOL    HW222401   5.793   2.132   4.856
 7168SOL     OW22402   2.507   0.753   1.997
 7168SOL    HW122403   2.533   0.773   2.091
 7168SOL    HW222404   2.488   0.656   1.987
 7169SOL     OW22405   2.013   4.082   5.731
 7169SOL    HW122406   2.006   3.987   5.760
 7169SOL    HW222407   2.086   4.128   5.781
 7170SOL     OW22408   4.156   0.930   1.741
 7170SOL    HW122409   4.247   0.970   1.727
 7170SOL    HW222410   4.096   0.997   1.783
 7171SOL     OW22411   5.684   4.944   0.638
 7171SOL    HW122412   5.645   4.968   0.549
 7171SOL    HW222413   5.622   4.882   0.686
 7172SOL     OW22414   1.878   1.407   4.451
 7172SOL    HW122415   1.809   1.466   4.493
 7172SOL    HW222416   1.855   1.312   4.469
 7173SOL     OW22417   5.314   5.741   6.860
 7173SOL    HW122418   5.225   5.698   6.854
 7173SOL    HW222419   5.324   5.786   6.949
 7174SOL     OW22420   6.091   4.628   1.036
 7174SOL    HW122421   6.160   4.622   1.107
 7174SOL    HW222422   6.135   4.653   0.949
 7175SOL     OW22423   5.984   3.684   5.266
 7175SOL    HW122424   6.054   3.721   5.205
 7175SOL    HW222425   5.900   3.738   5.258
 7176SOL     OW22426   6.968   1.428   4.455
 7176SOL    HW122427   6.977   1.479   4.369
 7176SOL    HW222428   6.912   1.347   4.439
 7177SOL     OW22429   1.870   5.273   4.889
 7177SOL    HW122430   1.959   5.312   4.912
 7177SOL    HW222431   1.809   5.281   4.968
 7178SOL     OW22432   0.528   0.787   5.415
 7178SOL    HW122433   0.479   0.840   5.345
 7178SOL    HW222434   0.538   0.842   5.498
 7179SOL     OW22435   3.222   5.778   6.850
 7179SOL    HW122436   3.202   5.859   6.906
 7179SOL    HW222437   3.221   5.802   6.753
 7180SOL     OW22438   1.262   4.935   1.332
 7180SOL    HW122439   1.309   4.902   1.414
 7180SOL    HW222440   1.272   4.867   1.259
 7181SOL     OW22441   2.486   1.747   5.961
 7181SOL    HW122442   2.494   1.708   5.869
 7181SOL    HW222443   2.390   1.766   5.981
 7182SOL     OW22444   0.778   3.463   4.093
 7182SOL    HW122445   0.848   3.489   4.026
 7182SOL    HW222446   0.694   3.516   4.075
 7183SOL     OW22447   1.270   6.337   1.545
 7183SOL    HW122448   1.337   6.264   1.531
 7183SOL    HW222449   1.306   6.423   1.511
 7184SOL     OW22450   6.723   0.242   4.160
 7184SOL    HW122451   6.757   0.237   4.253
 7184SOL    HW222452   6.668   0.160   4.140
 7185SOL     OW22453   4.795   0.465   4.953
 7185SOL    HW122454   4.795   0.466   4.853
 7185SOL    HW222455   4.805   0.371   4.985
 7186SOL     OW22456   0.347   0.096   6.977
 7186SOL    HW122457   0.363   0.067   0.045
 7186SOL    HW222458   0.362   0.019   6.915
 7187SOL     OW22459   3.051   3.072   4.974
 7187SOL    HW122460   2.979   3.047   4.910
 7187SOL    HW222461   3.121   3.125   4.927
 7188SOL     OW22462   3.817   5.174   7.010
 7188SOL    HW122463   3.766   5.135   0.060
 7188SOL    HW222464   3.790   5.270   6.997
 7189SOL     OW22465   6.189   2.453   5.270
 7189SOL    HW122466   6.113   2.408   5.222
 7189SOL    HW222467   6.275   2.409   5.244
 7190SOL     OW22468   5.792   5.507   1.471
 7190SOL    HW122469   5.789   5.412   1.501
 7190SOL    HW222470   5.882   5.545   1.489
 7191SOL     OW22471   0.464   4.126   3.106
 7191SOL    HW122472   0.402   4.098   3.179
 7191SOL    HW222473   0.554   4.084   3.120
 7192SOL     OW22474   1.863   5.131   6.613
 7192SOL    HW122475   1.950   5.127   6.661
 7192SOL    HW222476   1.845   5.044   6.568
 7193SOL     OW22477   2.447   2.407   2.740
 7193SOL    HW122478   2.372   2.348   2.710
 7193SOL    HW222479   2.506   2.356   2.802
 7194SOL     OW22480   2.996   2.690   6.358
 7194SOL    HW122481   2.932   2.685   6.435
 7194SOL    HW222482   2.945   2.681   6.272
 7195SOL     OW22483   0.360   3.043   6.488
 7195SOL    HW122484   0.439   2.984   6.505
 7195SOL    HW222485   0.290   2.991   6.439
 7196SOL     OW22486   3.427   4.162   2.250
 7196SOL    HW122487   3.485   4.148   2.170
 7196SOL    HW222488   3.379   4.249   2.242
 7197SOL     OW22489   1.839   3.971   5.385
 7197SOL    HW122490   1.823   3.873   5.394
 7197SOL    HW222491   1.760   4.021   5.419
 7198SOL     OW22492   6.684   1.420   0.365
 7198SOL    HW122493   6.704   1.322   0.359
 7198SOL    HW222494   6.769   1.472   0.358
 7199SOL     OW22495   1.004   0.850   2.378
 7199SOL    HW122496   0.917   0.824   2.420
 7199SOL    HW222497   1.075   0.788   2.409
 7200SOL     OW22498   2.418   2.522   0.612
 7200SOL    HW122499   2.369   2.484   0.691
 7200SOL    HW222500   2.459   2.447   0.560
 7201SOL     OW22501   5.531   5.504   4.451
 7201SOL    HW122502   5.463   5.557   4.400
 7201SOL    HW222503   5.592   5.458   4.387
 7202SOL     OW22504   4.746   0.204   5.741
 7202SOL    HW122505   4.807   0.220   5.663
 7202SOL    HW222506   4.655   0.178   5.707
 7203SOL     OW22507   0.021   1.776   2.203
 7203SOL    HW122508   0.001   1.866   2.242
 7203SOL    HW222509   0.104   1.782   2.147
 7204SOL     OW22510   0.340   1.654   0.929
 7204SOL    HW122511   0.367   1.744   0.962
 7204SOL    HW222512   0.349   1.587   1.002
 7205SOL     OW22513   2.156   2.382   5.407
 7205SOL    HW122514   2.162   2.282   5.403
 7205SOL    HW222515   2.059   2.409   5.410
 7206SOL     OW22516   2.040   2.154   1.272
 7206SOL    HW122517   2.010   2.242   1.308
 7206SOL    HW222518   2.121   2.167   1.214
 7207SOL     OW22519   1.713   1.982   4.045
 7207SOL    HW122520   1.761   1.978   3.958
 7207SOL    HW222521   1.644   1.910   4.048
 7208SOL     OW22522   3.688   0.950   4.468
 7208SOL    HW122523   3.669   0.914   4.376
 7208SOL    HW222524   3.710   0.874   4.529
 7209SOL     OW22525   2.603   2.416   2.095
 7209SOL    HW122526   2.554   2.454   2.173
 7209SOL    HW222527   2.701   2.427   2.108
 7210SOL     OW22528   2.889   1.504   3.043
 7210SOL    HW122529   2.822   1.492   2.970
 7210SOL    HW222530   2.958   1.570   3.015
 7211SOL     OW22531   3.313   5.709   5.353
 7211SOL    HW122532   3.410   5.696   5.333
 7211SOL    HW222533   3.300   5.797   5.398
 7212SOL     OW22534   6.131   5.259   5.962
 7212SOL    HW122535   6.107   5.289   5.870
 7212SOL    HW222536   6.072   5.183   5.989
 7213SOL     OW22537   3.435   0.984   0.433
 7213SOL    HW122538   3.402   0.939   0.350
 7213SOL    HW222539   3.377   0.957   0.510
 7214SOL     OW22540   0.580   0.907   6.303
 7214SOL    HW122541   0.625   0.837   6.358
 7214SOL    HW222542   0.508   0.865   6.247
 7215SOL     OW22543   0.289   2.864   3.090
 7215SOL    HW122544   0.317   2.913   3.173
 7215SOL    HW222545   0.319   2.915   3.010
 7216SOL     OW22546   3.049   6.325   3.301
 7216SOL    HW122547   3.077   6.420   3.319
 7216SOL    HW222548   3.082   6.266   3.375
 7217SOL     OW22549   1.383   4.283   3.843
 7217SOL    HW122550   1.409   4.297   3.748
 7217SOL    HW222551   1.333   4.197   3.852
 7218SOL     OW22552   6.738   3.458   4.979
 7218SOL    HW122553   6.741   3.489   5.074
 7218SOL    HW222554   6.647   3.477   4.941
 7219SOL     OW22555   3.346   6.427   1.795
 7219SOL    HW122556   3.438   6.455   1.768
 7219SOL    HW222557   3.350   6.334   1.833
 7220SOL     OW22558   6.741   4.269   4.317
 7220SOL    HW122559   6.686   4.348   4.291
 7220SOL    HW222560   6.699   4.222   4.394
 7221SOL     OW22561   3.496   5.958   4.870
 7221SOL    HW122562   3.431   6.022   4.910
 7221SOL    HW222563   3.586   6.002   4.863
 7222SOL     OW22564   6.327   6.388   3.353
 7222SOL    HW122565   6.307   6.340   3.268
 7222SOL    HW222566   6.265   6.356   3.425
 7223SOL     OW22567   1.687   2.120   0.971
 7223SOL    HW122568   1.756   2.070   0.918
 7223SOL    HW222569   1.696   2.097   1.068
 7224SOL     OW22570   4.572   1.996   3.665
 7224SOL    HW122571   4.502   2.018   3.733
 7224SOL    HW222572   4.663   2.015   3.704
 7225SOL     OW22573   1.591   6.904   0.531
 7225SOL    HW122574   1.683   6.872   0.509
 7225SOL    HW222575   1.553   6.952   0.453
 7226SOL     OW22576   5.925   1.378   0.201
 7226SOL    HW122577   5.866   1.338   0.271
 7226SOL    HW222578   6.006   1.319   0.189
 7227SOL     OW22579   2.653   0.759   2.240
 7227SOL    HW122580   2.600   0.746   2.324
 7227SOL    HW222581   2.739   0.709   2.246
 7228SOL     OW22582   0.668   1.952   2.335
 7228SOL    HW122583   0.733   2.027   2.349
 7228SOL    HW222584   0.588   1.965   2.393
 7229SOL     OW22585   6.692   0.224   4.463
 7229SOL    HW122586   6.759   0.271   4.520
 7229SOL    HW222587   6.723   0.131   4.443
 7230SOL     OW22588   2.636   4.943   3.862
 7230SOL    HW122589   2.561   4.915   3.802
 7230SOL    HW222590   2.700   4.867   3.873
 7231SOL     OW22591   4.159   1.178   6.622
 7231SOL    HW122592   4.082   1.145   6.568
 7231SOL    HW222593   4.171   1.119   6.702
 7232SOL     OW22594   5.250   0.140   2.345
 7232SOL    HW122595   5.301   0.196   2.410
 7232SOL    HW222596   5.261   0.178   2.253
 7233SOL     OW22597   5.907   1.702   5.722
 7233SOL    HW122598   6.004   1.712   5.743
 7233SOL    HW222599   5.852   1.740   5.796
 7234SOL     OW22600   4.928   3.677   3.263
 7234SOL    HW122601   4.942   3.638   3.354
 7234SOL    HW222602   4.873   3.760   3.270
 7235SOL     OW22603   6.774   5.730   1.531
 7235SOL    HW122604   6.699   5.791   1.558
 7235SOL    HW222605   6.741   5.662   1.467
 7236SOL     OW22606   1.969   2.760   3.068
 7236SOL    HW122607   1.916   2.716   2.995
 7236SOL    HW222608   2.040   2.698   3.100
 7237SOL     OW22609   5.312   0.549   6.870
 7237SOL    HW122610   5.386   0.536   6.804
 7237SOL    HW222611   5.350   0.553   6.962
 7238SOL     OW22612   4.653   2.672   6.949
 7238SOL    HW122613   4.634   2.589   6.896
 7238SOL    HW222614   4.570   2.726   6.957
 7239SOL     OW22615   0.441   3.816   2.270
 7239SOL    HW122616   0.538   3.795   2.279
 7239SOL    HW222617   0.387   3.733   2.284
 7240SOL     OW22618   6.822   1.704   5.842
 7240SOL    HW122619   6.758   1.651   5.898
 7240SOL    HW222620   6.808   1.681   5.745
 7241SOL     OW22621   2.251   0.523   0.904
 7241SOL    HW122622   2.266   0.429   0.875
 7241SOL    HW222623   2.334   0.577   0.888
 7242SOL     OW22624   0.243   5.903   4.404
 7242SOL    HW122625   0.252   5.948   4.492
 7242SOL    HW222626   0.190   5.961   4.342
 7243SOL     OW22627   6.810   3.953   6.030
 7243SOL    HW122628   6.845   3.903   6.109
 7243SOL    HW222629   6.727   3.909   5.996
 7244SOL     OW22630   0.414   6.761   0.231
 7244SOL    HW122631   0.377   6.853   0.217
 7244SOL    HW222632   0.339   6.695   0.230
 7245SOL     OW22633   1.822   2.544   6.953
 7245SOL    HW122634   1.772   2.479   6.896
 7245SOL    HW222635   1.917   2.515   6.960
 7246SOL     OW22636   3.096   0.541   4.719
 7246SOL    HW122637   3.033   0.503   4.652
 7246SOL    HW222638   3.124   0.633   4.690
 7247SOL     OW22639   2.984   2.576   5.595
 7247SOL    HW122640   3.064   2.633   5.578
 7247SOL    HW222641   2.967   2.518   5.515
 7248SOL     OW22642   3.190   0.525   4.071
 7248SOL    HW122643   3.234   0.437   4.058
 7248SOL    HW222644   3.146   0.527   4.161
 7249SOL     OW22645   4.244   4.701   2.120
 7249SOL    HW122646   4.161   4.689   2.066
 7249SOL    HW222647   4.322   4.715   2.059
 7250SOL     OW22648   5.301   4.836   5.594
 7250SOL    HW122649   5.357   4.888   5.659
 7250SOL    HW222650   5.335   4.852   5.502
 7251SOL     OW22651   0.778   6.580   5.828
 7251SOL    HW122652   0.787   6.615   5.921
 7251SOL    HW222653   0.684   6.590   5.797
 7252SOL     OW22654   3.302   3.961   2.045
 7252SOL    HW122655   3.217   3.996   2.005
 7252SOL    HW222656   3.371   4.033   2.046
 7253SOL     OW22657   1.572   6.507   6.106
 7253SOL    HW122658   1.573   6.564   6.024
 7253SOL    HW222659   1.583   6.411   6.079
 7254SOL     OW22660   5.835   4.407   3.687
 7254SOL    HW122661   5.860   4.356   3.604
 7254SOL    HW222662   5.746   4.450   3.674
 7255SOL     OW22663   5.275   3.315   6.661
 7255SOL    HW122664   5.371   3.321   6.689
 7255SOL    HW222665   5.234   3.406   6.666
 7256SOL     OW22666   3.532   6.616   5.266
 7256SOL    HW122667   3.502   6.696   5.213
 7256SOL    HW222668   3.454   6.578   5.315
 7257SOL     OW22669   0.143   1.680   4.857
 7257SOL    HW122670   0.240   1.703   4.863
 7257SOL    HW222671   0.101   1.688   4.948
 7258SOL     OW22672   5.580   2.819   1.799
 7258SOL    HW122673   5.642   2.788   1.870
 7258SOL    HW222674   5.565   2.747   1.732
 7259SOL     OW22675   1.387   3.698   3.339
 7259SOL    HW122676   1.453   3.673   3.269
 7259SOL    HW222677   1.317   3.758   3.299
 7260SOL     OW22678   5.490   2.472   1.216
 7260SOL    HW122679   5.411   2.485   1.156
 7260SOL    HW222680   5.474   2.393   1.275
 7261SOL     OW22681   0.515   3.761   0.813
 7261SOL    HW122682   0.490   3.677   0.763
 7261SOL    HW222683   0.589   3.741   0.877
 7262SOL     OW22684   5.235   1.697   5.777
 7262SOL    HW122685   5.310   1.677   5.841
 7262SOL    HW222686   5.235   1.795   5.757
 7263SOL     OW22687   0.587   6.909   0.616
 7263SOL    HW122688   0.654   6.848   0.574
 7263SOL    HW222689   0.534   6.859   0.684
 7264SOL     OW22690   5.832   1.116   0.770
 7264SOL    HW122691   5.808   1.019   0.777
 7264SOL    HW222692   5.865   1.149   0.859
 7265SOL     OW22693   5.230   5.322   4.613
 7265SOL    HW122694   5.320   5.360   4.633
 7265SOL    HW222695   5.193   5.281   4.696
 7266SOL     OW22696   0.023   0.652   3.693
 7266SOL    HW122697   0.097   0.653   3.761
 7266SOL    HW222698   6.982   0.723   3.716
 7267SOL     OW22699   6.384   6.529   4.900
 7267SOL    HW122700   6.406   6.595   4.971
 7267SOL    HW222701   6.286   6.530   4.882
 7268SOL     OW22702   6.383   5.572   4.546
 7268SOL    HW122703   6.379   5.475   4.566
 7268SOL    HW222704   6.381   5.586   4.447
 7269SOL     OW22705   1.761   5.998   5.953
 7269SOL    HW122706   1.845   5.958   5.917
 7269SOL    HW222707   1.726   5.939   6.026
 7270SOL     OW22708   0.118   2.021   4.058
 7270SOL    HW122709   0.141   1.936   4.011
 7270SOL    HW222710   0.092   2.090   3.990
 7271SOL     OW22711   1.459   4.997   4.013
 7271SOL    HW122712   1.436   5.082   4.061
 7271SOL    HW222713   1.399   4.924   4.045
 7272SOL     OW22714   6.564   6.417   1.927
 7272SOL    HW122715   6.604   6.332   1.893
 7272SOL    HW222716   6.629   6.492   1.915
 7273SOL     OW22717   5.087   3.184   6.013
 7273SOL    HW122718   5.171   3.230   5.985
 7273SOL    HW222719   5.053   3.128   5.938
 7274SOL     OW22720   0.373   4.459   6.812
 7274SOL    HW122721   0.441   4.521   6.774
 7274SOL    HW222722   0.377   4.462   6.912
 7275SOL     OW22723   0.080   6.612   2.879
 7275SOL    HW122724   0.148   6.653   2.939
 7275SOL    HW222725   0.094   6.513   2.875
 7276SOL     OW22726   5.461   0.117   3.770
 7276SOL    HW122727   5.446   0.018   3.779
 7276SOL    HW222728   5.508   0.151   3.852
 7277SOL     OW22729   4.850   0.527   5.814
 7277SOL    HW122730   4.933   0.560   5.769
 7277SOL    HW222731   4.869   0.442   5.862
 7278SOL     OW22732   3.084   4.083   1.897
 7278SOL    HW122733   3.103   4.127   1.810
 7278SOL    HW222734   3.082   4.152   1.970
 7279SOL     OW22735   4.021   6.355   0.086
 7279SOL    HW122736   3.994   6.318   0.175
 7279SOL    HW222737   4.087   6.293   0.044
 7280SOL     OW22738   5.628   6.870   5.059
 7280SOL    HW122739   5.694   6.939   5.030
 7280SOL    HW222740   5.661   6.779   5.035
 7281SOL     OW22741   2.587   1.545   6.904
 7281SOL    HW122742   2.604   1.628   6.957
 7281SOL    HW222743   2.635   1.550   6.817
 7282SOL     OW22744   6.208   4.867   2.740
 7282SOL    HW122745   6.136   4.890   2.806
 7282SOL    HW222746   6.278   4.811   2.786
 7283SOL     OW22747   2.681   1.292   3.479
 7283SOL    HW122748   2.768   1.340   3.468
 7283SOL    HW222749   2.605   1.356   3.470
 7284SOL     OW22750   0.408   4.028   5.368
 7284SOL    HW122751   0.445   3.936   5.380
 7284SOL    HW222752   0.335   4.043   5.435
 7285SOL     OW22753   5.426   4.629   2.288
 7285SOL    HW122754   5.389   4.628   2.196
 7285SOL    HW222755   5.470   4.541   2.308
 7286SOL     OW22756   2.656   1.947   1.071
 7286SOL    HW122757   2.683   1.865   1.020
 7286SOL    HW222758   2.557   1.945   1.088
 7287SOL     OW22759   0.916   2.299   6.320
 7287SOL    HW122760   0.933   2.202   6.337
 7287SOL    HW222761   0.978   2.354   6.375
 7288SOL     OW22762   3.916   0.588   6.499
 7288SOL    HW122763   3.858   0.566   6.577
 7288SOL    HW222764   3.859   0.610   6.420
 7289SOL     OW22765   5.984   1.665   3.451
 7289SOL    HW122766   6.073   1.680   3.409
 7289SOL    HW222767   5.913   1.670   3.380
 7290SOL     OW22768   2.505   5.768   5.654
 7290SOL    HW122769   2.580   5.764   5.589
 7290SOL    HW222770   2.541   5.778   5.746
 7291SOL     OW22771   2.031   0.220   1.367
 7291SOL    HW122772   2.056   0.144   1.306
 7291SOL    HW222773   1.931   0.226   1.373
 7292SOL     OW22774   2.341   0.337   4.009
 7292SOL    HW122775   2.242   0.326   4.021
 7292SOL    HW222776   2.387   0.252   4.034
 7293SOL     OW22777   1.511   1.411   5.062
 7293SOL    HW122778   1.414   1.408   5.085
 7293SOL    HW222779   1.543   1.506   5.066
 7294SOL     OW22780   2.757   5.147   0.832
 7294SOL    HW122781   2.843   5.148   0.884
 7294SOL    HW222782   2.777   5.130   0.736
 7295SOL     OW22783   1.052   2.690   0.763
 7295SOL    HW122784   1.152   2.692   0.770
 7295SOL    HW222785   1.013   2.657   0.849
 7296SOL     OW22786   2.976   4.675   1.016
 7296SOL    HW122787   3.036   4.601   0.989
 7296SOL    HW222788   2.927   4.650   1.100
 7297SOL     OW22789   4.140   5.980   0.798
 7297SOL    HW122790   4.119   6.072   0.767
 7297SOL    HW222791   4.191   5.983   0.884
 7298SOL     OW22792   4.914   4.139   5.818
 7298SOL    HW122793   4.958   4.155   5.729
 7298SOL    HW222794   4.833   4.082   5.804
 7299SOL     OW22795   0.632   2.077   6.501
 7299SOL    HW122796   0.652   2.027   6.417
 7299SOL    HW222797   0.672   2.030   6.580
 7300SOL     OW22798   5.609   4.958   2.025
 7300SOL    HW122799   5.634   4.883   1.965
 7300SOL    HW222800   5.682   5.027   2.024
 7301SOL     OW22801   5.999   1.024   4.697
 7301SOL    HW122802   5.984   1.061   4.788
 7301SOL    HW222803   6.097   1.009   4.683
 7302SOL     OW22804   0.381   1.590   6.713
 7302SOL    HW122805   0.457   1.537   6.676
 7302SOL    HW222806   0.319   1.530   6.763
 7303SOL     OW22807   4.971   0.861   6.913
 7303SOL    HW122808   5.047   0.852   6.849
 7303SOL    HW222809   4.935   0.770   6.934
 7304SOL     OW22810   3.507   4.454   0.127
 7304SOL    HW122811   3.598   4.475   0.092
 7304SOL    HW222812   3.479   4.525   0.193
 7305SOL     OW22813   4.532   1.703   0.928
 7305SOL    HW122814   4.548   1.619   0.876
 7305SOL    HW222815   4.485   1.770   0.871
 7306SOL     OW22816   5.207   3.009   1.277
 7306SOL    HW122817   5.227   3.095   1.323
 7306SOL    HW222818   5.292   2.962   1.255
 7307SOL     OW22819   3.068   6.940   1.576
 7307SOL    HW122820   3.052   6.857   1.629
 7307SOL    HW222821   3.053   7.020   1.633
 7308SOL     OW22822   0.076   3.852   5.594
 7308SOL    HW122823   0.081   3.757   5.624
 7308SOL    HW222824   0.050   3.855   5.497
 7309SOL     OW22825   5.443   6.321   0.789
 7309SOL    HW122826   5.353   6.309   0.830
 7309SOL    HW222827   5.436   6.382   0.710
 7310SOL     OW22828   1.929   4.045   1.340
 7310SOL    HW122829   2.016   3.998   1.353
 7310SOL    HW222830   1.875   4.037   1.424
 7311SOL     OW22831   3.613   1.866   2.162
 7311SOL    HW122832   3.642   1.948   2.211
 7311SOL    HW222833   3.514   1.865   2.153
 7312SOL     OW22834   0.306   3.449   5.808
 7312SOL    HW122835   0.303   3.434   5.709
 7312SOL    HW222836   0.249   3.381   5.854
 7313SOL     OW22837   4.446   2.418   6.075
 7313SOL    HW122838   4.515   2.362   6.027
 7313SOL    HW222839   4.474   2.430   6.170
 7314SOL     OW22840   6.813   3.997   5.163
 7314SOL    HW122841   6.807   3.929   5.237
 7314SOL    HW222842   6.739   4.064   5.174
 7315SOL     OW22843   6.727   0.434   2.957
 7315SOL    HW122844   6.776   0.434   3.044
 7315SOL    HW222845   6.629   0.426   2.973
 7316SOL     OW22846   3.090   3.468   6.091
 7316SOL    HW122847   3.093   3.490   5.994
 7316SOL    HW222848   3.129   3.544   6.144
 7317SOL     OW22849   4.610   0.967   2.333
 7317SOL    HW122850   4.675   1.004   2.399
 7317SOL    HW222851   4.524   0.944   2.379
 7318SOL     OW22852   0.812   1.444   0.872
 7318SOL    HW122853   0.911   1.441   0.888
 7318SOL    HW222854   0.787   1.535   0.839
 7319SOL     OW22855   6.195   3.595   6.171
 7319SOL    HW122856   6.213   3.662   6.243
 7319SOL    HW222857   6.126   3.631   6.109
 7320SOL     OW22858   6.690   3.701   1.613
 7320SOL    HW122859   6.778   3.673   1.576
 7320SOL    HW222860   6.681   3.800   1.609
 7321SOL     OW22861   3.112   6.792   5.190
 7321SOL    HW122862   3.147   6.844   5.268
 7321SOL    HW222863   3.168   6.813   5.109
 7322SOL     OW22864   0.719   2.445   2.466
 7322SOL    HW122865   0.722   2.488   2.556
 7322SOL    HW222866   0.687   2.510   2.398
 7323SOL     OW22867   1.891   2.248   2.095
 7323SOL    HW122868   1.929   2.332   2.056
 7323SOL    HW222869   1.958   2.175   2.089
 7324SOL     OW22870   5.431   6.393   2.354
 7324SOL    HW122871   5.395   6.438   2.436
 7324SOL    HW222872   5.363   6.329   2.319
 7325SOL     OW22873   3.890   7.018   6.378
 7325SOL    HW122874   3.893   0.041   6.465
 7325SOL    HW222875   3.852   6.927   6.393
 7326SOL     OW22876   2.364   6.385   5.206
 7326SOL    HW122877   2.337   6.343   5.119
 7326SOL    HW222878   2.307   6.465   5.224
 7327SOL     OW22879   6.488   3.075   5.168
 7327SOL    HW122880   6.489   3.012   5.245
 7327SOL    HW222881   6.546   3.039   5.095
 7328SOL     OW22882   3.348   0.388   6.509
 7328SOL    HW122883   3.363   0.435   6.422
 7328SOL    HW222884   3.435   0.358   6.546
 7329SOL     OW22885   4.469   3.869   1.692
 7329SOL    HW122886   4.494   3.965   1.687
 7329SOL    HW222887   4.550   3.812   1.681
 7330SOL     OW22888   3.051   2.049   6.948
 7330SOL    HW122889   3.077   2.100   6.867
 7330SOL    HW222890   3.131   2.040   7.009
 7331SOL     OW22891   5.437   0.117   1.700
 7331SOL    HW122892   5.411   0.065   1.619
 7331SOL    HW222893   5.533   0.099   1.722
 7332SOL     OW22894   2.258   6.159   0.527
 7332SOL    HW122895   2.297   6.070   0.507
 7332SOL    HW222896   2.212   6.157   0.616
 7333SOL     OW22897   0.207   3.125   3.689
 7333SOL    HW122898   0.162   3.210   3.715
 7333SOL    HW222899   0.242   3.079   3.771
 7334SOL     OW22900   3.900   6.079   6.966
 7334SOL    HW122901   3.939   6.050   0.028
 7334SOL    HW222902   3.843   6.006   6.928
 7335SOL     OW22903   1.885   2.897   2.467
 7335SOL    HW122904   1.835   2.979   2.495
 7335SOL    HW222905   1.970   2.890   2.520
 7336SOL     OW22906   1.793   6.182   3.013
 7336SOL    HW122907   1.823   6.268   3.054
 7336SOL    HW222908   1.695   6.185   2.997
 7337SOL     OW22909   0.312   3.003   2.055
 7337SOL    HW122910   0.380   2.934   2.032
 7337SOL    HW222911   0.222   2.960   2.061
 7338SOL     OW22912   6.643   2.803   1.377
 7338SOL    HW122913   6.737   2.824   1.352
 7338SOL    HW222914   6.585   2.881   1.356
 7339SOL     OW22915   5.230   5.821   3.563
 7339SOL    HW122916   5.272   5.787   3.479
 7339SOL    HW222917   5.156   5.884   3.540
 7340SOL     OW22918   1.804   1.282   0.405
 7340SOL    HW122919   1.776   1.229   0.325
 7340SOL    HW222920   1.895   1.252   0.435
 7341SOL     OW22921   0.133   2.382   6.507
 7341SOL    HW122922   0.050   2.340   6.544
 7341SOL    HW222923   0.211   2.322   6.523
 7342SOL     OW22924   6.700   0.952   1.733
 7342SOL    HW122925   6.662   1.012   1.803
 7342SOL    HW222926   6.629   0.891   1.699
 7343SOL     OW22927   4.358   3.099   6.998
 7343SOL    HW122928   4.327   3.191   6.972
 7343SOL    HW222929   4.311   3.070   0.055
 7344SOL     OW22930   1.267   6.855   6.044
 7344SOL    HW122931   1.304   6.813   6.127
 7344SOL    HW222932   1.341   6.880   5.983
 7345SOL     OW22933   3.586   3.179   5.385
 7345SOL    HW122934   3.493   3.148   5.367
 7345SOL    HW222935   3.625   3.217   5.301
 7346SOL     OW22936   3.863   6.738   2.998
 7346SOL    HW122937   3.788   6.740   2.931
 7346SOL    HW222938   3.847   6.664   3.064
 7347SOL     OW22939   0.561   1.940   0.113
 7347SOL    HW122940   0.607   1.920   0.200
 7347SOL    HW222941   0.521   1.856   0.077
 7348SOL     OW22942   1.129   3.476   4.137
 7348SOL    HW122943   1.089   3.388   4.161
 7348SOL    HW222944   1.103   3.545   4.205
 7349SOL     OW22945   4.198   0.346   1.740
 7349SOL    HW122946   4.218   0.442   1.722
 7349SOL    HW222947   4.104   0.336   1.772
 7350SOL     OW22948   2.738   1.309   5.548
 7350SOL    HW122949   2.707   1.310   5.643
 7350SOL    HW222950   2.804   1.234   5.535
 7351SOL     OW22951   5.164   5.574   3.243
 7351SOL    HW122952   5.117   5.661   3.226
 7351SOL    HW222953   5.159   5.517   3.162
 7352SOL     OW22954   1.314   2.024   2.753
 7352SOL    HW122955   1.319   2.122   2.767
 7352SOL    HW222956   1.254   2.004   2.675
 7353SOL     OW22957   0.868   0.439   6.757
 7353SOL    HW122958   0.951   0.444   6.702
 7353SOL    HW222959   0.839   0.531   6.784
 7354SOL     OW22960   2.169   0.782   4.357
 7354SOL    HW122961   2.225   0.851   4.402
 7354SOL    HW222962   2.184   0.787   4.258
 7355SOL     OW22963   0.148   2.453   6.248
 7355SOL    HW122964   0.148   2.424   6.344
 7355SOL    HW222965   0.184   2.379   6.191
 7356SOL     OW22966   3.535   4.272   6.024
 7356SOL    HW122967   3.524   4.353   5.966
 7356SOL    HW222968   3.631   4.261   6.048
 7357SOL     OW22969   3.426   6.142   2.286
 7357SOL    HW122970   3.476   6.224   2.256
 7357SOL    HW222971   3.433   6.071   2.217
 7358SOL     OW22972   6.160   3.235   1.852
 7358SOL    HW122973   6.148   3.139   1.826
 7358SOL    HW222974   6.094   3.291   1.802
 7359SOL     OW22975   4.363   2.646   5.937
 7359SOL    HW122976   4.419   2.566   5.959
 7359SOL    HW222977   4.407   2.729   5.970
 7360SOL     OW22978   2.076   3.670   5.475
 7360SOL    HW122979   2.104   3.574   5.470
 7360SOL    HW222980   2.157   3.729   5.472
 7361SOL     OW22981   5.030   0.266   2.802
 7361SOL    HW122982   5.055   0.360   2.779
 7361SOL    HW222983   5.056   0.204   2.728
 7362SOL     OW22984   3.251   5.851   6.594
 7362SOL    HW122985   3.346   5.880   6.600
 7362SOL    HW222986   3.194   5.930   6.568
 7363SOL     OW22987   4.376   0.773   1.498
 7363SOL    HW122988   4.302   0.761   1.431
 7363SOL    HW222989   4.342   0.826   1.576
 7364SOL     OW22990   4.592   0.253   1.684
 7364SOL    HW122991   4.541   0.273   1.767
 7364SOL    HW222992   4.653   0.330   1.663
 7365SOL     OW22993   0.015   6.012   2.714
 7365SOL    HW122994   6.993   5.924   2.709
 7365SOL    HW222995   0.014   6.044   2.809
 7366SOL     OW22996   2.132   0.290   4.806
 7366SOL    HW122997   2.108   0.241   4.722
 7366SOL    HW222998   2.070   0.368   4.818
 7367SOL     OW22999   4.366   2.148   0.399
 7367SOL    HW123000   4.324   2.119   0.313
 7367SOL    HW223001   4.307   2.214   0.445
 7368SOL     OW23002   3.662   2.914   2.879
 7368SOL    HW123003   3.689   3.010   2.869
 7368SOL    HW223004   3.647   2.874   2.789
 7369SOL     OW23005   3.653   2.618   1.078
 7369SOL    HW123006   3.692   2.536   1.119
 7369SOL    HW223007   3.594   2.591   1.001
 7370SOL     OW23008   2.606   2.299   5.293
 7370SOL    HW123009   2.542   2.376   5.301
 7370SOL    HW223010   2.559   2.214   5.314
 7371SOL     OW23011   3.369   6.513   3.981
 7371SOL    HW123012   3.317   6.586   3.937
 7371SOL    HW223013   3.317   6.428   3.977
 7372SOL     OW23014   4.118   6.849   4.895
 7372SOL    HW123015   4.153   6.922   4.836
 7372SOL    HW223016   4.194   6.803   4.940
 7373SOL     OW23017   5.352   1.787   5.071
 7373SOL    HW123018   5.300   1.864   5.033
 7373SOL    HW223019   5.366   1.718   5.001
 7374SOL     OW23020   1.353   1.839   4.976
 7374SOL    HW123021   1.287   1.783   4.925
 7374SOL    HW223022   1.435   1.785   4.994
 7375SOL     OW23023   2.295   2.736   2.151
 7375SOL    HW123024   2.354   2.704   2.077
 7375SOL    HW223025   2.212   2.681   2.155
 7376SOL     OW23026   1.169   3.157   1.455
 7376SOL    HW123027   1.079   3.139   1.493
 7376SOL    HW223028   1.180   3.255   1.440
 7377SOL     OW23029   4.040   5.234   0.903
 7377SOL    HW123030   4.002   5.264   0.990
 7377SOL    HW223031   4.098   5.307   0.865
 7378SOL     OW23032   1.881   6.734   3.950
 7378SOL    HW123033   1.969   6.755   3.908
 7378SOL    HW223034   1.886   6.645   3.996
 7379SOL     OW23035   2.962   0.422   1.749
 7379SOL    HW123036   2.934   0.514   1.777
 7379SOL    HW223037   2.890   0.356   1.770
 7380SOL     OW23038   6.093   4.028   3.720
 7380SOL    HW123039   6.023   4.069   3.778
 7380SOL    HW223040   6.155   4.099   3.688
 7381SOL     OW23041   4.142   2.844   0.961
 7381SOL    HW123042   4.150   2.794   0.875
 7381SOL    HW223043   4.052   2.827   1.002
 7382SOL     OW23044   6.331   1.785   6.011
 7382SOL    HW123045   6.287   1.760   6.097
 7382SOL    HW223046   6.402   1.853   6.027
 7383SOL     OW23047   1.906   6.264   2.006
 7383SOL    HW123048   1.920   6.328   2.082
 7383SOL    HW223049   1.810   6.265   1.979
 7384SOL     OW23050   6.794   6.812   1.154
 7384SOL    HW123051   6.731   6.852   1.221
 7384SOL    HW223052   6.850   6.884   1.114
 7385SOL     OW23053   3.099   4.815   2.715
 7385SOL    HW123054   3.157   4.874   2.772
 7385SOL    HW223055   3.153   4.777   2.640
 7386SOL     OW23056   0.037   3.117   6.556
 7386SOL    HW123057   7.003   3.042   6.531
 7386SOL    HW223058   0.130   3.083   6.571
 7387SOL     OW23059   6.419   5.299   5.844
 7387SOL    HW123060   6.336   5.312   5.790
 7387SOL    HW223061   6.478   5.231   5.800
 7388SOL     OW23062   0.922   5.708   3.076
 7388SOL    HW123063   0.868   5.672   3.001
 7388SOL    HW223064   0.991   5.771   3.041
 7389SOL     OW23065   0.382   3.093   0.439
 7389SOL    HW123066   0.354   3.081   0.534
 7389SOL    HW223067   0.302   3.089   0.380
 7390SOL     OW23068   2.939   1.933   2.145
 7390SOL    HW123069   2.850   1.939   2.101
 7390SOL    HW223070   2.936   1.866   2.219
 7391SOL     OW23071   4.143   3.618   2.663
 7391SOL    HW123072   4.103   3.701   2.702
 7391SOL    HW223073   4.196   3.570   2.733
 7392SOL     OW23074   3.601   6.332   6.898
 7392SOL    HW123075   3.675   6.281   6.852
 7392SOL    HW223076   3.545   6.377   6.829
 7393SOL     OW23077   6.918   4.742   3.573
 7393SOL    HW123078   6.883   4.667   3.516
 7393SOL    HW223079   6.900   4.829   3.528
 7394SOL     OW23080   2.113   2.987   6.570
 7394SOL    HW123081   2.204   3.028   6.577
 7394SOL    HW223082   2.060   3.033   6.500
 7395SOL     OW23083   2.200   3.278   1.506
 7395SOL    HW123084   2.166   3.287   1.600
 7395SOL    HW223085   2.198   3.367   1.461
 7396SOL     OW23086   2.431   6.026   1.706
 7396SOL    HW123087   2.451   5.936   1.668
 7396SOL    HW223088   2.365   6.017   1.781
 7397SOL     OW23089   4.925   3.601   4.586
 7397SOL    HW123090   5.023   3.608   4.569
 7397SOL    HW223091   4.880   3.687   4.561
 7398SOL     OW23092   1.300   4.811   3.306
 7398SOL    HW123093   1.362   4.840   3.379
 7398SOL    HW223094   1.305   4.877   3.231
 7399SOL     OW23095   6.372   3.122   4.377
 7399SOL    HW123096   6.369   3.057   4.301
 7399SOL    HW223097   6.303   3.193   4.363
 7400SOL     OW23098   5.087   2.137   5.200
 7400SOL    HW123099   5.174   2.153   5.153
 7400SOL    HW223100   5.057   2.222   5.244
 7401SOL     OW23101   1.716   2.969   3.320
 7401SOL    HW123102   1.812   2.939   3.317
 7401SOL    HW223103   1.669   2.940   3.237
 7402SOL     OW23104   2.741   5.260   5.756
 7402SOL    HW123105   2.687   5.305   5.684
 7402SOL    HW223106   2.679   5.213   5.819
 7403SOL     OW23107   2.001   2.902   3.313
 7403SOL    HW123108   2.100   2.903   3.328
 7403SOL    HW223109   1.981   2.868   3.222
 7404SOL     OW23110   3.244   4.026   1.407
 7404SOL    HW123111   3.262   4.055   1.501
 7404SOL    HW223112   3.157   3.978   1.403
 7405SOL     OW23113   2.959   5.368   5.269
 7405SOL    HW123114   2.902   5.364   5.187
 7405SOL    HW223115   3.048   5.406   5.245
 7406SOL     OW23116   0.602   1.318   5.133
 7406SOL    HW123117   0.517   1.338   5.084
 7406SOL    HW223118   0.638   1.402   5.174
 7407SOL     OW23119   0.821   6.438   6.875
 7407SOL    HW123120   0.738   6.430   6.820
 7407SOL    HW223121   0.805   6.397   6.965
 7408SOL     OW23122   3.194   4.259   5.497
 7408SOL    HW123123   3.162   4.353   5.498
 7408SOL    HW223124   3.222   4.233   5.590
 7409SOL     OW23125   5.634   3.826   0.035
 7409SOL    HW123126   5.683   3.788   0.113
 7409SOL    HW223127   5.542   3.788   0.031
 7410SOL     OW23128   0.297   0.575   0.172
 7410SOL    HW123129   0.360   0.569   0.250
 7410SOL    HW223130   0.311   0.497   0.112
 7411SOL     OW23131   1.698   1.507   6.072
 7411SOL    HW123132   1.710   1.593   6.123
 7411SOL    HW223133   1.614   1.512   6.018
 7412SOL     OW23134   4.241   0.019   0.173
 7412SOL    HW123135   4.277   6.952   0.182
 7412SOL    HW223136   4.282   0.078   0.242
 7413SOL     OW23137   5.051   4.422   2.918
 7413SOL    HW123138   4.972   4.369   2.950
 7413SOL    HW223139   5.029   4.463   2.829
 7414SOL     OW23140   2.106   2.300   4.509
 7414SOL    HW123141   2.185   2.346   4.468
 7414SOL    HW223142   2.102   2.320   4.606
 7415SOL     OW23143   3.122   6.527   6.717
 7415SOL    HW123144   3.116   6.577   6.803
 7415SOL    HW223145   3.032   6.526   6.673
 7416SOL     OW23146   1.473   1.201   2.640
 7416SOL    HW123147   1.383   1.244   2.640
 7416SOL    HW223148   1.467   1.112   2.686
 7417SOL     OW23149   1.429   2.390   3.573
 7417SOL    HW123150   1.358   2.373   3.504
 7417SOL    HW223151   1.442   2.489   3.583
 7418SOL     OW23152   1.572   4.863   6.621
 7418SOL    HW123153   1.500   4.793   6.622
 7418SOL    HW223154   1.657   4.823   6.587
 7419SOL     OW23155   6.054   3.555   3.462
 7419SOL    HW123156   6.139   3.529   3.508
 7419SOL    HW223157   6.055   3.654   3.444
 7420SOL     OW23158   6.677   6.179   1.818
 7420SOL    HW123159   6.686   6.156   1.915
 7420SOL    HW223160   6.767   6.180   1.775
 7421SOL     OW23161   4.797   3.448   1.183
 7421SOL    HW123162   4.774   3.392   1.103
 7421SOL    HW223163   4.848   3.528   1.154
 7422SOL     OW23164   6.428   3.389   1.906
 7422SOL    HW123165   6.344   3.335   1.897
 7422SOL    HW223166   6.507   3.330   1.890
 7423SOL     OW23167   5.498   1.682   5.417
 7423SOL    HW123168   5.480   1.599   5.469
 7423SOL    HW223169   5.596   1.701   5.418
 7424SOL     OW23170   6.356   1.220   4.873
 7424SOL    HW123171   6.296   1.206   4.951
 7424SOL    HW223172   6.300   1.236   4.791
 7425SOL     OW23173   5.329   6.889   0.353
 7425SOL    HW123174   5.359   6.853   0.265
 7425SOL    HW223175   5.269   6.967   0.339
 7426SOL     OW23176   2.967   2.627   6.057
 7426SOL    HW123177   3.003   2.534   6.050
 7426SOL    HW223178   2.868   2.625   6.046
 7427SOL     OW23179   3.716   1.420   3.820
 7427SOL    HW123180   3.791   1.377   3.870
 7427SOL    HW223181   3.640   1.356   3.810
 7428SOL     OW23182   4.170   6.347   5.778
 7428SOL    HW123183   4.124   6.435   5.776
 7428SOL    HW223184   4.245   6.346   5.711
 7429SOL     OW23185   1.182   6.499   3.199
 7429SOL    HW123186   1.141   6.411   3.226
 7429SOL    HW223187   1.274   6.483   3.164
 7430SOL     OW23188   6.604   4.446   2.386
 7430SOL    HW123189   6.657   4.374   2.431
 7430SOL    HW223190   6.654   4.479   2.306
 7431SOL     OW23191   2.203   2.607   4.474
 7431SOL    HW123192   2.269   2.617   4.400
 7431SOL    HW223193   2.112   2.593   4.436
 7432SOL     OW23194   1.795   0.717   3.445
 7432SOL    HW123195   1.883   0.680   3.476
 7432SOL    HW223196   1.723   0.651   3.462
 7433SOL     OW23197   2.710   6.812   6.956
 7433SOL    HW123198   2.721   6.900   6.911
 7433SOL    HW223199   2.721   6.738   6.890
 7434SOL     OW23200   4.910   6.129   5.996
 7434SOL    HW123201   4.810   6.128   5.991
 7434SOL    HW223202   4.939   6.176   6.079
 7435SOL     OW23203   4.949   6.234   1.746
 7435SOL    HW123204   4.933   6.331   1.729
 7435SOL    HW223205   4.909   6.181   1.671
 7436SOL     OW23206   4.758   4.526   6.085
 7436SOL    HW123207   4.792   4.437   6.055
 7436SOL    HW223208   4.770   4.535   6.183
 7437SOL     OW23209   2.729   5.383   1.542
 7437SOL    HW123210   2.680   5.370   1.456
 7437SOL    HW223211   2.701   5.469   1.584
 7438SOL     OW23212   1.512   0.800   0.663
 7438SOL    HW123213   1.608   0.825   0.651
 7438SOL    HW223214   1.466   0.869   0.720
 7439SOL     OW23215   1.821   4.984   5.539
 7439SOL    HW123216   1.774   5.072   5.541
 7439SOL    HW223217   1.824   4.949   5.445
 7440SOL     OW23218   5.206   2.977   4.012
 7440SOL    HW123219   5.179   2.899   4.069
 7440SOL    HW223220   5.293   3.014   4.045
 7441SOL     OW23221   5.644   6.580   2.500
 7441SOL    HW123222   5.676   6.594   2.594
 7441SOL    HW223223   5.544   6.582   2.499
 7442SOL     OW23224   6.183   0.837   6.018
 7442SOL    HW123225   6.099   0.876   6.054
 7442SOL    HW223226   6.173   0.738   6.009
 7443SOL     OW23227   0.193   5.703   2.221
 7443SOL    HW123228   0.246   5.634   2.172
 7443SOL    HW223229   0.230   5.713   2.314
 7444SOL     OW23230   6.914   0.592   6.011
 7444SOL    HW123231   6.913   0.548   6.101
 7444SOL    HW223232   6.863   0.678   6.015
 7445SOL     OW23233   3.741   6.939   1.801
 7445SOL    HW123234   3.747   6.853   1.752
 7445SOL    HW223235   3.731   6.921   1.899
 7446SOL     OW23236   5.221   2.741   0.752
 7446SOL    HW123237   5.262   2.800   0.682
 7446SOL    HW223238   5.275   2.747   0.836
 7447SOL     OW23239   0.354   4.464   0.068
 7447SOL    HW123240   0.408   4.383   0.047
 7447SOL    HW223241   0.412   4.534   0.110
 7448SOL     OW23242   5.441   5.957   6.468
 7448SOL    HW123243   5.481   6.019   6.534
 7448SOL    HW223244   5.509   5.890   6.438
 7449SOL     OW23245   0.443   4.734   0.409
 7449SOL    HW123246   0.387   4.770   0.484
 7449SOL    HW223247   0.390   4.733   0.325
 7450SOL     OW23248   5.034   1.736   5.584
 7450SOL    HW123249   5.115   1.702   5.631
 7450SOL    HW223250   5.060   1.809   5.521
 7451SOL     OW23251   5.776   5.539   2.322
 7451SOL    HW123252   5.807   5.618   2.375
 7451SOL    HW223253   5.802   5.455   2.370
 7452SOL     OW23254   6.017   6.411   5.151
 7452SOL    HW123255   6.014   6.490   5.213
 7452SOL    HW223256   5.983   6.330   5.199
 7453SOL     OW23257   5.391   5.607   6.287
 7453SOL    HW123258   5.490   5.591   6.296
 7453SOL    HW223259   5.375   5.673   6.213
 7454SOL     OW23260   3.326   1.798   0.660
 7454SOL    HW123261   3.321   1.882   0.607
 7454SOL    HW223262   3.365   1.817   0.750
 7455SOL     OW23263   6.052   2.867   2.449
 7455SOL    HW123264   6.042   2.953   2.399
 7455SOL    HW223265   6.137   2.822   2.422
 7456SOL     OW23266   2.685   2.379   4.904
 7456SOL    HW123267   2.602   2.434   4.895
 7456SOL    HW223268   2.733   2.403   4.988
 7457SOL     OW23269   2.041   0.011   3.861
 7457SOL    HW123270   2.090   0.026   3.775
 7457SOL    HW223271   2.095   6.976   3.919
 7458SOL     OW23272   1.366   6.733   4.859
 7458SOL    HW123273   1.447   6.780   4.893
 7458SOL    HW223274   1.286   6.793   4.868
 7459SOL     OW23275   6.505   1.285   2.596
 7459SOL    HW123276   6.498   1.205   2.537
 7459SOL    HW223277   6.549   1.259   2.682
 7460SOL     OW23278   1.612   6.766   6.947
 7460SOL    HW123279   1.626   6.864   6.964
 7460SOL    HW223280   1.563   6.754   6.861
 7461SOL     OW23281   6.982   6.347   5.620
 7461SOL    HW123282   7.021   6.285   5.553
 7461SOL    HW223283   0.018   6.356   5.698
 7462SOL     OW23284   1.076   5.801   1.076
 7462SOL    HW123285   1.071   5.856   0.993
 7462SOL    HW223286   1.159   5.745   1.073
 7463SOL     OW23287   3.583   4.671   0.473
 7463SOL    HW123288   3.544   4.596   0.420
 7463SOL    HW223289   3.527   4.753   0.461
 7464SOL     OW23290   0.539   5.703   4.553
 7464SOL    HW123291   0.456   5.758   4.566
 7464SOL    HW223292   0.606   5.756   4.501
 7465SOL     OW23293   2.479   5.214   0.309
 7465SOL    HW123294   2.534   5.173   0.236
 7465SOL    HW223295   2.394   5.250   0.271
 7466SOL     OW23296   0.440   0.516   5.540
 7466SOL    HW123297   0.474   0.422   5.530
 7466SOL    HW223298   0.461   0.568   5.458
 7467SOL     OW23299   0.367   2.983   6.069
 7467SOL    HW123300   0.441   3.031   6.114
 7467SOL    HW223301   0.401   2.939   5.986
 7468SOL     OW23302   5.636   2.704   4.848
 7468SOL    HW123303   5.700   2.740   4.917
 7468SOL    HW223304   5.686   2.682   4.765
 7469SOL     OW23305   6.789   2.194   0.618
 7469SOL    HW123306   6.754   2.102   0.605
 7469SOL    HW223307   6.774   2.248   0.535
 7470SOL     OW23308   5.788   3.654   3.191
 7470SOL    HW123309   5.698   3.616   3.174
 7470SOL    HW223310   5.857   3.583   3.177
 7471SOL     OW23311   5.420   5.836   6.146
 7471SOL    HW123312   5.420   5.852   6.048
 7471SOL    HW223313   5.353   5.896   6.189
 7472SOL     OW23314   6.851   0.395   5.790
 7472SOL    HW123315   6.879   0.377   5.885
 7472SOL    HW223316   6.868   0.491   5.768
 7473SOL     OW23317   4.375   6.781   3.978
 7473SOL    HW123318   4.399   6.864   4.029
 7473SOL    HW223319   4.300   6.734   4.025
 7474SOL     OW23320   5.646   2.168   6.397
 7474SOL    HW123321   5.721   2.162   6.464
 7474SOL    HW223322   5.574   2.227   6.433
 7475SOL     OW23323   4.631   1.971   2.284
 7475SOL    HW123324   4.667   1.906   2.351
 7475SOL    HW223325   4.642   1.933   2.192
 7476SOL     OW23326   2.054   2.124   2.968
 7476SOL    HW123327   1.996   2.134   3.049
 7476SOL    HW223328   2.038   2.202   2.907
 7477SOL     OW23329   0.482   3.642   5.044
 7477SOL    HW123330   0.528   3.622   4.958
 7477SOL    HW223331   0.519   3.584   5.116
 7478SOL     OW23332   5.758   2.223   5.023
 7478SOL    HW123333   5.767   2.320   4.999
 7478SOL    HW223334   5.692   2.213   5.097
 7479SOL     OW23335   5.577   3.065   0.080
 7479SOL    HW123336   5.654   3.128   0.082
 7479SOL    HW223337   5.503   3.101   0.138
 7480SOL     OW23338   2.723   5.441   2.642
 7480SOL    HW123339   2.754   5.500   2.567
 7480SOL    HW223340   2.624   5.438   2.642
 7481SOL     OW23341   6.119   4.576   6.209
 7481SOL    HW123342   6.070   4.489   6.213
 7481SOL    HW223343   6.142   4.606   6.301
 7482SOL     OW23344   4.320   2.266   2.530
 7482SOL    HW123345   4.229   2.223   2.524
 7482SOL    HW223346   4.357   2.277   2.438
 7483SOL     OW23347   4.772   1.663   4.672
 7483SOL    HW123348   4.864   1.631   4.649
 7483SOL    HW223349   4.740   1.616   4.754
 7484SOL     OW23350   2.423   6.243   4.717
 7484SOL    HW123351   2.325   6.221   4.715
 7484SOL    HW223352   2.474   6.169   4.673
 7485SOL     OW23353   2.449   0.054   4.032
 7485SOL    HW123354   2.482   6.986   4.044
 7485SOL    HW223355   2.494   0.114   4.098
 7486SOL     OW23356   0.636   5.990   0.216
 7486SOL    HW123357   0.538   6.000   0.232
 7486SOL    HW223358   0.687   6.045   0.282
 7487SOL     OW23359   4.692   0.427   3.460
 7487SOL    HW123360   4.782   0.466   3.480
 7487SOL    HW223361   4.672   0.355   3.526
 7488SOL     OW23362   0.903   5.959   4.198
 7488SOL    HW123363   0.861   5.881   4.152
 7488SOL    HW223364   0.860   6.044   4.167
 7489SOL     OW23365   5.981   3.992   0.070
 7489SOL    HW123366   6.056   3.928   0.090
 7489SOL    HW223367   5.998   4.037   7.009
 7490SOL     OW23368   1.665   2.442   2.762
 7490SOL    HW123369   1.609   2.501   2.703
 7490SOL    HW223370   1.634   2.348   2.755
 7491SOL     OW23371   4.465   3.012   0.856
 7491SOL    HW123372   4.529   2.962   0.915
 7491SOL    HW223373   4.378   3.024   0.904
 7492SOL     OW23374   1.761   0.668   4.115
 7492SOL    HW123375   1.785   0.577   4.082
 7492SOL    HW223376   1.669   0.665   4.155
 7493SOL     OW23377   6.500   3.667   5.613
 7493SOL    HW123378   6.518   3.763   5.591
 7493SOL    HW223379   6.581   3.613   5.593
 7494SOL     OW23380   5.876   0.805   2.891
 7494SOL    HW123381   5.862   0.711   2.858
 7494SOL    HW223382   5.808   0.826   2.960
 7495SOL     OW23383   2.340   2.879   4.778
 7495SOL    HW123384   2.382   2.900   4.866
 7495SOL    HW223385   2.244   2.855   4.793
 7496SOL     OW23386   6.394   3.316   3.308
 7496SOL    HW123387   6.391   3.359   3.217
 7496SOL    HW223388   6.341   3.371   3.372
 7497SOL     OW23389   1.225   6.625   0.688
 7497SOL    HW123390   1.277   6.668   0.615
 7497SOL    HW223391   1.252   6.529   0.696
 7498SOL     OW23392   2.983   0.456   3.302
 7498SOL    HW123393   2.962   0.549   3.271
 7498SOL    HW223394   3.015   0.402   3.224
 7499SOL     OW23395   3.915   2.076   4.012
 7499SOL    HW123396   3.840   2.123   3.965
 7499SOL    HW223397   3.955   2.008   3.950
 7500SOL     OW23398   4.024   6.746   3.758
 7500SOL    HW123399   3.937   6.745   3.710
 7500SOL    HW223400   4.090   6.801   3.707
 7501SOL     OW23401   5.671   2.663   3.846
 7501SOL    HW123402   5.592   2.717   3.816
 7501SOL    HW223403   5.649   2.616   3.931
 7502SOL     OW23404   3.571   0.305   4.541
 7502SOL    HW123405   3.562   0.373   4.469
 7502SOL    HW223406   3.634   0.233   4.511
 7503SOL     OW23407   1.958   5.961   1.154
 7503SOL    HW123408   1.966   6.061   1.150
 7503SOL    HW223409   1.988   5.922   1.068
 7504SOL     OW23410   0.142   6.297   2.617
 7504SOL    HW123411   0.215   6.271   2.554
 7504SOL    HW223412   0.074   6.223   2.621
 7505SOL     OW23413   0.289   1.228   5.011
 7505SOL    HW123414   0.237   1.212   4.927
 7505SOL    HW223415   0.228   1.264   5.082
 7506SOL     OW23416   3.223   1.746   3.331
 7506SOL    HW123417   3.221   1.670   3.266
 7506SOL    HW223418   3.231   1.833   3.281
 7507SOL     OW23419   6.548   3.530   4.540
 7507SOL    HW123420   6.529   3.447   4.593
 7507SOL    HW223421   6.611   3.508   4.465
 7508SOL     OW23422   1.677   5.954   0.008
 7508SOL    HW123423   1.724   5.904   6.961
 7508SOL    HW223424   1.740   5.966   0.085
 7509SOL     OW23425   5.049   4.235   6.844
 7509SOL    HW123426   5.141   4.274   6.843
 7509SOL    HW223427   5.052   4.141   6.812
 7510SOL     OW23428   4.009   3.124   4.058
 7510SOL    HW123429   4.076   3.195   4.041
 7510SOL    HW223430   3.939   3.124   3.986
 7511SOL     OW23431   3.386   5.640   2.848
 7511SOL    HW123432   3.485   5.646   2.860
 7511SOL    HW223433   3.361   5.682   2.760
 7512SOL     OW23434   2.966   0.550   6.996
 7512SOL    HW123435   2.927   0.516   6.910
 7512SOL    HW223436   2.897   0.604   0.018
 7513SOL     OW23437   2.180   2.696   3.637
 7513SOL    HW123438   2.104   2.636   3.664
 7513SOL    HW223439   2.157   2.790   3.660
 7514SOL     OW23440   2.129   4.290   3.657
 7514SOL    HW123441   2.141   4.310   3.754
 7514SOL    HW223442   2.197   4.339   3.603
 7515SOL     OW23443   6.917   4.256   5.274
 7515SOL    HW123444   6.906   4.162   5.306
 7515SOL    HW223445   6.970   4.257   5.189
 7516SOL     OW23446   1.231   5.330   5.585
 7516SOL    HW123447   1.142   5.348   5.542
 7516SOL    HW223448   1.303   5.337   5.517
 7517SOL     OW23449   1.245   2.620   0.062
 7517SOL    HW123450   1.345   2.619   0.073
 7517SOL    HW223451   1.212   2.526   0.056
 7518SOL     OW23452   4.924   3.019   4.155
 7518SOL    HW123453   5.010   2.995   4.109
 7518SOL    HW223454   4.856   2.948   4.137
 7519SOL     OW23455   4.653   0.169   4.714
 7519SOL    HW123456   4.595   0.093   4.683
 7519SOL    HW223457   4.597   0.252   4.724
 7520SOL     OW23458   1.665   1.482   2.077
 7520SOL    HW123459   1.710   1.396   2.103
 7520SOL    HW223460   1.731   1.556   2.081
 7521SOL     OW23461   5.522   1.659   4.484
 7521SOL    HW123462   5.494   1.755   4.492
 7521SOL    HW223463   5.504   1.627   4.391
 7522SOL     OW23464   1.014   6.630   3.938
 7522SOL    HW123465   0.953   6.701   3.904
 7522SOL    HW223466   1.013   6.552   3.876
 7523SOL     OW23467   5.379   0.879   6.309
 7523SOL    HW123468   5.295   0.933   6.312
 7523SOL    HW223469   5.395   0.846   6.215
 7524SOL     OW23470   6.995   2.777   4.302
 7524SOL    HW123471   7.022   2.689   4.341
 7524SOL    HW223472   0.017   2.850   4.349
 7525SOL     OW23473   4.553   6.446   0.019
 7525SOL    HW123474   4.584   6.368   0.073
 7525SOL    HW223475   4.462   6.427   7.008
 7526SOL     OW23476   2.148   3.305   1.760
 7526SOL    HW123477   2.216   3.370   1.793
 7526SOL    HW223478   2.066   3.309   1.818
 7527SOL     OW23479   4.168   5.860   3.923
 7527SOL    HW123480   4.258   5.842   3.882
 7527SOL    HW223481   4.176   5.858   4.022
 7528SOL     OW23482   5.635   2.219   6.917
 7528SOL    HW123483   5.694   2.139   6.901
 7528SOL    HW223484   5.542   2.188   6.935
 7529SOL     OW23485   5.873   1.870   3.624
 7529SOL    HW123486   5.923   1.808   3.563
 7529SOL    HW223487   5.776   1.846   3.623
 7530SOL     OW23488   0.040   1.467   2.471
 7530SOL    HW123489   6.993   1.521   2.428
 7530SOL    HW223490   0.054   1.499   2.565
 7531SOL     OW23491   4.639   2.630   3.587
 7531SOL    HW123492   4.579   2.633   3.507
 7531SOL    HW223493   4.620   2.547   3.640
 7532SOL     OW23494   4.721   6.244   6.682
 7532SOL    HW123495   4.819   6.225   6.680
 7532SOL    HW223496   4.670   6.158   6.671
 7533SOL     OW23497   4.531   2.989   1.589
 7533SOL    HW123498   4.553   2.950   1.678
 7533SOL    HW223499   4.604   3.052   1.562
 7534SOL     OW23500   5.317   6.458   4.650
 7534SOL    HW123501   5.397   6.472   4.708
 7534SOL    HW223502   5.329   6.506   4.563
 7535SOL     OW23503   1.246   6.803   4.550
 7535SOL    HW123504   1.192   6.720   4.560
 7535SOL    HW223505   1.298   6.800   4.465
 7536SOL     OW23506   5.286   5.889   4.235
 7536SOL    HW123507   5.192   5.860   4.221
 7536SOL    HW223508   5.349   5.822   4.194
 7537SOL     OW23509   2.266   5.673   2.151
 7537SOL    HW123510   2.230   5.733   2.222
 7537SOL    HW223511   2.278   5.581   2.188
 7538SOL     OW23512   0.929   3.275   1.746
 7538SOL    HW123513   0.874   3.355   1.721
 7538SOL    HW223514   0.929   3.210   1.669
 7539SOL     OW23515   1.601   5.432   3.474
 7539SOL    HW123516   1.602   5.476   3.385
 7539SOL    HW223517   1.612   5.501   3.546
 7540SOL     OW23518   4.783   5.942   4.391
 7540SOL    HW123519   4.836   5.859   4.373
 7540SOL    HW223520   4.837   6.022   4.365
 7541SOL     OW23521   0.357   3.929   6.603
 7541SOL    HW123522   0.318   4.021   6.610
 7541SOL    HW223523   0.368   3.891   6.695
 7542SOL     OW23524   6.257   6.303   5.897
 7542SOL    HW123525   6.240   6.333   5.991
 7542SOL    HW223526   6.170   6.276   5.855
 7543SOL     OW23527   2.599   0.344   5.240
 7543SOL    HW123528   2.579   0.440   5.257
 7543SOL    HW223529   2.615   0.330   5.142
 7544SOL     OW23530   0.223   2.606   4.146
 7544SOL    HW123531   0.143   2.546   4.148
 7544SOL    HW223532   0.306   2.550   4.146
 7545SOL     OW23533   0.467   5.851   6.859
 7545SOL    HW123534   0.430   5.897   6.940
 7545SOL    HW223535   0.481   5.919   6.786
 7546SOL     OW23536   3.694   2.728   1.765
 7546SOL    HW123537   3.714   2.681   1.679
 7546SOL    HW223538   3.596   2.725   1.783
 7547SOL     OW23539   4.616   0.748   2.107
 7547SOL    HW123540   4.587   0.800   2.187
 7547SOL    HW223541   4.582   0.791   2.024
 7548SOL     OW23542   4.515   2.294   6.540
 7548SOL    HW123543   4.579   2.238   6.592
 7548SOL    HW223544   4.444   2.235   6.499
 7549SOL     OW23545   4.083   2.689   5.934
 7549SOL    HW123546   4.091   2.741   6.019
 7549SOL    HW223547   4.162   2.629   5.924
 7550SOL     OW23548   1.809   4.187   4.163
 7550SOL    HW123549   1.827   4.089   4.169
 7550SOL    HW223550   1.799   4.213   4.067
 7551SOL     OW23551   4.740   2.006   5.393
 7551SOL    HW123552   4.691   2.067   5.456
 7551SOL    HW223553   4.737   2.046   5.301
 7552SOL     OW23554   2.334   5.883   4.155
 7552SOL    HW123555   2.390   5.930   4.223
 7552SOL    HW223556   2.240   5.919   4.160
 7553SOL     OW23557   5.675   6.037   5.846
 7553SOL    HW123558   5.730   6.047   5.929
 7553SOL    HW223559   5.597   5.977   5.864
 7554SOL     OW23560   5.512   1.334   0.182
 7554SOL    HW123561   5.584   1.341   0.251
 7554SOL    HW223562   5.460   1.250   0.195
 7555SOL     OW23563   2.891   6.444   6.582
 7555SOL    HW123564   2.851   6.370   6.637
 7555SOL    HW223565   2.849   6.446   6.492
 7556SOL     OW23566   1.223   1.518   0.539
 7556SOL    HW123567   1.321   1.529   0.556
 7556SOL    HW223568   1.172   1.576   0.603
 7557SOL     OW23569   4.909   7.017   6.947
 7557SOL    HW123570   4.836   0.057   6.926
 7557SOL    HW223571   4.868   6.934   6.987
 7558SOL     OW23572   0.958   2.770   4.158
 7558SOL    HW123573   0.992   2.839   4.222
 7558SOL    HW223574   0.875   2.728   4.195
 7559SOL     OW23575   3.528   2.164   5.210
 7559SOL    HW123576   3.471   2.205   5.281
 7559SOL    HW223577   3.477   2.091   5.164
 7560SOL     OW23578   6.719   0.056   6.479
 7560SOL    HW123579   6.661   0.136   6.496
 7560SOL    HW223580   6.667   6.998   6.494
 7561SOL     OW23581   5.072   2.168   5.609
 7561SOL    HW123582   5.013   2.238   5.569
 7561SOL    HW223583   5.157   2.210   5.640
 7562SOL     OW23584   0.850   5.176   4.961
 7562SOL    HW123585   0.934   5.171   4.908
 7562SOL    HW223586   0.837   5.090   5.010
 7563SOL     OW23587   2.919   6.772   2.248
 7563SOL    HW123588   2.989   6.701   2.264
 7563SOL    HW223589   2.847   6.763   2.317
 7564SOL     OW23590   4.292   0.592   5.077
 7564SOL    HW123591   4.198   0.576   5.049
 7564SOL    HW223592   4.303   0.565   5.173
 7565SOL     OW23593   5.635   3.727   6.248
 7565SOL    HW123594   5.554   3.726   6.306
 7565SOL    HW223595   5.715   3.753   6.302
 7566SOL     OW23596   5.129   5.011   2.210
 7566SOL    HW123597   5.225   5.015   2.237
 7566SOL    HW223598   5.071   5.016   2.291
 7567SOL     OW23599   0.482   1.380   4.010
 7567SOL    HW123600   0.506   1.421   4.098
 7567SOL    HW223601   0.390   1.343   4.014
 7568SOL     OW23602   5.780   5.184   2.093
 7568SOL    HW123603   5.775   5.116   2.166
 7568SOL    HW223604   5.827   5.266   2.126
 7569SOL     OW23605   3.580   5.224   6.529
 7569SOL    HW123606   3.670   5.230   6.573
 7569SOL    HW223607   3.592   5.196   6.434
 7570SOL     OW23608   0.010   2.946   3.007
 7570SOL    HW123609   7.016   3.019   2.942
 7570SOL    HW223610   0.103   2.956   3.042
 7571SOL     OW23611   5.648   3.336   3.010
 7571SOL    HW123612   5.710   3.313   2.935
 7571SOL    HW223613   5.653   3.265   3.081
 7572SOL     OW23614   4.727   6.523   2.790
 7572SOL    HW123615   4.688   6.587   2.856
 7572SOL    HW223616   4.716   6.559   2.698
 7573SOL     OW23617   6.059   0.267   5.326
 7573SOL    HW123618   6.045   0.359   5.363
 7573SOL    HW223619   6.116   0.273   5.244
 7574SOL     OW23620   6.206   0.819   4.054
 7574SOL    HW123621   6.298   0.781   4.048
 7574SOL    HW223622   6.205   0.911   4.014
 7575SOL     OW23623   6.355   6.648   0.810
 7575SOL    HW123624   6.445   6.617   0.779
 7575SOL    HW223625   6.304   6.571   0.848
 7576SOL     OW23626   5.393   2.950   0.997
 7576SOL    HW123627   5.488   2.916   0.998
 7576SOL    HW223628   5.388   3.036   0.947
 7577SOL     OW23629   0.428   0.107   0.372
 7577SOL    HW123630   0.510   0.053   0.388
 7577SOL    HW223631   0.452   0.193   0.327
 7578SOL     OW23632   0.784   5.094   3.377
 7578SOL    HW123633   0.757   5.049   3.463
 7578SOL    HW223634   0.820   5.025   3.314
 7579SOL     OW23635   6.560   1.992   1.653
 7579SOL    HW123636   6.478   2.046   1.672
 7579SOL    HW223637   6.534   1.903   1.617
 7580SOL     OW23638   1.703   4.347   3.138
 7580SOL    HW123639   1.732   4.406   3.213
 7580SOL    HW223640   1.612   4.311   3.156
 7581SOL     OW23641   0.677   1.566   1.360
 7581SOL    HW123642   0.706   1.471   1.372
 7581SOL    HW223643   0.756   1.627   1.371
 7582SOL     OW23644   4.362   1.535   4.099
 7582SOL    HW123645   4.355   1.625   4.056
 7582SOL    HW223646   4.282   1.480   4.074
 7583SOL     OW23647   5.101   3.350   3.570
 7583SOL    HW123648   5.101   3.333   3.668
 7583SOL    HW223649   5.163   3.425   3.549
 7584SOL     OW23650   1.344   0.779   2.911
 7584SOL    HW123651   1.345   0.684   2.880
 7584SOL    HW223652   1.256   0.799   2.955
 7585SOL     OW23653   1.143   2.451   6.366
 7585SOL    HW123654   1.153   2.452   6.266
 7585SOL    HW223655   1.164   2.542   6.402
 7586SOL     OW23656   1.506   0.976   2.343
 7586SOL    HW123657   1.419   1.020   2.325
 7586SOL    HW223658   1.569   1.042   2.384
 7587SOL     OW23659   3.355   0.853   0.685
 7587SOL    HW123660   3.349   0.773   0.625
 7587SOL    HW223661   3.360   0.824   0.780
 7588SOL     OW23662   0.807   3.051   4.713
 7588SOL    HW123663   0.860   2.984   4.765
 7588SOL    HW223664   0.868   3.119   4.673
 7589SOL     OW23665   0.721   0.725   2.967
 7589SOL    HW123666   0.810   0.720   2.922
 7589SOL    HW223667   0.710   0.814   3.011
 7590SOL     OW23668   0.428   1.709   0.022
 7590SOL    HW123669   0.492   1.654   6.995
 7590SOL    HW223670   0.388   1.652   0.094
 7591SOL     OW23671   4.352   2.752   6.665
 7591SOL    HW123672   4.277   2.689   6.644
 7591SOL    HW223673   4.325   2.845   6.641
 7592SOL     OW23674   6.180   4.814   4.639
 7592SOL    HW123675   6.223   4.724   4.633
 7592SOL    HW223676   6.082   4.803   4.659
 7593SOL     OW23677   6.972   1.912   5.282
 7593SOL    HW123678   6.906   1.940   5.212
 7593SOL    HW223679   6.949   1.953   5.369
 7594SOL     OW23680   0.183   4.317   0.855
 7594SOL    HW123681   0.131   4.251   0.909
 7594SOL    HW223682   0.191   4.285   0.761
 7595SOL     OW23683   6.282   2.910   5.945
 7595SOL    HW123684   6.238   2.865   6.023
 7595SOL    HW223685   6.212   2.951   5.886
 7596SOL     OW23686   3.053   0.129   5.122
 7596SOL    HW123687   3.129   0.065   5.139
 7596SOL    HW223688   2.979   0.110   5.187
 7597SOL     OW23689   2.156   6.121   2.647
 7597SOL    HW123690   2.062   6.136   2.677
 7597SOL    HW223691   2.180   6.189   2.578
 7598SOL     OW23692   5.924   0.529   2.638
 7598SOL    HW123693   5.951   0.472   2.561
 7598SOL    HW223694   5.939   0.625   2.615
 7599SOL     OW23695   4.179   3.287   0.846
 7599SOL    HW123696   4.231   3.370   0.863
 7599SOL    HW223697   4.082   3.302   0.868
 7600SOL     OW23698   1.522   1.217   3.602
 7600SOL    HW123699   1.478   1.182   3.685
 7600SOL    HW223700   1.453   1.228   3.530
 7601SOL     OW23701   3.788   5.213   1.924
 7601SOL    HW123702   3.758   5.252   2.011
 7601SOL    HW223703   3.834   5.126   1.941
 7602SOL     OW23704   0.400   2.322   0.443
 7602SOL    HW123705   0.419   2.260   0.367
 7602SOL    HW223706   0.320   2.289   0.493
 7603SOL     OW23707   2.546   0.111   5.932
 7603SOL    HW123708   2.576   0.061   6.013
 7603SOL    HW223709   2.617   0.105   5.862
 7604SOL     OW23710   1.491   2.294   5.146
 7604SOL    HW123711   1.559   2.303   5.219
 7604SOL    HW223712   1.537   2.273   5.060
 7605SOL     OW23713   1.829   0.702   6.814
 7605SOL    HW123714   1.771   0.782   6.799
 7605SOL    HW223715   1.841   0.654   6.727
 7606SOL     OW23716   6.315   1.715   4.263
 7606SOL    HW123717   6.282   1.783   4.197
 7606SOL    HW223718   6.372   1.760   4.331
 7607SOL     OW23719   3.112   6.480   0.167
 7607SOL    HW123720   3.028   6.534   0.161
 7607SOL    HW223721   3.186   6.538   0.201
 7608SOL     OW23722   5.432   2.409   6.235
 7608SOL    HW123723   5.389   2.494   6.265
 7608SOL    HW223724   5.532   2.417   6.243
 7609SOL     OW23725   0.277   3.001   3.927
 7609SOL    HW123726   0.360   3.052   3.907
 7609SOL    HW223727   0.286   2.956   4.016
 7610SOL     OW23728   3.464   5.613   6.437
 7610SOL    HW123729   3.534   5.569   6.492
 7610SOL    HW223730   3.383   5.631   6.494
 7611SOL     OW23731   4.696   2.893   0.999
 7611SOL    HW123732   4.794   2.873   0.997
 7611SOL    HW223733   4.670   2.924   1.090
 7612SOL     OW23734   3.262   2.165   3.202
 7612SOL    HW123735   3.335   2.234   3.200
 7612SOL    HW223736   3.237   2.141   3.109
 7613SOL     OW23737   1.703   1.886   2.110
 7613SOL    HW123738   1.755   1.831   2.175
 7613SOL    HW223739   1.764   1.916   2.036
 7614SOL     OW23740   4.942   3.050   0.466
 7614SOL    HW123741   4.930   2.951   0.461
 7614SOL    HW223742   4.880   3.088   0.534
 7615SOL     OW23743   5.371   3.418   5.209
 7615SOL    HW123744   5.315   3.443   5.287
 7615SOL    HW223745   5.449   3.363   5.239
 7616SOL     OW23746   5.839   6.512   3.227
 7616SOL    HW123747   5.753   6.535   3.181
 7616SOL    HW223748   5.888   6.596   3.252
 7617SOL     OW23749   4.823   4.916   2.995
 7617SOL    HW123750   4.914   4.897   3.031
 7617SOL    HW223751   4.770   4.832   2.992
 7618SOL     OW23752   2.529   2.013   0.373
 7618SOL    HW123753   2.434   1.991   0.352
 7618SOL    HW223754   2.565   2.076   0.303
 7619SOL     OW23755   0.612   2.079   4.484
 7619SOL    HW123756   0.661   2.164   4.498
 7619SOL    HW223757   0.660   2.024   4.415
 7620SOL     OW23758   3.394   4.404   0.942
 7620SOL    HW123759   3.469   4.400   0.877
 7620SOL    HW223760   3.407   4.481   1.004
 7621SOL     OW23761   0.249   5.603   0.867
 7621SOL    HW123762   0.216   5.531   0.806
 7621SOL    HW223763   0.298   5.671   0.814
 7622SOL     OW23764   4.330   4.316   0.360
 7622SOL    HW123765   4.365   4.333   0.452
 7622SOL    HW223766   4.237   4.352   0.352
 7623SOL     OW23767   4.067   4.655   1.530
 7623SOL    HW123768   4.096   4.589   1.461
 7623SOL    HW223769   3.981   4.697   1.502
 7624SOL     OW23770   0.102   2.219   2.027
 7624SOL    HW123771   0.018   2.253   2.069
 7624SOL    HW223772   0.176   2.222   2.093
 7625SOL     OW23773   4.997   1.882   0.351
 7625SOL    HW123774   4.996   1.980   0.373
 7625SOL    HW223775   5.090   1.847   0.364
 7626SOL     OW23776   6.098   0.775   5.548
 7626SOL    HW123777   6.183   0.767   5.496
 7626SOL    HW223778   6.095   0.705   5.618
 7627SOL     OW23779   3.698   2.096   7.014
 7627SOL    HW123780   3.691   2.049   0.076
 7627SOL    HW223781   3.793   2.120   6.996
 7628SOL     OW23782   3.476   2.463   0.920
 7628SOL    HW123783   3.409   2.537   0.928
 7628SOL    HW223784   3.429   2.375   0.923
 7629SOL     OW23785   5.544   3.191   3.351
 7629SOL    HW123786   5.505   3.282   3.363
 7629SOL    HW223787   5.605   3.171   3.428
 7630SOL     OW23788   1.239   0.314   5.010
 7630SOL    HW123789   1.259   0.336   4.914
 7630SOL    HW223790   1.283   0.382   5.069
 7631SOL     OW23791   2.282   6.783   4.615
 7631SOL    HW123792   2.370   6.774   4.568
 7631SOL    HW223793   2.208   6.778   4.548
 7632SOL     OW23794   4.694   5.652   1.338
 7632SOL    HW123795   4.725   5.599   1.260
 7632SOL    HW223796   4.618   5.605   1.383
 7633SOL     OW23797   5.414   0.318   0.983
 7633SOL    HW123798   5.399   0.220   0.993
 7633SOL    HW223799   5.335   0.368   1.017
 7634SOL     OW23800   1.530   1.958   0.720
 7634SOL    HW123801   1.567   2.010   0.642
 7634SOL    HW223802   1.483   2.021   0.782
 7635SOL     OW23803   2.719   5.063   4.700
 7635SOL    HW123804   2.665   5.085   4.619
 7635SOL    HW223805   2.662   5.015   4.767
 7636SOL     OW23806   1.016   4.812   4.607
 7636SOL    HW123807   0.961   4.738   4.645
 7636SOL    HW223808   0.963   4.898   4.612
 7637SOL     OW23809   0.351   6.573   4.286
 7637SOL    HW123810   0.271   6.566   4.226
 7637SOL    HW223811   0.414   6.641   4.249
 7638SOL     OW23812   0.938   5.506   1.752
 7638SOL    HW123813   0.891   5.554   1.678
 7638SOL    HW223814   0.906   5.542   1.840
 7639SOL     OW23815   0.656   1.457   0.225
 7639SOL    HW123816   0.569   1.422   0.259
 7639SOL    HW223817   0.657   1.453   0.125
 7640SOL     OW23818   3.089   1.030   6.883
 7640SOL    HW123819   3.007   1.076   6.849
 7640SOL    HW223820   3.145   1.095   6.935
 7641SOL     OW23821   6.367   3.936   2.926
 7641SOL    HW123822   6.358   3.881   2.843
 7641SOL    HW223823   6.452   3.989   2.922
 7642SOL     OW23824   5.483   1.412   3.212
 7642SOL    HW123825   5.503   1.380   3.120
 7642SOL    HW223826   5.499   1.511   3.218
 7643SOL     OW23827   5.252   2.431   3.031
 7643SOL    HW123828   5.336   2.395   2.990
 7643SOL    HW223829   5.181   2.438   2.962
 7644SOL     OW23830   4.937   3.405   1.837
 7644SOL    HW123831   4.951   3.393   1.935
 7644SOL    HW223832   4.882   3.329   1.801
 7645SOL     OW23833   3.024   3.997   6.192
 7645SOL    HW123834   3.073   4.024   6.275
 7645SOL    HW223835   3.081   3.934   6.138
 7646SOL     OW23836   1.436   2.933   2.737
 7646SOL    HW123837   1.524   2.954   2.779
 7646SOL    HW223838   1.449   2.867   2.664
 7647SOL     OW23839   6.888   3.064   4.648
 7647SOL    HW123840   6.868   3.119   4.729
 7647SOL    HW223841   6.900   2.969   4.674
 7648SOL     OW23842   1.924   2.218   3.176
 7648SOL    HW123843   1.855   2.273   3.129
 7648SOL    HW223844   1.989   2.279   3.221
 7649SOL     OW23845   6.812   1.191   4.564
 7649SOL    HW123846   6.821   1.192   4.663
 7649SOL    HW223847   6.731   1.244   4.537
 7650SOL     OW23848   4.208   1.158   1.295
 7650SOL    HW123849   4.147   1.079   1.288
 7650SOL    HW223850   4.199   1.215   1.213
 7651SOL     OW23851   2.441   4.852   4.547
 7651SOL    HW123852   2.518   4.883   4.491
 7651SOL    HW223853   2.458   4.758   4.578
 7652SOL     OW23854   6.313   1.775   4.687
 7652SOL    HW123855   6.310   1.708   4.762
 7652SOL    HW223856   6.238   1.758   4.624
 7653SOL     OW23857   0.767   1.551   6.457
 7653SOL    HW123858   0.775   1.588   6.364
 7653SOL    HW223859   0.814   1.611   6.521
 7654SOL     OW23860   6.053   3.370   5.235
 7654SOL    HW123861   6.031   3.454   5.285
 7654SOL    HW223862   6.148   3.345   5.251
 7655SOL     OW23863   2.902   0.661   3.704
 7655SOL    HW123864   2.888   0.738   3.641
 7655SOL    HW223865   2.992   0.671   3.747
 7656SOL     OW23866   6.767   4.210   6.169
 7656SOL    HW123867   6.762   4.125   6.117
 7656SOL    HW223868   6.691   4.214   6.234
 7657SOL     OW23869   1.367   4.083   4.669
 7657SOL    HW123870   1.401   4.096   4.762
 7657SOL    HW223871   1.442   4.053   4.611
 7658SOL     OW23872   2.596   0.585   0.438
 7658SOL    HW123873   2.518   0.588   0.500
 7658SOL    HW223874   2.627   0.678   0.418
 7659SOL     OW23875   4.461   4.218   5.255
 7659SOL    HW123876   4.544   4.214   5.311
 7659SOL    HW223877   4.466   4.297   5.194
 7660SOL     OW23878   6.797   4.982   4.527
 7660SOL    HW123879   6.700   4.991   4.503
 7660SOL    HW223880   6.832   5.071   4.557
 7661SOL     OW23881   4.800   1.818   6.402
 7661SOL    HW123882   4.873   1.837   6.337
 7661SOL    HW223883   4.756   1.731   6.380
 7662SOL     OW23884   1.444   1.913   2.069
 7662SOL    HW123885   1.544   1.923   2.071
 7662SOL    HW223886   1.415   1.891   1.976
 7663SOL     OW23887   5.567   5.626   5.700
 7663SOL    HW123888   5.592   5.622   5.604
 7663SOL    HW223889   5.513   5.545   5.724
 7664SOL     OW23890   4.270   1.226   2.982
 7664SOL    HW123891   4.251   1.147   2.924
 7664SOL    HW223892   4.189   1.284   2.986
 7665SOL     OW23893   4.613   2.410   3.727
 7665SOL    HW123894   4.665   2.325   3.718
 7665SOL    HW223895   4.543   2.399   3.798
 7666SOL     OW23896   5.640   5.509   3.963
 7666SOL    HW123897   5.605   5.497   3.870
 7666SOL    HW223898   5.707   5.583   3.963
 7667SOL     OW23899   4.926   6.342   2.821
 7667SOL    HW123900   4.863   6.419   2.829
 7667SOL    HW223901   4.875   6.256   2.815
 7668SOL     OW23902   2.370   5.054   0.987
 7668SOL    HW123903   2.429   5.002   0.926
 7668SOL    HW223904   2.371   5.014   1.079
 7669SOL     OW23905   3.464   6.961   6.343
 7669SOL    HW123906   3.483   6.877   6.292
 7669SOL    HW223907   3.464   0.013   6.280
 7670SOL     OW23908   0.447   6.487   0.375
 7670SOL    HW123909   0.370   6.509   0.435
 7670SOL    HW223910   0.473   6.567   0.322
 7671SOL     OW23911   5.306   0.168   2.082
 7671SOL    HW123912   5.360   0.246   2.049
 7671SOL    HW223913   5.362   0.085   2.079
 7672SOL     OW23914   5.753   4.589   2.975
 7672SOL    HW123915   5.813   4.620   3.049
 7672SOL    HW223916   5.763   4.650   2.897
 7673SOL     OW23917   1.383   6.028   3.572
 7673SOL    HW123918   1.444   5.967   3.522
 7673SOL    HW223919   1.343   6.094   3.509
 7674SOL     OW23920   3.989   0.586   4.298
 7674SOL    HW123921   3.990   0.488   4.281
 7674SOL    HW223922   3.901   0.612   4.337
 7675SOL     OW23923   3.731   6.639   3.467
 7675SOL    HW123924   3.815   6.585   3.468
 7675SOL    HW223925   3.730   6.700   3.547
 7676SOL     OW23926   3.126   3.047   5.864
 7676SOL    HW123927   3.206   3.047   5.924
 7676SOL    HW223928   3.114   3.137   5.824
 7677SOL     OW23929   6.311   4.757   1.276
 7677SOL    HW123930   6.250   4.766   1.355
 7677SOL    HW223931   6.340   4.662   1.267
 7678SOL     OW23932   1.667   1.974   5.490
 7678SOL    HW123933   1.590   1.998   5.431
 7678SOL    HW223934   1.635   1.918   5.566
 7679SOL     OW23935   2.121   5.116   5.119
 7679SOL    HW123936   2.136   5.161   5.207
 7679SOL    HW223937   2.152   5.021   5.124
 7680SOL     OW23938   1.306   0.522   5.186
 7680SOL    HW123939   1.366   0.601   5.172
 7680SOL    HW223940   1.285   0.513   5.283
 7681SOL     OW23941   3.134   2.849   6.109
 7681SOL    HW123942   3.084   2.762   6.106
 7681SOL    HW223943   3.153   2.873   6.204
 7682SOL     OW23944   3.082   1.720   2.983
 7682SOL    HW123945   3.164   1.686   2.936
 7682SOL    HW223946   3.102   1.807   3.027
 7683SOL     OW23947   0.188   1.159   4.766
 7683SOL    HW123948   0.283   1.130   4.763
 7683SOL    HW223949   0.165   1.210   4.683
 7684SOL     OW23950   4.256   2.589   1.721
 7684SOL    HW123951   4.196   2.509   1.719
 7684SOL    HW223952   4.201   2.672   1.709
 7685SOL     OW23953   3.769   0.889   0.264
 7685SOL    HW123954   3.746   0.981   0.232
 7685SOL    HW223955   3.861   0.889   0.303
 7686SOL     OW23956   4.362   0.503   4.457
 7686SOL    HW123957   4.289   0.556   4.501
 7686SOL    HW223958   4.325   0.457   4.376
 7687SOL     OW23959   5.460   5.423   4.745
 7687SOL    HW123960   5.535   5.393   4.803
 7687SOL    HW223961   5.495   5.454   4.657
 7688SOL     OW23962   0.608   5.121   6.365
 7688SOL    HW123963   0.520   5.097   6.324
 7688SOL    HW223964   0.600   5.116   6.465
 7689SOL     OW23965   4.592   0.657   1.747
 7689SOL    HW123966   4.634   0.623   1.663
 7689SOL    HW223967   4.585   0.756   1.742
 7690SOL     OW23968   5.759   5.246   0.311
 7690SOL    HW123969   5.711   5.185   0.248
 7690SOL    HW223970   5.852   5.260   0.279
 7691SOL     OW23971   4.426   4.789   3.190
 7691SOL    HW123972   4.383   4.715   3.242
 7691SOL    HW223973   4.420   4.769   3.092
 7692SOL     OW23974   1.117   6.830   2.116
 7692SOL    HW123975   1.046   6.820   2.185
 7692SOL    HW223976   1.193   6.768   2.136
 7693SOL     OW23977   2.704   0.793   0.794
 7693SOL    HW123978   2.720   0.833   0.704
 7693SOL    HW223979   2.791   0.763   0.833
 7694SOL     OW23980   5.722   2.604   4.626
 7694SOL    HW123981   5.635   2.560   4.600
 7694SOL    HW223982   5.798   2.549   4.591
 7695SOL     OW23983   6.548   0.165   2.973
 7695SOL    HW123984   6.498   0.238   2.927
 7695SOL    HW223985   6.495   0.080   2.968
 7696SOL     OW23986   0.341   2.213   6.249
 7696SOL    HW123987   0.335   2.224   6.349
 7696SOL    HW223988   0.418   2.268   6.215
 7697SOL     OW23989   3.635   6.896   2.714
 7697SOL    HW123990   3.565   6.950   2.759
 7697SOL    HW223991   3.711   6.956   2.687
 7698SOL     OW23992   6.214   2.204   6.638
 7698SOL    HW123993   6.210   2.247   6.547
 7698SOL    HW223994   6.125   2.211   6.682
 7699SOL     OW23995   2.778   5.742   0.494
 7699SOL    HW123996   2.844   5.736   0.419
 7699SOL    HW223997   2.822   5.712   0.579
 7700SOL     OW23998   4.656   5.817   2.801
 7700SOL    HW123999   4.646   5.898   2.743
 7700SOL    HW224000   4.576   5.808   2.860
 7701SOL     OW24001   0.377   2.637   6.039
 7701SOL    HW124002   0.432   2.712   6.002
 7701SOL    HW224003   0.350   2.660   6.133
 7702SOL     OW24004   4.575   0.036   5.563
 7702SOL    HW124005   4.496   0.046   5.622
 7702SOL    HW224006   4.566   6.978   5.509
 7703SOL     OW24007   6.434   0.304   4.507
 7703SOL    HW124008   6.529   0.294   4.476
 7703SOL    HW224009   6.391   0.379   4.457
 7704SOL     OW24010   6.335   1.566   3.999
 7704SOL    HW124011   6.299   1.609   3.916
 7704SOL    HW224012   6.259   1.552   4.064
 7705SOL     OW24013   2.468   4.805   0.560
 7705SOL    HW124014   2.523   4.725   0.535
 7705SOL    HW224015   2.488   4.831   0.654
 7706SOL     OW24016   3.941   3.020   2.734
 7706SOL    HW124017   3.996   3.069   2.666
 7706SOL    HW224018   3.962   3.056   2.825
 7707SOL     OW24019   6.503   6.017   0.365
 7707SOL    HW124020   6.501   5.980   0.273
 7707SOL    HW224021   6.467   5.949   0.429
 7708SOL     OW24022   2.334   6.744   4.193
 7708SOL    HW124023   2.329   6.825   4.252
 7708SOL    HW224024   2.428   6.732   4.161
 7709SOL     OW24025   6.550   4.813   0.716
 7709SOL    HW124026   6.629   4.828   0.656
 7709SOL    HW224027   6.477   4.876   0.691
 7710SOL     OW24028   1.822   3.219   0.626
 7710SOL    HW124029   1.863   3.130   0.608
 7710SOL    HW224030   1.800   3.227   0.723
 7711SOL     OW24031   6.628   4.470   5.401
 7711SOL    HW124032   6.533   4.493   5.382
 7711SOL    HW224033   6.651   4.499   5.493
 7712SOL     OW24034   6.675   4.558   5.890
 7712SOL    HW124035   6.765   4.533   5.925
 7712SOL    HW224036   6.641   4.639   5.938
 7713SOL     OW24037   1.590   4.671   0.567
 7713SOL    HW124038   1.534   4.724   0.503
 7713SOL    HW224039   1.563   4.694   0.661
 7714SOL     OW24040   6.655   0.567   4.207
 7714SOL    HW124041   6.744   0.541   4.245
 7714SOL    HW224042   6.644   0.525   4.117
 7715SOL     OW24043   1.705   2.689   6.578
 7715SOL    HW124044   1.793   2.655   6.612
 7715SOL    HW224045   1.648   2.718   6.655
 7716SOL     OW24046   0.735   6.052   6.548
 7716SOL    HW124047   0.762   6.038   6.643
 7716SOL    HW224048   0.765   5.974   6.493
 7717SOL     OW24049   1.275   2.197   6.442
 7717SOL    HW124050   1.288   2.233   6.535
 7717SOL    HW224051   1.230   2.267   6.386
 7718SOL     OW24052   1.420   4.281   2.390
 7718SOL    HW124053   1.411   4.364   2.445
 7718SOL    HW224054   1.473   4.301   2.308
 7719SOL     OW24055   1.549   4.085   4.895
 7719SOL    HW124056   1.570   3.993   4.862
 7719SOL    HW224057   1.541   4.084   4.995
 7720SOL     OW24058   6.059   1.932   6.524
 7720SOL    HW124059   5.998   1.853   6.529
 7720SOL    HW224060   6.124   1.928   6.599
 7721SOL     OW24061   1.485   0.307   2.413
 7721SOL    HW124062   1.454   0.280   2.504
 7721SOL    HW224063   1.547   0.386   2.422
 7722SOL     OW24064   2.341   4.967   4.024
 7722SOL    HW124065   2.313   4.976   3.929
 7722SOL    HW224066   2.386   5.051   4.053
 7723SOL     OW24067   4.771   2.821   6.771
 7723SOL    HW124068   4.803   2.759   6.700
 7723SOL    HW224069   4.727   2.768   6.844
 7724SOL     OW24070   2.984   3.949   1.418
 7724SOL    HW124071   2.899   3.948   1.471
 7724SOL    HW224072   3.004   3.857   1.385
 7725SOL     OW24073   5.811   2.391   2.259
 7725SOL    HW124074   5.890   2.332   2.274
 7725SOL    HW224075   5.827   2.481   2.301
 7726SOL     OW24076   0.568   3.150   5.681
 7726SOL    HW124077   0.583   3.118   5.588
 7726SOL    HW224078   0.607   3.242   5.691
 7727SOL     OW24079   5.154   2.670   2.243
 7727SOL    HW124080   5.057   2.656   2.266
 7727SOL    HW224081   5.197   2.582   2.228
 7728SOL     OW24082   2.347   3.018   5.418
 7728SOL    HW124083   2.400   3.019   5.333
 7728SOL    HW224084   2.268   2.958   5.408
 7729SOL     OW24085   5.814   1.716   2.698
 7729SOL    HW124086   5.738   1.656   2.673
 7729SOL    HW224087   5.900   1.667   2.685
 7730SOL     OW24088   5.711   4.655   5.595
 7730SOL    HW124089   5.676   4.715   5.667
 7730SOL    HW224090   5.640   4.591   5.567
 7731SOL     OW24091   6.088   0.370   0.829
 7731SOL    HW124092   6.020   0.297   0.841
 7731SOL    HW224093   6.139   0.383   0.914
 7732SOL     OW24094   4.619   0.369   6.547
 7732SOL    HW124095   4.624   0.346   6.450
 7732SOL    HW224096   4.701   0.335   6.593
 7733SOL     OW24097   6.509   5.814   2.494
 7733SOL    HW124098   6.536   5.796   2.399
 7733SOL    HW224099   6.504   5.728   2.544
 7734SOL     OW24100   2.397   4.584   5.637
 7734SOL    HW124101   2.428   4.490   5.627
 7734SOL    HW224102   2.383   4.624   5.546
 7735SOL     OW24103   6.304   6.474   0.481
 7735SOL    HW124104   6.294   6.445   0.576
 7735SOL    HW224105   6.355   6.405   0.430
 7736SOL     OW24106   2.675   3.066   0.762
 7736SOL    HW124107   2.735   2.990   0.739
 7736SOL    HW224108   2.710   3.114   0.842
 7737SOL     OW24109   4.211   5.371   1.284
 7737SOL    HW124110   4.142   5.327   1.227
 7737SOL    HW224111   4.264   5.436   1.230
 7738SOL     OW24112   2.635   6.238   6.917
 7738SOL    HW124113   2.626   6.141   6.893
 7738SOL    HW224114   2.725   6.271   6.890
 7739SOL     OW24115   1.497   3.050   2.078
 7739SOL    HW124116   1.566   3.001   2.025
 7739SOL    HW224117   1.486   3.143   2.041
 7740SOL     OW24118   1.287   0.824   3.593
 7740SOL    HW124119   1.253   0.788   3.506
 7740SOL    HW224120   1.387   0.826   3.592
 7741SOL     OW24121   2.035   4.751   6.048
 7741SOL    HW124122   2.084   4.729   5.964
 7741SOL    HW224123   2.008   4.847   6.047
 7742SOL     OW24124   3.808   1.733   4.176
 7742SOL    HW124125   3.803   1.832   4.187
 7742SOL    HW224126   3.754   1.705   4.097
 7743SOL     OW24127   5.263   1.209   6.501
 7743SOL    HW124128   5.317   1.293   6.494
 7743SOL    HW224129   5.231   1.199   6.596
 7744SOL     OW24130   0.747   5.984   5.136
 7744SOL    HW124131   0.797   6.054   5.186
 7744SOL    HW224132   0.811   5.926   5.086
 7745SOL     OW24133   1.972   6.155   7.025
 7745SOL    HW124134   1.976   6.225   0.070
 7745SOL    HW224135   1.992   6.066   0.040
 7746SOL     OW24136   0.940   6.428   1.036
 7746SOL    HW124137   1.037   6.416   1.054
 7746SOL    HW224138   0.898   6.339   1.018
 7747SOL     OW24139   6.897   6.416   0.848
 7747SOL    HW124140   6.992   6.447   0.836
 7747SOL    HW224141   6.836   6.496   0.850
 7748SOL     OW24142   3.878   2.867   5.874
 7748SOL    HW124143   3.816   2.840   5.800
 7748SOL    HW224144   3.964   2.815   5.865
 7749SOL     OW24145   3.803   3.541   3.411
 7749SOL    HW124146   3.873   3.561   3.343
 7749SOL    HW224147   3.828   3.583   3.498
 7750SOL     OW24148   5.690   5.117   6.108
 7750SOL    HW124149   5.704   5.176   6.028
 7750SOL    HW224150   5.625   5.160   6.171
 7751SOL     OW24151   6.857   1.486   3.950
 7751SOL    HW124152   6.874   1.566   3.892
 7751SOL    HW224153   6.767   1.495   3.993
 7752SOL     OW24154   5.968   5.379   5.538
 7752SOL    HW124155   6.000   5.473   5.550
 7752SOL    HW224156   5.868   5.377   5.543
 7753SOL     OW24157   2.674   0.046   4.594
 7753SOL    HW124158   2.652   6.992   4.651
 7753SOL    HW224159   2.757   0.028   4.542
 7754SOL     OW24160   5.727   0.608   0.923
 7754SOL    HW124161   5.712   0.599   0.824
 7754SOL    HW224162   5.640   0.595   0.971
 7755SOL     OW24163   0.451   6.314   5.829
 7755SOL    HW124164   0.470   6.389   5.765
 7755SOL    HW224165   0.534   6.259   5.841
 7756SOL     OW24166   3.040   5.093   2.615
 7756SOL    HW124167   2.972   5.141   2.560
 7756SOL    HW224168   3.075   5.015   2.564
 7757SOL     OW24169   4.888   6.214   5.394
 7757SOL    HW124170   4.817   6.170   5.340
 7757SOL    HW224171   4.847   6.281   5.456
 7758SOL     OW24172   2.485   2.877   6.315
 7758SOL    HW124173   2.434   2.855   6.232
 7758SOL    HW224174   2.555   2.946   6.294
 7759SOL     OW24175   2.279   0.524   4.508
 7759SOL    HW124176   2.285   0.557   4.602
 7759SOL    HW224177   2.333   0.584   4.448
 7760SOL     OW24178   5.217   3.206   1.584
 7760SOL    HW124179   5.145   3.153   1.630
 7760SOL    HW224180   5.303   3.156   1.588
 7761SOL     OW24181   3.124   6.729   6.155
 7761SOL    HW124182   3.098   6.793   6.227
 7761SOL    HW224183   3.223   6.716   6.158
 7762SOL     OW24184   4.133   1.234   6.991
 7762SOL    HW124185   4.113   1.162   6.925
 7762SOL    HW224186   4.064   1.306   6.982
 7763SOL     OW24187   1.347   2.094   0.884
 7763SOL    HW124188   1.405   2.117   0.962
 7763SOL    HW224189   1.251   2.103   0.910
 7764SOL     OW24190   3.894   3.368   2.462
 7764SOL    HW124191   3.950   3.443   2.426
 7764SOL    HW224192   3.859   3.392   2.553
 7765SOL     OW24193   6.212   3.324   3.745
 7765SOL    HW124194   6.258   3.393   3.688
 7765SOL    HW224195   6.204   3.239   3.694
 7766SOL     OW24196   5.727   1.558   0.177
 7766SOL    HW124197   5.666   1.526   0.249
 7766SOL    HW224198   5.805   1.496   0.169
 7767SOL     OW24199   3.881   6.389   3.645
 7767SOL    HW124200   3.809   6.362   3.581
 7767SOL    HW224201   3.842   6.398   3.737
 7768SOL     OW24202   3.464   4.937   2.613
 7768SOL    HW124203   3.400   4.920   2.688
 7768SOL    HW224204   3.489   5.034   2.613
 7769SOL     OW24205   4.722   2.070   1.329
 7769SOL    HW124206   4.745   2.102   1.237
 7769SOL    HW224207   4.653   1.998   1.324
 7770SOL     OW24208   2.807   4.910   1.842
 7770SOL    HW124209   2.811   4.839   1.912
 7770SOL    HW224210   2.850   4.993   1.877
 7771SOL     OW24211   2.691   2.106   4.522
 7771SOL    HW124212   2.729   2.178   4.581
 7771SOL    HW224213   2.644   2.148   4.445
 7772SOL     OW24214   5.338   1.136   3.920
 7772SOL    HW124215   5.249   1.118   3.961
 7772SOL    HW224216   5.356   1.069   3.848
 7773SOL     OW24217   3.783   4.235   6.093
 7773SOL    HW124218   3.831   4.166   6.147
 7773SOL    HW224219   3.846   4.274   6.026
 7774SOL     OW24220   5.357   1.174   5.863
 7774SOL    HW124221   5.313   1.253   5.820
 7774SOL    HW224222   5.296   1.136   5.932
 7775SOL     OW24223   3.564   6.720   3.242
 7775SOL    HW124224   3.588   6.767   3.158
 7775SOL    HW224225   3.646   6.705   3.297
 7776SOL     OW24226   3.603   3.428   6.137
 7776SOL    HW124227   3.641   3.348   6.183
 7776SOL    HW224228   3.550   3.482   6.202
 7777SOL     OW24229   1.963   1.382   5.772
 7777SOL    HW124230   1.907   1.313   5.727
 7777SOL    HW224231   2.056   1.347   5.784
 7778SOL     OW24232   5.730   0.568   0.376
 7778SOL    HW124233   5.736   0.663   0.345
 7778SOL    HW224234   5.808   0.516   0.342
 7779SOL     OW24235   3.279   2.649   0.884
 7779SOL    HW124236   3.294   2.708   0.805
 7779SOL    HW224237   3.206   2.584   0.864
 7780SOL     OW24238   0.895   6.297   4.372
 7780SOL    HW124239   0.957   6.359   4.323
 7780SOL    HW224240   0.803   6.336   4.373
 7781SOL     OW24241   1.649   3.862   5.922
 7781SOL    HW124242   1.690   3.917   5.849
 7781SOL    HW224243   1.651   3.766   5.896
 7782SOL     OW24244   1.936   3.867   6.097
 7782SOL    HW124245   1.903   3.841   6.007
 7782SOL    HW224246   1.919   3.964   6.113
 7783SOL     OW24247   2.530   6.868   6.366
 7783SOL    HW124248   2.529   6.935   6.440
 7783SOL    HW224249   2.541   6.776   6.404
 7784SOL     OW24250   1.312   3.091   6.994
 7784SOL    HW124251   1.340   3.184   7.017
 7784SOL    HW224252   1.212   3.086   6.993
 7785SOL     OW24253   2.405   6.705   3.833
 7785SOL    HW124254   2.443   6.758   3.757
 7785SOL    HW224255   2.478   6.651   3.875
 7786SOL     OW24256   3.160   4.570   5.332
 7786SOL    HW124257   3.127   4.597   5.422
 7786SOL    HW224258   3.086   4.529   5.280
 7787SOL     OW24259   2.140   2.987   5.083
 7787SOL    HW124260   2.236   2.972   5.060
 7787SOL    HW224261   2.125   3.085   5.099
 7788SOL     OW24262   1.613   1.770   1.676
 7788SOL    HW124263   1.685   1.708   1.707
 7788SOL    HW224264   1.622   1.785   1.578
 7789SOL     OW24265   2.438   6.970   1.222
 7789SOL    HW124266   2.464   6.941   1.130
 7789SOL    HW224267   2.514   6.953   1.285
 7790SOL     OW24268   6.491   4.124   3.242
 7790SOL    HW124269   6.499   4.033   3.201
 7790SOL    HW224270   6.396   4.142   3.265
 7791SOL     OW24271   2.674   5.823   4.421
 7791SOL    HW124272   2.753   5.879   4.398
 7791SOL    HW224273   2.592   5.880   4.420
 7792SOL     OW24274   1.363   5.433   6.335
 7792SOL    HW124275   1.398   5.340   6.335
 7792SOL    HW224276   1.267   5.433   6.304
 7793SOL     OW24277   1.590   1.147   5.305
 7793SOL    HW124278   1.553   1.059   5.274
 7793SOL    HW224279   1.600   1.209   5.227
 7794SOL     OW24280   5.137   4.689   4.716
 7794SOL    HW124281   5.149   4.657   4.810
 7794SOL    HW224282   5.197   4.767   4.699
 7795SOL     OW24283   1.996   4.299   5.530
 7795SOL    HW124284   1.989   4.224   5.595
 7795SOL    HW224285   2.069   4.279   5.464
 7796SOL     OW24286   4.113   3.776   3.569
 7796SOL    HW124287   4.116   3.689   3.519
 7796SOL    HW224288   4.114   3.758   3.667
 7797SOL     OW24289   0.642   5.962   3.520
 7797SOL    HW124290   0.608   5.870   3.503
 7797SOL    HW224291   0.677   6.001   3.435
 7798SOL     OW24292   2.719   5.459   0.446
 7798SOL    HW124293   2.688   5.441   0.353
 7798SOL    HW224294   2.685   5.549   0.476
 7799SOL     OW24295   6.954   6.077   1.801
 7799SOL    HW124296   6.966   6.075   1.900
 7799SOL    HW224297   7.002   5.999   1.760
 7800SOL     OW24298   0.623   4.582   1.333
 7800SOL    HW124299   0.553   4.645   1.367
 7800SOL    HW224300   0.665   4.620   1.251
 7801SOL     OW24301   2.387   0.977   0.735
 7801SOL    HW124302   2.448   0.955   0.659
 7801SOL    HW224303   2.325   1.050   0.708
 7802SOL     OW24304   6.082   2.813   1.652
 7802SOL    HW124305   6.085   2.911   1.675
 7802SOL    HW224306   6.013   2.798   1.582
 7803SOL     OW24307   4.646   3.414   5.795
 7803SOL    HW124308   4.589   3.341   5.759
 7803SOL    HW224309   4.631   3.423   5.893
 7804SOL     OW24310   6.184   1.168   4.224
 7804SOL    HW124311   6.131   1.237   4.271
 7804SOL    HW224312   6.152   1.077   4.250
 7805SOL     OW24313   5.387   1.917   1.537
 7805SOL    HW124314   5.365   2.006   1.577
 7805SOL    HW224315   5.307   1.880   1.490
 7806SOL     OW24316   5.617   2.746   5.797
 7806SOL    HW124317   5.648   2.741   5.892
 7806SOL    HW224318   5.525   2.784   5.794
 7807SOL     OW24319   0.171   4.715   6.046
 7807SOL    HW124320   0.126   4.661   5.975
 7807SOL    HW224321   0.223   4.789   6.004
 7808SOL     OW24322   0.740   1.542   5.206
 7808SOL    HW124323   0.828   1.521   5.166
 7808SOL    HW224324   0.753   1.601   5.286
 7809SOL     OW24325   2.353   5.409   4.530
 7809SOL    HW124326   2.362   5.315   4.497
 7809SOL    HW224327   2.416   5.468   4.479
 7810SOL     OW24328   2.819   0.856   5.698
 7810SOL    HW124329   2.883   0.838   5.623
 7810SOL    HW224330   2.728   0.824   5.672
 7811SOL     OW24331   6.118   4.569   4.244
 7811SOL    HW124332   6.101   4.471   4.249
 7811SOL    HW224333   6.128   4.597   4.149
 7812SOL     OW24334   1.273   1.937   4.294
 7812SOL    HW124335   1.237   1.889   4.374
 7812SOL    HW224336   1.197   1.977   4.242
 7813SOL     OW24337   4.989   2.936   6.458
 7813SOL    HW124338   4.975   2.968   6.364
 7813SOL    HW224339   5.011   3.014   6.517
 7814SOL     OW24340   0.107   2.556   3.347
 7814SOL    HW124341   0.018   2.510   3.349
 7814SOL    HW224342   0.144   2.553   3.254
 7815SOL     OW24343   5.241   1.536   6.766
 7815SOL    HW124344   5.145   1.514   6.785
 7815SOL    HW224345   5.267   1.617   6.817
 7816SOL     OW24346   0.797   3.484   5.941
 7816SOL    HW124347   0.804   3.411   6.009
 7816SOL    HW224348   0.845   3.456   5.858
 7817SOL     OW24349   6.049   3.571   4.302
 7817SOL    HW124350   5.949   3.567   4.306
 7817SOL    HW224351   6.081   3.509   4.230
 7818SOL     OW24352   5.927   0.283   1.729
 7818SOL    HW124353   5.858   0.328   1.672
 7818SOL    HW224354   5.999   0.247   1.671
 7819SOL     OW24355   0.373   3.262   1.395
 7819SOL    HW124356   0.416   3.186   1.444
 7819SOL    HW224357   0.414   3.271   1.305
 7820SOL     OW24358   1.901   2.474   5.102
 7820SOL    HW124359   1.932   2.566   5.077
 7820SOL    HW224360   1.962   2.406   5.061
 7821SOL     OW24361   4.218   6.071   1.100
 7821SOL    HW124362   4.287   6.052   1.031
 7821SOL    HW224363   4.226   6.166   1.130
 7822SOL     OW24364   0.735   6.838   5.687
 7822SOL    HW124365   0.832   6.814   5.689
 7822SOL    HW224366   0.708   6.875   5.776
 7823SOL     OW24367   2.288   4.327   4.428
 7823SOL    HW124368   2.329   4.396   4.367
 7823SOL    HW224369   2.343   4.320   4.511
 7824SOL     OW24370   6.947   2.622   5.202
 7824SOL    HW124371   6.868   2.676   5.175
 7824SOL    HW224372   6.925   2.569   5.284
 7825SOL     OW24373   2.522   3.185   6.678
 7825SOL    HW124374   2.613   3.215   6.650
 7825SOL    HW224375   2.466   3.169   6.597
 7826SOL     OW24376   0.093   2.043   6.980
 7826SOL    HW124377   0.181   2.000   6.958
 7826SOL    HW224378   0.109   2.126   0.008
 7827SOL     OW24379   0.478   5.667   3.026
 7827SOL    HW124380   0.406   5.697   2.964
 7827SOL    HW224381   0.436   5.626   3.107
 7828SOL     OW24382   6.928   3.855   6.565
 7828SOL    HW124383   6.985   3.890   6.491
 7828SOL    HW224384   6.836   3.838   6.531
 7829SOL     OW24385   3.339   2.975   1.372
 7829SOL    HW124386   3.263   2.958   1.435
 7829SOL    HW224387   3.412   2.908   1.388
 7830SOL     OW24388   3.581   5.179   5.327
 7830SOL    HW124389   3.668   5.153   5.367
 7830SOL    HW224390   3.510   5.176   5.397
 7831SOL     OW24391   2.057   1.502   1.077
 7831SOL    HW124392   2.002   1.423   1.104
 7831SOL    HW224393   2.019   1.541   0.993
 7832SOL     OW24394   5.064   0.569   4.574
 7832SOL    HW124395   5.049   0.625   4.492
 7832SOL    HW224396   5.157   0.583   4.607
 7833SOL     OW24397   1.430   0.321   4.109
 7833SOL    HW124398   1.371   0.385   4.160
 7833SOL    HW224399   1.473   0.258   4.173
 7834SOL     OW24400   6.761   1.682   4.241
 7834SOL    HW124401   6.678   1.658   4.190
 7834SOL    HW224402   6.735   1.726   4.327
 7835SOL     OW24403   4.130   1.651   5.453
 7835SOL    HW124404   4.095   1.710   5.526
 7835SOL    HW224405   4.081   1.563   5.455
 7836SOL     OW24406   3.891   4.235   5.303
 7836SOL    HW124407   3.937   4.186   5.377
 7836SOL    HW224408   3.917   4.331   5.305
 7837SOL     OW24409   5.849   6.415   0.563
 7837SOL    HW124410   5.910   6.419   0.484
 7837SOL    HW224411   5.859   6.498   0.617
 7838SOL     OW24412   5.308   5.135   1.515
 7838SOL    HW124413   5.292   5.227   1.550
 7838SOL    HW224414   5.405   5.113   1.519
 7839SOL     OW24415   6.007   4.309   4.958
 7839SOL    HW124416   5.977   4.255   4.879
 7839SOL    HW224417   6.067   4.383   4.927
 7840SOL     OW24418   1.200   3.882   4.036
 7840SOL    HW124419   1.225   3.979   4.033
 7840SOL    HW224420   1.263   3.833   4.095
 7841SOL     OW24421   4.953   1.535   6.534
 7841SOL    HW124422   5.043   1.572   6.512
 7841SOL    HW224423   4.894   1.543   6.453
 7842SOL     OW24424   2.301   2.031   2.594
 7842SOL    HW124425   2.209   2.068   2.578
 7842SOL    HW224426   2.294   1.934   2.617
 7843SOL     OW24427   6.693   6.580   4.101
 7843SOL    HW124428   6.767   6.645   4.120
 7843SOL    HW224429   6.730   6.500   4.054
 7844SOL     OW24430   3.686   1.006   2.697
 7844SOL    HW124431   3.618   1.047   2.637
 7844SOL    HW224432   3.663   1.025   2.792
 7845SOL     OW24433   5.939   1.619   1.807
 7845SOL    HW124434   5.894   1.706   1.826
 7845SOL    HW224435   5.934   1.600   1.709
 7846SOL     OW24436   1.672   2.898   0.591
 7846SOL    HW124437   1.693   2.808   0.553
 7846SOL    HW224438   1.669   2.891   0.691
 7847SOL     OW24439   5.612   2.169   3.780
 7847SOL    HW124440   5.708   2.170   3.810
 7847SOL    HW224441   5.554   2.207   3.852
 7848SOL     OW24442   2.752   4.411   0.992
 7848SOL    HW124443   2.836   4.414   0.939
 7848SOL    HW224444   2.766   4.355   1.074
 7849SOL     OW24445   5.474   3.131   5.702
 7849SOL    HW124446   5.400   3.072   5.733
 7849SOL    HW224447   5.468   3.219   5.748
 7850SOL     OW24448   0.039   1.614   3.385
 7850SOL    HW124449   6.988   1.672   3.412
 7850SOL    HW224450   0.064   1.635   3.290
 7851SOL     OW24451   0.755   3.924   1.744
 7851SOL    HW124452   0.825   3.860   1.712
 7851SOL    HW224453   0.687   3.937   1.672
 7852SOL     OW24454   2.995   1.409   0.244
 7852SOL    HW124455   3.050   1.492   0.250
 7852SOL    HW224456   2.932   1.416   0.167
 7853SOL     OW24457   4.297   3.159   1.606
 7853SOL    HW124458   4.254   3.069   1.613
 7853SOL    HW224459   4.394   3.148   1.585
 7854SOL     OW24460   4.715   2.056   6.131
 7854SOL    HW124461   4.696   2.068   6.229
 7854SOL    HW224462   4.725   1.958   6.112
 7855SOL     OW24463   5.015   6.684   4.418
 7855SOL    HW124464   4.951   6.611   4.443
 7855SOL    HW224465   5.065   6.658   4.336
 7856SOL     OW24466   1.315   4.485   4.920
 7856SOL    HW124467   1.369   4.419   4.973
 7856SOL    HW224468   1.289   4.444   4.833
 7857SOL     OW24469   5.269   4.016   0.056
 7857SOL    HW124470   5.294   3.946   0.123
 7857SOL    HW224471   5.290   4.107   0.092
 7858SOL     OW24472   0.129   5.677   5.681
 7858SOL    HW124473   0.074   5.683   5.764
 7858SOL    HW224474   0.142   5.768   5.643
 7859SOL     OW24475   4.707   3.148   6.224
 7859SOL    HW124476   4.686   3.192   6.137
 7859SOL    HW224477   4.804   3.123   6.227
 7860SOL     OW24478   3.397   1.269   4.341
 7860SOL    HW124479   3.321   1.204   4.347
 7860SOL    HW224480   3.372   1.343   4.279
 7861SOL     OW24481   2.707   5.588   1.924
 7861SOL    HW124482   2.709   5.615   1.827
 7861SOL    HW224483   2.776   5.519   1.942
 7862SOL     OW24484   2.943   5.582   2.078
 7862SOL    HW124485   2.892   5.668   2.072
 7862SOL    HW224486   2.953   5.556   2.174
 7863SOL     OW24487   6.992   4.508   3.241
 7863SOL    HW124488   7.013   4.412   3.220
 7863SOL    HW224489   0.027   4.540   3.313
 7864SOL     OW24490   2.174   6.237   6.281
 7864SOL    HW124491   2.197   6.149   6.322
 7864SOL    HW224492   2.166   6.307   6.352
 7865SOL     OW24493   5.938   6.079   3.762
 7865SOL    HW124494   5.855   6.025   3.779
 7865SOL    HW224495   5.916   6.156   3.702
 7866SOL     OW24496   1.822   0.541   5.689
 7866SOL    HW124497   1.834   0.630   5.733
 7866SOL    HW224498   1.912   0.504   5.665
 7867SOL     OW24499   5.582   0.216   4.005
 7867SOL    HW124500   5.647   0.270   4.058
 7867SOL    HW224501   5.508   0.184   4.066
 7868SOL     OW24502   4.105   6.233   0.627
 7868SOL    HW124503   4.160   6.272   0.701
 7868SOL    HW224504   4.008   6.248   0.647
 7869SOL     OW24505   5.625   4.860   5.767
 7869SOL    HW124506   5.702   4.921   5.746
 7869SOL    HW224507   5.539   4.909   5.754
 7870SOL     OW24508   4.514   6.558   4.969
 7870SOL    HW124509   4.609   6.591   4.967
 7870SOL    HW224510   4.513   6.459   4.979
 7871SOL     OW24511   5.244   1.181   2.083
 7871SOL    HW124512   5.304   1.158   2.159
 7871SOL    HW224513   5.231   1.280   2.079
 7872SOL     OW24514   2.060   5.199   2.614
 7872SOL    HW124515   2.058   5.162   2.706
 7872SOL    HW224516   2.050   5.125   2.548
 7873SOL     OW24517   6.860   1.192   0.994
 7873SOL    HW124518   6.897   1.271   0.944
 7873SOL    HW224519   6.934   1.146   1.043
 7874SOL     OW24520   5.652   2.406   0.904
 7874SOL    HW124521   5.622   2.414   0.999
 7874SOL    HW224522   5.705   2.321   0.893
 7875SOL     OW24523   4.050   3.756   6.987
 7875SOL    HW124524   3.980   3.804   0.014
 7875SOL    HW224525   4.094   3.688   0.020
 7876SOL     OW24526   0.953   7.021   2.445
 7876SOL    HW124527   0.871   7.023   2.502
 7876SOL    HW224528   0.934   6.971   2.361
 7877SOL     OW24529   6.130   1.470   2.470
 7877SOL    HW124530   6.180   1.529   2.534
 7877SOL    HW224531   6.047   1.436   2.514
 7878SOL     OW24532   4.879   3.989   3.681
 7878SOL    HW124533   4.944   3.922   3.718
 7878SOL    HW224534   4.854   3.962   3.588
 7879SOL     OW24535   3.005   5.368   3.637
 7879SOL    HW124536   3.103   5.364   3.618
 7879SOL    HW224537   2.983   5.454   3.683
 7880SOL     OW24538   2.384   3.731   1.454
 7880SOL    HW124539   2.305   3.787   1.480
 7880SOL    HW224540   2.439   3.712   1.535
 7881SOL     OW24541   5.086   4.108   4.476
 7881SOL    HW124542   5.172   4.118   4.524
 7881SOL    HW224543   5.094   4.147   4.384
 7882SOL     OW24544   2.537   3.621   1.301
 7882SOL    HW124545   2.565   3.535   1.343
 7882SOL    HW224546   2.466   3.664   1.357
 7883SOL     OW24547   0.298   0.930   5.019
 7883SOL    HW124548   0.309   1.027   4.997
 7883SOL    HW224549   0.291   0.877   4.935
 7884SOL     OW24550   0.408   2.887   4.446
 7884SOL    HW124551   0.313   2.890   4.416
 7884SOL    HW224552   0.466   2.860   4.370
 7885SOL     OW24553   6.266   5.704   0.767
 7885SOL    HW124554   6.223   5.729   0.854
 7885SOL    HW224555   6.220   5.623   0.730
 7886SOL     OW24556   4.738   5.401   0.525
 7886SOL    HW124557   4.778   5.320   0.481
 7886SOL    HW224558   4.749   5.480   0.465
 7887SOL     OW24559   4.100   1.698   6.835
 7887SOL    HW124560   4.186   1.738   6.804
 7887SOL    HW224561   4.093   1.604   6.803
 7888SOL     OW24562   4.971   0.758   4.407
 7888SOL    HW124563   5.003   0.852   4.393
 7888SOL    HW224564   4.895   0.739   4.346
 7889SOL     OW24565   0.305   6.104   2.425
 7889SOL    HW124566   0.401   6.132   2.415
 7889SOL    HW224567   0.300   6.023   2.483
 7890SOL     OW24568   2.169   3.784   2.073
 7890SOL    HW124569   2.238   3.737   2.129
 7890SOL    HW224570   2.078   3.748   2.094
 7891SOL     OW24571   2.679   4.683   2.166
 7891SOL    HW124572   2.745   4.662   2.094
 7891SOL    HW224573   2.593   4.712   2.124
 7892SOL     OW24574   1.853   2.490   5.506
 7892SOL    HW124575   1.786   2.432   5.460
 7892SOL    HW224576   1.817   2.583   5.513
 7893SOL     OW24577   5.842   6.901   0.857
 7893SOL    HW124578   5.942   6.895   0.859
 7893SOL    HW224579   5.814   6.992   0.827
 7894SOL     OW24580   2.102   6.294   2.393
 7894SOL    HW124581   2.025   6.338   2.347
 7894SOL    HW224582   2.186   6.310   2.341
 7895SOL     OW24583   6.247   1.226   4.595
 7895SOL    HW124584   6.151   1.254   4.601
 7895SOL    HW224585   6.252   1.134   4.556
 7896SOL     OW24586   5.209   3.725   5.567
 7896SOL    HW124587   5.258   3.808   5.591
 7896SOL    HW224588   5.121   3.749   5.525
 7897SOL     OW24589   2.168   3.676   6.666
 7897SOL    HW124590   2.199   3.707   6.756
 7897SOL    HW224591   2.108   3.597   6.676
 7898SOL     OW24592   4.375   2.021   3.873
 7898SOL    HW124593   4.409   2.105   3.915
 7898SOL    HW224594   4.308   2.045   3.803
 7899SOL     OW24595   5.729   2.507   1.896
 7899SOL    HW124596   5.793   2.434   1.873
 7899SOL    HW224597   5.664   2.473   1.964
 7900SOL     OW24598   1.717   5.284   1.309
 7900SOL    HW124599   1.798   5.225   1.313
 7900SOL    HW224600   1.706   5.331   1.397
 7901SOL     OW24601   5.884   6.780   6.331
 7901SOL    HW124602   5.859   6.683   6.338
 7901SOL    HW224603   5.878   6.810   6.236
 7902SOL     OW24604   4.514   4.700   1.093
 7902SOL    HW124605   4.572   4.649   1.157
 7902SOL    HW224606   4.522   4.798   1.111
 7903SOL     OW24607   6.680   1.877   0.341
 7903SOL    HW124608   6.667   1.949   0.273
 7903SOL    HW224609   6.661   1.788   0.300
 7904SOL     OW24610   0.058   0.982   2.846
 7904SOL    HW124611   6.991   1.001   2.879
 7904SOL    HW224612   0.080   0.886   2.863
 7905SOL     OW24613   3.644   1.703   1.224
 7905SOL    HW124614   3.679   1.768   1.157
 7905SOL    HW224615   3.712   1.689   1.295
 7906SOL     OW24616   6.172   5.696   6.634
 7906SOL    HW124617   6.182   5.795   6.645
 7906SOL    HW224618   6.212   5.650   6.714
 7907SOL     OW24619   6.469   2.312   4.132
 7907SOL    HW124620   6.489   2.219   4.103
 7907SOL    HW224621   6.516   2.377   4.071
 7908SOL     OW24622   0.475   1.377   3.638
 7908SOL    HW124623   0.419   1.453   3.669
 7908SOL    HW224624   0.472   1.303   3.706
 7909SOL     OW24625   4.870   3.860   4.487
 7909SOL    HW124626   4.857   3.877   4.390
 7909SOL    HW224627   4.845   3.942   4.539
 7910SOL     OW24628   4.102   3.507   6.106
 7910SOL    HW124629   4.121   3.502   6.204
 7910SOL    HW224630   4.004   3.518   6.091
 7911SOL     OW24631   6.788   4.809   0.580
 7911SOL    HW124632   6.872   4.757   0.597
 7911SOL    HW224633   6.780   4.827   0.482
 7912SOL     OW24634   5.936   4.792   6.179
 7912SOL    HW124635   6.003   4.720   6.196
 7912SOL    HW224636   5.866   4.790   6.251
 7913SOL     OW24637   0.030   5.262   6.817
 7913SOL    HW124638   7.002   5.209   6.751
 7913SOL    HW224639   0.055   5.203   6.894
 7914SOL     OW24640   6.276   4.691   0.838
 7914SOL    HW124641   6.237   4.702   0.746
 7914SOL    HW224642   6.365   4.736   0.842
 7915SOL     OW24643   4.781   1.799   3.283
 7915SOL    HW124644   4.856   1.851   3.241
 7915SOL    HW224645   4.817   1.739   3.353
 7916SOL     OW24646   5.375   3.030   5.401
 7916SOL    HW124647   5.397   2.984   5.486
 7916SOL    HW224648   5.363   3.128   5.418
 7917SOL     OW24649   4.067   3.816   4.774
 7917SOL    HW124650   4.056   3.769   4.686
 7917SOL    HW224651   4.130   3.893   4.763
 7918SOL     OW24652   6.534   1.113   1.890
 7918SOL    HW124653   6.522   1.119   1.989
 7918SOL    HW224654   6.448   1.086   1.847
 7919SOL     OW24655   5.868   4.764   2.076
 7919SOL    HW124656   5.952   4.737   2.029
 7919SOL    HW224657   5.789   4.726   2.028
 7920SOL     OW24658   0.400   4.742   1.449
 7920SOL    HW124659   0.333   4.682   1.404
 7920SOL    HW224660   0.359   4.780   1.532
 7921SOL     OW24661   2.795   6.475   1.496
 7921SOL    HW124662   2.825   6.569   1.516
 7921SOL    HW224663   2.727   6.477   1.423
 7922SOL     OW24664   0.384   5.367   6.847
 7922SOL    HW124665   0.355   5.461   6.828
 7922SOL    HW224666   0.479   5.355   6.819
 7923SOL     OW24667   1.685   1.412   3.234
 7923SOL    HW124668   1.754   1.394   3.304
 7923SOL    HW224669   1.699   1.503   3.196
 7924SOL     OW24670   3.187   6.630   3.812
 7924SOL    HW124671   3.188   6.568   3.733
 7924SOL    HW224672   3.105   6.688   3.808
 7925SOL     OW24673   6.189   1.510   6.203
 7925SOL    HW124674   6.251   1.468   6.137
 7925SOL    HW224675   6.166   1.444   6.274
 7926SOL     OW24676   2.696   1.151   2.933
 7926SOL    HW124677   2.737   1.157   3.025
 7926SOL    HW224678   2.750   1.206   2.869
 7927SOL     OW24679   4.087   5.316   5.401
 7927SOL    HW124680   4.108   5.396   5.345
 7927SOL    HW224681   4.127   5.328   5.492
 7928SOL     OW24682   1.746   5.055   3.126
 7928SOL    HW124683   1.821   5.020   3.183
 7928SOL    HW224684   1.780   5.074   3.034
 7929SOL     OW24685   3.822   3.936   4.790
 7929SOL    HW124686   3.805   3.979   4.879
 7929SOL    HW224687   3.913   3.896   4.789
 7930SOL     OW24688   4.175   5.300   3.612
 7930SOL    HW124689   4.170   5.361   3.691
 7930SOL    HW224690   4.084   5.289   3.572
 7931SOL     OW24691   2.084   2.405   0.262
 7931SOL    HW124692   2.040   2.374   0.178
 7931SOL    HW224693   2.151   2.337   0.292
 7932SOL     OW24694   2.274   6.910   0.167
 7932SOL    HW124695   2.321   6.825   0.142
 7932SOL    HW224696   2.337   6.987   0.159
 7933SOL     OW24697   0.684   6.941   6.557
 7933SOL    HW124698   0.682   6.861   6.496
 7933SOL    HW224699   0.761   6.933   6.620
 7934SOL     OW24700   2.615   3.690   0.204
 7934SOL    HW124701   2.651   3.677   0.111
 7934SOL    HW224702   2.537   3.752   0.201
 7935SOL     OW24703   4.877   6.324   0.974
 7935SOL    HW124704   4.855   6.371   1.059
 7935SOL    HW224705   4.941   6.379   0.920
 7936SOL     OW24706   3.962   6.089   3.225
 7936SOL    HW124707   3.867   6.090   3.193
 7936SOL    HW224708   3.989   6.181   3.253
 7937SOL     OW24709   5.998   6.452   5.446
 7937SOL    HW124710   5.947   6.444   5.532
 7937SOL    HW224711   5.982   6.542   5.406
 7938SOL     OW24712   3.884   5.338   4.908
 7938SOL    HW124713   3.880   5.254   4.854
 7938SOL    HW224714   3.844   5.321   4.998
 7939SOL     OW24715   0.775   1.380   5.576
 7939SOL    HW124716   0.788   1.283   5.555
 7939SOL    HW224717   0.815   1.400   5.666
 7940SOL     OW24718   2.086   5.274   1.233
 7940SOL    HW124719   2.016   5.205   1.251
 7940SOL    HW224720   2.066   5.357   1.285
 7941SOL     OW24721   0.423   1.065   0.733
 7941SOL    HW124722   0.520   1.045   0.742
 7941SOL    HW224723   0.390   1.033   0.644
 7942SOL     OW24724   0.515   6.896   2.079
 7942SOL    HW124725   0.424   6.873   2.115
 7942SOL    HW224726   0.527   6.853   1.990
 7943SOL     OW24727   5.253   2.344   1.288
 7943SOL    HW124728   5.226   2.403   1.212
 7943SOL    HW224729   5.217   2.382   1.373
 7944SOL     OW24730   0.492   3.227   1.133
 7944SOL    HW124731   0.412   3.198   1.081
 7944SOL    HW224732   0.569   3.166   1.113
 7945SOL     OW24733   5.217   6.799   2.928
 7945SOL    HW124734   5.168   6.712   2.936
 7945SOL    HW224735   5.267   6.817   3.013
 7946SOL     OW24736   1.510   2.848   6.245
 7946SOL    HW124737   1.545   2.759   6.273
 7946SOL    HW224738   1.413   2.855   6.269
 7947SOL     OW24739   3.842   2.783   6.418
 7947SOL    HW124740   3.864   2.797   6.321
 7947SOL    HW224741   3.790   2.699   6.429
 7948SOL     OW24742   6.686   0.252   0.654
 7948SOL    HW124743   6.611   0.283   0.596
 7948SOL    HW224744   6.674   0.290   0.746
 7949SOL     OW24745   5.143   4.873   4.262
 7949SOL    HW124746   5.153   4.897   4.358
 7949SOL    HW224747   5.092   4.788   4.253
 7950SOL     OW24748   4.207   4.725   3.575
 7950SOL    HW124749   4.299   4.748   3.608
 7950SOL    HW224750   4.143   4.728   3.652
 7951SOL     OW24751   3.004   3.639   0.888
 7951SOL    HW124752   3.075   3.681   0.945
 7951SOL    HW224753   2.915   3.655   0.929
 7952SOL     OW24754   6.980   2.674   6.814
 7952SOL    HW124755   6.923   2.756   6.817
 7952SOL    HW224756   6.955   2.613   6.890
 7953SOL     OW24757   2.456   2.695   3.290
 7953SOL    HW124758   2.521   2.645   3.233
 7953SOL    HW224759   2.496   2.709   3.381
 7954SOL     OW24760   4.543   5.120   5.317
 7954SOL    HW124761   4.544   5.208   5.364
 7954SOL    HW224762   4.637   5.094   5.295
 7955SOL     OW24763   6.958   6.540   6.757
 7955SOL    HW124764   6.919   6.550   6.849
 7955SOL    HW224765   6.890   6.566   6.689
 7956SOL     OW24766   6.872   6.021   3.328
 7956SOL    HW124767   6.779   6.057   3.344
 7956SOL    HW224768   6.924   6.026   3.414
 7957SOL     OW24769   1.137   1.961   0.524
 7957SOL    HW124770   1.080   1.984   0.444
 7957SOL    HW224771   1.154   2.043   0.578
 7958SOL     OW24772   3.175   5.579   4.239
 7958SOL    HW124773   3.157   5.677   4.235
 7958SOL    HW224774   3.104   5.530   4.189
 7959SOL     OW24775   5.486   5.038   0.420
 7959SOL    HW124776   5.502   4.952   0.371
 7959SOL    HW224777   5.421   5.094   0.369
 7960SOL     OW24778   3.143   1.101   1.151
 7960SOL    HW124779   3.186   1.047   1.078
 7960SOL    HW224780   3.205   1.109   1.228
 7961SOL     OW24781   1.218   6.273   6.098
 7961SOL    HW124782   1.296   6.328   6.127
 7961SOL    HW224783   1.166   6.244   6.178
 7962SOL     OW24784   2.407   0.989   1.484
 7962SOL    HW124785   2.432   0.963   1.390
 7962SOL    HW224786   2.473   1.055   1.519
 7963SOL     OW24787   0.426   0.928   5.736
 7963SOL    HW124788   0.512   0.908   5.783
 7963SOL    HW224789   0.377   0.843   5.719
 7964SOL     OW24790   5.367   4.889   3.004
 7964SOL    HW124791   5.356   4.966   3.067
 7964SOL    HW224792   5.454   4.897   2.956
 7965SOL     OW24793   4.475   2.110   0.652
 7965SOL    HW124794   4.462   2.112   0.553
 7965SOL    HW224795   4.513   2.198   0.683
 7966SOL     OW24796   1.378   5.295   4.085
 7966SOL    HW124797   1.325   5.351   4.021
 7966SOL    HW224798   1.444   5.354   4.132
 7967SOL     OW24799   3.139   5.780   2.873
 7967SOL    HW124800   3.048   5.744   2.890
 7967SOL    HW224801   3.203   5.704   2.860
 7968SOL     OW24802   2.361   2.332   4.081
 7968SOL    HW124803   2.390   2.291   3.994
 7968SOL    HW224804   2.373   2.265   4.155
 7969SOL     OW24805   4.399   0.682   3.172
 7969SOL    HW124806   4.403   0.732   3.258
 7969SOL    HW224807   4.484   0.698   3.121
 7970SOL     OW24808   6.590   4.070   2.911
 7970SOL    HW124809   6.643   4.078   2.826
 7970SOL    HW224810   6.603   4.152   2.966
 7971SOL     OW24811   2.885   0.902   2.366
 7971SOL    HW124812   2.946   0.977   2.341
 7971SOL    HW224813   2.812   0.893   2.297
 7972SOL     OW24814   0.048   4.467   1.115
 7972SOL    HW124815   0.089   4.389   1.162
 7972SOL    HW224816   6.982   4.484   1.151
 7973SOL     OW24817   5.166   3.469   3.956
 7973SOL    HW124818   5.082   3.465   3.901
 7973SOL    HW224819   5.165   3.395   4.023
 7974SOL     OW24820   5.239   0.321   4.441
 7974SOL    HW124821   5.162   0.258   4.452
 7974SOL    HW224822   5.208   0.414   4.459
 7975SOL     OW24823   3.752   0.145   4.435
 7975SOL    HW124824   3.819   0.086   4.480
 7975SOL    HW224825   3.797   0.202   4.367
 7976SOL     OW24826   0.820   6.395   4.871
 7976SOL    HW124827   0.743   6.343   4.834
 7976SOL    HW224828   0.801   6.493   4.862
 7977SOL     OW24829   5.155   5.984   2.198
 7977SOL    HW124830   5.249   5.990   2.164
 7977SOL    HW224831   5.111   5.904   2.158
 7978SOL     OW24832   4.484   3.683   6.181
 7978SOL    HW124833   4.537   3.613   6.133
 7978SOL    HW224834   4.399   3.700   6.130
 7979SOL     OW24835   2.949   0.396   4.482
 7979SOL    HW124836   3.038   0.351   4.478
 7979SOL    HW224837   2.918   0.418   4.389
 7980SOL     OW24838   3.688   6.059   0.329
 7980SOL    HW124839   3.663   6.152   0.353
 7980SOL    HW224840   3.660   6.041   0.234
 7981SOL     OW24841   0.985   4.949   2.200
 7981SOL    HW124842   0.930   4.869   2.227
 7981SOL    HW224843   0.925   5.018   2.160
 7982SOL     OW24844   6.977   2.700   0.606
 7982SOL    HW124845   6.944   2.606   0.606
 7982SOL    HW224846   0.050   2.700   0.595
 7983SOL     OW24847   5.476   1.818   2.643
 7983SOL    HW124848   5.574   1.829   2.626
 7983SOL    HW224849   5.426   1.895   2.604
 7984SOL     OW24850   1.220   2.318   2.235
 7984SOL    HW124851   1.244   2.349   2.143
 7984SOL    HW224852   1.123   2.339   2.253
 7985SOL     OW24853   1.121   0.642   2.588
 7985SOL    HW124854   1.220   0.647   2.605
 7985SOL    HW224855   1.076   0.722   2.629
 7986SOL     OW24856   4.014   1.329   6.362
 7986SOL    HW124857   4.068   1.336   6.278
 7986SOL    HW224858   4.008   1.419   6.405
 7987SOL     OW24859   0.590   2.775   5.658
 7987SOL    HW124860   0.557   2.723   5.580
 7987SOL    HW224861   0.669   2.831   5.630
 7988SOL     OW24862   3.116   2.212   4.527
 7988SOL    HW124863   3.059   2.247   4.601
 7988SOL    HW224864   3.213   2.223   4.552
 7989SOL     OW24865   3.550   2.551   5.383
 7989SOL    HW124866   3.505   2.638   5.365
 7989SOL    HW224867   3.482   2.477   5.383
 7990SOL     OW24868   0.840   3.222   4.178
 7990SOL    HW124869   0.823   3.311   4.136
 7990SOL    HW224870   0.864   3.235   4.274
 7991SOL     OW24871   0.316   2.442   5.855
 7991SOL    HW124872   0.342   2.529   5.898
 7991SOL    HW224873   0.344   2.444   5.759
 7992SOL     OW24874   1.630   0.058   0.733
 7992SOL    HW124875   1.634   7.013   0.662
 7992SOL    HW224876   1.652   0.017   0.821
 7993SOL     OW24877   1.891   5.643   6.528
 7993SOL    HW124878   1.893   5.601   6.619
 7993SOL    HW224879   1.820   5.599   6.472
 7994SOL     OW24880   4.690   0.524   4.028
 7994SOL    HW124881   4.691   0.427   4.054
 7994SOL    HW224882   4.642   0.535   3.941
 7995SOL     OW24883   3.755   5.128   3.727
 7995SOL    HW124884   3.696   5.132   3.646
 7995SOL    HW224885   3.748   5.037   3.769
 7996SOL     OW24886   3.473   0.078   4.594
 7996SOL    HW124887   3.501   0.174   4.592
 7996SOL    HW224888   3.527   0.029   4.662
 7997SOL     OW24889   6.368   2.215   1.111
 7997SOL    HW124890   6.280   2.245   1.148
 7997SOL    HW224891   6.433   2.291   1.117
 7998SOL     OW24892   5.304   4.733   0.350
 7998SOL    HW124893   5.290   4.830   0.366
 7998SOL    HW224894   5.251   4.680   0.417
 7999SOL     OW24895   1.299   6.978   5.302
 7999SOL    HW124896   1.314   7.021   5.212
 7999SOL    HW224897   1.228   0.002   5.351
 8000SOL     OW24898   6.115   0.473   6.227
 8000SOL    HW124899   6.126   0.552   6.166
 8000SOL    HW224900   6.084   0.505   6.317
 8001SOL     OW24901   1.403   6.478   1.982
 8001SOL    HW124902   1.327   6.496   1.920
 8001SOL    HW224903   1.467   6.555   1.979
 8002SOL     OW24904   6.992   3.750   5.139
 8002SOL    HW124905   6.965   3.831   5.087
 8002SOL    HW224906   7.023   3.679   5.077
 8003SOL     OW24907   3.028   5.229   3.214
 8003SOL    HW124908   3.038   5.189   3.305
 8003SOL    HW224909   2.994   5.159   3.151
 8004SOL     OW24910   2.192   4.125   3.187
 8004SOL    HW124911   2.167   4.059   3.258
 8004SOL    HW224912   2.210   4.214   3.230
 8005SOL     OW24913   3.230   0.854   2.174
 8005SOL    HW124914   3.321   0.884   2.204
 8005SOL    HW224915   3.222   0.755   2.189
 8006SOL     OW24916   2.642   5.907   0.310
 8006SOL    HW124917   2.703   5.847   0.363
 8006SOL    HW224918   2.670   5.906   0.214
 8007SOL     OW24919   0.659   0.195   3.960
 8007SOL    HW124920   0.592   0.259   3.921
 8007SOL    HW224921   0.733   0.181   3.895
 8008SOL     OW24922   5.548   6.473   6.719
 8008SOL    HW124923   5.622   6.518   6.769
 8008SOL    HW224924   5.546   6.508   6.625
 8009SOL     OW24925   6.858   0.455   3.223
 8009SOL    HW124926   6.908   0.529   3.179
 8009SOL    HW224927   6.915   0.413   3.294
 8010SOL     OW24928   2.145   1.919   7.016
 8010SOL    HW124929   2.131   1.834   0.041
 8010SOL    HW224930   2.176   1.899   6.924
 8011SOL     OW24931   2.669   2.370   1.196
 8011SOL    HW124932   2.628   2.444   1.248
 8011SOL    HW224933   2.766   2.389   1.180
 8012SOL     OW24934   1.625   6.788   1.237
 8012SOL    HW124935   1.526   6.793   1.246
 8012SOL    HW224936   1.650   6.793   1.140
 8013SOL     OW24937   6.362   5.046   4.205
 8013SOL    HW124938   6.373   5.130   4.258
 8013SOL    HW224939   6.345   4.970   4.268
 8014SOL     OW24940   1.859   6.102   6.518
 8014SOL    HW124941   1.852   6.124   6.616
 8014SOL    HW224942   1.880   6.185   6.467
 8015SOL     OW24943   2.721   2.719   0.818
 8015SOL    HW124944   2.804   2.761   0.855
 8015SOL    HW224945   2.641   2.775   0.842
 8016SOL     OW24946   4.715   0.299   0.525
 8016SOL    HW124947   4.635   0.280   0.468
 8016SOL    HW224948   4.794   0.317   0.466
 8017SOL     OW24949   6.924   4.357   5.533
 8017SOL    HW124950   6.841   4.409   5.550
 8017SOL    HW224951   6.934   4.342   5.434
 8018SOL     OW24952   4.495   1.878   5.776
 8018SOL    HW124953   4.495   1.789   5.822
 8018SOL    HW224954   4.573   1.882   5.713
 8019SOL     OW24955   1.560   5.223   0.423
 8019SOL    HW124956   1.658   5.205   0.419
 8019SOL    HW224957   1.527   5.247   0.331
 8020SOL     OW24958   5.912   5.978   6.486
 8020SOL    HW124959   5.824   5.933   6.502
 8020SOL    HW224960   5.983   5.935   6.543
 8021SOL     OW24961   0.937   1.702   1.677
 8021SOL    HW124962   0.943   1.605   1.651
 8021SOL    HW224963   0.971   1.759   1.602
 8022SOL     OW24964   4.590   0.194   3.082
 8022SOL    HW124965   4.627   0.283   3.109
 8022SOL    HW224966   4.660   0.124   3.092
 8023SOL     OW24967   6.078   5.889   2.371
 8023SOL    HW124968   6.143   5.920   2.440
 8023SOL    HW224969   6.128   5.862   2.288
 8024SOL     OW24970   4.483   5.625   6.162
 8024SOL    HW124971   4.394   5.582   6.151
 8024SOL    HW224972   4.482   5.717   6.124
 8025SOL     OW24973   3.528   6.274   6.363
 8025SOL    HW124974   3.516   6.356   6.308
 8025SOL    HW224975   3.623   6.243   6.356
 8026SOL     OW24976   1.208   3.408   6.789
 8026SOL    HW124977   1.216   3.503   6.760
 8026SOL    HW224978   1.119   3.394   6.832
 8027SOL     OW24979   4.568   1.841   5.329
 8027SOL    HW124980   4.613   1.916   5.375
 8027SOL    HW224981   4.601   1.834   5.235
 8028SOL     OW24982   4.590   5.189   5.901
 8028SOL    HW124983   4.604   5.278   5.944
 8028SOL    HW224984   4.538   5.201   5.817
 8029SOL     OW24985   4.404   4.372   6.605
 8029SOL    HW124986   4.310   4.398   6.581
 8029SOL    HW224987   4.467   4.443   6.575
 8030SOL     OW24988   5.396   4.621   5.358
 8030SOL    HW124989   5.413   4.563   5.278
 8030SOL    HW224990   5.430   4.576   5.440
 8031SOL     OW24991   4.923   5.195   1.750
 8031SOL    HW124992   4.843   5.249   1.723
 8031SOL    HW224993   4.929   5.194   1.850
 8032SOL     OW24994   5.913   4.185   4.740
 8032SOL    HW124995   5.943   4.093   4.715
 8032SOL    HW224996   5.916   4.245   4.660
 8033SOL     OW24997   5.351   2.428   0.044
 8033SOL    HW124998   5.330   2.515   7.025
 8033SOL    HW224999   5.413   2.444   0.121
 8034SOL     OW25000   5.292   6.692   5.685
 8034SOL    HW125001   5.390   6.676   5.693
 8034SOL    HW225002   5.272   6.744   5.603
 8035SOL     OW25003   6.001   6.245   5.818
 8035SOL    HW125004   6.019   6.194   5.733
 8035SOL    HW225005   5.987   6.180   5.893
 8036SOL     OW25006   2.323   3.824   1.744
 8036SOL    HW125007   2.227   3.809   1.768
 8036SOL    HW225008   2.357   3.905   1.791
 8037SOL     OW25009   2.194   2.855   0.920
 8037SOL    HW125010   2.182   2.810   0.831
 8037SOL    HW225011   2.214   2.952   0.907
 8038SOL     OW25012   6.750   1.979   3.367
 8038SOL    HW125013   6.836   1.969   3.317
 8038SOL    HW225014   6.765   2.040   3.445
 8039SOL     OW25015   2.425   0.417   2.726
 8039SOL    HW125016   2.360   0.468   2.671
 8039SOL    HW225017   2.430   0.457   2.818
 8040SOL     OW25018   0.524   5.333   1.223
 8040SOL    HW125019   0.526   5.430   1.248
 8040SOL    HW225020   0.615   5.294   1.235
 8041SOL     OW25021   3.803   0.998   1.353
 8041SOL    HW125022   3.825   1.088   1.392
 8041SOL    HW225023   3.764   1.010   1.262
 8042SOL     OW25024   3.819   2.915   2.203
 8042SOL    HW125025   3.887   2.857   2.249
 8042SOL    HW225026   3.774   2.973   2.271
 8043SOL     OW25027   2.676   0.348   0.775
 8043SOL    HW125028   2.677   0.421   0.843
 8043SOL    HW225029   2.609   0.370   0.704
 8044SOL     OW25030   3.092   2.976   1.506
 8044SOL    HW125031   3.055   3.068   1.497
 8044SOL    HW225032   3.092   2.949   1.602
 8045SOL     OW25033   6.219   1.697   2.741
 8045SOL    HW125034   6.187   1.709   2.835
 8045SOL    HW225035   6.295   1.631   2.739
 8046SOL     OW25036   5.392   4.448   5.147
 8046SOL    HW125037   5.467   4.383   5.144
 8046SOL    HW225038   5.305   4.399   5.141
 8047SOL     OW25039   3.471   6.026   4.550
 8047SOL    HW125040   3.570   6.008   4.549
 8047SOL    HW225041   3.425   5.953   4.599
 8048SOL     OW25042   6.308   0.553   5.615
 8048SOL    HW125043   6.283   0.459   5.640
 8048SOL    HW225044   6.342   0.554   5.521
 8049SOL     OW25045   0.797   6.825   1.283
 8049SOL    HW125046   0.794   6.846   1.381
 8049SOL    HW225047   0.862   6.886   1.238
 8050SOL     OW25048   1.757   3.481   1.049
 8050SOL    HW125049   1.838   3.516   1.002
 8050SOL    HW225050   1.784   3.414   1.117
 8051SOL     OW25051   4.480   0.898   2.970
 8051SOL    HW125052   4.397   0.896   2.913
 8051SOL    HW225053   4.459   0.936   3.060
 8052SOL     OW25054   3.293   1.856   2.212
 8052SOL    HW125055   3.209   1.802   2.210
 8052SOL    HW225056   3.273   1.951   2.187
 8053SOL     OW25057   3.785   3.949   2.677
 8053SOL    HW125058   3.709   3.898   2.638
 8053SOL    HW225059   3.773   4.047   2.661
 8054SOL     OW25060   4.561   6.463   4.430
 8054SOL    HW125061   4.576   6.553   4.389
 8054SOL    HW225062   4.616   6.395   4.381
 8055SOL     OW25063   1.059   0.043   5.964
 8055SOL    HW125064   0.977   0.066   6.017
 8055SOL    HW225065   1.098   6.983   5.998
 8056SOL     OW25066   4.721   1.600   3.088
 8056SOL    HW125067   4.720   1.694   3.123
 8056SOL    HW225068   4.813   1.562   3.099
 8057SOL     OW25069   3.088   0.208   3.196
 8057SOL    HW125070   3.074   0.159   3.110
 8057SOL    HW225071   3.168   0.171   3.243
 8058SOL     OW25072   2.535   0.289   2.230
 8058SOL    HW125073   2.601   0.267   2.302
 8058SOL    HW225074   2.443   0.269   2.263
 8059SOL     OW25075   3.314   2.086   4.902
 8059SOL    HW125076   3.363   2.018   4.957
 8059SOL    HW225077   3.274   2.155   4.962
 8060SOL     OW25078   0.046   0.981   4.407
 8060SOL    HW125079   6.998   0.935   4.357
 8060SOL    HW225080   0.083   1.055   4.351
 8061SOL     OW25081   6.314   5.361   2.672
 8061SOL    HW125082   6.253   5.284   2.656
 8061SOL    HW225083   6.271   5.445   2.637
 8062SOL     OW25084   1.550   3.813   4.771
 8062SOL    HW125085   1.532   3.801   4.673
 8062SOL    HW225086   1.476   3.773   4.824
 8063SOL     OW25087   2.933   3.509   6.749
 8063SOL    HW125088   2.985   3.428   6.720
 8063SOL    HW225089   2.883   3.488   6.833
 8064SOL     OW25090   0.380   4.083   0.142
 8064SOL    HW125091   0.431   4.001   0.168
 8064SOL    HW225092   0.391   4.099   0.044
 8065SOL     OW25093   4.822   6.856   4.486
 8065SOL    HW125094   4.905   6.811   4.455
 8065SOL    HW225095   4.825   6.865   4.586
 8066SOL     OW25096   1.778   1.470   0.600
 8066SOL    HW125097   1.773   1.570   0.598
 8066SOL    HW225098   1.799   1.436   0.508
 8067SOL     OW25099   4.242   2.896   1.524
 8067SOL    HW125100   4.337   2.912   1.499
 8067SOL    HW225101   4.190   2.872   1.442
 8068SOL     OW25102   0.484   4.480   4.798
 8068SOL    HW125103   0.394   4.516   4.823
 8068SOL    HW225104   0.554   4.545   4.828
 8069SOL     OW25105   1.603   6.110   0.768
 8069SOL    HW125106   1.631   6.149   0.681
 8069SOL    HW225107   1.605   6.181   0.838
 8070SOL     OW25108   3.607   6.076   1.825
 8070SOL    HW125109   3.620   5.997   1.884
 8070SOL    HW225110   3.620   6.160   1.878
 8071SOL     OW25111   3.835   6.390   5.553
 8071SOL    HW125112   3.858   6.300   5.514
 8071SOL    HW225113   3.844   6.387   5.652
 8072SOL     OW25114   4.304   1.526   0.574
 8072SOL    HW125115   4.402   1.525   0.595
 8072SOL    HW225116   4.264   1.438   0.599
 8073SOL     OW25117   4.604   6.773   6.349
 8073SOL    HW125118   4.631   6.703   6.283
 8073SOL    HW225119   4.630   6.744   6.441
 8074SOL     OW25120   3.481   3.661   0.377
 8074SOL    HW125121   3.509   3.735   0.438
 8074SOL    HW225122   3.410   3.606   0.421
 8075SOL     OW25123   6.839   1.112   2.297
 8075SOL    HW125124   6.806   1.043   2.362
 8075SOL    HW225125   6.938   1.110   2.292
 8076SOL     OW25126   5.386   2.542   5.075
 8076SOL    HW125127   5.452   2.603   5.118
 8076SOL    HW225128   5.423   2.507   4.989
 8077SOL     OW25129   1.283   0.265   1.654
 8077SOL    HW125130   1.285   0.270   1.555
 8077SOL    HW225131   1.376   0.257   1.689
 8078SOL     OW25132   0.251   2.570   0.806
 8078SOL    HW125133   0.215   2.494   0.753
 8078SOL    HW225134   0.214   2.566   0.899
 8079SOL     OW25135   6.609   2.193   3.264
 8079SOL    HW125136   6.668   2.268   3.232
 8079SOL    HW225137   6.659   2.107   3.259
 8080SOL     OW25138   2.070   3.806   0.284
 8080SOL    HW125139   2.109   3.715   0.297
 8080SOL    HW225140   2.127   3.873   0.331
 8081SOL     OW25141   5.885   0.901   5.220
 8081SOL    HW125142   5.841   0.954   5.293
 8081SOL    HW225143   5.876   0.950   5.133
 8082SOL     OW25144   6.252   2.466   3.233
 8082SOL    HW125145   6.163   2.420   3.240
 8082SOL    HW225146   6.295   2.444   3.146
 8083SOL     OW25147   4.885   3.162   2.675
 8083SOL    HW125148   4.978   3.134   2.698
 8083SOL    HW225149   4.841   3.088   2.623
 8084SOL     OW25150   6.550   6.547   1.310
 8084SOL    HW125151   6.618   6.514   1.376
 8084SOL    HW225152   6.577   6.517   1.218
 8085SOL     OW25153   5.455   0.482   0.724
 8085SOL    HW125154   5.396   0.437   0.657
 8085SOL    HW225155   5.445   0.435   0.812
 8086SOL     OW25156   4.075   0.199   4.633
 8086SOL    HW125157   4.031   0.171   4.548
 8086SOL    HW225158   4.005   0.222   4.701
 8087SOL     OW25159   2.924   2.371   1.067
 8087SOL    HW125160   3.014   2.366   1.109
 8087SOL    HW225161   2.930   2.421   0.981
 8088SOL     OW25162   5.706   0.824   2.257
 8088SOL    HW125163   5.738   0.836   2.163
 8088SOL    HW225164   5.721   0.730   2.286
 8089SOL     OW25165   5.095   2.540   0.619
 8089SOL    HW125166   5.136   2.609   0.679
 8089SOL    HW225167   5.116   2.562   0.524
 8090SOL     OW25168   5.341   1.908   6.702
 8090SOL    HW125169   5.407   1.893   6.628
 8090SOL    HW225170   5.389   1.916   6.789
 8091SOL     OW25171   3.162   4.289   6.999
 8091SOL    HW125172   3.252   4.268   6.960
 8091SOL    HW225173   3.122   4.367   6.952
 8092SOL     OW25174   1.118   1.102   5.125
 8092SOL    HW125175   1.034   1.120   5.075
 8092SOL    HW225176   1.187   1.065   5.062
 8093SOL     OW25177   5.802   5.516   1.764
 8093SOL    HW125178   5.841   5.600   1.802
 8093SOL    HW225179   5.752   5.537   1.680
 8094SOL     OW25180   1.302   4.144   6.643
 8094SOL    HW125181   1.386   4.147   6.588
 8094SOL    HW225182   1.251   4.061   6.620
 8095SOL     OW25183   5.453   3.082   4.085
 8095SOL    HW125184   5.520   3.088   4.012
 8095SOL    HW225185   5.497   3.050   4.168
 8096SOL     OW25186   3.066   5.425   1.895
 8096SOL    HW125187   3.033   5.494   1.959
 8096SOL    HW225188   3.131   5.364   1.941
 8097SOL     OW25189   5.260   0.587   3.384
 8097SOL    HW125190   5.191   0.602   3.313
 8097SOL    HW225191   5.327   0.662   3.382
 8098SOL     OW25192   2.742   6.059   4.142
 8098SOL    HW125193   2.668   6.008   4.098
 8098SOL    HW225194   2.830   6.031   4.103
 8099SOL     OW25195   5.219   6.579   4.946
 8099SOL    HW125196   5.257   6.494   4.908
 8099SOL    HW225197   5.180   6.633   4.872
 8100SOL     OW25198   0.040   6.808   0.414
 8100SOL    HW125199   7.016   6.731   0.373
 8100SOL    HW225200   0.009   6.894   0.373
 8101SOL     OW25201   1.619   6.702   4.531
 8101SOL    HW125202   1.600   6.674   4.437
 8101SOL    HW225203   1.547   6.668   4.591
 8102SOL     OW25204   0.365   5.178   6.007
 8102SOL    HW125205   0.460   5.211   5.998
 8102SOL    HW225206   0.366   5.081   6.031
 8103SOL     OW25207   3.899   1.549   2.207
 8103SOL    HW125208   3.939   1.611   2.275
 8103SOL    HW225209   3.943   1.564   2.119
 8104SOL     OW25210   3.146   6.618   5.624
 8104SOL    HW125211   3.222   6.624   5.689
 8104SOL    HW225212   3.069   6.671   5.658
 8105SOL     OW25213   2.629   2.206   3.668
 8105SOL    HW125214   2.645   2.157   3.753
 8105SOL    HW225215   2.627   2.142   3.592
 8106SOL     OW25216   1.231   4.084   3.664
 8106SOL    HW125217   1.142   4.109   3.704
 8106SOL    HW225218   1.264   4.000   3.708
 8107SOL     OW25219   2.088   6.430   5.893
 8107SOL    HW125220   2.155   6.374   5.941
 8107SOL    HW225221   2.131   6.515   5.864
 8108SOL     OW25222   0.420   3.713   4.604
 8108SOL    HW125223   0.434   3.646   4.532
 8108SOL    HW225224   0.334   3.762   4.589
 8109SOL     OW25225   2.077   4.603   5.329
 8109SOL    HW125226   2.116   4.512   5.336
 8109SOL    HW225227   2.011   4.617   5.403
 8110SOL     OW25228   1.859   6.779   0.529
 8110SOL    HW125229   1.939   6.818   0.574
 8110SOL    HW225230   1.873   6.779   0.430
 8111SOL     OW25231   2.760   5.937   4.876
 8111SOL    HW125232   2.762   5.841   4.906
 8111SOL    HW225233   2.848   5.962   4.836
 8112SOL     OW25234   2.769   0.396   5.501
 8112SOL    HW125235   2.863   0.368   5.525
 8112SOL    HW225236   2.742   0.352   5.416
 8113SOL     OW25237   3.638   2.370   0.098
 8113SOL    HW125238   3.677   2.389   0.188
 8113SOL    HW225239   3.668   2.279   0.067
 8114SOL     OW25240   2.169   3.021   2.504
 8114SOL    HW125241   2.213   2.941   2.543
 8114SOL    HW225242   2.159   3.009   2.405
 8115SOL     OW25243   3.493   1.281   1.478
 8115SOL    HW125244   3.561   1.294   1.551
 8115SOL    HW225245   3.419   1.348   1.489
 8116SOL     OW25246   5.924   6.977   5.154
 8116SOL    HW125247   5.886   0.024   5.211
 8116SOL    HW225248   5.911   7.000   5.058
 8117SOL     OW25249   1.071   1.773   4.516
 8117SOL    HW125250   0.990   1.723   4.548
 8117SOL    HW225251   1.153   1.719   4.534
 8118SOL     OW25252   1.256   4.355   5.320
 8118SOL    HW125253   1.217   4.268   5.352
 8118SOL    HW225254   1.182   4.418   5.296
 8119SOL     OW25255   0.653   5.689   3.527
 8119SOL    HW125256   0.748   5.693   3.497
 8119SOL    HW225257   0.649   5.658   3.622
 8120SOL     OW25258   3.998   4.625   0.539
 8120SOL    HW125259   4.078   4.649   0.594
 8120SOL    HW225260   3.922   4.601   0.600
 8121SOL     OW25261   0.058   6.993   2.934
 8121SOL    HW125262   0.151   7.023   2.957
 8121SOL    HW225263   7.021   7.024   3.006
 8122SOL     OW25264   0.256   6.099   1.844
 8122SOL    HW125265   0.198   6.155   1.903
 8122SOL    HW225266   0.351   6.128   1.855
 8123SOL     OW25267   1.174   6.524   6.389
 8123SOL    HW125268   1.103   6.461   6.356
 8123SOL    HW225269   1.131   6.602   6.434
 8124SOL     OW25270   1.659   5.344   1.582
 8124SOL    HW125271   1.559   5.338   1.575
 8124SOL    HW225272   1.694   5.265   1.631
 8125SOL     OW25273   6.051   4.251   2.884
 8125SOL    HW125274   6.079   4.260   2.789
 8125SOL    HW225275   5.972   4.191   2.890
 8126SOL     OW25276   5.710   4.226   2.688
 8126SOL    HW125277   5.773   4.250   2.615
 8126SOL    HW225278   5.631   4.287   2.686
 8127SOL     OW25279   2.253   5.041   0.528
 8127SOL    HW125280   2.189   5.000   0.463
 8127SOL    HW225281   2.238   5.140   0.532
 8128SOL     OW25282   3.326   2.833   5.911
 8128SOL    HW125283   3.382   2.751   5.919
 8128SOL    HW225284   3.245   2.825   5.970
 8129SOL     OW25285   5.870   0.901   6.746
 8129SOL    HW125286   5.955   0.871   6.704
 8129SOL    HW225287   5.849   0.995   6.716
 8130SOL     OW25288   0.788   5.321   6.860
 8130SOL    HW125289   0.822   5.406   6.901
 8130SOL    HW225290   0.731   5.342   6.781
 8131SOL     OW25291   3.402   0.445   0.208
 8131SOL    HW125292   3.328   0.464   0.273
 8131SOL    HW225293   3.433   0.530   0.167
 8132SOL     OW25294   5.833   5.134   4.275
 8132SOL    HW125295   5.893   5.176   4.207
 8132SOL    HW225296   5.840   5.034   4.268
 8133SOL     OW25297   2.775   5.314   3.474
 8133SOL    HW125298   2.860   5.346   3.516
 8133SOL    HW225299   2.698   5.337   3.533
 8134SOL     OW25300   2.185   2.533   4.092
 8134SOL    HW125301   2.239   2.616   4.085
 8134SOL    HW225302   2.246   2.453   4.090
 8135SOL     OW25303   3.597   5.127   2.283
 8135SOL    HW125304   3.687   5.143   2.324
 8135SOL    HW225305   3.542   5.210   2.289
 8136SOL     OW25306   3.582   5.632   2.597
 8136SOL    HW125307   3.643   5.556   2.577
 8136SOL    HW225308   3.587   5.654   2.695
 8137SOL     OW25309   2.065   3.919   4.908
 8137SOL    HW125310   2.016   3.914   4.995
 8137SOL    HW225311   2.154   3.961   4.922
 8138SOL     OW25312   5.669   1.760   2.396
 8138SOL    HW125313   5.733   1.684   2.380
 8138SOL    HW225314   5.576   1.731   2.373
 8139SOL     OW25315   1.281   3.071   3.365
 8139SOL    HW125316   1.186   3.098   3.347
 8139SOL    HW225317   1.332   3.150   3.398
 8140SOL     OW25318   5.141   0.117   6.891
 8140SOL    HW125319   5.146   0.128   6.791
 8140SOL    HW225320   5.078   0.043   6.913
 8141SOL     OW25321   4.897   1.288   6.042
 8141SOL    HW125322   4.815   1.231   6.042
 8141SOL    HW225323   4.943   1.279   6.130
 8142SOL     OW25324   1.830   5.980   0.248
 8142SOL    HW125325   1.864   6.067   0.286
 8142SOL    HW225326   1.905   5.914   0.244
 8143SOL     OW25327   5.284   4.513   0.521
 8143SOL    HW125328   5.361   4.451   0.504
 8143SOL    HW225329   5.203   4.459   0.544
 8144SOL     OW25330   0.200   5.261   5.687
 8144SOL    HW125331   0.132   5.312   5.634
 8144SOL    HW225332   0.267   5.324   5.725
 8145SOL     OW25333   5.996   5.986   6.953
 8145SOL    HW125334   5.998   6.046   0.007
 8145SOL    HW225335   6.079   5.931   6.949
 8146SOL     OW25336   5.835   0.356   4.716
 8146SOL    HW125337   5.914   0.305   4.682
 8146SOL    HW225338   5.848   0.377   4.813
 8147SOL     OW25339   0.877   0.844   6.097
 8147SOL    HW125340   0.963   0.803   6.127
 8147SOL    HW225341   0.881   0.944   6.109
 8148SOL     OW25342   4.074   4.641   6.694
 8148SOL    HW125343   3.979   4.635   6.724
 8148SOL    HW225344   4.100   4.555   6.651
 8149SOL     OW25345   1.399   6.797   4.297
 8149SOL    HW125346   1.423   6.700   4.291
 8149SOL    HW225347   1.470   6.852   4.251
 8150SOL     OW25348   1.119   3.316   0.367
 8150SOL    HW125349   1.066   3.232   0.356
 8150SOL    HW225350   1.212   3.301   0.335
 8151SOL     OW25351   6.480   4.252   3.815
 8151SOL    HW125352   6.456   4.347   3.836
 8151SOL    HW225353   6.475   4.197   3.898
 8152SOL     OW25354   4.548   1.881   3.413
 8152SOL    HW125355   4.641   1.858   3.385
 8152SOL    HW225356   4.544   1.892   3.512
 8153SOL     OW25357   0.757   1.737   3.714
 8153SOL    HW125358   0.692   1.694   3.776
 8153SOL    HW225359   0.848   1.700   3.730
 8154SOL     OW25360   2.349   1.861   3.550
 8154SOL    HW125361   2.323   1.930   3.618
 8154SOL    HW225362   2.412   1.796   3.591
 8155SOL     OW25363   1.464   4.417   1.905
 8155SOL    HW125364   1.458   4.488   1.835
 8155SOL    HW225365   1.388   4.353   1.894
 8156SOL     OW25366   6.243   4.987   1.928
 8156SOL    HW125367   6.182   5.066   1.934
 8156SOL    HW225368   6.334   5.012   1.960
 8157SOL     OW25369   6.898   2.897   6.517
 8157SOL    HW125370   6.825   2.961   6.495
 8157SOL    HW225371   6.892   2.872   6.614
 8158SOL     OW25372   5.623   4.857   6.058
 8158SOL    HW125373   5.701   4.913   6.086
 8158SOL    HW225374   5.609   4.866   5.959
 8159SOL     OW25375   3.383   5.676   5.986
 8159SOL    HW125376   3.433   5.589   5.983
 8159SOL    HW225377   3.330   5.681   6.071
 8160SOL     OW25378   4.994   1.131   3.495
 8160SOL    HW125379   4.982   1.226   3.465
 8160SOL    HW225380   5.091   1.106   3.488
 8161SOL     OW25381   6.015   3.324   0.551
 8161SOL    HW125382   6.102   3.286   0.519
 8161SOL    HW225383   5.955   3.250   0.581
 8162SOL     OW25384   0.268   5.081   6.677
 8162SOL    HW125385   0.268   5.170   6.724
 8162SOL    HW225386   0.181   5.069   6.630
 8163SOL     OW25387   4.301   4.684   5.408
 8163SOL    HW125388   4.369   4.649   5.472
 8163SOL    HW225389   4.214   4.698   5.455
 8164SOL     OW25390   6.133   1.209   0.148
 8164SOL    HW125391   6.230   1.214   0.170
 8164SOL    HW225392   6.105   1.113   0.142
 8165SOL     OW25393   6.562   2.214   6.138
 8165SOL    HW125394   6.631   2.209   6.210
 8165SOL    HW225395   6.491   2.146   6.156
 8166SOL     OW25396   1.628   2.217   4.436
 8166SOL    HW125397   1.572   2.264   4.369
 8166SOL    HW225398   1.569   2.164   4.498
 8167SOL     OW25399   6.461   1.892   3.933
 8167SOL    HW125400   6.385   1.838   3.970
 8167SOL    HW225401   6.483   1.859   3.841
 8168SOL     OW25402   2.430   0.543   1.432
 8168SOL    HW125403   2.479   0.574   1.351
 8168SOL    HW225404   2.358   0.478   1.405
 8169SOL     OW25405   5.261   2.338   0.726
 8169SOL    HW125406   5.226   2.404   0.659
 8169SOL    HW225407   5.355   2.314   0.704
 8170SOL     OW25408   6.409   4.124   2.353
 8170SOL    HW125409   6.420   4.108   2.451
 8170SOL    HW225410   6.495   4.154   2.313
 8171SOL     OW25411   1.522   1.305   6.932
 8171SOL    HW125412   1.582   1.232   6.900
 8171SOL    HW225413   1.515   1.300   0.006
 8172SOL     OW25414   0.707   2.670   1.996
 8172SOL    HW125415   0.790   2.664   2.051
 8172SOL    HW225416   0.697   2.588   1.940
 8173SOL     OW25417   5.452   2.238   1.953
 8173SOL    HW125418   5.399   2.187   2.020
 8173SOL    HW225419   5.545   2.254   1.989
 8174SOL     OW25420   2.277   5.882   2.597
 8174SOL    HW125421   2.227   5.827   2.664
 8174SOL    HW225422   2.238   5.974   2.594
 8175SOL     OW25423   0.626   2.554   4.501
 8175SOL    HW125424   0.627   2.641   4.549
 8175SOL    HW225425   0.531   2.521   4.494
 8176SOL     OW25426   1.814   4.612   0.987
 8176SOL    HW125427   1.753   4.639   0.913
 8176SOL    HW225428   1.845   4.518   0.972
 8177SOL     OW25429   3.688   1.599   2.668
 8177SOL    HW125430   3.769   1.586   2.725
 8177SOL    HW225431   3.664   1.512   2.624
 8178SOL     OW25432   2.218   6.612   1.125
 8178SOL    HW125433   2.301   6.627   1.180
 8178SOL    HW225434   2.193   6.697   1.079
 8179SOL     OW25435   5.293   0.837   3.937
 8179SOL    HW125436   5.219   0.801   3.994
 8179SOL    HW225437   5.256   0.867   3.849
 8180SOL     OW25438   5.665   6.746   6.938
 8180SOL    HW125439   5.697   6.841   6.942
 8180SOL    HW225440   5.716   6.697   6.868
 8181SOL     OW25441   1.010   1.117   1.488
 8181SOL    HW125442   1.060   1.082   1.567
 8181SOL    HW225443   1.074   1.138   1.414
 8182SOL     OW25444   3.258   3.657   4.999
 8182SOL    HW125445   3.312   3.585   5.045
 8182SOL    HW225446   3.312   3.695   4.924
 8183SOL     OW25447   6.197   0.661   4.782
 8183SOL    HW125448   6.276   0.602   4.797
 8183SOL    HW225449   6.201   0.699   4.690
 8184SOL     OW25450   0.842   6.959   6.778
 8184SOL    HW125451   0.936   6.929   6.766
 8184SOL    HW225452   0.841   0.031   6.802
 8185SOL     OW25453   0.859   0.256   0.488
 8185SOL    HW125454   0.915   0.232   0.567
 8185SOL    HW225455   0.794   0.328   0.513
 8186SOL     OW25456   1.286   4.857   6.551
 8186SOL    HW125457   1.208   4.798   6.572
 8186SOL    HW225458   1.293   4.869   6.452
 8187SOL     OW25459   1.778   1.338   5.148
 8187SOL    HW125460   1.710   1.404   5.116
 8187SOL    HW225461   1.797   1.272   5.075
 8188SOL     OW25462   3.706   2.143   3.839
 8188SOL    HW125463   3.658   2.142   3.751
 8188SOL    HW225464   3.640   2.128   3.912
 8189SOL     OW25465   4.600   4.432   3.704
 8189SOL    HW125466   4.631   4.408   3.612
 8189SOL    HW225467   4.506   4.402   3.717
 8190SOL     OW25468   5.417   3.391   2.826
 8190SOL    HW125469   5.462   3.351   2.906
 8190SOL    HW225470   5.486   3.409   2.756
 8191SOL     OW25471   4.291   4.913   1.856
 8191SOL    HW125472   4.361   4.842   1.867
 8191SOL    HW225473   4.306   4.961   1.770
 8192SOL     OW25474   1.879   5.026   3.460
 8192SOL    HW125475   1.913   5.092   3.393
 8192SOL    HW225476   1.832   5.074   3.534
 8193SOL     OW25477   6.746   5.128   5.095
 8193SOL    HW125478   6.687   5.075   5.033
 8193SOL    HW225479   6.835   5.143   5.052
 8194SOL     OW25480   4.498   6.738   1.657
 8194SOL    HW125481   4.405   6.743   1.696
 8194SOL    HW225482   4.522   6.826   1.618
 8195SOL     OW25483   6.122   0.090   3.542
 8195SOL    HW125484   6.053   0.018   3.547
 8195SOL    HW225485   6.201   0.065   3.598
 8196SOL     OW25486   4.785   1.104   0.196
 8196SOL    HW125487   4.794   1.080   0.293
 8196SOL    HW225488   4.714   1.174   0.185
 8197SOL     OW25489   4.850   1.499   1.480
 8197SOL    HW125490   4.887   1.560   1.410
 8197SOL    HW225491   4.751   1.504   1.480
 8198SOL     OW25492   2.214   0.229   1.753
 8198SOL    HW125493   2.230   0.130   1.754
 8198SOL    HW225494   2.300   0.276   1.775
 8199SOL     OW25495   5.026   2.811   5.971
 8199SOL    HW125496   5.028   2.897   5.919
 8199SOL    HW225497   4.989   2.738   5.914
 8200SOL     OW25498   5.549   3.876   0.742
 8200SOL    HW125499   5.529   3.909   0.834
 8200SOL    HW225500   5.642   3.904   0.716
 8201SOL     OW25501   7.013   0.623   5.228
 8201SOL    HW125502   0.068   0.619   5.170
 8201SOL    HW225503   0.011   0.659   5.318
 8202SOL     OW25504   0.180   6.449   2.182
 8202SOL    HW125505   0.177   6.497   2.094
 8202SOL    HW225506   0.269   6.406   2.193
 8203SOL     OW25507   2.005   3.010   0.579
 8203SOL    HW125508   1.993   2.952   0.499
 8203SOL    HW225509   2.071   2.968   0.641
 8204SOL     OW25510   4.704   3.390   0.912
 8204SOL    HW125511   4.799   3.387   0.881
 8204SOL    HW225512   4.646   3.344   0.844
 8205SOL     OW25513   0.662   2.681   0.405
 8205SOL    HW125514   0.686   2.778   0.406
 8205SOL    HW225515   0.577   2.669   0.354
 8206SOL     OW25516   4.031   1.480   0.229
 8206SOL    HW125517   4.026   1.491   0.129
 8206SOL    HW225518   4.109   1.531   0.264
 8207SOL     OW25519   3.411   2.924   4.335
 8207SOL    HW125520   3.346   2.872   4.391
 8207SOL    HW225521   3.446   3.001   4.388
 8208SOL     OW25522   1.119   1.146   0.746
 8208SOL    HW125523   1.219   1.153   0.742
 8208SOL    HW225524   1.078   1.210   0.682
 8209SOL     OW25525   6.418   1.007   5.253
 8209SOL    HW125526   6.322   1.009   5.277
 8209SOL    HW225527   6.470   1.067   5.315
 8210SOL     OW25528   2.018   2.802   0.407
 8210SOL    HW125529   2.076   2.754   0.341
 8210SOL    HW225530   1.922   2.782   0.387
 8211SOL     OW25531   3.289   3.705   1.272
 8211SOL    HW125532   3.252   3.723   1.363
 8211SOL    HW225533   3.232   3.750   1.204
 8212SOL     OW25534   1.820   2.699   2.850
 8212SOL    HW125535   1.814   2.679   2.752
 8212SOL    HW225536   1.731   2.685   2.893
 8213SOL     OW25537   0.514   5.185   1.499
 8213SOL    HW125538   0.493   5.282   1.506
 8213SOL    HW225539   0.597   5.165   1.551
 8214SOL     OW25540   5.654   4.643   3.606
 8214SOL    HW125541   5.748   4.672   3.627
 8214SOL    HW225542   5.597   4.653   3.688
 8215SOL     OW25543   3.438   5.011   4.750
 8215SOL    HW125544   3.517   4.997   4.810
 8215SOL    HW225545   3.355   5.016   4.805
 8216SOL     OW25546   5.062   4.928   3.988
 8216SOL    HW125547   5.074   5.025   3.965
 8216SOL    HW225548   5.054   4.918   4.087
 8217SOL     OW25549   1.722   5.277   0.796
 8217SOL    HW125550   1.722   5.213   0.872
 8217SOL    HW225551   1.628   5.303   0.774
 8218SOL     OW25552   1.042   2.051   6.639
 8218SOL    HW125553   1.037   2.150   6.622
 8218SOL    HW225554   0.973   2.026   6.708
 8219SOL     OW25555   4.623   2.207   0.270
 8219SOL    HW125556   4.625   2.306   0.275
 8219SOL    HW225557   4.528   2.175   0.275
 8220SOL     OW25558   3.820   3.380   3.025
 8220SOL    HW125559   3.893   3.434   3.066
 8220SOL    HW225560   3.856   3.294   2.990
 8221SOL     OW25561   4.724   6.267   4.272
 8221SOL    HW125562   4.658   6.218   4.215
 8221SOL    HW225563   4.802   6.207   4.291
 8222SOL     OW25564   5.394   1.771   2.272
 8222SOL    HW125565   5.438   1.853   2.307
 8222SOL    HW225566   5.340   1.793   2.191
 8223SOL     OW25567   0.568   4.704   5.496
 8223SOL    HW125568   0.508   4.627   5.473
 8223SOL    HW225569   0.524   4.759   5.567
 8224SOL     OW25570   1.400   2.673   3.309
 8224SOL    HW125571   1.342   2.591   3.307
 8224SOL    HW225572   1.357   2.746   3.257
 8225SOL     OW25573   4.836   1.071   6.961
 8225SOL    HW125574   4.850   1.102   0.029
 8225SOL    HW225575   4.871   0.978   6.951
 8226SOL     OW25576   5.305   0.483   1.484
 8226SOL    HW125577   5.348   0.455   1.570
 8226SOL    HW225578   5.376   0.494   1.414
 8227SOL     OW25579   6.826   2.582   4.020
 8227SOL    HW125580   6.882   2.665   4.009
 8227SOL    HW225581   6.755   2.600   4.088
 8228SOL     OW25582   0.560   2.658   5.407
 8228SOL    HW125583   0.493   2.656   5.332
 8228SOL    HW225584   0.645   2.616   5.377
 8229SOL     OW25585   2.938   5.474   0.300
 8229SOL    HW125586   2.909   5.565   0.270
 8229SOL    HW225587   2.869   5.435   0.362
 8230SOL     OW25588   5.174   0.388   5.623
 8230SOL    HW125589   5.243   0.317   5.630
 8230SOL    HW225590   5.088   0.348   5.589
 8231SOL     OW25591   4.917   5.886   1.765
 8231SOL    HW125592   4.886   5.944   1.840
 8231SOL    HW225593   4.961   5.805   1.802
 8232SOL     OW25594   4.256   1.586   0.315
 8232SOL    HW125595   4.284   1.582   0.411
 8232SOL    HW225596   4.312   1.653   0.267
 8233SOL     OW25597   0.582   5.527   6.195
 8233SOL    HW125598   0.534   5.596   6.141
 8233SOL    HW225599   0.576   5.439   6.148
 8234SOL     OW25600   2.864   2.437   0.361
 8234SOL    HW125601   2.783   2.379   0.354
 8234SOL    HW225602   2.858   2.511   0.294
 8235SOL     OW25603   2.821   3.444   0.701
 8235SOL    HW125604   2.897   3.492   0.744
 8235SOL    HW225605   2.848   3.414   0.610
 8236SOL     OW25606   0.017   3.847   6.903
 8236SOL    HW125607   7.006   3.899   6.827
 8236SOL    HW225608   0.043   3.909   6.978
 8237SOL     OW25609   5.068   5.712   4.984
 8237SOL    HW125610   5.082   5.811   4.988
 8237SOL    HW225611   5.080   5.681   4.890
 8238SOL     OW25612   1.572   3.995   0.076
 8238SOL    HW125613   1.652   4.054   0.068
 8238SOL    HW225614   1.492   4.050   0.102
 8239SOL     OW25615   6.137   2.036   5.564
 8239SOL    HW125616   6.040   2.012   5.562
 8239SOL    HW225617   6.173   2.038   5.471
 8240SOL     OW25618   3.543   3.809   2.555
 8240SOL    HW125619   3.444   3.810   2.564
 8240SOL    HW225620   3.571   3.727   2.506
 8241SOL     OW25621   3.022   6.738   0.854
 8241SOL    HW125622   3.118   6.733   0.829
 8241SOL    HW225623   3.003   6.826   0.897
 8242SOL     OW25624   0.800   4.579   5.594
 8242SOL    HW125625   0.888   4.580   5.547
 8242SOL    HW225626   0.738   4.644   5.551
 8243SOL     OW25627   0.802   3.047   5.974
 8243SOL    HW125628   0.834   3.040   5.879
 8243SOL    HW225629   0.760   2.960   6.001
 8244SOL     OW25630   0.593   6.989   4.092
 8244SOL    HW125631   0.616   0.053   4.057
 8244SOL    HW225632   0.624   6.981   4.187
 8245SOL     OW25633   4.579   1.620   2.248
 8245SOL    HW125634   4.565   1.546   2.315
 8245SOL    HW225635   4.542   1.705   2.285
 8246SOL     OW25636   6.475   4.344   5.652
 8246SOL    HW125637   6.444   4.436   5.630
 8246SOL    HW225638   6.542   4.348   5.726
 8247SOL     OW25639   0.797   1.321   1.323
 8247SOL    HW125640   0.746   1.241   1.293
 8247SOL    HW225641   0.876   1.334   1.263
 8248SOL     OW25642   6.339   4.681   3.643
 8248SOL    HW125643   6.306   4.711   3.554
 8248SOL    HW225644   6.439   4.691   3.646
 8249SOL     OW25645   1.994   4.092   4.523
 8249SOL    HW125646   1.950   4.003   4.507
 8249SOL    HW225647   2.064   4.106   4.453
 8250SOL     OW25648   3.477   4.039   2.907
 8250SOL    HW125649   3.499   4.109   2.838
 8250SOL    HW225650   3.550   4.034   2.974
 8251SOL     OW25651   5.346   2.114   5.170
 8251SOL    HW125652   5.342   2.053   5.249
 8251SOL    HW225653   5.437   2.154   5.163
 8252SOL     OW25654   3.231   3.650   6.230
 8252SOL    HW125655   3.304   3.597   6.273
 8252SOL    HW225656   3.268   3.734   6.191
 8253SOL     OW25657   3.829   2.924   5.265
 8253SOL    HW125658   3.731   2.920   5.282
 8253SOL    HW225659   3.846   2.967   5.176
 8254SOL     OW25660   4.333   4.859   4.972
 8254SOL    HW125661   4.302   4.932   4.912
 8254SOL    HW225662   4.336   4.772   4.922
 8255SOL     OW25663   4.077   6.067   4.350
 8255SOL    HW125664   4.091   6.133   4.276
 8255SOL    HW225665   4.036   6.114   4.429
 8256SOL     OW25666   6.305   0.440   3.285
 8256SOL    HW125667   6.242   0.363   3.291
 8256SOL    HW225668   6.362   0.443   3.367
 8257SOL     OW25669   6.237   4.594   3.347
 8257SOL    HW125670   6.335   4.582   3.329
 8257SOL    HW225671   6.203   4.671   3.292
 8258SOL     OW25672   4.600   1.546   0.594
 8258SOL    HW125673   4.658   1.603   0.536
 8258SOL    HW225674   4.654   1.507   0.668
 8259SOL     OW25675   4.459   1.332   3.574
 8259SOL    HW125676   4.424   1.411   3.524
 8259SOL    HW225677   4.488   1.359   3.666
 8260SOL     OW25678   2.229   6.975   1.714
 8260SOL    HW125679   2.317   6.980   1.666
 8260SOL    HW225680   2.245   6.953   1.810
 8261SOL     OW25681   5.467   0.866   1.627
 8261SOL    HW125682   5.368   0.850   1.620
 8261SOL    HW225683   5.487   0.915   1.711
 8262SOL     OW25684   0.925   2.263   1.537
 8262SOL    HW125685   0.880   2.314   1.464
 8262SOL    HW225686   0.908   2.165   1.525
 8263SOL     OW25687   0.235   2.062   0.918
 8263SOL    HW125688   0.160   2.017   0.966
 8263SOL    HW225689   0.322   2.019   0.942
 8264SOL     OW25690   1.140   5.548   2.110
 8264SOL    HW125691   1.130   5.458   2.154
 8264SOL    HW225692   1.233   5.558   2.076
 8265SOL     OW25693   1.554   0.050   1.231
 8265SOL    HW125694   1.568   6.978   1.247
 8265SOL    HW225695   1.490   0.062   1.155
 8266SOL     OW25696   2.143   6.932   2.720
 8266SOL    HW125697   2.069   6.904   2.659
 8266SOL    HW225698   2.205   6.993   2.671
 8267SOL     OW25699   2.175   3.386   1.116
 8267SOL    HW125700   2.246   3.333   1.163
 8267SOL    HW225701   2.138   3.454   1.180
 8268SOL     OW25702   2.342   6.521   6.271
 8268SOL    HW125703   2.309   6.478   6.354
 8268SOL    HW225704   2.267   6.569   6.226
 8269SOL     OW25705   5.685   1.623   1.241
 8269SOL    HW125706   5.629   1.582   1.169
 8269SOL    HW225707   5.742   1.695   1.202
 8270SOL     OW25708   2.523   6.686   4.508
 8270SOL    HW125709   2.524   6.586   4.505
 8270SOL    HW225710   2.599   6.722   4.454
 8271SOL     OW25711   6.836   0.757   2.739
 8271SOL    HW125712   6.888   0.829   2.694
 8271SOL    HW225713   6.738   0.776   2.731
 8272SOL     OW25714   4.764   0.934   1.234
 8272SOL    HW125715   4.694   0.877   1.192
 8272SOL    HW225716   4.826   0.877   1.287
 8273SOL     OW25717   1.921   6.373   0.773
 8273SOL    HW125718   1.867   6.308   0.826
 8273SOL    HW225719   1.866   6.412   0.699
 8274SOL     OW25720   4.806   4.601   2.895
 8274SOL    HW125721   4.768   4.634   2.981
 8274SOL    HW225722   4.781   4.505   2.881
 8275SOL     OW25723   4.501   1.576   6.611
 8275SOL    HW125724   4.428   1.637   6.643
 8275SOL    HW225725   4.575   1.575   6.679
 8276SOL     OW25726   1.063   1.990   3.759
 8276SOL    HW125727   1.023   1.931   3.689
 8276SOL    HW225728   1.041   2.085   3.738
 8277SOL     OW25729   0.191   0.704   6.680
 8277SOL    HW125730   0.185   0.774   6.610
 8277SOL    HW225731   0.145   0.735   6.763
 8278SOL     OW25732   2.265   2.202   0.026
 8278SOL    HW125733   2.285   2.107   0.052
 8278SOL    HW225734   2.173   2.207   7.012
 8279SOL     OW25735   0.934   6.652   4.560
 8279SOL    HW125736   1.026   6.618   4.583
 8279SOL    HW225737   0.870   6.626   4.632
 8280SOL     OW25738   2.778   3.470   7.015
 8280SOL    HW125739   2.706   3.401   7.007
 8280SOL    HW225740   2.742   3.560   6.989
 8281SOL     OW25741   1.119   5.546   1.510
 8281SOL    HW125742   1.203   5.546   1.457
 8281SOL    HW225743   1.141   5.543   1.607
 8282SOL     OW25744   5.429   3.162   6.439
 8282SOL    HW125745   5.385   3.207   6.517
 8282SOL    HW225746   5.367   3.093   6.401
 8283SOL     OW25747   1.097   4.346   6.324
 8283SOL    HW125748   1.013   4.359   6.271
 8283SOL    HW225749   1.126   4.250   6.320
 8284SOL     OW25750   0.514   3.671   1.667
 8284SOL    HW125751   0.415   3.657   1.675
 8284SOL    HW225752   0.533   3.769   1.656
 8285SOL     OW25753   3.900   3.101   5.069
 8285SOL    HW125754   3.963   3.149   5.131
 8285SOL    HW225755   3.938   3.101   4.977
 8286SOL     OW25756   5.710   2.801   6.391
 8286SOL    HW125757   5.627   2.845   6.357
 8286SOL    HW225758   5.715   2.708   6.354
 8287SOL     OW25759   1.351   5.942   4.771
 8287SOL    HW125760   1.394   5.912   4.686
 8287SOL    HW225761   1.252   5.931   4.764
 8288SOL     OW25762   2.759   2.334   2.886
 8288SOL    HW125763   2.675   2.281   2.874
 8288SOL    HW225764   2.838   2.275   2.869
 8289SOL     OW25765   0.441   0.000   1.220
 8289SOL    HW125766   0.439   6.983   1.310
 8289SOL    HW225767   0.436   0.100   1.231
 8290SOL     OW25768   6.559   1.180   0.012
 8290SOL    HW125769   6.508   1.188   0.098
 8290SOL    HW225770   6.579   1.084   7.020
 8291SOL     OW25771   5.100   6.837   6.618
 8291SOL    HW125772   5.184   6.786   6.599
 8291SOL    HW225773   5.049   6.793   6.691
 8292SOL     OW25774   2.629   6.495   0.186
 8292SOL    HW125775   2.654   6.400   0.170
 8292SOL    HW225776   2.711   6.552   0.185
 8293SOL     OW25777   3.720   6.740   0.242
 8293SOL    HW125778   3.744   6.657   0.191
 8293SOL    HW225779   3.676   6.805   0.180
 8294SOL     OW25780   5.700   3.779   5.365
 8294SOL    HW125781   5.647   3.727   5.297
 8294SOL    HW225782   5.645   3.856   5.397
 8295SOL     OW25783   5.471   4.730   1.699
 8295SOL    HW125784   5.401   4.773   1.643
 8295SOL    HW225785   5.431   4.656   1.752
 8296SOL     OW25786   1.700   6.881   5.965
 8296SOL    HW125787   1.739   6.973   5.958
 8296SOL    HW225788   1.769   6.813   5.942
 8297SOL     OW25789   6.333   2.370   2.990
 8297SOL    HW125790   6.414   2.402   2.940
 8297SOL    HW225791   6.266   2.334   2.926
 8298SOL     OW25792   6.025   1.534   1.299
 8298SOL    HW125793   5.950   1.470   1.287
 8298SOL    HW225794   6.038   1.586   1.214
 8299SOL     OW25795   6.998   2.296   2.287
 8299SOL    HW125796   0.026   2.304   2.370
 8299SOL    HW225797   6.956   2.384   2.265
 8300SOL     OW25798   0.778   5.505   5.722
 8300SOL    HW125799   0.730   5.476   5.639
 8300SOL    HW225800   0.819   5.425   5.766
 8301SOL     OW25801   3.806   1.391   1.269
 8301SOL    HW125802   3.792   1.457   1.343
 8301SOL    HW225803   3.879   1.424   1.209
 8302SOL     OW25804   6.292   5.636   6.197
 8302SOL    HW125805   6.268   5.605   6.105
 8302SOL    HW225806   6.371   5.584   6.230
 8303SOL     OW25807   6.894   0.474   4.298
 8303SOL    HW125808   6.948   0.484   4.214
 8303SOL    HW225809   6.883   0.376   4.318
 8304SOL     OW25810   1.615   3.631   6.811
 8304SOL    HW125811   1.630   3.645   6.713
 8304SOL    HW225812   1.561   3.707   6.847
 8305SOL     OW25813   3.655   5.047   4.167
 8305SOL    HW125814   3.628   5.141   4.147
 8305SOL    HW225815   3.709   5.045   4.251
 8306SOL     OW25816   0.229   3.218   5.088
 8306SOL    HW125817   0.200   3.131   5.128
 8306SOL    HW225818   0.193   3.226   4.995
 8307SOL     OW25819   4.103   5.219   1.945
 8307SOL    HW125820   4.031   5.277   1.908
 8307SOL    HW225821   4.190   5.241   1.902
 8308SOL     OW25822   4.657   6.305   1.465
 8308SOL    HW125823   4.749   6.321   1.431
 8308SOL    HW225824   4.609   6.392   1.475
 8309SOL     OW25825   5.895   5.400   3.391
 8309SOL    HW125826   5.847   5.313   3.377
 8309SOL    HW225827   5.834   5.464   3.439
 8310SOL     OW25828   1.044   4.409   0.937
 8310SOL    HW125829   1.043   4.496   0.986
 8310SOL    HW225830   1.040   4.334   1.003
 8311SOL     OW25831   0.491   1.466   5.664
 8311SOL    HW125832   0.571   1.428   5.618
 8311SOL    HW225833   0.408   1.421   5.630
 8312SOL     OW25834   4.538   6.096   1.543
 8312SOL    HW125835   4.535   6.034   1.465
 8312SOL    HW225836   4.585   6.181   1.517
 8313SOL     OW25837   4.174   1.486   2.679
 8313SOL    HW125838   4.216   1.494   2.769
 8313SOL    HW225839   4.234   1.434   2.618
 8314SOL     OW25840   5.028   6.477   0.748
 8314SOL    HW125841   5.024   6.381   0.720
 8314SOL    HW225842   5.115   6.517   0.721
 8315SOL     OW25843   4.132   3.162   0.607
 8315SOL    HW125844   4.162   3.208   0.690
 8315SOL    HW225845   4.032   3.153   0.608
 8316SOL     OW25846   0.464   3.045   1.524
 8316SOL    HW125847   0.482   2.975   1.455
 8316SOL    HW225848   0.473   3.005   1.615
 8317SOL     OW25849   2.185   2.965   2.230
 8317SOL    HW125850   2.213   2.894   2.164
 8317SOL    HW225851   2.171   3.051   2.182
 8318SOL     OW25852   4.891   1.692   4.927
 8318SOL    HW125853   4.938   1.700   5.015
 8318SOL    HW225854   4.927   1.760   4.864
 8319SOL     OW25855   2.792   2.269   5.798
 8319SOL    HW125856   2.778   2.366   5.779
 8319SOL    HW225857   2.870   2.236   5.745
 8320SOL     OW25858   3.700   4.895   1.217
 8320SOL    HW125859   3.622   4.854   1.171
 8320SOL    HW225860   3.684   4.993   1.229
 8321SOL     OW25861   0.460   1.058   6.496
 8321SOL    HW125862   0.447   1.151   6.461
 8321SOL    HW225863   0.481   0.997   6.420
 8322SOL     OW25864   6.867   0.083   0.530
 8322SOL    HW125865   6.802   0.153   0.561
 8322SOL    HW225866   6.913   0.043   0.609
 8323SOL     OW25867   0.053   7.014   2.642
 8323SOL    HW125868   0.052   7.014   2.742
 8323SOL    HW225869   0.005   6.932   2.609
 8324SOL     OW25870   6.627   0.282   2.589
 8324SOL    HW125871   6.726   0.279   2.601
 8324SOL    HW225872   6.589   0.357   2.643
 8325SOL     OW25873   3.503   3.151   4.460
 8325SOL    HW125874   3.506   3.126   4.557
 8325SOL    HW225875   3.591   3.192   4.433
 8326SOL     OW25876   4.439   3.313   5.415
 8326SOL    HW125877   4.394   3.397   5.384
 8326SOL    HW225878   4.390   3.234   5.378
 8327SOL     OW25879   5.111   2.007   5.935
 8327SOL    HW125880   5.025   2.018   5.885
 8327SOL    HW225881   5.184   1.984   5.871
 8328SOL     OW25882   2.267   3.971   5.976
 8328SOL    HW125883   2.334   3.900   5.955
 8328SOL    HW225884   2.193   3.932   6.031
 8329SOL     OW25885   0.587   3.433   5.631
 8329SOL    HW125886   0.562   3.407   5.537
 8329SOL    HW225887   0.527   3.507   5.661
 8330SOL     OW25888   1.700   0.524   7.019
 8330SOL    HW125889   1.686   0.558   0.087
 8330SOL    HW225890   1.756   0.590   6.968
 8331SOL     OW25891   3.272   0.030   0.873
 8331SOL    HW125892   3.360   0.076   0.884
 8331SOL    HW225893   3.224   0.066   0.793
 8332SOL     OW25894   4.546   4.854   2.770
 8332SOL    HW125895   4.510   4.927   2.828
 8332SOL    HW225896   4.567   4.774   2.826
 8333SOL     OW25897   0.380   6.201   0.293
 8333SOL    HW125898   0.318   6.164   0.224
 8333SOL    HW225899   0.386   6.300   0.282
 8334SOL     OW25900   5.799   1.521   3.848
 8334SOL    HW125901   5.873   1.557   3.791
 8334SOL    HW225902   5.830   1.436   3.891
 8335SOL     OW25903   6.270   5.524   5.742
 8335SOL    HW125904   6.363   5.560   5.754
 8335SOL    HW225905   6.204   5.594   5.771
 8336SOL     OW25906   0.060   0.649   2.023
 8336SOL    HW125907   0.064   0.560   1.978
 8336SOL    HW225908   7.025   0.709   1.971
 8337SOL     OW25909   0.936   6.804   3.551
 8337SOL    HW125910   0.917   6.767   3.461
 8337SOL    HW225911   0.979   6.733   3.608
 8338SOL     OW25912   2.109   4.709   1.817
 8338SOL    HW125913   2.207   4.715   1.802
 8338SOL    HW225914   2.080   4.614   1.814
 8339SOL     OW25915   5.647   1.485   1.774
 8339SOL    HW125916   5.555   1.486   1.813
 8339SOL    HW225917   5.641   1.482   1.674
 8340SOL     OW25918   4.971   3.982   0.914
 8340SOL    HW125919   4.898   3.995   0.847
 8340SOL    HW225920   5.059   3.981   0.867
 8341SOL     OW25921   2.218   6.061   0.185
 8341SOL    HW125922   2.138   6.099   0.230
 8341SOL    HW225923   2.256   5.987   0.240
 8342SOL     OW25924   3.458   6.678   1.512
 8342SOL    HW125925   3.529   6.683   1.441
 8342SOL    HW225926   3.412   6.766   1.519
 8343SOL     OW25927   1.356   4.841   6.288
 8343SOL    HW125928   1.403   4.884   6.212
 8343SOL    HW225929   1.419   4.779   6.335
 8344SOL     OW25930   4.598   6.532   5.533
 8344SOL    HW125931   4.569   6.623   5.504
 8344SOL    HW225932   4.697   6.530   5.546
 8345SOL     OW25933   5.351   1.954   3.248
 8345SOL    HW125934   5.340   2.013   3.328
 8345SOL    HW225935   5.372   2.011   3.168
 8346SOL     OW25936   2.546   4.616   0.233
 8346SOL    HW125937   2.463   4.620   0.287
 8346SOL    HW225938   2.523   4.610   0.136
 8347SOL     OW25939   2.888   6.767   5.016
 8347SOL    HW125940   2.963   6.781   5.080
 8347SOL    HW225941   2.843   6.854   4.997
 8348SOL     OW25942   1.664   0.269   1.348
 8348SOL    HW125943   1.618   0.351   1.314
 8348SOL    HW225944   1.626   0.188   1.305
 8349SOL     OW25945   6.051   4.466   0.703
 8349SOL    HW125946   5.954   4.477   0.680
 8349SOL    HW225947   6.061   4.395   0.773
 8350SOL     OW25948   4.972   0.862   4.725
 8350SOL    HW125949   4.977   0.842   4.627
 8350SOL    HW225950   5.038   0.805   4.774
 8351SOL     OW25951   3.680   5.043   4.913
 8351SOL    HW125952   3.744   4.968   4.927
 8351SOL    HW225953   3.706   5.095   4.831
 8352SOL     OW25954   6.831   0.073   1.980
 8352SOL    HW125955   6.883   0.029   1.907
 8352SOL    HW225956   6.894   0.106   2.050
 8353SOL     OW25957   5.442   3.826   2.182
 8353SOL    HW125958   5.431   3.872   2.094
 8353SOL    HW225959   5.431   3.728   2.170
 8354SOL     OW25960   3.470   1.105   6.720
 8354SOL    HW125961   3.522   1.158   6.788
 8354SOL    HW225962   3.533   1.066   6.653
 8355SOL     OW25963   2.971   0.775   6.757
 8355SOL    HW125964   2.963   0.854   6.818
 8355SOL    HW225965   3.003   0.696   6.808
 8356SOL     OW25966   0.956   6.638   0.628
 8356SOL    HW125967   0.895   6.616   0.704
 8356SOL    HW225968   1.051   6.631   0.659
 8357SOL     OW25969   3.797   5.488   5.984
 8357SOL    HW125970   3.798   5.577   6.029
 8357SOL    HW225971   3.858   5.489   5.905
 8358SOL     OW25972   2.023   2.838   5.414
 8358SOL    HW125973   1.939   2.790   5.439
 8358SOL    HW225974   2.030   2.843   5.314
 8359SOL     OW25975   3.761   5.951   4.535
 8359SOL    HW125976   3.747   5.996   4.447
 8359SOL    HW225977   3.837   5.887   4.528
 8360SOL     OW25978   3.625   0.089   2.326
 8360SOL    HW125979   3.675   0.003   2.321
 8360SOL    HW225980   3.555   0.092   2.255
 8361SOL     OW25981   1.780   1.261   1.828
 8361SOL    HW125982   1.782   1.163   1.852
 8361SOL    HW225983   1.874   1.292   1.811
 8362SOL     OW25984   2.577   2.342   0.384
 8362SOL    HW125985   2.539   2.424   0.340
 8362SOL    HW225986   2.593   2.272   0.315
 8363SOL     OW25987   0.910   2.493   0.356
 8363SOL    HW125988   0.964   2.411   0.376
 8363SOL    HW225989   0.819   2.483   0.396
 8364SOL     OW25990   0.306   3.684   2.938
 8364SOL    HW125991   0.377   3.628   2.894
 8364SOL    HW225992   0.254   3.733   2.868
 8365SOL     OW25993   1.521   4.036   1.666
 8365SOL    HW125994   1.528   3.985   1.752
 8365SOL    HW225995   1.447   3.998   1.610
 8366SOL     OW25996   4.251   5.997   2.544
 8366SOL    HW125997   4.171   6.028   2.494
 8366SOL    HW225998   4.245   5.899   2.561
 8367SOL     OW25999   4.309   5.980   4.475
 8367SOL    HW126000   4.321   5.881   4.481
 8367SOL    HW226001   4.220   6.000   4.436
 8368SOL     OW26002   3.260   6.274   6.019
 8368SOL    HW126003   3.211   6.287   5.933
 8368SOL    HW226004   3.202   6.225   6.084
 8369SOL     OW26005   1.703   1.400   6.459
 8369SOL    HW126006   1.647   1.393   6.541
 8369SOL    HW226007   1.654   1.453   6.390
 8370SOL     OW26008   2.784   2.359   6.060
 8370SOL    HW126009   2.774   2.316   5.970
 8370SOL    HW226010   2.707   2.421   6.076
 8371SOL     OW26011   1.533   3.920   0.699
 8371SOL    HW126012   1.521   3.842   0.637
 8371SOL    HW226013   1.503   4.004   0.652
 8372SOL     OW26014   1.058   6.349   2.787
 8372SOL    HW126015   0.977   6.338   2.843
 8372SOL    HW226016   1.046   6.302   2.700
 8373SOL     OW26017   0.812   7.025   5.085
 8373SOL    HW126018   0.844   6.972   5.007
 8373SOL    HW226019   0.712   7.019   5.090
 8374SOL     OW26020   0.071   1.048   6.702
 8374SOL    HW126021   0.049   1.002   6.616
 8374SOL    HW226022   0.170   1.063   6.708
 8375SOL     OW26023   3.433   5.834   6.276
 8375SOL    HW126024   3.437   5.754   6.336
 8375SOL    HW226025   3.524   5.875   6.270
 8376SOL     OW26026   2.551   0.449   4.385
 8376SOL    HW126027   2.545   0.426   4.482
 8376SOL    HW226028   2.572   0.546   4.374
 8377SOL     OW26029   6.221   5.916   1.867
 8377SOL    HW126030   6.231   6.015   1.860
 8377SOL    HW226031   6.167   5.882   1.790
 8378SOL     OW26032   4.906   4.667   3.304
 8378SOL    HW126033   4.908   4.618   3.391
 8378SOL    HW226034   4.958   4.616   3.235
 8379SOL     OW26035   6.806   2.958   1.216
 8379SOL    HW126036   6.820   2.954   1.117
 8379SOL    HW226037   6.831   3.048   1.250
 8380SOL     OW26038   6.217   0.666   2.015
 8380SOL    HW126039   6.249   0.647   2.108
 8380SOL    HW226040   6.138   0.608   1.995
 8381SOL     OW26041   0.867   5.075   4.666
 8381SOL    HW126042   0.885   5.122   4.580
 8381SOL    HW226043   0.938   5.098   4.733
 8382SOL     OW26044   1.468   1.588   2.212
 8382SOL    HW126045   1.534   1.544   2.152
 8382SOL    HW226046   1.441   1.676   2.174
 8383SOL     OW26047   2.691   2.046   6.721
 8383SOL    HW126048   2.714   2.045   6.624
 8383SOL    HW226049   2.665   2.138   6.749
 8384SOL     OW26050   0.092   0.113   0.830
 8384SOL    HW126051   0.180   0.072   0.856
 8384SOL    HW226052   0.107   0.180   0.758
 8385SOL     OW26053   6.161   2.453   1.821
 8385SOL    HW126054   6.202   2.537   1.855
 8385SOL    HW226055   6.208   2.425   1.737
 8386SOL     OW26056   0.922   4.097   2.313
 8386SOL    HW126057   0.948   4.092   2.409
 8386SOL    HW226058   1.001   4.127   2.259
 8387SOL     OW26059   1.386   1.664   1.247
 8387SOL    HW126060   1.307   1.627   1.296
 8387SOL    HW226061   1.444   1.589   1.216
 8388SOL     OW26062   2.254   5.948   1.908
 8388SOL    HW126063   2.269   5.975   2.003
 8388SOL    HW226064   2.189   5.872   1.904
 8389SOL     OW26065   5.119   3.715   2.075
 8389SOL    HW126066   5.157   3.793   2.025
 8389SOL    HW226067   5.164   3.631   2.044
 8390SOL     OW26068   3.613   1.633   6.385
 8390SOL    HW126069   3.686   1.587   6.436
 8390SOL    HW226070   3.540   1.660   6.447
 8391SOL     OW26071   6.168   6.928   0.889
 8391SOL    HW126072   6.156   6.881   0.976
 8391SOL    HW226073   6.265   6.930   0.865
 8392SOL     OW26074   6.356   3.485   3.551
 8392SOL    HW126075   6.386   3.576   3.578
 8392SOL    HW226076   6.424   3.418   3.578
 8393SOL     OW26077   5.376   0.261   2.552
 8393SOL    HW126078   5.325   0.206   2.618
 8393SOL    HW226079   5.458   0.298   2.596
 8394SOL     OW26080   6.029   3.587   1.558
 8394SOL    HW126081   5.961   3.597   1.485
 8394SOL    HW226082   6.062   3.677   1.586
 8395SOL     OW26083   2.376   0.296   5.667
 8395SOL    HW126084   2.441   0.370   5.684
 8395SOL    HW226085   2.346   0.257   5.754
 8396SOL     OW26086   4.228   4.730   3.878
 8396SOL    HW126087   4.232   4.701   3.974
 8396SOL    HW226088   4.310   4.782   3.856
 8397SOL     OW26089   0.568   1.621   3.858
 8397SOL    HW126090   0.577   1.571   3.943
 8397SOL    HW226091   0.474   1.615   3.824
 8398SOL     OW26092   4.681   1.605   6.842
 8398SOL    HW126093   4.762   1.547   6.849
 8398SOL    HW226094   4.705   1.693   6.800
 8399SOL     OW26095   6.726   6.261   6.724
 8399SOL    HW126096   6.723   6.248   6.823
 8399SOL    HW226097   6.640   6.302   6.693
 8400SOL     OW26098   1.354   2.693   4.362
 8400SOL    HW126099   1.411   2.706   4.443
 8400SOL    HW226100   1.366   2.770   4.299
 8401SOL     OW26101   1.988   0.436   5.442
 8401SOL    HW126102   2.020   0.519   5.489
 8401SOL    HW226103   2.066   0.379   5.418
 8402SOL     OW26104   4.750   0.881   6.568
 8402SOL    HW126105   4.667   0.938   6.563
 8402SOL    HW226106   4.828   0.932   6.532
 8403SOL     OW26107   0.265   4.632   3.977
 8403SOL    HW126108   0.317   4.631   3.891
 8403SOL    HW226109   0.169   4.611   3.957
 8404SOL     OW26110   3.026   1.100   6.012
 8404SOL    HW126111   2.940   1.107   5.961
 8404SOL    HW226112   3.081   1.026   5.974
 8405SOL     OW26113   3.868   1.711   6.201
 8405SOL    HW126114   3.957   1.698   6.244
 8405SOL    HW226115   3.864   1.802   6.159
 8406SOL     OW26116   4.916   0.450   0.390
 8406SOL    HW126117   4.872   0.535   0.422
 8406SOL    HW226118   5.010   0.469   0.364
 8407SOL     OW26119   4.273   5.942   3.585
 8407SOL    HW126120   4.325   6.011   3.534
 8407SOL    HW226121   4.184   5.979   3.609
 8408SOL     OW26122   5.353   6.420   0.551
 8408SOL    HW126123   5.425   6.432   0.483
 8408SOL    HW226124   5.316   6.509   0.577
 8409SOL     OW26125   4.606   2.581   2.095
 8409SOL    HW126126   4.701   2.584   2.063
 8409SOL    HW226127   4.545   2.579   2.017
 8410SOL     OW26128   6.329   1.516   1.732
 8410SOL    HW126129   6.395   1.591   1.720
 8410SOL    HW226130   6.281   1.529   1.819
 8411SOL     OW26131   0.306   6.393   1.699
 8411SOL    HW126132   0.337   6.435   1.614
 8411SOL    HW226133   0.315   6.294   1.693
 8412SOL     OW26134   3.589   2.974   0.787
 8412SOL    HW126135   3.584   2.989   0.885
 8412SOL    HW226136   3.568   3.060   0.739
 8413SOL     OW26137   4.205   5.835   6.354
 8413SOL    HW126138   4.286   5.858   6.299
 8413SOL    HW226139   4.234   5.809   6.446
 8414SOL     OW26140   2.294   1.499   2.730
 8414SOL    HW126141   2.360   1.435   2.691
 8414SOL    HW226142   2.250   1.457   2.810
 8415SOL     OW26143   3.244   6.840   4.015
 8415SOL    HW126144   3.195   6.880   3.938
 8415SOL    HW226145   3.180   6.822   4.090
 8416SOL     OW26146   6.034   1.996   4.903
 8416SOL    HW126147   6.037   2.020   5.000
 8416SOL    HW226148   6.010   1.899   4.894
 8417SOL     OW26149   2.028   3.149   5.385
 8417SOL    HW126150   2.098   3.158   5.314
 8417SOL    HW226151   2.034   3.059   5.427
 8418SOL     OW26152   0.890   5.477   2.576
 8418SOL    HW126153   0.897   5.461   2.674
 8418SOL    HW226154   0.952   5.552   2.550
 8419SOL     OW26155   5.959   0.958   3.307
 8419SOL    HW126156   5.904   1.034   3.344
 8419SOL    HW226157   5.975   0.974   3.209
 8420SOL     OW26158   3.342   6.900   1.973
 8420SOL    HW126159   3.274   6.968   1.999
 8420SOL    HW226160   3.308   6.808   1.995
 8421SOL     OW26161   2.894   6.270   6.806
 8421SOL    HW126162   2.920   6.174   6.799
 8421SOL    HW226163   2.955   6.316   6.871
 8422SOL     OW26164   4.899   2.600   2.323
 8422SOL    HW126165   4.888   2.502   2.337
 8422SOL    HW226166   4.841   2.650   2.388
 8423SOL     OW26167   4.631   4.412   5.821
 8423SOL    HW126168   4.691   4.336   5.847
 8423SOL    HW226169   4.686   4.485   5.780
 8424SOL     OW26170   1.938   0.836   3.729
 8424SOL    HW126171   1.888   0.758   3.691
 8424SOL    HW226172   1.940   0.910   3.662
 8425SOL     OW26173   3.349   3.790   3.848
 8425SOL    HW126174   3.312   3.878   3.815
 8425SOL    HW226175   3.347   3.723   3.773
 8426SOL     OW26176   3.496   3.278   2.470
 8426SOL    HW126177   3.486   3.348   2.400
 8426SOL    HW226178   3.406   3.247   2.501
 8427SOL     OW26179   3.058   3.542   3.168
 8427SOL    HW126180   3.149   3.534   3.127
 8427SOL    HW226181   3.014   3.625   3.134
 8428SOL     OW26182   0.223   0.372   0.996
 8428SOL    HW126183   0.289   0.325   1.055
 8428SOL    HW226184   0.255   0.369   0.901
 8429SOL     OW26185   2.193   6.001   5.913
 8429SOL    HW126186   2.273   5.999   5.974
 8429SOL    HW226187   2.114   6.036   5.963
 8430SOL     OW26188   3.947   4.965   4.905
 8430SOL    HW126189   3.980   5.041   4.960
 8430SOL    HW226190   3.952   4.880   4.958
 8431SOL     OW26191   3.028   3.904   6.531
 8431SOL    HW126192   2.933   3.931   6.518
 8431SOL    HW226193   3.041   3.809   6.501
 8432SOL     OW26194   6.731   5.297   6.302
 8432SOL    HW126195   6.647   5.312   6.354
 8432SOL    HW226196   6.810   5.327   6.356
 8433SOL     OW26197   4.360   2.383   0.968
 8433SOL    HW126198   4.342   2.477   0.999
 8433SOL    HW226199   4.418   2.337   1.034
 8434SOL     OW26200   2.141   5.300   4.924
 8434SOL    HW126201   2.212   5.271   4.860
 8434SOL    HW226202   2.120   5.225   4.987
 8435SOL     OW26203   5.220   0.830   2.905
 8435SOL    HW126204   5.257   0.890   2.833
 8435SOL    HW226205   5.254   0.737   2.891
 8436SOL     OW26206   2.791   6.389   3.654
 8436SOL    HW126207   2.703   6.342   3.663
 8436SOL    HW226208   2.777   6.479   3.613
 8437SOL     OW26209   2.001   3.263   2.428
 8437SOL    HW126210   1.928   3.282   2.493
 8437SOL    HW226211   2.053   3.183   2.458
 8438SOL     OW26212   1.894   3.943   2.900
 8438SOL    HW126213   1.863   3.989   2.983
 8438SOL    HW226214   1.990   3.964   2.883
 8439SOL     OW26215   6.311   5.340   3.840
 8439SOL    HW126216   6.337   5.253   3.882
 8439SOL    HW226217   6.323   5.335   3.741
 8440SOL     OW26218   2.305   1.987   3.794
 8440SOL    HW126219   2.231   2.054   3.782
 8440SOL    HW226220   2.287   1.932   3.875
 8441SOL     OW26221   5.598   5.636   5.437
 8441SOL    HW126222   5.620   5.563   5.373
 8441SOL    HW226223   5.624   5.724   5.397
 8442SOL     OW26224   3.446   0.837   5.264
 8442SOL    HW126225   3.546   0.840   5.260
 8442SOL    HW226226   3.410   0.809   5.175
 8443SOL     OW26227   1.767   4.982   4.034
 8443SOL    HW126228   1.834   5.034   3.980
 8443SOL    HW226229   1.702   4.937   3.973
 8444SOL     OW26230   4.102   6.666   3.449
 8444SOL    HW126231   4.142   6.582   3.486
 8444SOL    HW226232   4.112   6.740   3.515
 8445SOL     OW26233   2.357   0.213   6.748
 8445SOL    HW126234   2.301   0.185   6.670
 8445SOL    HW226235   2.376   0.311   6.741
 8446SOL     OW26236   0.161   6.281   5.022
 8446SOL    HW126237   0.125   6.193   4.991
 8446SOL    HW226238   0.197   6.272   5.115
 8447SOL     OW26239   4.336   1.741   2.324
 8447SOL    HW126240   4.294   1.828   2.301
 8447SOL    HW226241   4.265   1.673   2.342
 8448SOL     OW26242   4.781   6.075   3.689
 8448SOL    HW126243   4.792   5.976   3.682
 8448SOL    HW226244   4.790   6.103   3.784
 8449SOL     OW26245   1.483   3.230   3.583
 8449SOL    HW126246   1.494   3.208   3.680
 8449SOL    HW226247   1.559   3.191   3.532
 8450SOL     OW26248   0.628   0.988   0.109
 8450SOL    HW126249   0.588   0.897   0.124
 8450SOL    HW226250   0.634   1.036   0.197
 8451SOL     OW26251   3.694   1.024   1.097
 8451SOL    HW126252   3.646   1.112   1.101
 8451SOL    HW226253   3.748   1.020   1.013
 8452SOL     OW26254   5.374   1.900   4.561
 8452SOL    HW126255   5.299   1.890   4.625
 8452SOL    HW226256   5.453   1.941   4.607
 8453SOL     OW26257   0.451   5.420   0.132
 8453SOL    HW126258   0.488   5.502   0.089
 8453SOL    HW226259   0.501   5.340   0.098
 8454SOL     OW26260   0.621   4.285   0.430
 8454SOL    HW126261   0.630   4.385   0.430
 8454SOL    HW226262   0.663   4.248   0.347
 8455SOL     OW26263   0.873   0.497   2.575
 8455SOL    HW126264   0.877   0.441   2.658
 8455SOL    HW226265   0.953   0.557   2.571
 8456SOL     OW26266   5.196   0.594   3.645
 8456SOL    HW126267   5.228   0.512   3.692
 8456SOL    HW226268   5.228   0.593   3.550
 8457SOL     OW26269   6.412   6.739   4.369
 8457SOL    HW126270   6.487   6.803   4.386
 8457SOL    HW226271   6.368   6.715   4.455
 8458SOL     OW26272   0.489   0.331   0.228
 8458SOL    HW126273   0.506   0.398   0.300
 8458SOL    HW226274   0.460   0.379   0.145
 8459SOL     OW26275   1.683   5.783   3.116
 8459SOL    HW126276   1.601   5.839   3.124
 8459SOL    HW226277   1.764   5.841   3.130
 8460SOL     OW26278   4.351   3.946   5.307
 8460SOL    HW126279   4.425   3.879   5.316
 8460SOL    HW226280   4.390   4.036   5.287
 8461SOL     OW26281   0.112   2.860   4.956
 8461SOL    HW126282   0.125   2.956   4.931
 8461SOL    HW226283   0.103   2.853   5.056
 8462SOL     OW26284   3.255   1.740   1.386
 8462SOL    HW126285   3.185   1.729   1.315
 8462SOL    HW226286   3.215   1.724   1.476
 8463SOL     OW26287   6.197   7.020   1.954
 8463SOL    HW126288   6.276   0.054   1.969
 8463SOL    HW226289   6.113   0.046   1.971
 8464SOL     OW26290   5.779   3.221   4.336
 8464SOL    HW126291   5.771   3.258   4.244
 8464SOL    HW226292   5.724   3.138   4.343
 8465SOL     OW26293   1.390   1.971   0.371
 8465SOL    HW126294   1.309   1.980   0.428
 8465SOL    HW226295   1.457   2.041   0.397
 8466SOL     OW26296   1.348   5.636   3.676
 8466SOL    HW126297   1.379   5.579   3.753
 8466SOL    HW226298   1.254   5.611   3.653
 8467SOL     OW26299   2.428   5.952   0.988
 8467SOL    HW126300   2.473   6.038   0.964
 8467SOL    HW226301   2.443   5.932   1.085
 8468SOL     OW26302   3.895   2.341   0.444
 8468SOL    HW126303   3.858   2.410   0.383
 8468SOL    HW226304   3.835   2.331   0.524
 8469SOL     OW26305   3.221   2.962   0.036
 8469SOL    HW126306   3.252   2.904   0.110
 8469SOL    HW226307   3.262   2.932   6.976
 8470SOL     OW26308   1.804   2.497   1.033
 8470SOL    HW126309   1.730   2.470   1.094
 8470SOL    HW226310   1.876   2.544   1.085
 8471SOL     OW26311   2.870   0.654   4.010
 8471SOL    HW126312   2.809   0.725   3.973
 8471SOL    HW226313   2.944   0.637   3.945
 8472SOL     OW26314   0.579   6.723   4.243
 8472SOL    HW126315   0.617   6.681   4.161
 8472SOL    HW226316   0.636   6.800   4.271
 8473SOL     OW26317   0.143   5.921   0.534
 8473SOL    HW126318   0.109   5.841   0.486
 8473SOL    HW226319   0.113   6.004   0.486
 8474SOL     OW26320   3.075   2.893   1.764
 8474SOL    HW126321   3.116   2.865   1.851
 8474SOL    HW226322   3.015   2.820   1.731
 8475SOL     OW26323   5.544   1.545   2.686
 8475SOL    HW126324   5.501   1.635   2.695
 8475SOL    HW226325   5.473   1.474   2.689
 8476SOL     OW26326   5.849   6.988   2.009
 8476SOL    HW126327   5.915   6.919   1.979
 8476SOL    HW226328   5.781   6.945   2.069
 8477SOL     OW26329   2.924   6.737   1.216
 8477SOL    HW126330   3.002   6.785   1.256
 8477SOL    HW226331   2.957   6.660   1.162
 8478SOL     OW26332   1.984   0.899   5.591
 8478SOL    HW126333   1.933   0.945   5.518
 8478SOL    HW226334   1.920   0.866   5.661
 8479SOL     OW26335   6.389   1.259   0.235
 8479SOL    HW126336   6.419   1.354   0.246
 8479SOL    HW226337   6.395   1.212   0.323
 8480SOL     OW26338   3.514   0.426   0.978
 8480SOL    HW126339   3.421   0.427   0.941
 8480SOL    HW226340   3.578   0.460   0.909
 8481SOL     OW26341   3.870   1.532   4.668
 8481SOL    HW126342   3.962   1.558   4.698
 8481SOL    HW226343   3.838   1.597   4.600
 8482SOL     OW26344   1.654   0.548   2.135
 8482SOL    HW126345   1.571   0.572   2.186
 8482SOL    HW226346   1.629   0.504   2.049
 8483SOL     OW26347   3.289   5.766   2.607
 8483SOL    HW126348   3.308   5.710   2.526
 8483SOL    HW226349   3.326   5.858   2.593
 8484SOL     OW26350   0.572   4.574   3.546
 8484SOL    HW126351   0.626   4.651   3.514
 8484SOL    HW226352   0.625   4.520   3.612
 8485SOL     OW26353   2.085   3.946   0.073
 8485SOL    HW126354   2.093   3.874   0.141
 8485SOL    HW226355   2.096   4.035   0.117
 8486SOL     OW26356   5.403   1.072   2.438
 8486SOL    HW126357   5.460   1.108   2.365
 8486SOL    HW226358   5.446   0.989   2.476
 8487SOL     OW26359   5.219   7.010   1.753
 8487SOL    HW126360   5.285   0.059   1.743
 8487SOL    HW226361   5.127   0.021   1.761
 8488SOL     OW26362   5.384   4.635   4.187
 8488SOL    HW126363   5.427   4.719   4.154
 8488SOL    HW226364   5.299   4.619   4.136
 8489SOL     OW26365   5.834   4.962   1.315
 8489SOL    HW126366   5.846   4.945   1.218
 8489SOL    HW226367   5.900   5.030   1.346
 8490SOL     OW26368   4.301   5.449   3.097
 8490SOL    HW126369   4.238   5.400   3.158
 8490SOL    HW226370   4.252   5.478   3.015
 8491SOL     OW26371   2.432   0.499   2.071
 8491SOL    HW126372   2.438   0.476   1.974
 8491SOL    HW226373   2.453   0.418   2.126
 8492SOL     OW26374   5.274   3.325   5.593
 8492SOL    HW126375   5.196   3.268   5.619
 8492SOL    HW226376   5.250   3.382   5.515
 8493SOL     OW26377   4.066   1.934   7.004
 8493SOL    HW126378   4.061   1.849   6.951
 8493SOL    HW226379   4.127   1.921   0.056
 8494SOL     OW26380   2.705   5.598   6.741
 8494SOL    HW126381   2.674   5.589   6.646
 8494SOL    HW226382   2.650   5.539   6.800
 8495SOL     OW26383   6.528   3.189   0.589
 8495SOL    HW126384   6.611   3.150   0.550
 8495SOL    HW226385   6.542   3.287   0.605
 8496SOL     OW26386   0.553   2.112   3.422
 8496SOL    HW126387   0.610   2.043   3.466
 8496SOL    HW226388   0.576   2.202   3.458
 8497SOL     OW26389   5.115   5.253   4.870
 8497SOL    HW126390   5.163   5.289   4.950
 8497SOL    HW226391   5.093   5.157   4.884
 8498SOL     OW26392   0.458   0.265   1.217
 8498SOL    HW126393   0.392   0.286   1.289
 8498SOL    HW226394   0.549   0.295   1.245
 8499SOL     OW26395   3.180   5.004   6.951
 8499SOL    HW126396   3.161   4.920   6.902
 8499SOL    HW226397   3.167   5.082   6.890
 8500SOL     OW26398   2.520   7.011   5.627
 8500SOL    HW126399   2.472   0.047   5.689
 8500SOL    HW226400   2.456   6.979   5.557
 8501SOL     OW26401   1.866   3.415   6.577
 8501SOL    HW126402   1.862   3.411   6.478
 8501SOL    HW226403   1.791   3.362   6.616
 8502SOL     OW26404   0.499   6.088   1.457
 8502SOL    HW126405   0.440   6.105   1.378
 8502SOL    HW226406   0.572   6.156   1.460
 8503SOL     OW26407   1.483   4.865   3.485
 8503SOL    HW126408   1.538   4.783   3.498
 8503SOL    HW226409   1.542   4.941   3.459
 8504SOL     OW26410   2.033   5.975   3.625
 8504SOL    HW126411   2.071   6.048   3.569
 8504SOL    HW226412   1.980   6.015   3.700
 8505SOL     OW26413   5.541   4.166   3.767
 8505SOL    HW126414   5.453   4.177   3.812
 8505SOL    HW226415   5.596   4.099   3.817
 8506SOL     OW26416   0.948   6.547   0.333
 8506SOL    HW126417   0.936   6.595   0.421
 8506SOL    HW226418   1.027   6.487   0.339
 8507SOL     OW26419   2.407   0.968   5.805
 8507SOL    HW126420   2.333   0.902   5.814
 8507SOL    HW226421   2.452   0.980   5.893
 8508SOL     OW26422   6.589   2.422   5.156
 8508SOL    HW126423   6.571   2.517   5.129
 8508SOL    HW226424   6.651   2.380   5.089
 8509SOL     OW26425   6.025   0.914   4.231
 8509SOL    HW126426   6.086   0.878   4.160
 8509SOL    HW226427   5.938   0.864   4.228
 8510SOL     OW26428   6.073   5.593   3.176
 8510SOL    HW126429   6.097   5.529   3.249
 8510SOL    HW226430   6.157   5.632   3.138
 8511SOL     OW26431   6.396   4.622   0.474
 8511SOL    HW126432   6.438   4.581   0.392
 8511SOL    HW226433   6.452   4.600   0.554
 8512SOL     OW26434   4.179   2.499   0.133
 8512SOL    HW126435   4.177   2.590   0.173
 8512SOL    HW226436   4.221   2.504   0.042
 8513SOL     OW26437   5.254   3.737   0.200
 8513SOL    HW126438   5.275   3.710   0.294
 8513SOL    HW226439   5.155   3.737   0.186
 8514SOL     OW26440   3.198   1.604   3.979
 8514SOL    HW126441   3.221   1.621   4.075
 8514SOL    HW226442   3.099   1.604   3.968
 8515SOL     OW26443   0.582   1.496   6.945
 8515SOL    HW126444   0.555   1.409   6.905
 8515SOL    HW226445   0.681   1.499   6.955
 8516SOL     OW26446   5.837   2.619   2.357
 8516SOL    HW126447   5.835   2.680   2.436
 8516SOL    HW226448   5.872   2.668   2.278
 8517SOL     OW26449   2.295   2.798   5.819
 8517SOL    HW126450   2.358   2.847   5.759
 8517SOL    HW226451   2.217   2.765   5.765
 8518SOL     OW26452   5.039   4.346   6.248
 8518SOL    HW126453   4.991   4.321   6.163
 8518SOL    HW226454   5.053   4.445   6.250
 8519SOL     OW26455   1.240   4.575   0.803
 8519SOL    HW126456   1.196   4.623   0.727
 8519SOL    HW226457   1.179   4.505   0.839
 8520SOL     OW26458   3.847   3.881   5.139
 8520SOL    HW126459   3.825   3.860   5.235
 8520SOL    HW226460   3.922   3.821   5.109
 8521SOL     OW26461   1.795   6.331   5.570
 8521SOL    HW126462   1.847   6.287   5.643
 8521SOL    HW226463   1.725   6.268   5.536
 8522SOL     OW26464   1.221   0.613   1.123
 8522SOL    HW126465   1.313   0.638   1.155
 8522SOL    HW226466   1.170   0.697   1.101
 8523SOL     OW26467   2.816   6.751   6.334
 8523SOL    HW126468   2.824   6.653   6.318
 8523SOL    HW226469   2.756   6.791   6.265
 8524SOL     OW26470   1.309   4.742   4.844
 8524SOL    HW126471   1.294   4.772   4.750
 8524SOL    HW226472   1.327   4.643   4.845
 8525SOL     OW26473   6.006   4.878   0.662
 8525SOL    HW126474   6.051   4.802   0.616
 8525SOL    HW226475   5.977   4.946   0.594
 8526SOL     OW26476   3.123   6.908   1.301
 8526SOL    HW126477   3.099   6.895   1.397
 8526SOL    HW226478   3.161   6.999   1.288
 8527SOL     OW26479   3.226   0.667   7.024
 8527SOL    HW126480   3.243   0.634   6.931
 8527SOL    HW226481   3.142   0.625   0.033
 8528SOL     OW26482   4.683   1.565   1.140
 8528SOL    HW126483   4.624   1.639   1.109
 8528SOL    HW226484   4.626   1.487   1.168
 8529SOL     OW26485   1.096   6.280   6.805
 8529SOL    HW126486   1.023   6.340   6.839
 8529SOL    HW226487   1.134   6.317   6.721
 8530SOL     OW26488   2.939   3.828   3.921
 8530SOL    HW126489   3.002   3.905   3.930
 8530SOL    HW226490   2.882   3.841   3.840
 8531SOL     OW26491   6.945   5.728   3.616
 8531SOL    HW126492   6.922   5.818   3.653
 8531SOL    HW226493   7.024   5.736   3.555
 8532SOL     OW26494   3.630   6.615   4.071
 8532SOL    HW126495   3.542   6.570   4.055
 8532SOL    HW226496   3.638   6.640   4.167
 8533SOL     OW26497   0.763   6.009   6.821
 8533SOL    HW126498   0.747   6.092   6.875
 8533SOL    HW226499   0.727   5.930   6.870
 8534SOL     OW26500   4.545   2.509   4.061
 8534SOL    HW126501   4.597   2.455   3.994
 8534SOL    HW226502   4.542   2.604   4.031
 8535SOL     OW26503   5.422   1.212   4.324
 8535SOL    HW126504   5.339   1.244   4.278
 8535SOL    HW226505   5.399   1.184   4.418
 8536SOL     OW26506   0.860   1.800   5.087
 8536SOL    HW126507   0.957   1.818   5.099
 8536SOL    HW226508   0.839   1.791   4.989
 8537SOL     OW26509   6.232   1.276   3.248
 8537SOL    HW126510   6.240   1.283   3.347
 8537SOL    HW226511   6.210   1.181   3.223
 8538SOL     OW26512   1.813   1.618   0.325
 8538SOL    HW126513   1.744   1.681   0.360
 8538SOL    HW226514   1.767   1.538   0.284
 8539SOL     OW26515   6.050   2.225   2.271
 8539SOL    HW126516   6.055   2.197   2.175
 8539SOL    HW226517   6.072   2.146   2.329
 8540SOL     OW26518   4.858   6.965   6.545
 8540SOL    HW126519   4.797   6.903   6.595
 8540SOL    HW226520   4.952   6.930   6.549
 8541SOL     OW26521   2.881   1.879   3.994
 8541SOL    HW126522   2.911   1.888   3.899
 8541SOL    HW226523   2.878   1.969   4.037
 8542SOL     OW26524   3.630   5.508   6.652
 8542SOL    HW126525   3.631   5.414   6.620
 8542SOL    HW226526   3.537   5.534   6.680
 8543SOL     OW26527   1.922   2.043   0.805
 8543SOL    HW126528   1.975   1.973   0.758
 8543SOL    HW226529   1.897   2.115   0.740
 8544SOL     OW26530   5.149   2.908   4.770
 8544SOL    HW126531   5.074   2.908   4.704
 8544SOL    HW226532   5.159   3.000   4.808
 8545SOL     OW26533   4.879   6.492   6.310
 8545SOL    HW126534   4.912   6.567   6.253
 8545SOL    HW226535   4.913   6.503   6.403
 8546SOL     OW26536   6.086   2.097   3.499
 8546SOL    HW126537   6.132   2.010   3.520
 8546SOL    HW226538   6.116   2.167   3.564
 8547SOL     OW26539   1.564   5.567   5.551
 8547SOL    HW126540   1.526   5.659   5.544
 8547SOL    HW226541   1.519   5.507   5.484
 8548SOL     OW26542   5.767   1.721   5.505
 8548SOL    HW126543   5.764   1.821   5.507
 8548SOL    HW226544   5.806   1.688   5.591
 8549SOL     OW26545   6.749   4.090   3.639
 8549SOL    HW126546   6.794   4.001   3.636
 8549SOL    HW226547   6.771   4.136   3.725
 8550SOL     OW26548   1.664   4.867   6.930
 8550SOL    HW126549   1.736   4.801   6.953
 8550SOL    HW226550   1.640   4.858   6.834
 8551SOL     OW26551   3.444   4.144   6.608
 8551SOL    HW126552   3.405   4.203   6.538
 8551SOL    HW226553   3.408   4.170   6.698
 8552SOL     OW26554   3.205   5.546   3.299
 8552SOL    HW126555   3.105   5.542   3.311
 8552SOL    HW226556   3.229   5.626   3.245
 8553SOL     OW26557   5.343   6.065   0.112
 8553SOL    HW126558   5.260   6.077   0.057
 8553SOL    HW226559   5.408   6.138   0.090
 8554SOL     OW26560   0.344   4.269   0.353
 8554SOL    HW126561   0.340   4.211   0.271
 8554SOL    HW226562   0.439   4.278   0.382
 8555SOL     OW26563   0.912   0.276   3.496
 8555SOL    HW126564   0.982   0.205   3.483
 8555SOL    HW226565   0.926   0.349   3.429
 8556SOL     OW26566   0.437   0.520   3.134
 8556SOL    HW126567   0.424   0.539   3.232
 8556SOL    HW226568   0.375   0.447   3.105
 8557SOL     OW26569   6.511   6.732   2.072
 8557SOL    HW126570   6.504   6.798   1.997
 8557SOL    HW226571   6.422   6.690   2.088
 8558SOL     OW26572   2.257   5.586   2.501
 8558SOL    HW126573   2.171   5.542   2.530
 8558SOL    HW226574   2.240   5.683   2.484
 8559SOL     OW26575   1.027   0.904   2.126
 8559SOL    HW126576   1.075   0.990   2.108
 8559SOL    HW226577   1.042   0.877   2.221
 8560SOL     OW26578   0.217   1.081   0.284
 8560SOL    HW126579   0.136   1.100   0.340
 8560SOL    HW226580   0.212   0.988   0.248
 8561SOL     OW26581   4.382   6.219   2.605
 8561SOL    HW126582   4.299   6.274   2.611
 8561SOL    HW226583   4.358   6.123   2.594
 8562SOL     OW26584   4.252   6.723   4.624
 8562SOL    HW126585   4.273   6.640   4.676
 8562SOL    HW226586   4.302   6.722   4.538
 8563SOL     OW26587   3.021   3.339   0.022
 8563SOL    HW126588   2.994   3.243   0.031
 8563SOL    HW226589   2.942   3.394   7.023
 8564SOL     OW26590   1.246   0.486   3.622
 8564SOL    HW126591   1.264   0.457   3.716
 8564SOL    HW226592   1.159   0.534   3.618
 8565SOL     OW26593   3.769   0.118   1.020
 8565SOL    HW126594   3.828   0.104   1.099
 8565SOL    HW226595   3.810   0.188   0.961
 8566SOL     OW26596   1.321   2.246   3.007
 8566SOL    HW126597   1.374   2.197   3.075
 8566SOL    HW226598   1.373   2.251   2.921
 8567SOL     OW26599   5.911   1.512   1.566
 8567SOL    HW126600   5.957   1.507   1.477
 8567SOL    HW226601   5.819   1.475   1.557
 8568SOL     OW26602   4.751   1.752   0.446
 8568SOL    HW126603   4.819   1.812   0.404
 8568SOL    HW226604   4.676   1.807   0.481
 8569SOL     OW26605   4.391   0.666   4.843
 8569SOL    HW126606   4.449   0.595   4.804
 8569SOL    HW226607   4.341   0.628   4.921
 8570SOL     OW26608   1.238   4.415   6.065
 8570SOL    HW126609   1.274   4.347   6.128
 8570SOL    HW226610   1.211   4.497   6.116
 8571SOL     OW26611   6.919   4.422   4.934
 8571SOL    HW126612   6.978   4.496   4.966
 8571SOL    HW226613   6.955   4.386   4.848
 8572SOL     OW26614   2.022   5.211   5.358
 8572SOL    HW126615   2.071   5.297   5.343
 8572SOL    HW226616   1.931   5.231   5.396
 8573SOL     OW26617   4.187   5.897   6.788
 8573SOL    HW126618   4.091   5.905   6.762
 8573SOL    HW226619   4.194   5.869   6.884
 8574SOL     OW26620   0.789   4.606   6.068
 8574SOL    HW126621   0.810   4.537   6.138
 8574SOL    HW226622   0.834   4.692   6.092
 8575SOL     OW26623   3.357   2.840   6.853
 8575SOL    HW126624   3.453   2.819   6.873
 8575SOL    HW226625   3.314   2.759   6.813
 8576SOL     OW26626   0.922   6.765   2.277
 8576SOL    HW126627   0.932   6.666   2.269
 8576SOL    HW226628   0.841   6.786   2.331
 8577SOL     OW26629   6.325   5.730   3.413
 8577SOL    HW126630   6.398   5.698   3.474
 8577SOL    HW226631   6.364   5.750   3.323
 8578SOL     OW26632   4.446   6.989   4.125
 8578SOL    HW126633   4.534   7.015   4.084
 8578SOL    HW226634   4.439   0.002   4.217
 8579SOL     OW26635   1.033   4.793   3.479
 8579SOL    HW126636   1.089   4.866   3.519
 8579SOL    HW226637   1.026   4.808   3.381
 8580SOL     OW26638   1.638   6.346   2.000
 8580SOL    HW126639   1.549   6.385   2.020
 8580SOL    HW226640   1.636   6.302   1.910
 8581SOL     OW26641   3.494   1.887   0.869
 8581SOL    HW126642   3.452   1.887   0.960
 8581SOL    HW226643   3.592   1.867   0.878
 8582SOL     OW26644   4.877   4.762   2.226
 8582SOL    HW126645   4.875   4.736   2.130
 8582SOL    HW226646   4.907   4.685   2.282
 8583SOL     OW26647   6.546   0.596   6.339
 8583SOL    HW126648   6.624   0.657   6.356
 8583SOL    HW226649   6.577   0.501   6.339
 8584SOL     OW26650   6.893   4.499   0.573
 8584SOL    HW126651   6.951   4.520   0.652
 8584SOL    HW226652   6.943   4.441   0.509
 8585SOL     OW26653   0.409   0.765   0.610
 8585SOL    HW126654   0.318   0.739   0.642
 8585SOL    HW226655   0.406   0.857   0.571
 8586SOL     OW26656   3.563   5.987   2.920
 8586SOL    HW126657   3.632   6.026   2.858
 8586SOL    HW226658   3.472   6.005   2.883
 8587SOL     OW26659   0.854   1.863   2.884
 8587SOL    HW126660   0.754   1.864   2.882
 8587SOL    HW226661   0.889   1.876   2.792
 8588SOL     OW26662   3.629   2.080   0.616
 8588SOL    HW126663   3.564   2.019   0.661
 8588SOL    HW226664   3.608   2.175   0.640
 8589SOL     OW26665   3.607   1.090   4.866
 8589SOL    HW126666   3.545   1.021   4.828
 8589SOL    HW226667   3.637   1.152   4.793
 8590SOL     OW26668   6.799   5.457   4.438
 8590SOL    HW126669   6.714   5.449   4.387
 8590SOL    HW226670   6.779   5.483   4.533
 8591SOL     OW26671   1.030   4.012   6.332
 8591SOL    HW126672   1.089   3.958   6.271
 8591SOL    HW226673   0.936   4.010   6.297
 8592SOL     OW26674   0.069   4.187   0.353
 8592SOL    HW126675   0.051   4.128   0.432
 8592SOL    HW226676   0.164   4.217   0.355
 8593SOL     OW26677   1.435   6.865   2.244
 8593SOL    HW126678   1.435   6.952   2.194
 8593SOL    HW226679   1.384   6.876   2.329
 8594SOL     OW26680   3.328   4.150   4.170
 8594SOL    HW126681   3.419   4.109   4.179
 8594SOL    HW226682   3.278   4.138   4.256
 8595SOL     OW26683   2.021   2.095   2.574
 8595SOL    HW126684   2.003   2.127   2.481
 8595SOL    HW226685   1.941   2.045   2.608
 8596SOL     OW26686   5.362   5.068   1.910
 8596SOL    HW126687   5.339   5.047   1.815
 8596SOL    HW226688   5.453   5.031   1.931
 8597SOL     OW26689   3.185   1.767   0.930
 8597SOL    HW126690   3.124   1.781   1.008
 8597SOL    HW226691   3.160   1.683   0.882
 8598SOL     OW26692   6.324   4.880   1.040
 8598SOL    HW126693   6.251   4.861   0.974
 8598SOL    HW226694   6.300   4.839   1.128
 8599SOL     OW26695   0.864   2.684   3.681
 8599SOL    HW126696   0.820   2.728   3.759
 8599SOL    HW226697   0.956   2.723   3.668
 8600SOL     OW26698   6.566   5.014   6.583
 8600SOL    HW126699   6.524   4.977   6.500
 8600SOL    HW226700   6.639   4.953   6.613
 8601SOL     OW26701   0.174   1.192   4.293
 8601SOL    HW126702   0.231   1.201   4.374
 8601SOL    HW226703   0.166   1.281   4.247
 8602SOL     OW26704   2.947   6.086   2.560
 8602SOL    HW126705   2.929   6.156   2.629
 8602SOL    HW226706   2.906   6.114   2.473
 8603SOL     OW26707   3.922   3.619   0.347
 8603SOL    HW126708   4.018   3.638   0.367
 8603SOL    HW226709   3.916   3.561   0.266
 8604SOL     OW26710   5.761   3.157   3.558
 8604SOL    HW126711   5.758   3.066   3.601
 8604SOL    HW226712   5.774   3.226   3.629
 8605SOL     OW26713   3.213   5.311   3.936
 8605SOL    HW126714   3.272   5.357   3.870
 8605SOL    HW226715   3.240   5.335   4.028
 8606SOL     OW26716   3.113   4.615   6.268
 8606SOL    HW126717   3.083   4.604   6.173
 8606SOL    HW226718   3.050   4.567   6.329
 8607SOL     OW26719   3.462   5.408   1.561
 8607SOL    HW126720   3.520   5.447   1.632
 8607SOL    HW226721   3.418   5.325   1.596
 8608SOL     OW26722   4.294   4.756   2.708
 8608SOL    HW126723   4.328   4.676   2.658
 8608SOL    HW226724   4.370   4.815   2.733
 8609SOL     OW26725   3.794   0.523   4.814
 8609SOL    HW126726   3.709   0.495   4.769
 8609SOL    HW226727   3.835   0.444   4.860
 8610SOL     OW26728   1.243   6.894   3.275
 8610SOL    HW126729   1.247   6.870   3.178
 8610SOL    HW226730   1.269   6.815   3.330
 8611SOL     OW26731   1.241   2.173   4.684
 8611SOL    HW126732   1.170   2.136   4.624
 8611SOL    HW226733   1.264   2.266   4.656
 8612SOL     OW26734   3.021   3.306   6.603
 8612SOL    HW126735   3.030   3.336   6.508
 8612SOL    HW226736   3.081   3.227   6.618
 8613SOL     OW26737   1.697   1.676   1.112
 8613SOL    HW126738   1.795   1.694   1.124
 8613SOL    HW226739   1.653   1.757   1.073
 8614SOL     OW26740   0.868   3.784   2.960
 8614SOL    HW126741   0.964   3.790   2.935
 8614SOL    HW226742   0.836   3.690   2.949
 8615SOL     OW26743   4.330   1.871   5.505
 8615SOL    HW126744   4.333   1.843   5.601
 8615SOL    HW226745   4.394   1.816   5.452
 8616SOL     OW26746   0.844   4.851   0.173
 8616SOL    HW126747   0.769   4.912   0.199
 8616SOL    HW226748   0.887   4.814   0.256
 8617SOL     OW26749   6.621   1.965   0.586
 8617SOL    HW126750   6.640   1.947   0.490
 8617SOL    HW226751   6.590   1.881   0.630
 8618SOL     OW26752   4.742   6.656   2.549
 8618SOL    HW126753   4.716   6.753   2.557
 8618SOL    HW226754   4.761   6.634   2.454
 8619SOL     OW26755   4.221   4.982   6.953
 8619SOL    HW126756   4.178   5.070   6.974
 8619SOL    HW226757   4.155   4.908   6.971
 8620SOL     OW26758   5.665   6.658   2.777
 8620SOL    HW126759   5.630   6.588   2.839
 8620SOL    HW226760   5.742   6.705   2.821
 8621SOL     OW26761   6.293   1.282   3.952
 8621SOL    HW126762   6.298   1.382   3.953
 8621SOL    HW226763   6.263   1.250   4.042
 8622SOL     OW26764   4.477   4.775   0.325
 8622SOL    HW126765   4.539   4.730   0.261
 8622SOL    HW226766   4.385   4.780   0.285
 8623SOL     OW26767   0.837   3.985   2.740
 8623SOL    HW126768   0.788   4.022   2.819
 8623SOL    HW226769   0.925   3.948   2.769
 8624SOL     OW26770   1.311   4.156   3.395
 8624SOL    HW126771   1.236   4.146   3.330
 8624SOL    HW226772   1.285   4.115   3.482
 8625SOL     OW26773   4.508   0.901   4.772
 8625SOL    HW126774   4.510   0.998   4.796
 8625SOL    HW226775   4.431   0.857   4.817
 8626SOL     OW26776   3.379   3.607   4.048
 8626SOL    HW126777   3.310   3.625   4.119
 8626SOL    HW226778   3.372   3.678   3.977
 8627SOL     OW26779   1.353   1.032   1.445
 8627SOL    HW126780   1.425   0.963   1.444
 8627SOL    HW226781   1.331   1.056   1.539
 8628SOL     OW26782   6.703   0.506   0.077
 8628SOL    HW126783   6.778   0.544   0.132
 8628SOL    HW226784   6.739   0.437   0.015
 8629SOL     OW26785   1.103   5.313   4.212
 8629SOL    HW126786   1.181   5.261   4.179
 8629SOL    HW226787   1.020   5.282   4.165
 8630SOL     OW26788   5.675   3.541   4.004
 8630SOL    HW126789   5.587   3.519   3.964
 8630SOL    HW226790   5.671   3.631   4.048
 8631SOL     OW26791   3.963   5.515   5.764
 8631SOL    HW126792   3.997   5.609   5.759
 8631SOL    HW226793   4.038   5.451   5.743
 8632SOL     OW26794   3.820   0.146   3.580
 8632SOL    HW126795   3.867   0.095   3.508
 8632SOL    HW226796   3.725   0.162   3.553
 8633SOL     OW26797   5.629   1.102   3.775
 8633SOL    HW126798   5.656   1.081   3.869
 8633SOL    HW226799   5.607   1.199   3.767
 8634SOL     OW26800   6.520   4.206   1.787
 8634SOL    HW126801   6.562   4.279   1.735
 8634SOL    HW226802   6.465   4.149   1.726
 8635SOL     OW26803   6.022   3.776   6.021
 8635SOL    HW126804   6.049   3.787   5.925
 8635SOL    HW226805   5.928   3.809   6.032
 8636SOL     OW26806   6.034   5.375   0.248
 8636SOL    HW126807   5.969   5.447   0.223
 8636SOL    HW226808   6.106   5.413   0.305
 8637SOL     OW26809   1.727   0.944   0.387
 8637SOL    HW126810   1.780   0.920   0.469
 8637SOL    HW226811   1.630   0.922   0.403
 8638SOL     OW26812   2.041   4.244   6.992
 8638SOL    HW126813   2.054   4.184   6.913
 8638SOL    HW226814   2.124   4.243   0.022
 8639SOL     OW26815   5.114   2.942   2.304
 8639SOL    HW126816   5.045   2.935   2.376
 8639SOL    HW226817   5.108   2.861   2.245
 8640SOL     OW26818   4.331   3.887   0.755
 8640SOL    HW126819   4.344   3.873   0.854
 8640SOL    HW226820   4.286   3.975   0.740
 8641SOL     OW26821   0.073   4.216   2.988
 8641SOL    HW126822   0.081   4.117   3.000
 8641SOL    HW226823   0.157   4.260   3.019
 8642SOL     OW26824   5.083   0.504   2.243
 8642SOL    HW126825   5.029   0.549   2.172
 8642SOL    HW226826   5.027   0.435   2.289
 8643SOL     OW26827   4.301   0.312   6.870
 8643SOL    HW126828   4.351   0.280   6.789
 8643SOL    HW226829   4.299   0.412   6.871
 8644SOL     OW26830   5.605   2.231   5.243
 8644SOL    HW126831   5.563   2.214   5.332
 8644SOL    HW226832   5.656   2.317   5.246
 8645SOL     OW26833   6.354   4.331   0.703
 8645SOL    HW126834   6.394   4.384   0.627
 8645SOL    HW226835   6.257   4.356   0.713
 8646SOL     OW26836   4.681   1.160   0.710
 8646SOL    HW126837   4.597   1.111   0.736
 8646SOL    HW226838   4.687   1.244   0.765
 8647SOL     OW26839   3.645   5.091   0.190
 8647SOL    HW126840   3.600   5.018   0.242
 8647SOL    HW226841   3.661   5.169   0.250
 8648SOL     OW26842   5.787   0.626   3.960
 8648SOL    HW126843   5.811   0.696   4.028
 8648SOL    HW226844   5.800   0.662   3.868
 8649SOL     OW26845   6.325   3.888   5.763
 8649SOL    HW126846   6.227   3.868   5.764
 8649SOL    HW226847   6.372   3.819   5.707
 8650SOL     OW26848   1.633   5.092   4.262
 8650SOL    HW126849   1.645   5.016   4.326
 8650SOL    HW226850   1.635   5.057   4.168
 8651SOL     OW26851   3.927   1.248   0.353
 8651SOL    HW126852   3.967   1.332   0.315
 8651SOL    HW226853   3.857   1.213   0.291
 8652SOL     OW26854   1.941   4.051   3.701
 8652SOL    HW126855   1.947   4.125   3.769
 8652SOL    HW226856   1.921   4.091   3.611
 8653SOL     OW26857   6.929   2.214   5.911
 8653SOL    HW126858   6.909   2.123   5.876
 8653SOL    HW226859   6.958   2.208   6.006
 8654SOL     OW26860   0.123   6.359   2.887
 8654SOL    HW126861   0.113   6.358   2.788
 8654SOL    HW226862   0.075   6.280   2.926
 8655SOL     OW26863   6.282   0.028   3.923
 8655SOL    HW126864   6.321   0.041   4.015
 8655SOL    HW226865   6.184   0.047   3.925
 8656SOL     OW26866   6.095   0.900   1.315
 8656SOL    HW126867   6.177   0.955   1.331
 8656SOL    HW226868   6.112   0.835   1.241
 8657SOL     OW26869   4.793   5.034   5.960
 8657SOL    HW126870   4.851   5.045   5.880
 8657SOL    HW226871   4.704   5.076   5.943
 8658SOL     OW26872   5.134   4.866   0.064
 8658SOL    HW126873   5.157   4.769   0.059
 8658SOL    HW226874   5.076   4.883   0.144
 8659SOL     OW26875   4.430   0.516   3.514
 8659SOL    HW126876   4.443   0.612   3.492
 8659SOL    HW226877   4.507   0.463   3.480
 8660SOL     OW26878   6.276   4.167   6.735
 8660SOL    HW126879   6.253   4.265   6.732
 8660SOL    HW226880   6.192   4.113   6.738
 8661SOL     OW26881   5.875   3.822   1.646
 8661SOL    HW126882   5.793   3.772   1.673
 8661SOL    HW226883   5.944   3.815   1.717
 8662SOL     OW26884   5.856   6.556   1.379
 8662SOL    HW126885   5.945   6.545   1.335
 8662SOL    HW226886   5.791   6.492   1.338
 8663SOL     OW26887   2.327   5.459   0.837
 8663SOL    HW126888   2.427   5.455   0.832
 8663SOL    HW226889   2.293   5.381   0.891
 8664SOL     OW26890   4.445   5.492   6.816
 8664SOL    HW126891   4.468   5.420   6.882
 8664SOL    HW226892   4.493   5.476   6.730
 8665SOL     OW26893   4.813   5.511   5.502
 8665SOL    HW126894   4.837   5.608   5.509
 8665SOL    HW226895   4.855   5.472   5.420
 8666SOL     OW26896   4.594   1.772   5.041
 8666SOL    HW126897   4.674   1.730   4.998
 8666SOL    HW226898   4.512   1.744   4.992
 8667SOL     OW26899   5.180   1.752   3.379
 8667SOL    HW126900   5.196   1.782   3.473
 8667SOL    HW226901   5.246   1.797   3.318
 8668SOL     OW26902   5.385   2.423   4.205
 8668SOL    HW126903   5.387   2.522   4.216
 8668SOL    HW226904   5.302   2.386   4.247
 8669SOL     OW26905   3.708   0.607   6.300
 8669SOL    HW126906   3.710   0.671   6.223
 8669SOL    HW226907   3.741   0.518   6.271
 8670SOL     OW26908   3.598   5.294   4.622
 8670SOL    HW126909   3.599   5.335   4.713
 8670SOL    HW226910   3.511   5.245   4.609
 8671SOL     OW26911   5.806   0.232   3.842
 8671SOL    HW126912   5.834   0.322   3.874
 8671SOL    HW226913   5.715   0.211   3.878
 8672SOL     OW26914   2.705   5.359   4.483
 8672SOL    HW126915   2.744   5.314   4.402
 8672SOL    HW226916   2.663   5.446   4.455
 8673SOL     OW26917   0.752   2.002   6.758
 8673SOL    HW126918   0.670   1.946   6.746
 8673SOL    HW226919   0.744   2.057   6.840
 8674SOL     OW26920   6.957   6.776   2.485
 8674SOL    HW126921   7.003   6.687   2.481
 8674SOL    HW226922   6.861   6.762   2.510
 8675SOL     OW26923   2.884   1.824   4.427
 8675SOL    HW126924   2.929   1.829   4.338
 8675SOL    HW226925   2.936   1.877   4.494
 8676SOL     OW26926   3.061   0.760   2.981
 8676SOL    HW126927   3.015   0.737   2.894
 8676SOL    HW226928   3.006   0.727   3.057
 8677SOL     OW26929   2.394   5.927   6.307
 8677SOL    HW126930   2.385   5.828   6.296
 8677SOL    HW226931   2.336   5.957   6.383
 8678SOL     OW26932   0.867   0.398   0.225
 8678SOL    HW126933   0.855   0.326   0.157
 8678SOL    HW226934   0.846   0.361   0.316
 8679SOL     OW26935   5.668   1.944   4.611
 8679SOL    HW126936   5.691   1.847   4.617
 8679SOL    HW226937   5.729   1.996   4.671
 8680SOL     OW26938   1.660   3.902   1.198
 8680SOL    HW126939   1.744   3.878   1.150
 8680SOL    HW226940   1.623   3.987   1.160
 8681SOL     OW26941   4.897   4.680   6.837
 8681SOL    HW126942   4.857   4.598   6.796
 8681SOL    HW226943   4.855   4.698   6.926
 8682SOL     OW26944   3.391   6.561   3.372
 8682SOL    HW126945   3.380   6.611   3.458
 8682SOL    HW226946   3.466   6.600   3.320
 8683SOL     OW26947   1.406   3.018   1.756
 8683SOL    HW126948   1.317   2.973   1.763
 8683SOL    HW226949   1.393   3.118   1.754
 8684SOL     OW26950   6.934   2.824   4.767
 8684SOL    HW126951   6.881   2.740   4.753
 8684SOL    HW226952   7.004   2.808   4.837
 8685SOL     OW26953   1.561   2.314   5.832
 8685SOL    HW126954   1.609   2.396   5.803
 8685SOL    HW226955   1.575   2.299   5.930
 8686SOL     OW26956   6.688   2.262   2.258
 8686SOL    HW126957   6.601   2.284   2.302
 8686SOL    HW226958   6.697   2.163   2.248
 8687SOL     OW26959   3.496   6.507   2.701
 8687SOL    HW126960   3.462   6.415   2.722
 8687SOL    HW226961   3.429   6.554   2.643
 8688SOL     OW26962   2.745   6.710   0.853
 8688SOL    HW126963   2.718   6.623   0.812
 8688SOL    HW226964   2.836   6.736   0.822
 8689SOL     OW26965   3.937   5.818   0.159
 8689SOL    HW126966   3.874   5.744   0.182
 8689SOL    HW226967   3.936   5.886   0.233
 8690SOL     OW26968   1.071   2.140   4.245
 8690SOL    HW126969   1.156   2.173   4.206
 8690SOL    HW226970   1.015   2.097   4.174
 8691SOL     OW26971   4.481   2.741   6.409
 8691SOL    HW126972   4.506   2.836   6.387
 8691SOL    HW226973   4.474   2.730   6.508
 8692SOL     OW26974   3.094   1.947   3.190
 8692SOL    HW126975   3.139   2.032   3.217
 8692SOL    HW226976   3.000   1.947   3.225
 8693SOL     OW26977   5.271   2.065   1.171
 8693SOL    HW126978   5.211   2.141   1.193
 8693SOL    HW226979   5.366   2.091   1.189
 8694SOL     OW26980   4.878   0.539   6.395
 8694SOL    HW126981   4.872   0.550   6.495
 8694SOL    HW226982   4.794   0.495   6.362
 8695SOL     OW26983   4.444   2.889   6.074
 8695SOL    HW126984   4.357   2.934   6.055
 8695SOL    HW226985   4.464   2.895   6.172
 8696SOL     OW26986   3.579   5.793   1.059
 8696SOL    HW126987   3.667   5.797   1.011
 8696SOL    HW226988   3.507   5.767   0.994
 8697SOL     OW26989   6.476   3.625   6.794
 8697SOL    HW126990   6.425   3.566   6.856
 8697SOL    HW226991   6.560   3.656   6.840
 8698SOL     OW26992   5.191   5.559   4.158
 8698SOL    HW126993   5.274   5.616   4.152
 8698SOL    HW226994   5.146   5.557   4.069
 8699SOL     OW26995   1.342   2.596   5.343
 8699SOL    HW126996   1.285   2.674   5.370
 8699SOL    HW226997   1.301   2.512   5.377
 8700SOL     OW26998   2.251   0.616   4.762
 8700SOL    HW126999   2.317   0.614   4.837
 8700SOL    HW227000   2.196   0.532   4.764
 8701SOL     OW27001   0.596   0.920   5.939
 8701SOL    HW127002   0.622   0.868   6.020
 8701SOL    HW227003   0.537   0.996   5.965
 8702SOL     OW27004   5.278   4.362   6.824
 8702SOL    HW127005   5.277   4.462   6.824
 8702SOL    HW227006   5.351   4.330   6.884
 8703SOL     OW27007   3.328   5.873   1.835
 8703SOL    HW127008   3.287   5.783   1.850
 8703SOL    HW227009   3.426   5.862   1.814
 8704SOL     OW27010   6.458   4.040   2.647
 8704SOL    HW127011   6.427   3.949   2.673
 8704SOL    HW227012   6.557   4.038   2.634
 8705SOL     OW27013   4.839   0.658   6.683
 8705SOL    HW127014   4.925   0.692   6.720
 8705SOL    HW227015   4.789   0.733   6.640
 8706SOL     OW27016   5.011   2.029   6.434
 8706SOL    HW127017   5.035   2.116   6.475
 8706SOL    HW227018   4.914   2.010   6.449
 8707SOL     OW27019   4.182   3.026   0.175
 8707SOL    HW127020   4.203   2.932   0.199
 8707SOL    HW227021   4.083   3.035   0.160
 8708SOL     OW27022   3.703   0.728   2.324
 8708SOL    HW127023   3.729   0.645   2.374
 8708SOL    HW227024   3.623   0.769   2.366
 8709SOL     OW27025   6.809   4.765   6.932
 8709SOL    HW127026   6.797   4.829   7.008
 8709SOL    HW227027   6.886   4.795   6.874
 8710SOL     OW27028   1.579   2.877   3.091
 8710SOL    HW127029   1.482   2.858   3.104
 8710SOL    HW227030   1.595   2.904   2.996
 8711SOL     OW27031   0.248   6.774   2.697
 8711SOL    HW127032   0.195   6.700   2.739
 8711SOL    HW227033   0.275   6.839   2.768
 8712SOL     OW27034   3.536   2.061   3.560
 8712SOL    HW127035   3.553   1.965   3.541
 8712SOL    HW227036   3.438   2.076   3.574
 8713SOL     OW27037   0.046   4.022   3.599
 8713SOL    HW127038   7.024   4.007   3.513
 8713SOL    HW227039   0.047   4.120   3.621
 8714SOL     OW27040   0.819   0.788   5.838
 8714SOL    HW127041   0.827   0.746   5.928
 8714SOL    HW227042   0.751   0.861   5.841
 8715SOL     OW27043   5.877   0.865   1.025
 8715SOL    HW127044   5.882   0.768   1.050
 8715SOL    HW227045   5.807   0.910   1.081
 8716SOL     OW27046   1.045   1.706   1.024
 8716SOL    HW127047   1.066   1.721   0.927
 8716SOL    HW227048   1.065   1.611   1.048
 8717SOL     OW27049   4.084   3.560   2.393
 8717SOL    HW127050   4.067   3.654   2.422
 8717SOL    HW227051   4.157   3.521   2.449
 8718SOL     OW27052   0.341   2.642   5.205
 8718SOL    HW127053   0.294   2.695   5.276
 8718SOL    HW227054   0.277   2.575   5.167
 8719SOL     OW27055   1.313   0.832   5.165
 8719SOL    HW127056   1.246   0.889   5.213
 8719SOL    HW227057   1.405   0.869   5.179
 8720SOL     OW27058   6.594   4.750   5.119
 8720SOL    HW127059   6.529   4.745   5.195
 8720SOL    HW227060   6.656   4.672   5.123
 8721SOL     OW27061   6.173   2.393   4.434
 8721SOL    HW127062   6.230   2.312   4.443
 8721SOL    HW227063   6.213   2.455   4.367
 8722SOL     OW27064   3.564   0.985   0.763
 8722SOL    HW127065   3.534   1.072   0.802
 8722SOL    HW227066   3.486   0.939   0.721
 8723SOL     OW27067   6.180   5.766   1.032
 8723SOL    HW127068   6.215   5.820   1.109
 8723SOL    HW227069   6.115   5.821   0.980
 8724SOL     OW27070   6.064   0.037   5.527
 8724SOL    HW127071   6.052   0.098   5.606
 8724SOL    HW227072   6.083   0.091   5.446
 8725SOL     OW27073   1.732   1.109   6.972
 8725SOL    HW127074   1.830   1.119   6.953
 8725SOL    HW227075   1.704   1.015   6.952
 8726SOL     OW27076   5.732   0.221   1.283
 8726SOL    HW127077   5.674   0.158   1.335
 8726SOL    HW227078   5.809   0.171   1.243
 8727SOL     OW27079   6.510   6.360   2.184
 8727SOL    HW127080   6.518   6.382   2.086
 8727SOL    HW227081   6.445   6.286   2.196
 8728SOL     OW27082   3.472   0.196   5.152
 8728SOL    HW127083   3.458   0.246   5.067
 8728SOL    HW227084   3.570   0.183   5.167
 8729SOL     OW27085   4.503   5.267   3.101
 8729SOL    HW127086   4.448   5.184   3.100
 8729SOL    HW227087   4.444   5.347   3.090
 8730SOL     OW27088   0.205   5.315   2.752
 8730SOL    HW127089   0.128   5.272   2.705
 8730SOL    HW227090   0.274   5.343   2.685
 8731SOL     OW27091   1.805   1.994   3.503
 8731SOL    HW127092   1.759   1.917   3.460
 8731SOL    HW227093   1.757   2.079   3.478
 8732SOL     OW27094   5.418   4.396   1.646
 8732SOL    HW127095   5.374   4.308   1.660
 8732SOL    HW227096   5.436   4.440   1.734
 8733SOL     OW27097   0.896   5.950   2.897
 8733SOL    HW127098   0.821   5.920   2.838
 8733SOL    HW227099   0.881   6.045   2.924
 8734SOL     OW27100   1.012   5.007   1.774
 8734SOL    HW127101   1.046   5.098   1.750
 8734SOL    HW227102   1.037   4.942   1.703
 8735SOL     OW27103   1.134   1.781   6.550
 8735SOL    HW127104   1.125   1.712   6.621
 8735SOL    HW227105   1.120   1.872   6.589
 8736SOL     OW27106   0.597   6.592   0.091
 8736SOL    HW127107   0.545   6.660   0.143
 8736SOL    HW227108   0.604   6.622   7.022
 8737SOL     OW27109   4.092   6.553   6.116
 8737SOL    HW127110   4.163   6.563   6.046
 8737SOL    HW227111   4.076   6.641   6.160
 8738SOL     OW27112   1.285   3.766   4.870
 8738SOL    HW127113   1.208   3.818   4.904
 8738SOL    HW227114   1.259   3.720   4.785
 8739SOL     OW27115   6.893   4.424   6.007
 8739SOL    HW127116   6.865   4.344   6.060
 8739SOL    HW227117   6.945   4.394   5.927
 8740SOL     OW27118   3.938   0.943   5.724
 8740SOL    HW127119   3.852   0.904   5.757
 8740SOL    HW227120   3.929   0.966   5.627
 8741SOL     OW27121   1.886   1.910   1.894
 8741SOL    HW127122   1.843   1.979   1.837
 8741SOL    HW227123   1.927   1.839   1.836
 8742SOL     OW27124   4.818   6.062   1.564
 8742SOL    HW127125   4.719   6.057   1.575
 8742SOL    HW227126   4.862   6.013   1.639
 8743SOL     OW27127   1.957   5.692   2.346
 8743SOL    HW127128   1.926   5.701   2.440
 8743SOL    HW227129   1.904   5.621   2.299
 8744SOL     OW27130   4.221   2.624   6.399
 8744SOL    HW127131   4.304   2.676   6.378
 8744SOL    HW227132   4.200   2.633   6.496
 8745SOL     OW27133   5.947   1.937   5.251
 8745SOL    HW127134   6.042   1.967   5.264
 8745SOL    HW227135   5.945   1.837   5.244
 8746SOL     OW27136   4.062   4.370   5.628
 8746SOL    HW127137   4.130   4.395   5.559
 8746SOL    HW227138   4.043   4.449   5.686
 8747SOL     OW27139   1.047   2.800   3.455
 8747SOL    HW127140   1.028   2.763   3.364
 8747SOL    HW227141   1.128   2.755   3.493
 8748SOL     OW27142   0.704   0.633   0.190
 8748SOL    HW127143   0.767   0.672   0.123
 8748SOL    HW227144   0.753   0.570   0.250
 8749SOL     OW27145   3.027   0.741   4.328
 8749SOL    HW127146   2.971   0.666   4.363
 8749SOL    HW227147   2.983   0.779   4.246
 8750SOL     OW27148   2.400   2.476   5.338
 8750SOL    HW127149   2.383   2.552   5.275
 8750SOL    HW227150   2.314   2.448   5.381
 8751SOL     OW27151   0.035   0.422   1.855
 8751SOL    HW127152   0.047   0.484   1.778
 8751SOL    HW227153   6.967   0.388   1.856
 8752SOL     OW27154   2.527   4.586   6.957
 8752SOL    HW127155   2.624   4.589   6.933
 8752SOL    HW227156   2.506   4.498   7.001
 8753SOL     OW27157   4.958   1.447   4.678
 8753SOL    HW127158   5.023   1.504   4.627
 8753SOL    HW227159   5.005   1.365   4.712
 8754SOL     OW27160   0.606   1.961   5.904
 8754SOL    HW127161   0.695   1.928   5.934
 8754SOL    HW227162   0.546   1.971   5.984
 8755SOL     OW27163   2.672   1.494   6.646
 8755SOL    HW127164   2.735   1.559   6.603
 8755SOL    HW227165   2.606   1.462   6.578
 8756SOL     OW27166   2.198   2.969   3.661
 8756SOL    HW127167   2.105   2.989   3.633
 8756SOL    HW227168   2.209   2.991   3.758
 8757SOL     OW27169   5.607   6.366   5.829
 8757SOL    HW127170   5.634   6.373   5.925
 8757SOL    HW227171   5.513   6.333   5.823
 8758SOL     OW27172   5.472   6.431   1.910
 8758SOL    HW127173   5.383   6.471   1.887
 8758SOL    HW227174   5.459   6.338   1.944
 8759SOL     OW27175   4.668   1.103   6.085
 8759SOL    HW127176   4.610   1.142   6.014
 8759SOL    HW227177   4.613   1.044   6.144
 8760SOL     OW27178   1.860   1.861   4.412
 8760SOL    HW127179   1.861   1.773   4.364
 8760SOL    HW227180   1.888   1.933   4.349
 8761SOL     OW27181   5.244   0.606   0.385
 8761SOL    HW127182   5.231   0.601   0.485
 8761SOL    HW227183   5.338   0.580   0.363
 8762SOL     OW27184   1.381   3.575   2.886
 8762SOL    HW127185   1.437   3.497   2.858
 8762SOL    HW227186   1.284   3.550   2.881
 8763SOL     OW27187   6.558   5.826   5.146
 8763SOL    HW127188   6.467   5.852   5.114
 8763SOL    HW227189   6.625   5.893   5.114
 8764SOL     OW27190   5.431   1.998   3.698
 8764SOL    HW127191   5.413   1.968   3.792
 8764SOL    HW227192   5.507   2.062   3.696
 8765SOL     OW27193   5.601   6.640   4.637
 8765SOL    HW127194   5.527   6.640   4.570
 8765SOL    HW227195   5.644   6.731   4.639
 8766SOL     OW27196   3.038   4.839   3.622
 8766SOL    HW127197   2.997   4.802   3.706
 8766SOL    HW227198   3.062   4.935   3.637
 8767SOL     OW27199   4.629   0.700   2.665
 8767SOL    HW127200   4.692   0.647   2.608
 8767SOL    HW227201   4.665   0.793   2.675
 8768SOL     OW27202   2.181   3.147   0.410
 8768SOL    HW127203   2.110   3.129   0.478
 8768SOL    HW227204   2.146   3.210   0.341
 8769SOL     OW27205   0.328   0.101   5.159
 8769SOL    HW127206   0.264   0.050   5.101
 8769SOL    HW227207   0.277   0.144   5.235
 8770SOL     OW27208   4.836   4.279   1.930
 8770SOL    HW127209   4.748   4.285   1.976
 8770SOL    HW227210   4.889   4.203   1.969
 8771SOL     OW27211   1.770   1.643   6.695
 8771SOL    HW127212   1.690   1.583   6.701
 8771SOL    HW227213   1.763   1.697   6.611
 8772SOL     OW27214   6.801   1.107   6.543
 8772SOL    HW127215   6.707   1.130   6.571
 8772SOL    HW227216   6.823   1.015   6.573
 8773SOL     OW27217   3.851   2.024   3.423
 8773SOL    HW127218   3.776   2.030   3.490
 8773SOL    HW227219   3.924   1.967   3.461
 8774SOL     OW27220   1.305   1.589   0.864
 8774SOL    HW127221   1.307   1.681   0.825
 8774SOL    HW227222   1.398   1.558   0.881
 8775SOL     OW27223   5.518   6.867   3.354
 8775SOL    HW127224   5.496   6.780   3.399
 8775SOL    HW227225   5.493   6.943   3.414
 8776SOL     OW27226   3.521   3.245   4.923
 8776SOL    HW127227   3.593   3.217   4.987
 8776SOL    HW227228   3.525   3.343   4.910
 8777SOL     OW27229   6.601   4.842   1.385
 8777SOL    HW127230   6.516   4.830   1.335
 8777SOL    HW227231   6.581   4.868   1.480
 8778SOL     OW27232   0.062   2.162   3.356
 8778SOL    HW127233   0.015   2.079   3.328
 8778SOL    HW227234   0.134   2.183   3.290
 8779SOL     OW27235   1.848   4.071   2.258
 8779SOL    HW127236   1.905   4.111   2.185
 8779SOL    HW227237   1.820   4.143   2.321
 8780SOL     OW27238   1.742   6.044   4.128
 8780SOL    HW127239   1.669   6.006   4.184
 8780SOL    HW227240   1.828   6.045   4.180
 8781SOL     OW27241   0.352   1.386   3.369
 8781SOL    HW127242   0.342   1.486   3.371
 8781SOL    HW227243   0.404   1.357   3.449
 8782SOL     OW27244   5.131   1.137   2.553
 8782SOL    HW127245   5.097   1.192   2.477
 8782SOL    HW227246   5.217   1.092   2.527
 8783SOL     OW27247   6.048   3.805   3.876
 8783SOL    HW127248   6.104   3.876   3.834
 8783SOL    HW227249   5.981   3.847   3.937
 8784SOL     OW27250   5.481   4.882   5.379
 8784SOL    HW127251   5.437   4.924   5.299
 8784SOL    HW227252   5.478   4.783   5.371
 8785SOL     OW27253   5.522   4.041   6.523
 8785SOL    HW127254   5.514   4.124   6.579
 8785SOL    HW227255   5.448   3.978   6.544
 8786SOL     OW27256   1.557   6.487   6.748
 8786SOL    HW127257   1.617   6.434   6.808
 8786SOL    HW227258   1.557   6.448   6.657
 8787SOL     OW27259   1.604   3.425   2.292
 8787SOL    HW127260   1.660   3.348   2.263
 8787SOL    HW227261   1.660   3.488   2.347
 8788SOL     OW27262   6.716   1.827   5.039
 8788SOL    HW127263   6.681   1.811   5.131
 8788SOL    HW227264   6.810   1.795   5.034
 8789SOL     OW27265   6.887   0.525   6.542
 8789SOL    HW127266   6.893   0.438   6.493
 8789SOL    HW227267   6.873   0.507   6.640
 8790SOL     OW27268   6.759   1.785   6.935
 8790SOL    HW127269   6.843   1.773   6.989
 8790SOL    HW227270   6.680   1.767   6.993
 8791SOL     OW27271   5.327   0.153   5.541
 8791SOL    HW127272   5.374   0.149   5.453
 8791SOL    HW227273   5.389   0.125   5.614
 8792SOL     OW27274   4.132   6.922   3.558
 8792SOL    HW127275   4.213   6.938   3.502
 8792SOL    HW227276   4.052   6.962   3.513
 8793SOL     OW27277   2.558   5.813   3.964
 8793SOL    HW127278   2.514   5.733   3.922
 8793SOL    HW227279   2.496   5.852   4.032
 8794SOL     OW27280   3.119   6.911   2.894
 8794SOL    HW127281   3.147   6.940   2.803
 8794SOL    HW227282   3.196   6.867   2.940
 8795SOL     OW27283   1.677   6.519   5.368
 8795SOL    HW127284   1.736   6.463   5.426
 8795SOL    HW227285   1.585   6.480   5.367
 8796SOL     OW27286   4.335   1.453   5.778
 8796SOL    HW127287   4.237   1.456   5.755
 8796SOL    HW227288   4.387   1.426   5.698
 8797SOL     OW27289   1.877   6.675   5.944
 8797SOL    HW127290   1.967   6.659   5.905
 8797SOL    HW227291   1.809   6.621   5.895
 8798SOL     OW27292   5.558   3.627   5.142
 8798SOL    HW127293   5.493   3.554   5.163
 8798SOL    HW227294   5.529   3.675   5.060
 8799SOL     OW27295   2.397   4.282   3.301
 8799SOL    HW127296   2.396   4.328   3.213
 8799SOL    HW227297   2.417   4.185   3.288
 8800SOL     OW27298   4.243   3.926   5.573
 8800SOL    HW127299   4.300   3.925   5.491
 8800SOL    HW227300   4.248   3.837   5.618
 8801SOL     OW27301   2.238   1.385   4.241
 8801SOL    HW127302   2.202   1.371   4.334
 8801SOL    HW227303   2.271   1.297   4.205
 8802SOL     OW27304   1.539   6.603   2.268
 8802SOL    HW127305   1.604   6.634   2.199
 8802SOL    HW227306   1.497   6.682   2.313
 8803SOL     OW27307   2.113   5.454   6.434
 8803SOL    HW127308   2.136   5.469   6.338
 8803SOL    HW227309   2.056   5.529   6.467
 8804SOL     OW27310   3.867   0.787   1.723
 8804SOL    HW127311   3.962   0.815   1.739
 8804SOL    HW227312   3.845   0.711   1.785
 8805SOL     OW27313   1.369   0.399   3.368
 8805SOL    HW127314   1.469   0.387   3.374
 8805SOL    HW227315   1.332   0.418   3.459
 8806SOL     OW27316   1.459   5.297   0.662
 8806SOL    HW127317   1.385   5.357   0.633
 8806SOL    HW227318   1.513   5.270   0.582
 8807SOL     OW27319   6.397   5.962   6.005
 8807SOL    HW127320   6.400   5.862   6.009
 8807SOL    HW227321   6.419   5.993   5.913
 8808SOL     OW27322   5.417   1.381   0.744
 8808SOL    HW127323   5.359   1.351   0.668
 8808SOL    HW227324   5.360   1.413   0.819
 8809SOL     OW27325   5.496   3.307   1.449
 8809SOL    HW127326   5.502   3.386   1.388
 8809SOL    HW227327   5.577   3.250   1.437
 8810SOL     OW27328   5.531   1.571   4.223
 8810SOL    HW127329   5.600   1.604   4.160
 8810SOL    HW227330   5.440   1.581   4.181
 8811SOL     OW27331   2.400   1.840   4.184
 8811SOL    HW127332   2.477   1.823   4.123
 8811SOL    HW227333   2.390   1.764   4.248
 8812SOL     OW27334   0.789   0.756   0.613
 8812SOL    HW127335   0.750   0.847   0.626
 8812SOL    HW227336   0.844   0.754   0.530
 8813SOL     OW27337   0.861   5.960   1.189
 8813SOL    HW127338   0.922   5.882   1.175
 8813SOL    HW227339   0.767   5.932   1.164
 8814SOL     OW27340   0.306   0.561   6.444
 8814SOL    HW127341   0.389   0.588   6.492
 8814SOL    HW227342   0.226   0.589   6.496
 8815SOL     OW27343   0.054   5.539   1.556
 8815SOL    HW127344   0.020   5.631   1.537
 8815SOL    HW227345   0.106   5.506   1.478
 8816SOL     OW27346   1.263   6.415   0.998
 8816SOL    HW127347   1.267   6.403   0.899
 8816SOL    HW227348   1.323   6.348   1.042
 8817SOL     OW27349   1.135   6.336   5.254
 8817SOL    HW127350   1.172   6.423   5.287
 8817SOL    HW227351   1.208   6.267   5.251
 8818SOL     OW27352   0.394   4.033   3.889
 8818SOL    HW127353   0.451   4.088   3.950
 8818SOL    HW227354   0.300   4.035   3.920
 8819SOL     OW27355   4.330   6.260   4.424
 8819SOL    HW127356   4.325   6.169   4.465
 8819SOL    HW227357   4.274   6.324   4.477
 8820SOL     OW27358   1.502   2.741   4.588
 8820SOL    HW127359   1.449   2.817   4.625
 8820SOL    HW227360   1.520   2.674   4.660
 8821SOL     OW27361   2.049   0.279   6.289
 8821SOL    HW127362   2.097   0.194   6.309
 8821SOL    HW227363   2.109   0.342   6.240
 8822SOL     OW27364   0.799   0.223   2.830
 8822SOL    HW127365   0.725   0.180   2.882
 8822SOL    HW227366   0.844   0.292   2.887
 8823SOL     OW27367   2.150   0.098   0.817
 8823SOL    HW127368   2.126   0.069   0.724
 8823SOL    HW227369   2.067   0.114   0.870
 8824SOL     OW27370   2.595   3.889   0.837
 8824SOL    HW127371   2.636   3.852   0.753
 8824SOL    HW227372   2.524   3.827   0.869
 8825SOL     OW27373   2.036   1.126   1.967
 8825SOL    HW127374   2.109   1.060   1.986
 8825SOL    HW227375   1.977   1.091   1.894
 8826SOL     OW27376   6.062   2.071   0.360
 8826SOL    HW127377   5.981   2.096   0.412
 8826SOL    HW227378   6.062   1.973   0.342
 8827SOL     OW27379   2.512   1.481   3.400
 8827SOL    HW127380   2.584   1.514   3.340
 8827SOL    HW227381   2.448   1.425   3.347
 8828SOL     OW27382   3.330   6.019   3.958
 8828SOL    HW127383   3.273   5.950   3.915
 8828SOL    HW227384   3.282   6.107   3.958
 8829SOL     OW27385   0.505   3.116   6.884
 8829SOL    HW127386   0.562   3.100   6.803
 8829SOL    HW227387   0.450   3.198   6.870
 8830SOL     OW27388   0.262   1.253   0.075
 8830SOL    HW127389   0.303   1.179   0.022
 8830SOL    HW227390   0.296   1.251   0.168
 8831SOL     OW27391   5.662   0.771   3.083
 8831SOL    HW127392   5.694   0.749   3.175
 8831SOL    HW227393   5.587   0.710   3.058
 8832SOL     OW27394   0.652   6.913   2.346
 8832SOL    HW127395   0.642   6.911   2.247
 8832SOL    HW227396   0.570   6.954   2.387
 8833SOL     OW27397   2.088   5.922   4.584
 8833SOL    HW127398   2.188   5.914   4.595
 8833SOL    HW227399   2.052   5.835   4.550
 8834SOL     OW27400   5.846   3.347   4.686
 8834SOL    HW127401   5.773   3.349   4.755
 8834SOL    HW227402   5.824   3.279   4.616
 8835SOL     OW27403   6.501   0.259   5.540
 8835SOL    HW127404   6.594   0.233   5.569
 8835SOL    HW227405   6.452   0.297   5.619
 8836SOL     OW27406   3.971   0.795   0.431
 8836SOL    HW127407   3.881   0.761   0.460
 8836SOL    HW227408   4.041   0.732   0.465
 8837SOL     OW27409   0.829   0.842   1.773
 8837SOL    HW127410   0.836   0.901   1.854
 8837SOL    HW227411   0.786   0.755   1.797
 8838SOL     OW27412   2.432   4.951   3.441
 8838SOL    HW127413   2.368   5.002   3.384
 8838SOL    HW227414   2.492   5.015   3.489
 8839SOL     OW27415   6.382   6.069   3.294
 8839SOL    HW127416   6.301   6.117   3.260
 8839SOL    HW227417   6.355   5.983   3.337
 8840SOL     OW27418   5.657   1.905   2.164
 8840SOL    HW127419   5.629   1.843   2.091
 8840SOL    HW227420   5.675   1.854   2.248
 8841SOL     OW27421   1.158   1.735   5.471
 8841SOL    HW127422   1.159   1.761   5.374
 8841SOL    HW227423   1.078   1.678   5.490
 8842SOL     OW27424   2.780   2.705   1.325
 8842SOL    HW127425   2.872   2.744   1.316
 8842SOL    HW227426   2.787   2.612   1.362
 8843SOL     OW27427   1.305   3.097   5.162
 8843SOL    HW127428   1.382   3.045   5.125
 8843SOL    HW227429   1.242   3.121   5.088
 8844SOL     OW27430   5.608   1.452   6.140
 8844SOL    HW127431   5.600   1.527   6.206
 8844SOL    HW227432   5.585   1.365   6.185
 8845SOL     OW27433   4.403   4.129   0.021
 8845SOL    HW127434   4.309   4.101   0.040
 8845SOL    HW227435   4.416   4.142   6.949
 8846SOL     OW27436   1.986   5.129   3.940
 8846SOL    HW127437   2.013   5.144   3.844
 8846SOL    HW227438   2.041   5.188   3.999
 8847SOL     OW27439   2.677   0.593   3.077
 8847SOL    HW127440   2.597   0.652   3.087
 8847SOL    HW227441   2.649   0.505   3.038
 8848SOL     OW27442   2.203   0.892   1.623
 8848SOL    HW127443   2.289   0.920   1.580
 8848SOL    HW227444   2.146   0.972   1.639
 8849SOL     OW27445   1.483   5.887   2.583
 8849SOL    HW127446   1.420   5.869   2.508
 8849SOL    HW227447   1.577   5.879   2.550
 8850SOL     OW27448   2.891   1.820   6.792
 8850SOL    HW127449   2.969   1.868   6.832
 8850SOL    HW227450   2.818   1.885   6.773
 8851SOL     OW27451   1.780   4.797   2.448
 8851SOL    HW127452   1.682   4.804   2.468
 8851SOL    HW227453   1.822   4.733   2.512
 8852SOL     OW27454   1.542   1.829   5.254
 8852SOL    HW127455   1.532   1.739   5.296
 8852SOL    HW227456   1.473   1.891   5.292
 8853SOL     OW27457   3.213   0.665   1.526
 8853SOL    HW127458   3.188   0.711   1.612
 8853SOL    HW227459   3.130   0.636   1.479
 8854SOL     OW27460   1.578   3.059   4.790
 8854SOL    HW127461   1.502   3.117   4.762
 8854SOL    HW227462   1.614   3.011   4.710
 8855SOL     OW27463   6.189   5.356   1.678
 8855SOL    HW127464   6.234   5.296   1.611
 8855SOL    HW227465   6.127   5.418   1.630
 8856SOL     OW27466   6.972   5.624   6.200
 8856SOL    HW127467   6.910   5.660   6.131
 8856SOL    HW227468   6.990   5.527   6.181
 8857SOL     OW27469   6.267   1.459   5.245
 8857SOL    HW127470   6.365   1.450   5.230
 8857SOL    HW227471   6.245   1.553   5.272
 8858SOL     OW27472   6.313   5.040   5.529
 8858SOL    HW127473   6.345   5.118   5.476
 8858SOL    HW227474   6.296   5.068   5.623
 8859SOL     OW27475   0.759   0.729   3.613
 8859SOL    HW127476   0.747   0.827   3.632
 8859SOL    HW227477   0.768   0.715   3.514
 8860SOL     OW27478   6.982   2.456   1.306
 8860SOL    HW127479   6.974   2.554   1.319
 8860SOL    HW227480   0.050   2.427   1.326
 8861SOL     OW27481   4.186   1.524   1.313
 8861SOL    HW127482   4.180   1.433   1.272
 8861SOL    HW227483   4.231   1.587   1.250
 8862SOL     OW27484   4.470   5.680   5.048
 8862SOL    HW127485   4.486   5.585   5.075
 8862SOL    HW227486   4.494   5.693   4.952
 8863SOL     OW27487   2.215   4.658   3.421
 8863SOL    HW127488   2.218   4.648   3.322
 8863SOL    HW227489   2.175   4.747   3.444
 8864SOL     OW27490   5.054   2.677   6.466
 8864SOL    HW127491   4.990   2.614   6.508
 8864SOL    HW227492   5.017   2.770   6.470
 8865SOL     OW27493   2.992   1.552   6.094
 8865SOL    HW127494   2.930   1.621   6.056
 8865SOL    HW227495   2.938   1.482   6.140
 8866SOL     OW27496   5.829   6.170   2.391
 8866SOL    HW127497   5.917   6.144   2.351
 8866SOL    HW227498   5.843   6.242   2.458
 8867SOL     OW27499   6.221   3.454   2.416
 8867SOL    HW127500   6.223   3.415   2.324
 8867SOL    HW227501   6.148   3.522   2.422
 8868SOL     OW27502   6.991   3.674   3.063
 8868SOL    HW127503   0.058   3.640   3.072
 8868SOL    HW227504   6.957   3.654   2.971
 8869SOL     OW27505   3.544   5.901   4.115
 8869SOL    HW127506   3.508   5.816   4.154
 8869SOL    HW227507   3.474   5.943   4.057
 8870SOL     OW27508   1.692   6.998   1.575
 8870SOL    HW127509   1.678   0.043   1.644
 8870SOL    HW227510   1.717   0.015   1.488
 8871SOL     OW27511   1.460   0.370   2.715
 8871SOL    HW127512   1.444   0.361   2.814
 8871SOL    HW227513   1.557   0.391   2.699
 8872SOL     OW27514   0.637   4.619   5.826
 8872SOL    HW127515   0.677   4.565   5.751
 8872SOL    HW227516   0.697   4.612   5.906
 8873SOL     OW27517   1.642   0.393   1.898
 8873SOL    HW127518   1.624   0.433   1.808
 8873SOL    HW227519   1.555   0.368   1.941
 8874SOL     OW27520   1.818   5.199   0.505
 8874SOL    HW127521   1.819   5.256   0.587
 8874SOL    HW227522   1.909   5.201   0.462
 8875SOL     OW27523   0.143   2.978   3.457
 8875SOL    HW127524   0.146   2.878   3.467
 8875SOL    HW227525   0.139   3.021   3.547
 8876SOL     OW27526   3.300   0.307   5.829
 8876SOL    HW127527   3.220   0.345   5.784
 8876SOL    HW227528   3.287   0.307   5.928
 8877SOL     OW27529   1.416   3.769   1.201
 8877SOL    HW127530   1.508   3.807   1.192
 8877SOL    HW227531   1.422   3.671   1.218
 8878SOL     OW27532   3.895   4.767   0.876
 8878SOL    HW127533   3.852   4.695   0.821
 8878SOL    HW227534   3.833   4.845   0.883
 8879SOL     OW27535   6.339   4.717   2.925
 8879SOL    HW127536   6.436   4.733   2.940
 8879SOL    HW227537   6.310   4.636   2.977
 8880SOL     OW27538   4.815   6.642   3.697
 8880SOL    HW127539   4.894   6.666   3.754
 8880SOL    HW227540   4.731   6.665   3.745
 8881SOL     OW27541   3.976   5.223   3.863
 8881SOL    HW127542   3.888   5.176   3.856
 8881SOL    HW227543   4.042   5.164   3.910
 8882SOL     OW27544   3.772   0.631   0.592
 8882SOL    HW127545   3.718   0.687   0.655
 8882SOL    HW227546   3.710   0.581   0.531
 8883SOL     OW27547   0.010   6.719   5.282
 8883SOL    HW127548   0.030   6.805   5.328
 8883SOL    HW227549   6.944   6.723   5.243
 8884SOL     OW27550   5.495   3.626   4.569
 8884SOL    HW127551   5.464   3.575   4.649
 8884SOL    HW227552   5.539   3.564   4.505
 8885SOL     OW27553   5.724   5.480   0.446
 8885SOL    HW127554   5.726   5.492   0.545
 8885SOL    HW227555   5.734   5.383   0.424
 8886SOL     OW27556   3.084   5.391   0.061
 8886SOL    HW127557   3.042   5.444   7.014
 8886SOL    HW227558   3.065   5.435   0.149
 8887SOL     OW27559   4.442   1.199   0.931
 8887SOL    HW127560   4.474   1.157   1.016
 8887SOL    HW227561   4.374   1.139   0.888
 8888SOL     OW27562   1.956   1.775   3.907
 8888SOL    HW127563   2.042   1.792   3.955
 8888SOL    HW227564   1.926   1.682   3.924
 8889SOL     OW27565   6.544   6.857   6.496
 8889SOL    HW127566   6.456   6.853   6.449
 8889SOL    HW227567   6.596   6.773   6.478
 8890SOL     OW27568   0.261   6.974   0.233
 8890SOL    HW127569   0.315   0.001   0.298
 8890SOL    HW227570   0.176   7.022   0.212
 8891SOL     OW27571   5.658   4.494   6.403
 8891SOL    HW127572   5.754   4.497   6.431
 8891SOL    HW227573   5.650   4.523   6.308
 8892SOL     OW27574   3.335   4.907   3.685
 8892SOL    HW127575   3.304   4.949   3.771
 8892SOL    HW227576   3.257   4.860   3.642
 8893SOL     OW27577   1.110   5.257   4.473
 8893SOL    HW127578   1.124   5.297   4.382
 8893SOL    HW227579   1.055   5.174   4.465
 8894SOL     OW27580   4.417   2.682   0.420
 8894SOL    HW127581   4.489   2.725   0.474
 8894SOL    HW227582   4.369   2.614   0.476
 8895SOL     OW27583   0.869   3.121   0.778
 8895SOL    HW127584   0.958   3.144   0.738
 8895SOL    HW227585   0.872   3.028   0.815
 8896SOL     OW27586   0.490   2.502   4.161
 8896SOL    HW127587   0.517   2.576   4.222
 8896SOL    HW227588   0.500   2.414   4.208
 8897SOL     OW27589   1.698   3.917   3.758
 8897SOL    HW127590   1.672   3.848   3.691
 8897SOL    HW227591   1.784   3.960   3.729
 8898SOL     OW27592   5.013   3.651   2.618
 8898SOL    HW127593   5.102   3.619   2.651
 8898SOL    HW227594   4.940   3.594   2.657
 8899SOL     OW27595   0.400   4.170   6.087
 8899SOL    HW127596   0.446   4.082   6.086
 8899SOL    HW227597   0.461   4.240   6.049
 8900SOL     OW27598   5.628   2.139   3.501
 8900SOL    HW127599   5.719   2.168   3.471
 8900SOL    HW227600   5.620   2.154   3.600
 8901SOL     OW27601   0.734   2.438   3.572
 8901SOL    HW127602   0.790   2.507   3.616
 8901SOL    HW227603   0.671   2.399   3.638
 8902SOL     OW27604   1.295   4.114   0.112
 8902SOL    HW127605   1.261   4.208   0.113
 8902SOL    HW227606   1.287   4.074   0.203
 8903SOL     OW27607   1.634   1.205   4.629
 8903SOL    HW127608   1.631   1.198   4.728
 8903SOL    HW227609   1.624   1.301   4.602
 8904SOL     OW27610   0.590   1.197   2.401
 8904SOL    HW127611   0.588   1.116   2.460
 8904SOL    HW227612   0.610   1.278   2.456
 8905SOL     OW27613   1.468   3.616   2.147
 8905SOL    HW127614   1.522   3.556   2.206
 8905SOL    HW227615   1.502   3.609   2.053
 8906SOL     OW27616   0.102   0.382   0.636
 8906SOL    HW127617   0.142   0.348   0.551
 8906SOL    HW227618   0.173   0.428   0.690
 8907SOL     OW27619   3.325   2.691   5.266
 8907SOL    HW127620   3.303   2.600   5.230
 8907SOL    HW227621   3.261   2.758   5.227
 8908SOL     OW27622   1.286   5.750   0.374
 8908SOL    HW127623   1.313   5.771   0.468
 8908SOL    HW227624   1.187   5.753   0.367
 8909SOL     OW27625   2.254   1.721   6.447
 8909SOL    HW127626   2.284   1.694   6.355
 8909SOL    HW227627   2.169   1.673   6.469
 8910SOL     OW27628   0.916   2.895   4.947
 8910SOL    HW127629   0.888   2.988   4.972
 8910SOL    HW227630   0.884   2.831   5.017
 8911SOL     OW27631   5.338   1.884   3.928
 8911SOL    HW127632   5.382   1.884   4.018
 8911SOL    HW227633   5.270   1.957   3.924
 8912SOL     OW27634   4.150   3.763   5.299
 8912SOL    HW127635   4.128   3.762   5.201
 8912SOL    HW227636   4.202   3.845   5.321
 8913SOL     OW27637   4.917   5.310   0.093
 8913SOL    HW127638   5.015   5.308   0.113
 8913SOL    HW227639   4.893   5.232   0.036
 8914SOL     OW27640   5.055   6.278   4.944
 8914SOL    HW127641   4.991   6.289   5.020
 8914SOL    HW227642   5.134   6.338   4.958
 8915SOL     OW27643   0.577   1.197   3.831
 8915SOL    HW127644   0.560   1.100   3.846
 8915SOL    HW227645   0.557   1.249   3.914
 8916SOL     OW27646   5.835   1.450   6.509
 8916SOL    HW127647   5.765   1.509   6.469
 8916SOL    HW227648   5.805   1.419   6.599
 8917SOL     OW27649   6.018   1.864   0.622
 8917SOL    HW127650   5.939   1.807   0.644
 8917SOL    HW227651   6.099   1.806   0.609
 8918SOL     OW27652   1.715   5.088   1.623
 8918SOL    HW127653   1.813   5.107   1.613
 8918SOL    HW227654   1.693   5.002   1.577
 8919SOL     OW27655   5.336   4.330   6.431
 8919SOL    HW127656   5.388   4.317   6.516
 8919SOL    HW227657   5.241   4.304   6.446
 8920SOL     OW27658   0.333   1.093   6.752
 8920SOL    HW127659   0.358   1.021   6.818
 8920SOL    HW227660   0.373   1.071   6.663
 8921SOL     OW27661   1.367   3.099   1.195
 8921SOL    HW127662   1.365   3.042   1.112
 8921SOL    HW227663   1.360   3.041   1.276
 8922SOL     OW27664   3.925   0.032   3.339
 8922SOL    HW127665   3.947   6.967   3.304
 8922SOL    HW227666   3.858   0.075   3.279
 8923SOL     OW27667   1.755   2.162   5.683
 8923SOL    HW127668   1.682   2.231   5.684
 8923SOL    HW227669   1.731   2.090   5.618
 8924SOL     OW27670   5.463   4.802   4.627
 8924SOL    HW127671   5.467   4.897   4.594
 8924SOL    HW227672   5.411   4.747   4.561
 8925SOL     OW27673   1.269   0.989   2.681
 8925SOL    HW127674   1.240   1.072   2.634
 8925SOL    HW227675   1.208   0.970   2.757
 8926SOL     OW27676   6.590   3.569   5.871
 8926SOL    HW127677   6.519   3.535   5.809
 8926SOL    HW227678   6.667   3.605   5.818
 8927SOL     OW27679   6.473   2.173   5.593
 8927SOL    HW127680   6.478   2.084   5.548
 8927SOL    HW227681   6.480   2.160   5.692
 8928SOL     OW27682   2.606   0.074   5.240
 8928SOL    HW127683   2.610   0.172   5.257
 8928SOL    HW227684   2.511   0.043   5.247
 8929SOL     OW27685   6.482   2.668   5.092
 8929SOL    HW127686   6.434   2.610   5.026
 8929SOL    HW227687   6.420   2.739   5.126
 8930SOL     OW27688   1.125   4.122   3.201
 8930SOL    HW127689   1.098   4.026   3.209
 8930SOL    HW227690   1.156   4.140   3.108
 8931SOL     OW27691   3.492   3.049   1.794
 8931SOL    HW127692   3.533   3.005   1.874
 8931SOL    HW227693   3.406   3.092   1.820
 8932SOL     OW27694   0.510   2.351   3.105
 8932SOL    HW127695   0.561   2.399   3.176
 8932SOL    HW227696   0.490   2.413   3.030
 8933SOL     OW27697   3.376   2.614   6.246
 8933SOL    HW127698   3.465   2.569   6.233
 8933SOL    HW227699   3.391   2.708   6.276
 8934SOL     OW27700   3.620   5.344   3.833
 8934SOL    HW127701   3.598   5.328   3.929
 8934SOL    HW227702   3.655   5.259   3.792
 8935SOL     OW27703   6.906   5.368   1.210
 8935SOL    HW127704   6.897   5.268   1.206
 8935SOL    HW227705   6.868   5.401   1.296
 8936SOL     OW27706   1.819   3.813   0.413
 8936SOL    HW127707   1.735   3.796   0.362
 8936SOL    HW227708   1.898   3.791   0.355
 8937SOL     OW27709   0.343   6.813   5.229
 8937SOL    HW127710   0.345   6.834   5.327
 8937SOL    HW227711   0.278   6.874   5.184
 8938SOL     OW27712   6.671   5.073   1.832
 8938SOL    HW127713   6.632   5.044   1.919
 8938SOL    HW227714   6.708   5.166   1.841
 8939SOL     OW27715   4.787   2.186   4.776
 8939SOL    HW127716   4.708   2.167   4.834
 8939SOL    HW227717   4.851   2.244   4.825
 8940SOL     OW27718   6.591   0.702   3.854
 8940SOL    HW127719   6.667   0.649   3.890
 8940SOL    HW227720   6.544   0.648   3.784
 8941SOL     OW27721   5.466   2.292   5.494
 8941SOL    HW127722   5.532   2.356   5.534
 8941SOL    HW227723   5.375   2.332   5.496
 8942SOL     OW27724   0.245   2.775   5.426
 8942SOL    HW127725   0.178   2.798   5.496
 8942SOL    HW227726   0.332   2.752   5.469
 8943SOL     OW27727   5.398   3.988   0.513
 8943SOL    HW127728   5.456   3.938   0.578
 8943SOL    HW227729   5.451   4.006   0.430
 8944SOL     OW27730   5.390   5.529   6.620
 8944SOL    HW127731   5.318   5.461   6.632
 8944SOL    HW227732   5.377   5.576   6.533
 8945SOL     OW27733   2.676   0.322   4.937
 8945SOL    HW127734   2.585   0.299   4.902
 8945SOL    HW227735   2.746   0.295   4.870
 8946SOL     OW27736   3.064   1.768   5.136
 8946SOL    HW127737   3.055   1.851   5.082
 8946SOL    HW227738   3.040   1.787   5.232
 8947SOL     OW27739   3.061   3.620   5.818
 8947SOL    HW127740   3.058   3.581   5.725
 8947SOL    HW227741   3.039   3.717   5.813
 8948SOL     OW27742   5.274   4.871   3.351
 8948SOL    HW127743   5.296   4.952   3.298
 8948SOL    HW227744   5.199   4.891   3.413
 8949SOL     OW27745   1.859   6.981   6.870
 8949SOL    HW127746   1.910   6.903   6.833
 8949SOL    HW227747   1.904   0.040   6.842
 8950SOL     OW27748   4.761   3.219   5.523
 8950SOL    HW127749   4.719   3.155   5.588
 8950SOL    HW227750   4.732   3.197   5.430
 8951SOL     OW27751   1.494   2.862   5.490
 8951SOL    HW127752   1.416   2.840   5.432
 8951SOL    HW227753   1.552   2.930   5.444
 8952SOL     OW27754   1.257   1.234   2.937
 8952SOL    HW127755   1.350   1.244   2.972
 8952SOL    HW227756   1.206   1.318   2.953
 8953SOL     OW27757   1.718   3.584   0.027
 8953SOL    HW127758   1.663   3.622   6.979
 8953SOL    HW227759   1.814   3.607   0.011
 8954SOL     OW27760   0.214   6.164   6.448
 8954SOL    HW127761   0.165   6.244   6.413
 8954SOL    HW227762   0.222   6.096   6.375
 8955SOL     OW27763   0.015   4.304   3.589
 8955SOL    HW127764   6.975   4.379   3.583
 8955SOL    HW227765   0.027   4.264   3.498
 8956SOL     OW27766   0.418   0.694   6.222
 8956SOL    HW127767   0.383   0.650   6.139
 8956SOL    HW227768   0.368   0.661   6.301
 8957SOL     OW27769   2.612   4.627   1.849
 8957SOL    HW127770   2.695   4.641   1.904
 8957SOL    HW227771   2.631   4.651   1.754
 8958SOL     OW27772   0.670   6.953   4.355
 8958SOL    HW127773   0.609   6.987   4.427
 8958SOL    HW227774   0.765   6.974   4.379
 8959SOL     OW27775   1.042   5.035   0.745
 8959SOL    HW127776   1.056   5.130   0.715
 8959SOL    HW227777   0.975   4.991   0.686
 8960SOL     OW27778   4.332   5.536   2.806
 8960SOL    HW127779   4.355   5.602   2.878
 8960SOL    HW227780   4.399   5.462   2.804
 8961SOL     OW27781   1.339   1.621   4.571
 8961SOL    HW127782   1.390   1.705   4.592
 8961SOL    HW227783   1.352   1.597   4.475
 8962SOL     OW27784   5.602   6.935   2.648
 8962SOL    HW127785   5.522   6.956   2.703
 8962SOL    HW227786   5.650   6.856   2.687
 8963SOL     OW27787   5.362   6.640   4.465
 8963SOL    HW127788   5.323   6.602   4.381
 8963SOL    HW227789   5.341   6.737   4.470
 8964SOL     OW27790   5.505   5.322   2.261
 8964SOL    HW127791   5.552   5.233   2.268
 8964SOL    HW227792   5.423   5.321   2.318
 8965SOL     OW27793   1.724   5.669   0.961
 8965SOL    HW127794   1.818   5.640   0.943
 8965SOL    HW227795   1.687   5.714   0.880
 8966SOL     OW27796   1.537   3.128   6.264
 8966SOL    HW127797   1.544   3.028   6.261
 8966SOL    HW227798   1.629   3.168   6.260
 8967SOL     OW27799   3.762   6.688   1.673
 8967SOL    HW127800   3.665   6.712   1.683
 8967SOL    HW227801   3.775   6.643   1.584
 8968SOL     OW27802   5.243   5.833   1.939
 8968SOL    HW127803   5.311   5.854   2.010
 8968SOL    HW227804   5.210   5.918   1.898
 8969SOL     OW27805   6.216   0.890   3.351
 8969SOL    HW127806   6.118   0.907   3.343
 8969SOL    HW227807   6.250   0.927   3.438
 8970SOL     OW27808   3.414   2.398   1.420
 8970SOL    HW127809   3.439   2.442   1.506
 8970SOL    HW227810   3.318   2.371   1.422
 8971SOL     OW27811   3.216   6.403   2.340
 8971SOL    HW127812   3.205   6.312   2.378
 8971SOL    HW227813   3.307   6.412   2.300
 8972SOL     OW27814   4.714   6.216   7.004
 8972SOL    HW127815   4.717   6.131   6.951
 8972SOL    HW227816   4.653   6.281   6.959
 8973SOL     OW27817   1.188   4.535   1.471
 8973SOL    HW127818   1.253   4.462   1.491
 8973SOL    HW227819   1.095   4.502   1.489
 8974SOL     OW27820   1.035   4.265   6.624
 8974SOL    HW127821   1.103   4.209   6.672
 8974SOL    HW227822   1.083   4.329   6.564
 8975SOL     OW27823   2.622   0.341   0.285
 8975SOL    HW127824   2.641   0.424   0.337
 8975SOL    HW227825   2.548   0.358   0.220
 8976SOL     OW27826   1.563   5.610   5.066
 8976SOL    HW127827   1.605   5.691   5.107
 8976SOL    HW227828   1.580   5.609   4.968
 8977SOL     OW27829   6.321   1.379   6.026
 8977SOL    HW127830   6.399   1.340   6.075
 8977SOL    HW227831   6.293   1.317   5.952
 8978SOL     OW27832   5.971   6.317   0.080
 8978SOL    HW127833   6.036   6.392   0.091
 8978SOL    HW227834   5.994   6.243   0.143
 8979SOL     OW27835   1.841   3.925   5.074
 8979SOL    HW127836   1.792   3.987   5.013
 8979SOL    HW227837   1.872   3.976   5.155
 8980SOL     OW27838   2.904   3.683   5.483
 8980SOL    HW127839   2.913   3.689   5.383
 8980SOL    HW227840   2.967   3.749   5.526
 8981SOL     OW27841   3.645   1.607   5.481
 8981SOL    HW127842   3.674   1.513   5.494
 8981SOL    HW227843   3.634   1.625   5.383
 8982SOL     OW27844   2.050   3.356   0.250
 8982SOL    HW127845   2.126   3.357   0.185
 8982SOL    HW227846   2.057   3.436   0.310
 8983SOL     OW27847   3.418   6.105   6.798
 8983SOL    HW127848   3.365   6.149   6.725
 8983SOL    HW227849   3.513   6.094   6.767
 8984SOL     OW27850   2.386   6.524   2.991
 8984SOL    HW127851   2.476   6.564   3.013
 8984SOL    HW227852   2.384   6.499   2.894
 8985SOL     OW27853   2.963   2.165   0.559
 8985SOL    HW127854   3.020   2.243   0.532
 8985SOL    HW227855   2.884   2.199   0.610
 8986SOL     OW27856   3.337   4.959   2.851
 8986SOL    HW127857   3.291   4.946   2.939
 8986SOL    HW227858   3.431   4.926   2.857
 8987SOL     OW27859   4.628   6.199   3.168
 8987SOL    HW127860   4.555   6.268   3.165
 8987SOL    HW227861   4.631   6.158   3.259
 8988SOL     OW27862   0.432   6.190   3.551
 8988SOL    HW127863   0.509   6.130   3.532
 8988SOL    HW227864   0.397   6.172   3.643
 8989SOL     OW27865   4.385   3.290   6.263
 8989SOL    HW127866   4.460   3.318   6.323
 8989SOL    HW227867   4.420   3.229   6.192
 8990SOL     OW27868   0.415   4.885   3.838
 8990SOL    HW127869   0.449   4.950   3.770
 8990SOL    HW227870   0.346   4.827   3.796
 8991SOL     OW27871   1.494   3.328   4.446
 8991SOL    HW127872   1.565   3.399   4.449
 8991SOL    HW227873   1.494   3.278   4.533
 8992SOL     OW27874   4.851   1.399   0.550
 8992SOL    HW127875   4.898   1.451   0.478
 8992SOL    HW227876   4.767   1.360   0.514
 8993SOL     OW27877   4.242   3.015   6.659
 8993SOL    HW127878   4.170   2.963   6.612
 8993SOL    HW227879   4.207   3.050   6.745
 8994SOL     OW27880   1.573   4.736   4.595
 8994SOL    HW127881   1.559   4.641   4.567
 8994SOL    HW227882   1.486   4.775   4.627
 8995SOL     OW27883   6.069   1.646   1.061
 8995SOL    HW127884   6.154   1.683   1.023
 8995SOL    HW227885   6.046   1.561   1.014
 8996SOL     OW27886   5.408   4.142   5.648
 8996SOL    HW127887   5.446   4.058   5.686
 8996SOL    HW227888   5.401   4.211   5.720
 8997SOL     OW27889   4.663   0.743   6.152
 8997SOL    HW127890   4.647   0.819   6.215
 8997SOL    HW227891   4.631   0.658   6.193
 8998SOL     OW27892   5.849   3.510   3.651
 8998SOL    HW127893   5.917   3.509   3.578
 8998SOL    HW227894   5.896   3.508   3.740
 8999SOL     OW27895   5.187   0.105   6.319
 8999SOL    HW127896   5.115   0.173   6.303
 8999SOL    HW227897   5.255   0.143   6.381
 9000SOL     OW27898   1.482   3.308   1.984
 9000SOL    HW127899   1.566   3.357   1.962
 9000SOL    HW227900   1.403   3.365   1.961
 9001SOL     OW27901   0.164   5.423   1.943
 9001SOL    HW127902   0.073   5.432   1.985
 9001SOL    HW227903   0.234   5.426   2.015
 9002SOL     OW27904   1.237   4.868   5.093
 9002SOL    HW127905   1.139   4.887   5.088
 9002SOL    HW227906   1.268   4.827   5.007
 9003SOL     OW27907   4.993   2.997   1.114
 9003SOL    HW127908   4.946   3.006   1.202
 9003SOL    HW227909   5.089   3.021   1.125
 9004SOL     OW27910   4.492   4.967   0.835
 9004SOL    HW127911   4.423   4.895   0.829
 9004SOL    HW227912   4.574   4.940   0.784
 9005SOL     OW27913   5.726   1.379   5.477
 9005SOL    HW127914   5.804   1.441   5.481
 9005SOL    HW227915   5.759   1.284   5.478
 9006SOL     OW27916   2.436   6.484   0.870
 9006SOL    HW127917   2.469   6.528   0.954
 9006SOL    HW227918   2.446   6.385   0.879
 9007SOL     OW27919   2.617   1.501   2.408
 9007SOL    HW127920   2.714   1.484   2.427
 9007SOL    HW227921   2.591   1.451   2.326
 9008SOL     OW27922   0.537   4.944   3.015
 9008SOL    HW127923   0.506   5.035   2.985
 9008SOL    HW227924   0.633   4.932   2.991
 9009SOL     OW27925   3.213   5.438   1.388
 9009SOL    HW127926   3.303   5.434   1.430
 9009SOL    HW227927   3.151   5.376   1.435
 9010SOL     OW27928   2.481   6.315   4.220
 9010SOL    HW127929   2.534   6.342   4.140
 9010SOL    HW227930   2.496   6.380   4.294
 9011SOL     OW27931   3.759   0.751   1.472
 9011SOL    HW127932   3.793   0.762   1.566
 9011SOL    HW227933   3.762   0.839   1.425
 9012SOL     OW27934   2.337   5.600   0.222
 9012SOL    HW127935   2.283   5.609   0.305
 9012SOL    HW227936   2.430   5.571   0.246
 9013SOL     OW27937   0.601   0.391   4.949
 9013SOL    HW127938   0.624   0.488   4.952
 9013SOL    HW227939   0.642   0.345   5.027
 9014SOL     OW27940   6.223   2.858   1.240
 9014SOL    HW127941   6.276   2.909   1.171
 9014SOL    HW227942   6.284   2.828   1.313
 9015SOL     OW27943   4.880   2.454   1.521
 9015SOL    HW127944   4.866   2.550   1.547
 9015SOL    HW227945   4.792   2.406   1.524
 9016SOL     OW27946   5.604   5.031   6.833
 9016SOL    HW127947   5.601   4.998   6.738
 9016SOL    HW227948   5.513   5.030   6.872
 9017SOL     OW27949   4.037   1.073   4.245
 9017SOL    HW127950   4.068   1.030   4.160
 9017SOL    HW227951   4.090   1.156   4.261
 9018SOL     OW27952   3.506   3.612   6.329
 9018SOL    HW127953   3.467   3.612   6.421
 9018SOL    HW227954   3.513   3.706   6.296
 9019SOL     OW27955   0.996   4.160   2.578
 9019SOL    HW127956   0.929   4.124   2.643
 9019SOL    HW227957   1.085   4.117   2.594
 9020SOL     OW27958   6.821   4.415   0.897
 9020SOL    HW127959   6.901   4.462   0.861
 9020SOL    HW227960   6.851   4.332   0.945
 9021SOL     OW27961   6.778   1.087   3.595
 9021SOL    HW127962   6.763   1.054   3.502
 9021SOL    HW227963   6.691   1.114   3.635
 9022SOL     OW27964   3.735   1.160   0.189
 9022SOL    HW127965   3.753   1.239   0.130
 9022SOL    HW227966   3.637   1.138   0.185
 9023SOL     OW27967   4.322   3.657   1.597
 9023SOL    HW127968   4.283   3.600   1.669
 9023SOL    HW227969   4.367   3.736   1.638
 9024SOL     OW27970   0.842   4.646   5.042
 9024SOL    HW127971   0.933   4.611   5.062
 9024SOL    HW227972   0.781   4.627   5.119
 9025SOL     OW27973   6.616   6.072   0.685
 9025SOL    HW127974   6.654   5.988   0.645
 9025SOL    HW227975   6.648   6.081   0.779
 9026SOL     OW27976   3.232   2.069   0.624
 9026SOL    HW127977   3.195   2.049   0.715
 9026SOL    HW227978   3.176   2.139   0.580
 9027SOL     OW27979   0.936   3.590   3.619
 9027SOL    HW127980   0.955   3.512   3.560
 9027SOL    HW227981   0.994   3.667   3.594
 9028SOL     OW27982   4.009   2.775   5.417
 9028SOL    HW127983   4.077   2.735   5.354
 9028SOL    HW227984   3.945   2.832   5.364
 9029SOL     OW27985   4.278   0.194   5.037
 9029SOL    HW127986   4.281   0.276   4.980
 9029SOL    HW227987   4.335   0.207   5.118
 9030SOL     OW27988   1.979   2.535   4.279
 9030SOL    HW127989   1.893   2.483   4.278
 9030SOL    HW227990   2.031   2.515   4.197
 9031SOL     OW27991   4.248   0.049   4.809
 9031SOL    HW127992   4.183   0.097   4.749
 9031SOL    HW227993   4.262   0.103   4.892
 9032SOL     OW27994   4.584   3.798   0.996
 9032SOL    HW127995   4.639   3.788   0.913
 9032SOL    HW227996   4.517   3.872   0.983
 9033SOL     OW27997   0.653   4.572   2.538
 9033SOL    HW127998   0.609   4.497   2.587
 9033SOL    HW227999   0.636   4.563   2.440
 9034SOL     OW28000   3.396   6.294   4.667
 9034SOL    HW128001   3.301   6.266   4.684
 9034SOL    HW228002   3.444   6.221   4.619
 9035SOL     OW28003   1.880   5.553   6.801
 9035SOL    HW128004   1.866   5.644   6.841
 9035SOL    HW228005   1.837   5.484   6.859
 9036SOL     OW28006   1.472   4.081   5.662
 9036SOL    HW128007   1.568   4.059   5.679
 9036SOL    HW228008   1.430   4.114   5.747
 9037SOL     OW28009   1.122   3.116   4.392
 9037SOL    HW128010   1.133   3.018   4.411
 9037SOL    HW228011   1.211   3.155   4.369
 9038SOL     OW28012   4.461   3.412   0.161
 9038SOL    HW128013   4.417   3.360   0.088
 9038SOL    HW228014   4.481   3.505   0.129
 9039SOL     OW28015   3.259   4.586   0.005
 9039SOL    HW128016   3.344   4.559   0.049
 9039SOL    HW228017   3.183   4.577   0.070
 9040SOL     OW28018   2.878   2.221   2.260
 9040SOL    HW128019   2.887   2.283   2.182
 9040SOL    HW228020   2.902   2.129   2.232
 9041SOL     OW28021   1.121   2.324   1.170
 9041SOL    HW128022   1.148   2.290   1.080
 9041SOL    HW228023   1.021   2.327   1.176
 9042SOL     OW28024   3.744   6.682   4.953
 9042SOL    HW128025   3.781   6.657   5.042
 9042SOL    HW228026   3.786   6.625   4.882
 9043SOL     OW28027   2.051   1.436   6.201
 9043SOL    HW128028   2.147   1.415   6.185
 9043SOL    HW228029   1.993   1.366   6.160
 9044SOL     OW28030   0.770   1.146   6.981
 9044SOL    HW128031   0.711   1.214   6.937
 9044SOL    HW228032   0.714   1.078   0.001
 9045SOL     OW28033   4.100   0.451   2.894
 9045SOL    HW128034   4.100   0.371   2.954
 9045SOL    HW228035   4.104   0.534   2.949
 9046SOL     OW28036   4.082   3.834   2.458
 9046SOL    HW128037   4.160   3.839   2.521
 9046SOL    HW228038   4.030   3.919   2.464
 9047SOL     OW28039   1.332   4.246   5.101
 9047SOL    HW128040   1.402   4.177   5.120
 9047SOL    HW228041   1.303   4.288   5.187
 9048SOL     OW28042   6.318   2.737   6.361
 9048SOL    HW128043   6.288   2.725   6.455
 9048SOL    HW228044   6.385   2.811   6.356
 9049SOL     OW28045   3.598   6.197   5.458
 9049SOL    HW128046   3.696   6.189   5.475
 9049SOL    HW228047   3.556   6.248   5.533
 9050SOL     OW28048   0.488   3.644   1.216
 9050SOL    HW128049   0.523   3.583   1.146
 9050SOL    HW228050   0.388   3.640   1.217
 9051SOL     OW28051   2.158   0.444   1.570
 9051SOL    HW128052   2.212   0.380   1.624
 9051SOL    HW228053   2.120   0.396   1.490
 9052SOL     OW28054   2.100   3.331   4.089
 9052SOL    HW128055   2.140   3.353   4.178
 9052SOL    HW228056   2.003   3.311   4.101
 9053SOL     OW28057   2.044   1.082   0.851
 9053SOL    HW128058   1.960   1.111   0.806
 9053SOL    HW228059   2.118   1.143   0.825
 9054SOL     OW28060   2.377   5.615   4.212
 9054SOL    HW128061   2.307   5.565   4.264
 9054SOL    HW228062   2.334   5.691   4.163
 9055SOL     OW28063   6.399   3.794   4.446
 9055SOL    HW128064   6.446   3.879   4.470
 9055SOL    HW228065   6.422   3.723   4.512
 9056SOL     OW28066   6.769   1.893   2.595
 9056SOL    HW128067   6.726   1.885   2.505
 9056SOL    HW228068   6.714   1.846   2.663
 9057SOL     OW28069   4.456   2.206   4.602
 9057SOL    HW128070   4.404   2.121   4.611
 9057SOL    HW228071   4.450   2.258   4.687
 9058SOL     OW28072   1.283   1.040   6.992
 9058SOL    HW128073   1.345   1.083   0.033
 9058SOL    HW228074   1.192   1.080   7.001
 9059SOL     OW28075   0.964   2.527   2.853
 9059SOL    HW128076   0.886   2.468   2.873
 9059SOL    HW228077   0.998   2.510   2.761
 9060SOL     OW28078   5.764   2.890   4.556
 9060SOL    HW128079   5.811   2.931   4.634
 9060SOL    HW228080   5.718   2.806   4.584
 9061SOL     OW28081   3.806   5.503   2.519
 9061SOL    HW128082   3.867   5.540   2.450
 9061SOL    HW228083   3.825   5.405   2.532
 9062SOL     OW28084   1.372   5.283   1.482
 9062SOL    HW128085   1.321   5.219   1.424
 9062SOL    HW228086   1.366   5.375   1.443
 9063SOL     OW28087   2.743   1.119   3.685
 9063SOL    HW128088   2.739   1.198   3.624
 9063SOL    HW228089   2.650   1.086   3.702
 9064SOL     OW28090   6.651   3.510   6.545
 9064SOL    HW128091   6.595   3.458   6.480
 9064SOL    HW228092   6.592   3.563   6.605
 9065SOL     OW28093   4.393   0.169   0.467
 9065SOL    HW128094   4.375   0.252   0.519
 9065SOL    HW228095   4.466   0.186   0.401
 9066SOL     OW28096   5.929   0.425   0.258
 9066SOL    HW128097   5.904   0.433   0.162
 9066SOL    HW228098   5.961   0.332   0.277
 9067SOL     OW28099   1.823   0.352   3.192
 9067SOL    HW128100   1.879   0.393   3.264
 9067SOL    HW228101   1.830   0.252   3.197
 9068SOL     OW28102   0.988   6.200   4.984
 9068SOL    HW128103   0.998   6.195   5.084
 9068SOL    HW228104   0.923   6.272   4.961
 9069SOL     OW28105   1.324   3.242   6.384
 9069SOL    HW128106   1.312   3.204   6.476
 9069SOL    HW228107   1.407   3.205   6.343
 9070SOL     OW28108   2.194   3.883   4.637
 9070SOL    HW128109   2.144   3.897   4.723
 9070SOL    HW228110   2.292   3.893   4.653
 9071SOL     OW28111   6.557   6.486   0.770
 9071SOL    HW128112   6.532   6.398   0.812
 9071SOL    HW228113   6.620   6.535   0.830
 9072SOL     OW28114   6.874   3.656   0.431
 9072SOL    HW128115   6.848   3.565   0.399
 9072SOL    HW228116   6.961   3.682   0.389
 9073SOL     OW28117   2.049   0.683   1.537
 9073SOL    HW128118   2.110   0.759   1.561
 9073SOL    HW228119   2.095   0.597   1.557
 9074SOL     OW28120   1.395   0.106   2.250
 9074SOL    HW128121   1.308   0.132   2.292
 9074SOL    HW228122   1.470   0.134   2.310
 9075SOL     OW28123   6.608   0.308   2.210
 9075SOL    HW128124   6.683   0.257   2.253
 9075SOL    HW228125   6.641   0.355   2.129
 9076SOL     OW28126   0.314   1.257   6.049
 9076SOL    HW128127   0.323   1.282   6.145
 9076SOL    HW228128   0.314   1.157   6.040
 9077SOL     OW28129   4.062   6.985   2.507
 9077SOL    HW128130   3.980   7.024   2.548
 9077SOL    HW228131   4.055   6.990   2.407
 9078SOL     OW28132   3.951   3.416   4.707
 9078SOL    HW128133   3.887   3.491   4.721
 9078SOL    HW228134   3.926   3.366   4.623
 9079SOL     OW28135   3.231   6.881   4.434
 9079SOL    HW128136   3.142   6.850   4.468
 9079SOL    HW228137   3.247   6.975   4.462
 9080SOL     OW28138   5.337   2.677   6.909
 9080SOL    HW128139   5.247   2.637   6.894
 9080SOL    HW228140   5.329   2.777   6.912
 9081SOL     OW28141   5.164   6.155   2.945
 9081SOL    HW128142   5.233   6.132   2.877
 9081SOL    HW228143   5.162   6.254   2.959
 9082SOL     OW28144   2.214   0.298   3.473
 9082SOL    HW128145   2.290   0.325   3.531
 9082SOL    HW228146   2.210   0.198   3.467
 9083SOL     OW28147   4.857   4.645   5.330
 9083SOL    HW128148   4.802   4.723   5.358
 9083SOL    HW228149   4.954   4.666   5.343
 9084SOL     OW28150   2.977   3.775   3.048
 9084SOL    HW128151   2.952   3.730   2.962
 9084SOL    HW228152   3.012   3.867   3.028
 9085SOL     OW28153   2.345   1.625   1.013
 9085SOL    HW128154   2.362   1.554   0.945
 9085SOL    HW228155   2.318   1.582   1.099
 9086SOL     OW28156   0.847   3.502   0.651
 9086SOL    HW128157   0.865   3.574   0.585
 9086SOL    HW228158   0.931   3.450   0.668
 9087SOL     OW28159   4.972   3.291   2.451
 9087SOL    HW128160   4.919   3.220   2.406
 9087SOL    HW228161   4.951   3.291   2.549
 9088SOL     OW28162   6.728   0.440   6.781
 9088SOL    HW128163   6.735   0.340   6.775
 9088SOL    HW228164   6.632   0.467   6.769
 9089SOL     OW28165   4.894   6.797   5.978
 9089SOL    HW128166   4.889   6.889   6.018
 9089SOL    HW228167   4.943   6.802   5.891
 9090SOL     OW28168   5.398   0.361   4.936
 9090SOL    HW128169   5.399   0.454   4.973
 9090SOL    HW228170   5.332   0.355   4.862
 9091SOL     OW28171   3.326   3.760   6.835
 9091SOL    HW128172   3.321   3.823   6.912
 9091SOL    HW228173   3.319   3.811   6.750
 9092SOL     OW28174   0.099   2.062   6.571
 9092SOL    HW128175   0.008   2.067   6.612
 9092SOL    HW228176   0.134   1.969   6.582
 9093SOL     OW28177   1.445   6.747   5.437
 9093SOL    HW128178   1.389   6.681   5.489
 9093SOL    HW228179   1.385   6.815   5.396
 9094SOL     OW28180   0.226   3.171   1.795
 9094SOL    HW128181   0.276   3.095   1.837
 9094SOL    HW228182   0.212   3.152   1.698
 9095SOL     OW28183   5.329   5.505   5.373
 9095SOL    HW128184   5.425   5.528   5.355
 9095SOL    HW228185   5.279   5.502   5.286
 9096SOL     OW28186   6.518   5.031   2.930
 9096SOL    HW128187   6.424   5.005   2.948
 9096SOL    HW228188   6.577   4.951   2.940
 9097SOL     OW28189   0.626   2.603   5.858
 9097SOL    HW128190   0.610   2.675   5.791
 9097SOL    HW228191   0.647   2.644   5.947
 9098SOL     OW28192   1.767   2.547   4.532
 9098SOL    HW128193   1.826   2.498   4.597
 9098SOL    HW228194   1.727   2.481   4.468
 9099SOL     OW28195   2.049   3.464   6.145
 9099SOL    HW128196   2.120   3.524   6.182
 9099SOL    HW228197   2.091   3.379   6.113
 9100SOL     OW28198   1.741   4.257   2.410
 9100SOL    HW128199   1.719   4.225   2.502
 9100SOL    HW228200   1.657   4.283   2.363
 9101SOL     OW28201   2.599   1.303   2.208
 9101SOL    HW128202   2.630   1.208   2.214
 9101SOL    HW228203   2.500   1.306   2.197
 9102SOL     OW28204   4.461   6.421   3.126
 9102SOL    HW128205   4.490   6.505   3.080
 9102SOL    HW228206   4.399   6.370   3.067
 9103SOL     OW28207   6.518   1.633   6.850
 9103SOL    HW128208   6.488   1.551   6.898
 9103SOL    HW228209   6.616   1.627   6.831
 9104SOL     OW28210   0.163   0.815   0.198
 9104SOL    HW128211   0.208   0.727   0.181
 9104SOL    HW228212   0.070   0.812   0.161
 9105SOL     OW28213   1.791   0.141   5.900
 9105SOL    HW128214   1.848   0.117   5.821
 9105SOL    HW228215   1.839   0.209   5.956
 9106SOL     OW28216   0.662   4.783   6.538
 9106SOL    HW128217   0.597   4.728   6.486
 9106SOL    HW228218   0.721   4.833   6.474
 9107SOL     OW28219   2.481   0.864   6.395
 9107SOL    HW128220   2.566   0.914   6.378
 9107SOL    HW228221   2.503   0.772   6.429
 9108SOL     OW28222   5.455   5.367   5.662
 9108SOL    HW128223   5.360   5.400   5.664
 9108SOL    HW228224   5.477   5.333   5.571
 9109SOL     OW28225   5.579   2.474   2.136
 9109SOL    HW128226   5.672   2.465   2.172
 9109SOL    HW228227   5.531   2.546   2.185
 9110SOL     OW28228   1.675   5.823   5.170
 9110SOL    HW128229   1.704   5.828   5.265
 9110SOL    HW228230   1.721   5.894   5.117
 9111SOL     OW28231   4.547   2.605   5.363
 9111SOL    HW128232   4.519   2.539   5.293
 9111SOL    HW228233   4.522   2.697   5.334
 9112SOL     OW28234   2.304   5.193   2.454
 9112SOL    HW128235   2.252   5.268   2.414
 9112SOL    HW228236   2.267   5.170   2.544
 9113SOL     OW28237   4.725   2.151   3.455
 9113SOL    HW128238   4.782   2.214   3.508
 9113SOL    HW228239   4.685   2.083   3.515
 9114SOL     OW28240   1.193   6.358   4.905
 9114SOL    HW128241   1.131   6.284   4.932
 9114SOL    HW228242   1.255   6.379   4.980
 9115SOL     OW28243   5.917   4.774   3.723
 9115SOL    HW128244   5.843   4.741   3.783
 9115SOL    HW228245   5.996   4.712   3.731
 9116SOL     OW28246   0.690   6.897   3.642
 9116SOL    HW128247   0.772   6.855   3.606
 9116SOL    HW228248   0.677   6.988   3.602
 9117SOL     OW28249   4.179   0.630   6.732
 9117SOL    HW128250   4.147   0.620   6.826
 9117SOL    HW228251   4.154   0.720   6.697
 9118SOL     OW28252   5.487   4.311   0.521
 9118SOL    HW128253   5.466   4.218   0.491
 9118SOL    HW228254   5.504   4.310   0.619
 9119SOL     OW28255   3.567   6.716   0.812
 9119SOL    HW128256   3.666   6.710   0.826
 9119SOL    HW228257   3.519   6.662   0.881
 9120SOL     OW28258   5.923   2.765   5.725
 9120SOL    HW128259   5.918   2.712   5.640
 9120SOL    HW228260   5.831   2.795   5.751
 9121SOL     OW28261   3.276   0.082   5.528
 9121SOL    HW128262   3.318   0.009   5.474
 9121SOL    HW228263   3.316   0.170   5.501
 9122SOL     OW28264   2.177   4.479   2.030
 9122SOL    HW128265   2.194   4.434   2.118
 9122SOL    HW228266   2.202   4.576   2.037
 9123SOL     OW28267   1.235   1.089   3.534
 9123SOL    HW128268   1.234   0.992   3.561
 9123SOL    HW228269   1.196   1.144   3.608
 9124SOL     OW28270   3.122   5.072   1.526
 9124SOL    HW128271   3.215   5.092   1.557
 9124SOL    HW228272   3.066   5.155   1.532
 9125SOL     OW28273   4.311   6.549   0.588
 9125SOL    HW128274   4.326   6.501   0.502
 9125SOL    HW228275   4.309   6.483   0.663
 9126SOL     OW28276   3.935   5.146   0.458
 9126SOL    HW128277   3.968   5.073   0.397
 9126SOL    HW228278   3.934   5.112   0.552
 9127SOL     OW28279   0.069   3.978   5.289
 9127SOL    HW128280   0.089   4.005   5.195
 9127SOL    HW228281   0.064   3.878   5.294
 9128SOL     OW28282   5.659   3.320   4.852
 9128SOL    HW128283   5.612   3.232   4.861
 9128SOL    HW228284   5.719   3.333   4.931
 9129SOL     OW28285   1.729   1.748   0.716
 9129SOL    HW128286   1.669   1.827   0.712
 9129SOL    HW228287   1.684   1.674   0.767
 9130SOL     OW28288   2.741   4.147   5.403
 9130SOL    HW128289   2.654   4.168   5.357
 9130SOL    HW228290   2.817   4.176   5.344
 9131SOL     OW28291   6.045   2.453   1.054
 9131SOL    HW128292   6.081   2.472   0.962
 9131SOL    HW228293   6.021   2.539   1.099
 9132SOL     OW28294   0.664   3.608   3.670
 9132SOL    HW128295   0.628   3.516   3.657
 9132SOL    HW228296   0.764   3.606   3.663
 9133SOL     OW28297   4.921   0.663   0.830
 9133SOL    HW128298   4.888   0.757   0.820
 9133SOL    HW228299   4.853   0.609   0.879
 9134SOL     OW28300   4.564   5.262   0.798
 9134SOL    HW128301   4.579   5.355   0.762
 9134SOL    HW228302   4.651   5.212   0.797
 9135SOL     OW28303   0.774   6.067   2.524
 9135SOL    HW128304   0.814   6.123   2.597
 9135SOL    HW228305   0.692   6.112   2.489
 9136SOL     OW28306   6.413   4.949   6.365
 9136SOL    HW128307   6.354   4.870   6.346
 9136SOL    HW228308   6.377   5.029   6.317
 9137SOL     OW28309   4.532   6.029   0.118
 9137SOL    HW128310   4.539   5.974   0.035
 9137SOL    HW228311   4.596   6.106   0.113
 9138SOL     OW28312   2.926   3.393   1.135
 9138SOL    HW128313   2.867   3.463   1.093
 9138SOL    HW228314   3.021   3.410   1.110
 9139SOL     OW28315   6.976   0.574   1.236
 9139SOL    HW128316   0.050   0.576   1.246
 9139SOL    HW228317   6.934   0.562   1.326
 9140SOL     OW28318   0.742   4.284   2.318
 9140SOL    HW128319   0.682   4.232   2.378
 9140SOL    HW228320   0.829   4.236   2.308
 9141SOL     OW28321   6.823   5.697   5.987
 9141SOL    HW128322   6.793   5.789   5.962
 9141SOL    HW228323   6.761   5.630   5.946
 9142SOL     OW28324   1.085   3.817   3.573
 9142SOL    HW128325   1.164   3.846   3.626
 9142SOL    HW228326   1.011   3.884   3.582
 9143SOL     OW28327   6.817   3.338   2.418
 9143SOL    HW128328   6.779   3.264   2.362
 9143SOL    HW228329   6.750   3.411   2.427
 9144SOL     OW28330   2.798   4.448   5.420
 9144SOL    HW128331   2.833   4.478   5.332
 9144SOL    HW228332   2.799   4.348   5.425
 9145SOL     OW28333   1.513   6.617   5.850
 9145SOL    HW128334   1.472   6.705   5.822
 9145SOL    HW228335   1.453   6.543   5.821
 9146SOL     OW28336   6.063   3.227   2.760
 9146SOL    HW128337   6.079   3.139   2.805
 9146SOL    HW228338   6.065   3.300   2.828
 9147SOL     OW28339   4.575   0.162   4.347
 9147SOL    HW128340   4.512   0.143   4.422
 9147SOL    HW228341   4.626   0.079   4.323
 9148SOL     OW28342   6.244   6.793   1.836
 9148SOL    HW128343   6.275   6.728   1.905
 9148SOL    HW228344   6.234   6.883   1.877
 9149SOL     OW28345   6.769   3.805   1.002
 9149SOL    HW128346   6.771   3.890   0.950
 9149SOL    HW228347   6.800   3.822   1.095
 9150SOL     OW28348   2.775   2.815   0.468
 9150SOL    HW128349   2.680   2.795   0.491
 9150SOL    HW228350   2.778   2.889   0.400
 9151SOL     OW28351   1.808   3.244   3.549
 9151SOL    HW128352   1.731   3.272   3.492
 9151SOL    HW228353   1.789   3.267   3.645
 9152SOL     OW28354   2.139   4.348   3.925
 9152SOL    HW128355   2.142   4.262   3.976
 9152SOL    HW228356   2.079   4.413   3.971
 9153SOL     OW28357   6.796   3.361   6.799
 9153SOL    HW128358   6.808   3.414   6.715
 9153SOL    HW228359   6.709   3.313   6.796
 9154SOL     OW28360   5.897   4.726   3.158
 9154SOL    HW128361   5.895   4.695   3.253
 9154SOL    HW228362   5.977   4.784   3.144
 9155SOL     OW28363   0.805   6.210   2.895
 9155SOL    HW128364   0.748   6.199   2.976
 9155SOL    HW228365   0.769   6.282   2.837
 9156SOL     OW28366   6.522   3.886   6.665
 9156SOL    HW128367   6.534   3.946   6.744
 9156SOL    HW228368   6.477   3.802   6.694
 9157SOL     OW28369   2.369   5.240   6.058
 9157SOL    HW128370   2.298   5.226   5.990
 9157SOL    HW228371   2.327   5.249   6.148
 9158SOL     OW28372   6.852   3.269   4.476
 9158SOL    HW128373   6.864   3.183   4.525
 9158SOL    HW228374   6.774   3.261   4.413
 9159SOL     OW28375   3.673   1.060   3.260
 9159SOL    HW128376   3.576   1.060   3.235
 9159SOL    HW228377   3.683   1.093   3.354
 9160SOL     OW28378   0.209   4.501   0.400
 9160SOL    HW128379   0.269   4.423   0.383
 9160SOL    HW228380   0.159   4.524   0.317
 9161SOL     OW28381   6.311   3.930   1.393
 9161SOL    HW128382   6.237   3.908   1.329
 9161SOL    HW228383   6.333   3.849   1.447
 9162SOL     OW28384   4.654   1.892   1.975
 9162SOL    HW128385   4.566   1.934   1.952
 9162SOL    HW228386   4.650   1.794   1.956
 9163SOL     OW28387   1.677   2.579   3.263
 9163SOL    HW128388   1.690   2.613   3.169
 9163SOL    HW228389   1.592   2.615   3.300
 9164SOL     OW28390   2.271   0.716   6.541
 9164SOL    HW128391   2.318   0.787   6.489
 9164SOL    HW228392   2.302   0.626   6.511
 9165SOL     OW28393   5.259   1.953   5.694
 9165SOL    HW128394   5.354   1.980   5.675
 9165SOL    HW228395   5.199   1.997   5.627
 9166SOL     OW28396   5.343   5.356   1.711
 9166SOL    HW128397   5.430   5.350   1.663
 9166SOL    HW228398   5.359   5.354   1.810
 9167SOL     OW28399   2.084   0.833   4.759
 9167SOL    HW128400   2.031   0.819   4.843
 9167SOL    HW228401   2.137   0.751   4.739
 9168SOL     OW28402   6.549   5.792   4.635
 9168SOL    HW128403   6.518   5.712   4.585
 9168SOL    HW228404   6.472   5.835   4.682
 9169SOL     OW28405   6.272   6.339   0.725
 9169SOL    HW128406   6.187   6.352   0.777
 9169SOL    HW228407   6.349   6.331   0.789
 9170SOL     OW28408   1.263   1.352   5.164
 9170SOL    HW128409   1.207   1.278   5.125
 9170SOL    HW228410   1.286   1.330   5.259
 9171SOL     OW28411   3.302   4.594   0.664
 9171SOL    HW128412   3.232   4.534   0.625
 9171SOL    HW228413   3.262   4.684   0.682
 9172SOL     OW28414   4.992   1.586   4.177
 9172SOL    HW128415   4.960   1.670   4.221
 9172SOL    HW228416   4.917   1.521   4.171
 9173SOL     OW28417   5.603   3.111   3.867
 9173SOL    HW128418   5.697   3.142   3.877
 9173SOL    HW228419   5.559   3.161   3.792
 9174SOL     OW28420   6.977   4.831   0.242
 9174SOL    HW128421   6.956   4.924   0.212
 9174SOL    HW228422   0.016   4.789   0.179
 9175SOL     OW28423   1.805   6.703   6.734
 9175SOL    HW128424   1.751   6.622   6.714
 9175SOL    HW228425   1.759   6.757   6.805
 9176SOL     OW28426   1.928   1.401   2.348
 9176SOL    HW128427   1.935   1.380   2.446
 9176SOL    HW228428   1.936   1.500   2.335
 9177SOL     OW28429   0.694   3.861   3.774
 9177SOL    HW128430   0.660   3.770   3.750
 9177SOL    HW228431   0.767   3.852   3.841
 9178SOL     OW28432   1.543   6.623   0.321
 9178SOL    HW128433   1.457   6.657   0.283
 9178SOL    HW228434   1.605   6.599   0.246
 9179SOL     OW28435   4.041   5.684   5.516
 9179SOL    HW128436   3.942   5.674   5.527
 9179SOL    HW228437   4.072   5.626   5.440
 9180SOL     OW28438   0.318   1.004   4.134
 9180SOL    HW128439   0.315   0.987   4.233
 9180SOL    HW228440   0.255   1.079   4.112
 9181SOL     OW28441   3.923   1.856   3.789
 9181SOL    HW128442   3.975   1.869   3.705
 9181SOL    HW228443   3.959   1.777   3.839
 9182SOL     OW28444   1.996   1.305   2.607
 9182SOL    HW128445   2.080   1.263   2.641
 9182SOL    HW228446   1.971   1.381   2.666
 9183SOL     OW28447   6.544   2.912   5.894
 9183SOL    HW128448   6.446   2.929   5.889
 9183SOL    HW228449   6.561   2.838   5.959
 9184SOL     OW28450   3.494   3.199   0.932
 9184SOL    HW128451   3.523   3.257   0.856
 9184SOL    HW228452   3.405   3.230   0.964
 9185SOL     OW28453   1.011   0.253   6.503
 9185SOL    HW128454   1.032   0.316   6.577
 9185SOL    HW228455   1.072   0.174   6.508
 9186SOL     OW28456   5.748   1.128   6.638
 9186SOL    HW128457   5.664   1.104   6.589
 9186SOL    HW228458   5.731   1.209   6.695
 9187SOL     OW28459   4.751   1.853   0.789
 9187SOL    HW128460   4.705   1.814   0.869
 9187SOL    HW228461   4.801   1.781   0.742
 9188SOL     OW28462   1.199   0.595   1.492
 9188SOL    HW128463   1.200   0.554   1.583
 9188SOL    HW228464   1.112   0.642   1.477
 9189SOL     OW28465   4.126   1.409   4.056
 9189SOL    HW128466   4.045   1.412   4.115
 9189SOL    HW228467   4.114   1.337   3.988
 9190SOL     OW28468   6.325   3.389   5.349
 9190SOL    HW128469   6.307   3.478   5.390
 9190SOL    HW228470   6.349   3.324   5.420
 9191SOL     OW28471   5.656   6.185   0.677
 9191SOL    HW128472   5.706   6.263   0.640
 9191SOL    HW228473   5.585   6.217   0.739
 9192SOL     OW28474   6.166   4.477   4.812
 9192SOL    HW128475   6.193   4.558   4.863
 9192SOL    HW228476   6.243   4.446   4.755
 9193SOL     OW28477   3.362   3.357   3.583
 9193SOL    HW128478   3.289   3.306   3.628
 9193SOL    HW228479   3.451   3.324   3.614
 9194SOL     OW28480   2.960   5.500   2.768
 9194SOL    HW128481   2.952   5.571   2.839
 9194SOL    HW228482   2.869   5.471   2.740
 9195SOL     OW28483   6.644   3.222   2.694
 9195SOL    HW128484   6.637   3.125   2.672
 9195SOL    HW228485   6.577   3.244   2.766
 9196SOL     OW28486   4.680   0.246   3.693
 9196SOL    HW128487   4.697   0.153   3.662
 9196SOL    HW228488   4.746   0.270   3.764
 9197SOL     OW28489   3.905   3.362   6.398
 9197SOL    HW128490   3.916   3.460   6.378
 9197SOL    HW228491   3.969   3.336   6.470
 9198SOL     OW28492   5.736   2.470   5.245
 9198SOL    HW128493   5.680   2.553   5.248
 9198SOL    HW228494   5.775   2.460   5.154
 9199SOL     OW28495   1.433   3.814   6.933
 9199SOL    HW128496   1.343   3.858   6.939
 9199SOL    HW228497   1.503   3.875   6.969
 9200SOL     OW28498   6.603   0.737   0.169
 9200SOL    HW128499   6.564   0.793   0.096
 9200SOL    HW228500   6.650   0.658   0.129
 9201SOL     OW28501   1.088   3.844   2.673
 9201SOL    HW128502   1.152   3.914   2.704
 9201SOL    HW228503   1.134   3.785   2.605
 9202SOL     OW28504   3.035   5.145   4.342
 9202SOL    HW128505   3.100   5.069   4.346
 9202SOL    HW228506   2.997   5.161   4.433
 9203SOL     OW28507   5.289   0.508   5.876
 9203SOL    HW128508   5.370   0.567   5.876
 9203SOL    HW228509   5.244   0.515   5.787
 9204SOL     OW28510   4.713   4.231   2.219
 9204SOL    HW128511   4.689   4.134   2.231
 9204SOL    HW228512   4.660   4.269   2.143
 9205SOL     OW28513   5.364   2.922   2.429
 9205SOL    HW128514   5.335   2.923   2.524
 9205SOL    HW228515   5.284   2.933   2.369
 9206SOL     OW28516   0.770   0.084   3.264
 9206SOL    HW128517   0.860   0.045   3.282
 9206SOL    HW228518   0.719   0.089   3.350
 9207SOL     OW28519   4.319   6.934   0.555
 9207SOL    HW128520   4.367   7.020   0.541
 9207SOL    HW228521   4.241   6.928   0.493
 9208SOL     OW28522   5.233   4.182   1.726
 9208SOL    HW128523   5.161   4.145   1.667
 9208SOL    HW228524   5.204   4.177   1.821
 9209SOL     OW28525   4.323   1.307   2.535
 9209SOL    HW128526   4.374   1.239   2.587
 9209SOL    HW228527   4.241   1.265   2.496
 9210SOL     OW28528   1.364   0.215   1.094
 9210SOL    HW128529   1.322   0.287   1.038
 9210SOL    HW228530   1.374   0.132   1.038
 9211SOL     OW28531   5.267   1.181   6.782
 9211SOL    HW128532   5.312   1.262   6.820
 9211SOL    HW228533   5.168   1.192   6.792
 9212SOL     OW28534   5.392   3.720   4.930
 9212SOL    HW128535   5.445   3.794   4.889
 9212SOL    HW228536   5.303   3.713   4.885
 9213SOL     OW28537   5.882   6.783   2.910
 9213SOL    HW128538   5.868   6.798   3.007
 9213SOL    HW228539   5.963   6.832   2.879
 9214SOL     OW28540   2.087   2.307   4.975
 9214SOL    HW128541   2.042   2.237   5.030
 9214SOL    HW228542   2.166   2.268   4.928
 9215SOL     OW28543   0.816   3.492   2.972
 9215SOL    HW128544   0.750   3.421   2.999
 9215SOL    HW228545   0.856   3.468   2.884
 9216SOL     OW28546   2.351   5.640   4.692
 9216SOL    HW128547   2.351   5.562   4.630
 9216SOL    HW228548   2.274   5.633   4.756
 9217SOL     OW28549   4.537   0.962   6.312
 9217SOL    HW128550   4.545   0.989   6.408
 9217SOL    HW228551   4.440   0.957   6.286
 9218SOL     OW28552   5.674   5.537   6.396
 9218SOL    HW128553   5.689   5.513   6.300
 9218SOL    HW228554   5.672   5.453   6.451
 9219SOL     OW28555   3.576   2.750   5.676
 9219SOL    HW128556   3.653   2.777   5.618
 9219SOL    HW228557   3.499   2.811   5.660
 9220SOL     OW28558   1.510   6.323   3.442
 9220SOL    HW128559   1.466   6.403   3.401
 9220SOL    HW228560   1.609   6.332   3.434
 9221SOL     OW28561   2.179   0.801   0.436
 9221SOL    HW128562   2.226   0.731   0.490
 9221SOL    HW228563   2.145   0.760   0.351
 9222SOL     OW28564   1.552   3.733   3.552
 9222SOL    HW128565   1.471   3.745   3.495
 9222SOL    HW228566   1.634   3.741   3.495
 9223SOL     OW28567   0.843   3.693   4.730
 9223SOL    HW128568   0.883   3.693   4.822
 9223SOL    HW228569   0.781   3.771   4.721
 9224SOL     OW28570   1.818   4.387   4.343
 9224SOL    HW128571   1.818   4.290   4.316
 9224SOL    HW228572   1.890   4.403   4.410
 9225SOL     OW28573   4.737   6.629   6.898
 9225SOL    HW128574   4.653   6.666   6.858
 9225SOL    HW228575   4.713   6.572   6.978
 9226SOL     OW28576   0.733   0.924   1.088
 9226SOL    HW128577   0.672   0.862   1.039
 9226SOL    HW228578   0.827   0.912   1.055
 9227SOL     OW28579   2.364   5.640   0.625
 9227SOL    HW128580   2.426   5.697   0.678
 9227SOL    HW228581   2.366   5.547   0.659
 9228SOL     OW28582   2.914   2.918   5.603
 9228SOL    HW128583   2.937   2.887   5.695
 9228SOL    HW228584   2.862   3.003   5.608
 9229SOL     OW28585   0.295   4.802   6.798
 9229SOL    HW128586   0.309   4.899   6.778
 9229SOL    HW228587   0.370   4.748   6.759
 9230SOL     OW28588   4.568   1.504   4.818
 9230SOL    HW128589   4.557   1.415   4.774
 9230SOL    HW228590   4.542   1.497   4.914
 9231SOL     OW28591   6.766   5.690   4.123
 9231SOL    HW128592   6.691   5.748   4.154
 9231SOL    HW228593   6.742   5.648   4.036
 9232SOL     OW28594   1.588   5.137   1.865
 9232SOL    HW128595   1.561   5.051   1.908
 9232SOL    HW228596   1.650   5.118   1.788
 9233SOL     OW28597   0.681   6.807   0.337
 9233SOL    HW128598   0.587   6.792   0.308
 9233SOL    HW228599   0.733   6.722   0.328
 9234SOL     OW28600   2.165   4.193   0.200
 9234SOL    HW128601   2.170   4.146   0.288
 9234SOL    HW228602   2.147   4.290   0.216
 9235SOL     OW28603   2.402   2.300   3.816
 9235SOL    HW128604   2.483   2.279   3.762
 9235SOL    HW228605   2.323   2.251   3.779
 9236SOL     OW28606   2.430   3.665   6.438
 9236SOL    HW128607   2.374   3.742   6.467
 9236SOL    HW228608   2.520   3.672   6.480
 9237SOL     OW28609   6.229   4.856   3.225
 9237SOL    HW128610   6.184   4.914   3.293
 9237SOL    HW228611   6.243   4.908   3.141
 9238SOL     OW28612   1.719   2.717   5.442
 9238SOL    HW128613   1.671   2.795   5.484
 9238SOL    HW228614   1.666   2.682   5.366
 9239SOL     OW28615   0.556   4.639   6.763
 9239SOL    HW128616   0.603   4.655   6.676
 9239SOL    HW228617   0.613   4.673   6.838
 9240SOL     OW28618   4.776   2.325   2.869
 9240SOL    HW128619   4.794   2.407   2.923
 9240SOL    HW228620   4.782   2.348   2.772
 9241SOL     OW28621   5.854   0.228   0.931
 9241SOL    HW128622   5.865   0.181   1.018
 9241SOL    HW228623   5.789   0.303   0.941
 9242SOL     OW28624   1.447   2.711   0.528
 9242SOL    HW128625   1.528   2.663   0.561
 9242SOL    HW228626   1.444   2.708   0.428
 9243SOL     OW28627   0.987   0.828   7.017
 9243SOL    HW128628   1.060   0.891   0.018
 9243SOL    HW228629   1.002   0.739   0.034
 9244SOL     OW28630   4.025   6.319   5.261
 9244SOL    HW128631   3.930   6.302   5.237
 9244SOL    HW228632   4.031   6.403   5.316
 9245SOL     OW28633   0.801   4.197   2.976
 9245SOL    HW128634   0.783   4.272   2.913
 9245SOL    HW228635   0.847   4.232   3.058
 9246SOL     OW28636   6.334   0.733   5.383
 9246SOL    HW128637   6.349   0.676   5.302
 9246SOL    HW228638   6.336   0.830   5.357
 9247SOL     OW28639   3.759   6.264   3.397
 9247SOL    HW128640   3.701   6.185   3.421
 9247SOL    HW228641   3.720   6.311   3.318
 9248SOL     OW28642   2.205   1.278   5.898
 9248SOL    HW128643   2.265   1.332   5.839
 9248SOL    HW228644   2.183   1.191   5.854
 9249SOL     OW28645   3.920   5.263   1.702
 9249SOL    HW128646   3.852   5.257   1.775
 9249SOL    HW228647   3.874   5.276   1.614
 9250SOL     OW28648   0.278   2.878   4.151
 9250SOL    HW128649   0.255   2.781   4.160
 9250SOL    HW228650   0.370   2.894   4.186
 9251SOL     OW28651   3.265   2.658   1.176
 9251SOL    HW128652   3.338   2.718   1.210
 9251SOL    HW228653   3.244   2.681   1.081
 9252SOL     OW28654   5.270   1.382   6.257
 9252SOL    HW128655   5.258   1.432   6.171
 9252SOL    HW228656   5.345   1.423   6.309
 9253SOL     OW28657   1.070   5.314   5.169
 9253SOL    HW128658   0.984   5.287   5.126
 9253SOL    HW228659   1.147   5.293   5.108
 9254SOL     OW28660   6.851   5.124   3.150
 9254SOL    HW128661   6.852   5.064   3.070
 9254SOL    HW228662   6.783   5.090   3.216
 9255SOL     OW28663   6.630   4.285   0.516
 9255SOL    HW128664   6.616   4.379   0.545
 9255SOL    HW228665   6.701   4.283   0.445
 9256SOL     OW28666   1.815   6.385   1.567
 9256SOL    HW128667   1.869   6.466   1.589
 9256SOL    HW228668   1.753   6.406   1.491
 9257SOL     OW28669   6.517   5.797   4.182
 9257SOL    HW128670   6.477   5.787   4.091
 9257SOL    HW228671   6.461   5.750   4.250
 9258SOL     OW28672   3.384   4.586   1.159
 9258SOL    HW128673   3.300   4.546   1.196
 9258SOL    HW228674   3.377   4.686   1.162
 9259SOL     OW28675   2.025   1.562   6.502
 9259SOL    HW128676   1.958   1.519   6.563
 9259SOL    HW228677   2.017   1.522   6.411
 9260SOL     OW28678   6.135   3.823   5.092
 9260SOL    HW128679   6.101   3.916   5.106
 9260SOL    HW228680   6.141   3.804   4.994
 9261SOL     OW28681   3.822   2.342   1.670
 9261SOL    HW128682   3.767   2.401   1.610
 9261SOL    HW228683   3.766   2.311   1.747
 9262SOL     OW28684   5.763   5.794   3.975
 9262SOL    HW128685   5.859   5.777   3.999
 9262SOL    HW228686   5.758   5.843   3.888
 9263SOL     OW28687   2.016   3.693   3.782
 9263SOL    HW128688   2.073   3.753   3.725
 9263SOL    HW228689   1.926   3.684   3.739
 9264SOL     OW28690   4.561   3.898   0.180
 9264SOL    HW128691   4.588   3.963   0.110
 9264SOL    HW228692   4.641   3.849   0.214
 9265SOL     OW28693   5.329   1.967   0.496
 9265SOL    HW128694   5.299   1.872   0.500
 9265SOL    HW228695   5.329   2.006   0.588
 9266SOL     OW28696   0.422   4.154   1.019
 9266SOL    HW128697   0.403   4.252   1.008
 9266SOL    HW228698   0.463   4.138   1.108
 9267SOL     OW28699   0.129   0.812   4.638
 9267SOL    HW128700   0.053   0.802   4.703
 9267SOL    HW228701   0.100   0.868   4.561
 9268SOL     OW28702   0.726   6.335   2.246
 9268SOL    HW128703   0.786   6.263   2.210
 9268SOL    HW228704   0.782   6.409   2.284
 9269SOL     OW28705   4.252   0.699   1.030
 9269SOL    HW128706   4.250   0.618   1.087
 9269SOL    HW228707   4.158   0.733   1.018
 9270SOL     OW28708   1.604   0.808   5.943
 9270SOL    HW128709   1.530   0.773   5.885
 9270SOL    HW228710   1.565   0.866   6.015
 9271SOL     OW28711   1.492   0.192   4.631
 9271SOL    HW128712   1.421   0.138   4.676
 9271SOL    HW228713   1.567   0.132   4.601
 9272SOL     OW28714   6.584   6.849   6.178
 9272SOL    HW128715   6.600   6.883   6.085
 9272SOL    HW228716   6.489   6.868   6.204
 9273SOL     OW28717   4.607   4.800   4.531
 9273SOL    HW128718   4.630   4.884   4.482
 9273SOL    HW228719   4.689   4.760   4.571
 9274SOL     OW28720   1.236   2.842   6.876
 9274SOL    HW128721   1.246   2.773   6.948
 9274SOL    HW228722   1.232   2.933   6.917
 9275SOL     OW28723   0.238   0.111   0.580
 9275SOL    HW128724   0.210   0.152   0.494
 9275SOL    HW228725   0.328   0.068   0.569
 9276SOL     OW28726   3.016   5.007   0.513
 9276SOL    HW128727   2.965   5.092   0.522
 9276SOL    HW228728   3.111   5.026   0.487
 9277SOL     OW28729   5.151   5.533   1.986
 9277SOL    HW128730   5.172   5.623   1.946
 9277SOL    HW228731   5.232   5.475   1.981
 9278SOL     OW28732   0.573   0.632   4.736
 9278SOL    HW128733   0.652   0.687   4.709
 9278SOL    HW228734   0.582   0.540   4.699
 9279SOL     OW28735   4.581   6.176   1.246
 9279SOL    HW128736   4.578   6.079   1.270
 9279SOL    HW228737   4.639   6.224   1.313
 9280SOL     OW28738   1.723   0.466   2.775
 9280SOL    HW128739   1.775   0.402   2.831
 9280SOL    HW228740   1.709   0.551   2.825
 9281SOL     OW28741   2.839   5.112   0.282
 9281SOL    HW128742   2.804   5.131   0.374
 9281SOL    HW228743   2.780   5.156   0.214
 9282SOL     OW28744   3.132   6.645   4.783
 9282SOL    HW128745   3.159   6.722   4.841
 9282SOL    HW228746   3.038   6.618   4.805
 9283SOL     OW28747   4.343   6.117   6.828
 9283SOL    HW128748   4.290   6.034   6.811
 9283SOL    HW228749   4.429   6.112   6.776
 9284SOL     OW28750   3.375   3.722   4.756
 9284SOL    HW128751   3.307   3.741   4.685
 9284SOL    HW228752   3.452   3.785   4.746
 9285SOL     OW28753   7.011   4.058   2.483
 9285SOL    HW128754   7.013   4.017   2.392
 9285SOL    HW228755   0.039   4.143   2.482
 9286SOL     OW28756   4.901   5.844   1.170
 9286SOL    HW128757   4.836   5.794   1.228
 9286SOL    HW228758   4.875   5.940   1.166
 9287SOL     OW28759   3.373   5.175   6.303
 9287SOL    HW128760   3.367   5.159   6.401
 9287SOL    HW228761   3.341   5.268   6.283
 9288SOL     OW28762   4.186   2.229   2.804
 9288SOL    HW128763   4.101   2.176   2.797
 9288SOL    HW228764   4.193   2.292   2.727
 9289SOL     OW28765   4.720   5.897   6.945
 9289SOL    HW128766   4.701   5.855   6.856
 9289SOL    HW228767   4.817   5.888   6.966
 9290SOL     OW28768   5.004   0.184   4.381
 9290SOL    HW128769   4.949   0.245   4.323
 9290SOL    HW228770   4.968   0.187   4.475
 9291SOL     OW28771   1.322   4.680   5.893
 9291SOL    HW128772   1.254   4.654   5.961
 9291SOL    HW228773   1.339   4.602   5.832
 9292SOL     OW28774   1.810   1.872   6.456
 9292SOL    HW128775   1.865   1.943   6.410
 9292SOL    HW228776   1.736   1.915   6.507
 9293SOL     OW28777   5.563   2.721   5.193
 9293SOL    HW128778   5.631   2.781   5.151
 9293SOL    HW228779   5.503   2.775   5.253
 9294SOL     OW28780   4.633   1.111   6.788
 9294SOL    HW128781   4.720   1.106   6.838
 9294SOL    HW228782   4.586   1.023   6.797
 9295SOL     OW28783   0.933   1.579   5.488
 9295SOL    HW128784   0.901   1.665   5.528
 9295SOL    HW228785   0.862   1.510   5.496
 9296SOL     OW28786   1.394   4.637   0.200
 9296SOL    HW128787   1.476   4.580   0.195
 9296SOL    HW228788   1.395   4.704   0.126
 9297SOL     OW28789   5.623   6.045   2.865
 9297SOL    HW128790   5.676   6.102   2.802
 9297SOL    HW228791   5.635   6.078   2.959
 9298SOL     OW28792   1.353   6.122   5.888
 9298SOL    HW128793   1.290   6.191   5.925
 9298SOL    HW228794   1.318   6.031   5.908
 9299SOL     OW28795   2.186   2.543   4.874
 9299SOL    HW128796   2.113   2.480   4.899
 9299SOL    HW228797   2.154   2.604   4.802
 9300SOL     OW28798   1.304   5.872   5.962
 9300SOL    HW128799   1.292   5.845   5.866
 9300SOL    HW228800   1.392   5.839   5.995
 9301SOL     OW28801   0.207   3.892   4.853
 9301SOL    HW128802   0.275   3.857   4.917
 9301SOL    HW228803   0.120   3.906   4.901
 9302SOL     OW28804   1.679   3.691   5.159
 9302SOL    HW128805   1.726   3.775   5.134
 9302SOL    HW228806   1.736   3.638   5.222
 9303SOL     OW28807   2.343   4.516   0.768
 9303SOL    HW128808   2.415   4.550   0.828
 9303SOL    HW228809   2.271   4.585   0.758
 9304SOL     OW28810   4.846   5.209   0.368
 9304SOL    HW128811   4.792   5.125   0.360
 9304SOL    HW228812   4.874   5.239   0.277
 9305SOL     OW28813   2.184   1.831   1.429
 9305SOL    HW128814   2.128   1.751   1.451
 9305SOL    HW228815   2.260   1.837   1.494
 9306SOL     OW28816   6.969   5.538   4.810
 9306SOL    HW128817   7.005   5.534   4.903
 9306SOL    HW228818   7.024   5.602   4.756
 9307SOL     OW28819   2.574   3.106   1.651
 9307SOL    HW128820   2.592   3.042   1.576
 9307SOL    HW228821   2.661   3.144   1.683
 9308SOL     OW28822   1.995   3.590   1.888
 9308SOL    HW128823   2.050   3.670   1.865
 9308SOL    HW228824   2.052   3.523   1.936
 9309SOL     OW28825   5.064   5.643   5.781
 9309SOL    HW128826   5.116   5.727   5.765
 9309SOL    HW228827   5.005   5.656   5.860
 9310SOL     OW28828   5.463   6.026   6.763
 9310SOL    HW128829   5.430   5.932   6.768
 9310SOL    HW228830   5.560   6.028   6.784
 9311SOL     OW28831   4.546   3.515   1.521
 9311SOL    HW128832   4.630   3.563   1.547
 9311SOL    HW228833   4.468   3.576   1.533
 9312SOL     OW28834   0.360   2.522   2.041
 9312SOL    HW128835   0.394   2.431   2.067
 9312SOL    HW228836   0.309   2.561   2.117
 9313SOL     OW28837   0.458   6.438   2.590
 9313SOL    HW128838   0.479   6.486   2.676
 9313SOL    HW228839   0.400   6.496   2.533
 9314SOL     OW28840   4.799   3.272   0.006
 9314SOL    HW128841   4.864   3.242   6.962
 9314SOL    HW228842   4.818   3.225   0.092
 9315SOL     OW28843   5.939   0.910   6.124
 9315SOL    HW128844   5.929   0.814   6.149
 9315SOL    HW228845   5.977   0.961   6.201
 9316SOL     OW28846   4.237   0.807   5.364
 9316SOL    HW128847   4.297   0.841   5.436
 9316SOL    HW228848   4.291   0.759   5.295
 9317SOL     OW28849   4.044   6.057   3.625
 9317SOL    HW128850   3.982   5.999   3.678
 9317SOL    HW228851   3.992   6.104   3.553
 9318SOL     OW28852   4.833   6.399   1.229
 9318SOL    HW128853   4.888   6.448   1.297
 9318SOL    HW228854   4.756   6.456   1.201
 9319SOL     OW28855   2.443   3.885   0.147
 9319SOL    HW128856   2.411   3.915   0.058
 9319SOL    HW228857   2.400   3.941   0.219
 9320SOL     OW28858   6.344   6.433   6.753
 9320SOL    HW128859   6.346   6.531   6.773
 9320SOL    HW228860   6.426   6.407   6.703
 9321SOL     OW28861   0.663   3.882   4.682
 9321SOL    HW128862   0.685   3.958   4.622
 9321SOL    HW228863   0.599   3.820   4.635
 9322SOL     OW28864   5.817   3.669   5.611
 9322SOL    HW128865   5.774   3.725   5.683
 9322SOL    HW228866   5.792   3.706   5.522
 9323SOL     OW28867   1.106   2.812   4.409
 9323SOL    HW128868   1.183   2.756   4.378
 9323SOL    HW228869   1.038   2.753   4.454
 9324SOL     OW28870   0.445   4.214   1.568
 9324SOL    HW128871   0.360   4.266   1.577
 9324SOL    HW228872   0.523   4.276   1.578
 9325SOL     OW28873   1.068   4.936   2.801
 9325SOL    HW128874   1.033   4.985   2.721
 9325SOL    HW228875   1.166   4.949   2.808
 9326SOL     OW28876   4.245   4.306   0.938
 9326SOL    HW128877   4.155   4.299   0.981
 9326SOL    HW228878   4.316   4.289   1.007
 9327SOL     OW28879   3.900   6.905   3.957
 9327SOL    HW128880   3.966   6.841   3.918
 9327SOL    HW228881   3.897   6.893   4.056
 9328SOL     OW28882   2.803   6.492   4.588
 9328SOL    HW128883   2.803   6.528   4.682
 9328SOL    HW228884   2.887   6.519   4.542
 9329SOL     OW28885   0.046   5.467   6.633
 9329SOL    HW128886   0.111   5.542   6.648
 9329SOL    HW228887   0.047   5.406   6.712
 9330SOL     OW28888   5.941   5.523   6.630
 9330SOL    HW128889   6.014   5.591   6.627
 9330SOL    HW228890   5.964   5.451   6.695
 9331SOL     OW28891   1.320   2.919   4.637
 9331SOL    HW128892   1.264   2.871   4.705
 9331SOL    HW228893   1.302   3.017   4.643
 9332SOL     OW28894   4.759   5.505   1.090
 9332SOL    HW128895   4.830   5.435   1.096
 9332SOL    HW228896   4.745   5.531   0.994
 9333SOL     OW28897   3.741   4.596   0.697
 9333SOL    HW128898   3.682   4.641   0.630
 9333SOL    HW228899   3.705   4.504   0.716
 9334SOL     OW28900   5.585   6.383   5.538
 9334SOL    HW128901   5.623   6.316   5.474
 9334SOL    HW228902   5.583   6.344   5.630
 9335SOL     OW28903   1.865   2.874   1.367
 9335SOL    HW128904   1.935   2.900   1.299
 9335SOL    HW228905   1.903   2.805   1.428
 9336SOL     OW28906   6.690   0.217   5.117
 9336SOL    HW128907   6.762   0.284   5.133
 9336SOL    HW228908   6.725   0.125   5.134
 9337SOL     OW28909   2.448   0.543   6.787
 9337SOL    HW128910   2.479   0.518   6.879
 9337SOL    HW228911   2.385   0.620   6.793
 9338SOL     OW28912   5.848   6.772   6.647
 9338SOL    HW128913   5.829   6.691   6.702
 9338SOL    HW228914   5.874   6.745   6.555
 9339SOL     OW28915   6.546   4.190   5.446
 9339SOL    HW128916   6.632   4.212   5.399
 9339SOL    HW228917   6.526   4.261   5.514
 9340SOL     OW28918   4.248   5.972   2.159
 9340SOL    HW128919   4.191   6.053   2.142
 9340SOL    HW228920   4.297   5.983   2.245
 9341SOL     OW28921   5.324   3.582   7.026
 9341SOL    HW128922   5.369   3.623   6.947
 9341SOL    HW228923   5.331   3.643   0.078
 9342SOL     OW28924   2.932   0.460   4.212
 9342SOL    HW128925   2.971   0.374   4.179
 9342SOL    HW228926   2.904   0.516   4.134
 9343SOL     OW28927   5.032   4.210   1.478
 9343SOL    HW128928   5.090   4.276   1.431
 9343SOL    HW228929   4.936   4.231   1.460
 9344SOL     OW28930   5.758   5.689   4.800
 9344SOL    HW128931   5.855   5.664   4.807
 9344SOL    HW228932   5.727   5.674   4.706
 9345SOL     OW28933   0.402   6.528   1.490
 9345SOL    HW128934   0.481   6.587   1.473
 9345SOL    HW228935   0.349   6.520   1.405
 9346SOL     OW28936   5.727   6.305   1.380
 9346SOL    HW128937   5.744   6.210   1.352
 9346SOL    HW228938   5.633   6.315   1.410
 9347SOL     OW28939   3.593   5.371   1.026
 9347SOL    HW128940   3.567   5.411   1.113
 9347SOL    HW228941   3.624   5.443   0.964
 9348SOL     OW28942   1.877   5.827   1.620
 9348SOL    HW128943   1.923   5.897   1.565
 9348SOL    HW228944   1.853   5.749   1.562
 9349SOL     OW28945   6.303   5.569   1.831
 9349SOL    HW128946   6.321   5.481   1.787
 9349SOL    HW228947   6.205   5.578   1.848
 9350SOL     OW28948   7.009   0.984   5.353
 9350SOL    HW128949   6.953   0.934   5.287
 9350SOL    HW228950   6.950   1.022   5.424
 9351SOL     OW28951   3.177   1.627   6.629
 9351SOL    HW128952   3.108   1.643   6.559
 9351SOL    HW228953   3.203   1.530   6.629
 9352SOL     OW28954   3.422   1.782   6.681
 9352SOL    HW128955   3.377   1.869   6.701
 9352SOL    HW228956   3.352   1.713   6.661
 9353SOL     OW28957   1.486   3.434   0.970
 9353SOL    HW128958   1.581   3.447   0.997
 9353SOL    HW228959   1.429   3.426   1.051
 9354SOL     OW28960   5.089   1.832   1.412
 9354SOL    HW128961   5.026   1.771   1.365
 9354SOL    HW228962   5.060   1.927   1.399
 9355SOL     OW28963   6.505   6.755   3.494
 9355SOL    HW128964   6.498   6.849   3.528
 9355SOL    HW228965   6.570   6.753   3.417
 9356SOL     OW28966   4.318   4.628   2.377
 9356SOL    HW128967   4.224   4.639   2.411
 9356SOL    HW228968   4.320   4.646   2.279
 9357SOL     OW28969   2.976   2.813   0.897
 9357SOL    HW128970   3.000   2.716   0.902
 9357SOL    HW228971   3.012   2.860   0.978
 9358SOL     OW28972   6.498   4.501   2.099
 9358SOL    HW128973   6.506   4.408   2.133
 9358SOL    HW228974   6.401   4.524   2.088
 9359SOL     OW28975   0.002   4.086   5.906
 9359SOL    HW128976   6.952   4.037   5.950
 9359SOL    HW228977   0.088   4.063   5.951
 9360SOL     OW28978   2.267   1.031   6.318
 9360SOL    HW128979   2.337   0.970   6.356
 9360SOL    HW228980   2.207   0.978   6.258
 9361SOL     OW28981   2.815   6.125   2.330
 9361SOL    HW128982   2.764   6.039   2.326
 9361SOL    HW228983   2.884   6.127   2.257
 9362SOL     OW28984   2.311   1.203   2.448
 9362SOL    HW128985   2.348   1.289   2.483
 9362SOL    HW228986   2.247   1.221   2.374
 9363SOL     OW28987   3.358   6.326   2.945
 9363SOL    HW128988   3.305   6.398   2.901
 9363SOL    HW228989   3.296   6.256   2.980
 9364SOL     OW28990   4.592   3.257   6.808
 9364SOL    HW128991   4.659   3.273   6.881
 9364SOL    HW228992   4.523   3.192   6.839
 9365SOL     OW28993   2.520   1.889   4.960
 9365SOL    HW128994   2.561   1.980   4.955
 9365SOL    HW228995   2.420   1.897   4.955
 9366SOL     OW28996   2.924   1.929   0.415
 9366SOL    HW128997   2.971   1.862   0.472
 9366SOL    HW228998   2.905   2.011   0.469
 9367SOL     OW28999   6.715   5.359   3.051
 9367SOL    HW129000   6.766   5.282   3.090
 9367SOL    HW229001   6.659   5.327   2.975
 9368SOL     OW29002   3.182   2.241   1.583
 9368SOL    HW129003   3.220   2.178   1.650
 9368SOL    HW229004   3.104   2.199   1.537
 9369SOL     OW29005   0.366   1.925   5.253
 9369SOL    HW129006   0.363   1.937   5.352
 9369SOL    HW229007   0.362   1.827   5.231
 9370SOL     OW29008   6.575   0.782   2.648
 9370SOL    HW129009   6.561   0.687   2.673
 9370SOL    HW229010   6.527   0.802   2.562
 9371SOL     OW29011   0.652   6.230   0.403
 9371SOL    HW129012   0.673   6.300   0.472
 9371SOL    HW229013   0.574   6.261   0.348
 9372SOL     OW29014   5.994   6.694   3.515
 9372SOL    HW129015   5.945   6.607   3.509
 9372SOL    HW229016   6.090   6.680   3.488
 9373SOL     OW29017   4.314   1.828   3.019
 9373SOL    HW129018   4.308   1.734   2.984
 9373SOL    HW229019   4.363   1.885   2.954
 9374SOL     OW29020   5.555   2.292   0.668
 9374SOL    HW129021   5.566   2.345   0.752
 9374SOL    HW229022   5.624   2.219   0.665
 9375SOL     OW29023   0.255   1.156   3.016
 9375SOL    HW129024   0.277   1.109   2.931
 9375SOL    HW229025   0.331   1.147   3.080
 9376SOL     OW29026   2.924   3.825   0.431
 9376SOL    HW129027   3.017   3.833   0.469
 9376SOL    HW229028   2.917   3.741   0.378
 9377SOL     OW29029   6.331   5.774   3.947
 9377SOL    HW129030   6.277   5.698   3.911
 9377SOL    HW229031   6.290   5.860   3.917
 9378SOL     OW29032   2.017   0.333   7.023
 9378SOL    HW129033   2.011   0.398   0.073
 9378SOL    HW229034   2.039   0.242   0.033
 9379SOL     OW29035   4.821   4.808   3.948
 9379SOL    HW129036   4.816   4.799   3.849
 9379SOL    HW229037   4.911   4.844   3.974
 9380SOL     OW29038   6.111   6.973   5.775
 9380SOL    HW129039   6.105   6.988   5.677
 9380SOL    HW229040   6.108   6.875   5.795
 9381SOL     OW29041   2.514   2.295   5.608
 9381SOL    HW129042   2.599   2.244   5.617
 9381SOL    HW229043   2.527   2.372   5.545
 9382SOL     OW29044   3.958   1.122   2.671
 9382SOL    HW129045   3.879   1.064   2.655
 9382SOL    HW229046   3.934   1.195   2.735
 9383SOL     OW29047   3.799   6.320   4.426
 9383SOL    HW129048   3.710   6.359   4.451
 9383SOL    HW229049   3.862   6.393   4.400
 9384SOL     OW29050   5.130   6.294   2.600
 9384SOL    HW129051   5.059   6.249   2.655
 9384SOL    HW229052   5.182   6.226   2.550
 9385SOL     OW29053   3.985   1.104   3.721
 9385SOL    HW129054   3.961   1.018   3.677
 9385SOL    HW229055   4.082   1.123   3.706
 9386SOL     OW29056   3.428   6.204   5.687
 9386SOL    HW129057   3.467   6.113   5.672
 9386SOL    HW229058   3.334   6.195   5.720
 9387SOL     OW29059   3.194   6.561   1.426
 9387SOL    HW129060   3.254   6.596   1.498
 9387SOL    HW229061   3.222   6.469   1.401
 9388SOL     OW29062   0.345   0.113   3.060
 9388SOL    HW129063   0.282   0.190   3.068
 9388SOL    HW229064   0.439   0.147   3.070
 9389SOL     OW29065   2.210   0.675   5.799
 9389SOL    HW129066   2.172   0.665   5.707
 9389SOL    HW229067   2.307   0.650   5.797
 9390SOL     OW29068   3.488   5.398   2.776
 9390SOL    HW129069   3.465   5.354   2.863
 9390SOL    HW229070   3.429   5.478   2.763
 9391SOL     OW29071   1.297   1.917   5.645
 9391SOL    HW129072   1.304   2.012   5.613
 9391SOL    HW229073   1.227   1.869   5.591
 9392SOL     OW29074   1.739   6.747   4.863
 9392SOL    HW129075   1.798   6.777   4.788
 9392SOL    HW229076   1.687   6.667   4.835
 9393SOL     OW29077   3.947   2.131   5.480
 9393SOL    HW129078   3.863   2.087   5.512
 9393SOL    HW229079   3.938   2.230   5.490
 9394SOL     OW29080   6.363   2.670   2.978
 9394SOL    HW129081   6.364   2.667   3.078
 9394SOL    HW229082   6.285   2.618   2.944
 9395SOL     OW29083   2.751   3.135   0.480
 9395SOL    HW129084   2.739   3.101   0.573
 9395SOL    HW229085   2.661   3.144   0.436
 9396SOL     OW29086   6.192   6.814   5.408
 9396SOL    HW129087   6.177   6.891   5.470
 9396SOL    HW229088   6.264   6.755   5.445
 9397SOL     OW29089   2.064   0.742   6.993
 9397SOL    HW129090   2.032   0.729   0.061
 9397SOL    HW229091   1.987   0.730   6.930
 9398SOL     OW29092   2.470   1.624   0.201
 9398SOL    HW129093   2.534   1.571   0.256
 9398SOL    HW229094   2.518   1.701   0.159
 9399SOL     OW29095   6.664   1.574   6.023
 9399SOL    HW129096   6.685   1.491   6.075
 9399SOL    HW229097   6.642   1.649   6.086
 9400SOL     OW29098   5.158   3.341   1.307
 9400SOL    HW129099   5.149   3.440   1.301
 9400SOL    HW229100   5.197   3.316   1.396
 9401SOL     OW29101   2.971   6.277   3.822
 9401SOL    HW129102   2.906   6.327   3.764
 9401SOL    HW229103   2.938   6.184   3.836
 9402SOL     OW29104   2.848   5.093   7.000
 9402SOL    HW129105   2.868   5.083   6.902
 9402SOL    HW229106   2.884   5.181   0.007
 9403SOL     OW29107   5.393   1.334   3.506
 9403SOL    HW129108   5.439   1.367   3.424
 9403SOL    HW229109   5.448   1.356   3.587
 9404SOL     OW29110   0.736   5.010   6.870
 9404SOL    HW129111   0.660   4.996   6.933
 9404SOL    HW229112   0.701   5.040   6.782
 9405SOL     OW29113   6.143   6.720   1.485
 9405SOL    HW129114   6.233   6.721   1.443
 9405SOL    HW229115   6.125   6.810   1.526
 9406SOL     OW29116   0.138   2.148   5.291
 9406SOL    HW129117   0.124   2.050   5.275
 9406SOL    HW229118   0.060   2.185   5.341
 9407SOL     OW29119   3.339   6.172   3.710
 9407SOL    HW129120   3.426   6.123   3.720
 9407SOL    HW229121   3.323   6.227   3.792
 9408SOL     OW29122   3.572   1.453   0.066
 9408SOL    HW129123   3.620   1.541   0.070
 9408SOL    HW229124   3.581   1.414   7.001
 9409SOL     OW29125   5.481   3.840   3.697
 9409SOL    HW129126   5.396   3.836   3.750
 9409SOL    HW229127   5.459   3.858   3.601
 9410SOL     OW29128   4.044   6.091   2.388
 9410SOL    HW129129   3.978   6.027   2.349
 9410SOL    HW229130   4.091   6.139   2.313
 9411SOL     OW29131   4.468   5.572   0.823
 9411SOL    HW129132   4.421   5.657   0.800
 9411SOL    HW229133   4.567   5.587   0.822
 9412SOL     OW29134   0.505   2.863   1.291
 9412SOL    HW129135   0.524   2.871   1.193
 9412SOL    HW229136   0.409   2.885   1.308
 9413SOL     OW29137   4.802   5.813   5.371
 9413SOL    HW129138   4.768   5.859   5.288
 9413SOL    HW229139   4.792   5.874   5.449
 9414SOL     OW29140   3.287   1.825   2.731
 9414SOL    HW129141   3.251   1.885   2.803
 9414SOL    HW229142   3.385   1.841   2.720
 9415SOL     OW29143   1.904   6.421   2.269
 9415SOL    HW129144   1.879   6.517   2.274
 9415SOL    HW229145   1.826   6.364   2.294
 9416SOL     OW29146   1.265   1.645   1.688
 9416SOL    HW129147   1.253   1.713   1.616
 9416SOL    HW229148   1.199   1.571   1.675
 9417SOL     OW29149   2.716   5.794   5.460
 9417SOL    HW129150   2.773   5.713   5.443
 9417SOL    HW229151   2.666   5.818   5.377
 9418SOL     OW29152   2.271   5.493   1.459
 9418SOL    HW129153   2.347   5.451   1.408
 9418SOL    HW229154   2.265   5.453   1.550
 9419SOL     OW29155   2.701   6.362   5.004
 9419SOL    HW129156   2.640   6.283   5.010
 9419SOL    HW229157   2.652   6.444   5.032
 9420SOL     OW29158   6.527   1.281   4.604
 9420SOL    HW129159   6.432   1.254   4.588
 9420SOL    HW229160   6.548   1.271   4.701
 9421SOL     OW29161   1.583   4.715   5.403
 9421SOL    HW129162   1.540   4.639   5.354
 9421SOL    HW229163   1.589   4.794   5.342
 9422SOL     OW29164   5.767   0.216   2.335
 9422SOL    HW129165   5.850   0.205   2.280
 9422SOL    HW229166   5.748   0.314   2.346
 9423SOL     OW29167   4.225   0.993   3.359
 9423SOL    HW129168   4.207   1.084   3.396
 9423SOL    HW229169   4.140   0.940   3.357
 9424SOL     OW29170   4.420   0.394   5.710
 9424SOL    HW129171   4.484   0.471   5.702
 9424SOL    HW229172   4.333   0.418   5.665
 9425SOL     OW29173   0.545   3.747   5.402
 9425SOL    HW129174   0.539   3.667   5.342
 9425SOL    HW229175   0.506   3.725   5.491
 9426SOL     OW29176   2.975   0.923   0.114
 9426SOL    HW129177   3.010   0.946   0.024
 9426SOL    HW229178   2.925   1.001   0.152
 9427SOL     OW29179   2.869   5.067   4.969
 9427SOL    HW129180   2.857   5.015   4.884
 9427SOL    HW229181   2.857   5.006   5.048
 9428SOL     OW29182   6.096   6.993   2.901
 9428SOL    HW129183   6.076   7.010   2.805
 9428SOL    HW229184   6.045   0.032   2.958
 9429SOL     OW29185   1.377   4.147   2.036
 9429SOL    HW129186   1.300   4.178   2.092
 9429SOL    HW229187   1.343   4.112   1.949
 9430SOL     OW29188   6.545   6.897   2.293
 9430SOL    HW129189   6.557   6.847   2.207
 9430SOL    HW229190   6.608   6.861   2.362
 9431SOL     OW29191   6.185   3.908   6.629
 9431SOL    HW129192   6.250   3.973   6.669
 9431SOL    HW229193   6.097   3.918   6.674
 9432SOL     OW29194   6.007   0.513   3.400
 9432SOL    HW129195   6.046   0.421   3.393
 9432SOL    HW229196   6.058   0.566   3.467
 9433SOL     OW29197   3.218   4.964   5.326
 9433SOL    HW129198   3.212   4.985   5.229
 9433SOL    HW229199   3.169   4.878   5.345
 9434SOL     OW29200   5.814   4.090   2.898
 9434SOL    HW129201   5.741   4.058   2.959
 9434SOL    HW229202   5.776   4.110   2.808
 9435SOL     OW29203   1.876   1.602   4.256
 9435SOL    HW129204   1.904   1.525   4.314
 9435SOL    HW229205   1.872   1.571   4.161
 9436SOL     OW29206   1.883   3.800   0.682
 9436SOL    HW129207   1.802   3.752   0.716
 9436SOL    HW229208   1.870   3.824   0.586
 9437SOL     OW29209   1.273   5.474   3.331
 9437SOL    HW129210   1.178   5.445   3.313
 9437SOL    HW229211   1.313   5.413   3.401
 9438SOL     OW29212   0.571   6.239   2.459
 9438SOL    HW129213   0.627   6.273   2.383
 9438SOL    HW229214   0.533   6.316   2.510
 9439SOL     OW29215   6.822   3.320   1.781
 9439SOL    HW129216   6.854   3.226   1.790
 9439SOL    HW229217   6.817   3.362   1.872
 9440SOL     OW29218   4.944   6.322   4.708
 9440SOL    HW129219   4.994   6.301   4.792
 9440SOL    HW229220   4.876   6.393   4.727
 9441SOL     OW29221   1.630   5.330   5.109
 9441SOL    HW129222   1.595   5.422   5.129
 9441SOL    HW229223   1.607   5.268   5.184
 9442SOL     OW29224   6.915   2.074   6.771
 9442SOL    HW129225   6.974   2.054   6.849
 9442SOL    HW229226   6.840   2.008   6.767
 9443SOL     OW29227   1.944   4.673   1.291
 9443SOL    HW129228   1.968   4.677   1.388
 9443SOL    HW229229   1.920   4.764   1.259
 9444SOL     OW29230   0.813   2.844   7.009
 9444SOL    HW129231   0.726   2.798   6.992
 9444SOL    HW229232   0.874   2.781   0.032
 9445SOL     OW29233   4.882   3.651   2.218
 9445SOL    HW129234   4.976   3.665   2.185
 9445SOL    HW229235   4.818   3.684   2.149
 9446SOL     OW29236   6.547   5.971   2.705
 9446SOL    HW129237   6.548   5.908   2.627
 9446SOL    HW229238   6.502   6.056   2.678
 9447SOL     OW29239   5.128   3.612   1.755
 9447SOL    HW129240   5.054   3.551   1.784
 9447SOL    HW229241   5.204   3.604   1.819
 9448SOL     OW29242   5.384   6.240   6.069
 9448SOL    HW129243   5.466   6.198   6.109
 9448SOL    HW229244   5.368   6.328   6.112
 9449SOL     OW29245   6.351   5.475   5.228
 9449SOL    HW129246   6.426   5.462   5.164
 9449SOL    HW229247   6.384   5.460   5.322
 9450SOL     OW29248   2.178   4.805   4.590
 9450SOL    HW129249   2.274   4.822   4.570
 9450SOL    HW229250   2.130   4.782   4.505
 9451SOL     OW29251   5.193   5.422   6.216
 9451SOL    HW129252   5.265   5.491   6.223
 9451SOL    HW229253   5.182   5.395   6.120
 9452SOL     OW29254   2.349   3.509   0.922
 9452SOL    HW129255   2.274   3.475   0.979
 9452SOL    HW229256   2.416   3.437   0.907
 9453SOL     OW29257   2.027   4.917   3.123
 9453SOL    HW129258   2.106   4.868   3.161
 9453SOL    HW229259   1.955   4.852   3.102
 9454SOL     OW29260   1.406   4.271   6.235
 9454SOL    HW129261   1.433   4.204   6.303
 9454SOL    HW229262   1.469   4.349   6.237
 9455SOL     OW29263   3.560   1.860   2.770
 9455SOL    HW129264   3.625   1.813   2.710
 9455SOL    HW229265   3.573   1.959   2.763
 9456SOL     OW29266   0.832   3.921   0.727
 9456SOL    HW129267   0.748   3.869   0.713
 9456SOL    HW229268   0.892   3.871   0.789
 9457SOL     OW29269   2.097   3.404   6.745
 9457SOL    HW129270   2.030   3.409   6.670
 9457SOL    HW229271   2.048   3.409   6.833
 9458SOL     OW29272   6.978   4.780   5.850
 9458SOL    HW129273   7.026   4.864   5.824
 9458SOL    HW229274   7.002   4.708   5.786
 9459SOL     OW29275   6.262   5.262   2.149
 9459SOL    HW129276   6.208   5.261   2.233
 9459SOL    HW229277   6.202   5.263   2.070
 9460SOL     OW29278   0.429   2.714   4.911
 9460SOL    HW129279   0.417   2.634   4.852
 9460SOL    HW229280   0.388   2.697   5.000
 9461SOL     OW29281   0.631   1.254   3.019
 9461SOL    HW129282   0.637   1.349   2.987
 9461SOL    HW229283   0.677   1.194   2.954
 9462SOL     OW29284   1.735   3.237   2.955
 9462SOL    HW129285   1.757   3.334   2.966
 9462SOL    HW229286   1.794   3.183   3.015
 9463SOL     OW29287   6.949   1.076   0.725
 9463SOL    HW129288   6.884   1.125   0.783
 9463SOL    HW229289   0.016   1.105   0.747
 9464SOL     OW29290   5.819   6.522   6.380
 9464SOL    HW129291   5.848   6.436   6.423
 9464SOL    HW229292   5.726   6.544   6.409
 9465SOL     OW29293   6.710   0.819   3.089
 9465SOL    HW129294   6.618   0.858   3.093
 9465SOL    HW229295   6.704   0.721   3.075
 9466SOL     OW29296   2.761   3.125   5.655
 9466SOL    HW129297   2.693   3.174   5.600
 9466SOL    HW229298   2.744   3.143   5.752
 9467SOL     OW29299   1.699   2.521   1.872
 9467SOL    HW129300   1.621   2.487   1.819
 9467SOL    HW229301   1.697   2.480   1.963
 9468SOL     OW29302   6.344   3.111   6.148
 9468SOL    HW129303   6.330   3.209   6.134
 9468SOL    HW229304   6.316   3.061   6.066
 9469SOL     OW29305   6.502   5.781   1.855
 9469SOL    HW129306   6.434   5.710   1.874
 9469SOL    HW229307   6.502   5.847   1.930
 9470SOL     OW29308   5.074   3.150   6.599
 9470SOL    HW129309   5.061   3.089   6.677
 9470SOL    HW229310   5.125   3.231   6.628
 9471SOL     OW29311   6.739   2.740   5.467
 9471SOL    HW129312   6.705   2.812   5.527
 9471SOL    HW229313   6.751   2.776   5.375
 9472SOL     OW29314   6.422   4.366   4.419
 9472SOL    HW129315   6.479   4.310   4.479
 9472SOL    HW229316   6.481   4.413   4.352
 9473SOL     OW29317   3.576   6.245   5.959
 9473SOL    HW129318   3.508   6.218   6.026
 9473SOL    HW229319   3.540   6.229   5.867
 9474SOL     OW29320   5.846   4.083   1.971
 9474SOL    HW129321   5.759   4.067   1.926
 9474SOL    HW229322   5.847   4.037   2.060
 9475SOL     OW29323   3.227   3.260   0.986
 9475SOL    HW129324   3.188   3.231   1.074
 9475SOL    HW229325   3.209   3.189   0.918
 9476SOL     OW29326   3.686   3.267   5.145
 9476SOL    HW129327   3.720   3.345   5.197
 9476SOL    HW229328   3.756   3.196   5.142
 9477SOL     OW29329   1.415   2.479   0.896
 9477SOL    HW129330   1.504   2.436   0.882
 9477SOL    HW229331   1.384   2.465   0.990
 9478SOL     OW29332   4.984   4.160   5.564
 9478SOL    HW129333   4.935   4.118   5.487
 9478SOL    HW229334   4.994   4.258   5.547
 9479SOL     OW29335   5.700   5.460   6.093
 9479SOL    HW129336   5.655   5.443   6.006
 9479SOL    HW229337   5.799   5.471   6.078
 9480SOL     OW29338   4.366   4.183   6.781
 9480SOL    HW129339   4.354   4.096   6.732
 9480SOL    HW229340   4.367   4.258   6.715
 9481SOL     OW29341   6.683   3.968   1.569
 9481SOL    HW129342   6.631   4.044   1.530
 9481SOL    HW229343   6.756   3.942   1.505
 9482SOL     OW29344   5.588   0.498   3.296
 9482SOL    HW129345   5.651   0.571   3.321
 9482SOL    HW229346   5.514   0.536   3.241
 9483SOL     OW29347   1.544   1.863   0.981
 9483SOL    HW129348   1.454   1.850   1.021
 9483SOL    HW229349   1.536   1.876   0.883
 9484SOL     OW29350   5.966   1.288   3.636
 9484SOL    HW129351   6.061   1.271   3.610
 9484SOL    HW229352   5.918   1.201   3.645
 9485SOL     OW29353   1.588   0.636   1.687
 9485SOL    HW129354   1.545   0.678   1.767
 9485SOL    HW229355   1.683   0.665   1.680
 9486SOL     OW29356   2.183   5.641   0.425
 9486SOL    HW129357   2.251   5.629   0.498
 9486SOL    HW229358   2.091   5.625   0.462
 9487SOL     OW29359   3.872   3.989   3.721
 9487SOL    HW129360   3.817   4.007   3.640
 9487SOL    HW229361   3.943   3.922   3.700
 9488SOL     OW29362   1.929   6.018   1.446
 9488SOL    HW129363   1.989   6.078   1.499
 9488SOL    HW229364   1.895   6.066   1.366
 9489SOL     OW29365   4.170   4.065   1.151
 9489SOL    HW129366   4.113   3.987   1.178
 9489SOL    HW229367   4.114   4.132   1.102
 9490SOL     OW29368   5.221   0.594   0.951
 9490SOL    HW129369   5.255   0.687   0.943
 9490SOL    HW229370   5.170   0.569   0.869
 9491SOL     OW29371   6.504   4.985   4.509
 9491SOL    HW129372   6.428   5.035   4.551
 9491SOL    HW229373   6.480   4.889   4.499
 9492SOL     OW29374   3.280   3.707   2.202
 9492SOL    HW129375   3.292   3.787   2.143
 9492SOL    HW229376   3.183   3.681   2.203
 9493SOL     OW29377   4.798   5.329   3.509
 9493SOL    HW129378   4.722   5.341   3.572
 9493SOL    HW229379   4.803   5.233   3.480
 9494SOL     OW29380   4.781   3.566   7.026
 9494SOL    HW129381   4.881   3.571   7.017
 9494SOL    HW229382   4.752   3.471   7.015
 9495SOL     OW29383   6.240   2.306   3.627
 9495SOL    HW129384   6.285   2.243   3.691
 9495SOL    HW229385   6.297   2.319   3.546
 9496SOL     OW29386   5.399   3.703   6.406
 9496SOL    HW129387   5.348   3.726   6.323
 9496SOL    HW229388   5.354   3.744   6.485
 9497SOL     OW29389   5.194   4.674   0.757
 9497SOL    HW129390   5.121   4.720   0.707
 9497SOL    HW229391   5.240   4.610   0.696
 9498SOL     OW29392   4.006   6.574   5.420
 9498SOL    HW129393   4.036   6.655   5.470
 9498SOL    HW229394   3.969   6.507   5.484
 9499SOL     OW29395   2.370   4.325   5.570
 9499SOL    HW129396   2.415   4.240   5.597
 9499SOL    HW229397   2.313   4.308   5.489
 9500SOL     OW29398   4.455   6.285   1.843
 9500SOL    HW129399   4.482   6.214   1.778
 9500SOL    HW229400   4.490   6.374   1.812
 9501SOL     OW29401   3.651   1.811   4.720
 9501SOL    HW129402   3.711   1.839   4.795
 9501SOL    HW229403   3.694   1.831   4.632
 9502SOL     OW29404   6.475   2.207   4.756
 9502SOL    HW129405   6.504   2.218   4.661
 9502SOL    HW229406   6.472   2.296   4.801
 9503SOL     OW29407   0.385   1.130   1.735
 9503SOL    HW129408   0.453   1.116   1.807
 9503SOL    HW229409   0.419   1.093   1.649
 9504SOL     OW29410   6.957   2.802   1.050
 9504SOL    HW129411   7.023   2.727   1.046
 9504SOL    HW229412   6.864   2.764   1.043
 9505SOL     OW29413   6.260   3.577   3.011
 9505SOL    HW129414   6.348   3.530   3.002
 9505SOL    HW229415   6.269   3.654   3.074
 9506SOL     OW29416   0.151   3.134   0.216
 9506SOL    HW129417   0.111   3.224   0.203
 9506SOL    HW229418   0.166   3.091   0.127
 9507SOL     OW29419   1.875   1.043   4.436
 9507SOL    HW129420   1.942   1.093   4.381
 9507SOL    HW229421   1.858   0.953   4.394
 9508SOL     OW29422   5.492   1.980   0.283
 9508SOL    HW129423   5.439   1.982   0.198
 9508SOL    HW229424   5.430   1.974   0.361
 9509SOL     OW29425   1.439   6.415   5.383
 9509SOL    HW129426   1.371   6.484   5.357
 9509SOL    HW229427   1.397   6.324   5.383
 9510SOL     OW29428   6.658   3.849   2.273
 9510SOL    HW129429   6.600   3.781   2.320
 9510SOL    HW229430   6.644   3.841   2.174
 9511SOL     OW29431   0.905   2.273   0.027
 9511SOL    HW129432   0.820   2.231   7.019
 9511SOL    HW229433   0.894   2.372   0.030
 9512SOL     OW29434   6.894   2.072   3.625
 9512SOL    HW129435   6.889   2.159   3.576
 9512SOL    HW229436   6.807   2.056   3.672
 9513SOL     OW29437   1.955   4.120   4.782
 9513SOL    HW129438   1.963   4.121   4.682
 9513SOL    HW229439   1.988   4.032   4.817
 9514SOL     OW29440   1.885   3.756   6.577
 9514SOL    HW129441   1.979   3.756   6.613
 9514SOL    HW229442   1.833   3.683   6.620
 9515SOL     OW29443   1.382   6.241   6.931
 9515SOL    HW129444   1.303   6.215   6.876
 9515SOL    HW229445   1.398   6.340   6.923
 9516SOL     OW29446   4.984   3.512   4.278
 9516SOL    HW129447   5.064   3.454   4.289
 9516SOL    HW229448   4.911   3.482   4.339
 9517SOL     OW29449   1.052   5.124   1.374
 9517SOL    HW129450   1.102   5.043   1.344
 9517SOL    HW229451   1.056   5.194   1.303
 9518SOL     OW29452   1.174   2.948   5.828
 9518SOL    HW129453   1.244   2.910   5.889
 9518SOL    HW229454   1.182   3.047   5.826
 9519SOL     OW29455   2.918   3.387   2.692
 9519SOL    HW129456   2.956   3.304   2.732
 9519SOL    HW229457   2.906   3.375   2.594
 9520SOL     OW29458   6.806   0.933   4.644
 9520SOL    HW129459   6.799   1.016   4.589
 9520SOL    HW229460   6.862   0.866   4.595
 9521SOL     OW29461   3.280   5.600   1.868
 9521SOL    HW129462   3.269   5.601   1.968
 9521SOL    HW229463   3.226   5.525   1.829
 9522SOL     OW29464   4.170   5.044   2.203
 9522SOL    HW129465   4.261   5.072   2.233
 9522SOL    HW229466   4.124   4.994   2.277
 9523SOL     OW29467   2.368   5.204   4.803
 9523SOL    HW129468   2.429   5.124   4.799
 9523SOL    HW229469   2.348   5.234   4.710
 9524SOL     OW29470   0.919   3.709   1.669
 9524SOL    HW129471   1.007   3.727   1.626
 9524SOL    HW229472   0.898   3.612   1.664
 9525SOL     OW29473   1.893   2.489   5.951
 9525SOL    HW129474   1.945   2.443   5.878
 9525SOL    HW229475   1.847   2.569   5.914
 9526SOL     OW29476   5.476   5.211   0.627
 9526SOL    HW129477   5.503   5.153   0.551
 9526SOL    HW229478   5.420   5.287   0.593
 9527SOL     OW29479   2.816   6.949   4.171
 9527SOL    HW129480   2.879   6.871   4.176
 9527SOL    HW229481   2.869   0.008   4.177
 9528SOL     OW29482   5.719   1.194   1.379
 9528SOL    HW129483   5.672   1.108   1.357
 9528SOL    HW229484   5.661   1.249   1.439
 9529SOL     OW29485   6.078   3.281   0.897
 9529SOL    HW129486   6.135   3.237   0.826
 9529SOL    HW229487   6.137   3.320   0.967
 9530SOL     OW29488   1.611   5.825   4.582
 9530SOL    HW129489   1.523   5.797   4.543
 9530SOL    HW229490   1.603   5.918   4.619
 9531SOL     OW29491   4.566   4.413   3.106
 9531SOL    HW129492   4.536   4.425   3.012
 9531SOL    HW229493   4.585   4.503   3.146
 9532SOL     OW29494   6.249   4.840   1.577
 9532SOL    HW129495   6.337   4.839   1.624
 9532SOL    HW229496   6.226   4.933   1.549
 9533SOL     OW29497   1.106   5.793   4.546
 9533SOL    HW129498   1.030   5.729   4.560
 9533SOL    HW229499   1.069   5.883   4.525
 9534SOL     OW29500   5.930   4.800   4.714
 9534SOL    HW129501   5.851   4.750   4.750
 9534SOL    HW229502   5.907   4.897   4.703
 9535SOL     OW29503   1.993   1.830   5.697
 9535SOL    HW129504   1.977   1.758   5.765
 9535SOL    HW229505   2.038   1.790   5.617
 9536SOL     OW29506   3.364   2.806   4.925
 9536SOL    HW129507   3.323   2.715   4.917
 9536SOL    HW229508   3.367   2.849   4.835
 9537SOL     OW29509   2.628   1.766   3.955
 9537SOL    HW129510   2.636   1.694   3.885
 9537SOL    HW229511   2.718   1.805   3.973
 9538SOL     OW29512   3.798   1.167   4.367
 9538SOL    HW129513   3.752   1.101   4.426
 9538SOL    HW229514   3.883   1.128   4.333
 9539SOL     OW29515   3.316   2.987   3.731
 9539SOL    HW129516   3.244   3.053   3.712
 9539SOL    HW229517   3.296   2.939   3.816
 9540SOL     OW29518   4.769   5.335   4.211
 9540SOL    HW129519   4.737   5.393   4.136
 9540SOL    HW229520   4.715   5.251   4.213
 9541SOL     OW29521   0.940   1.033   5.700
 9541SOL    HW129522   0.894   1.070   5.620
 9541SOL    HW229523   0.900   0.945   5.725
 9542SOL     OW29524   5.889   4.868   4.265
 9542SOL    HW129525   5.946   4.861   4.184
 9542SOL    HW229526   5.920   4.801   4.333
 9543SOL     OW29527   3.284   0.289   6.120
 9543SOL    HW129528   3.215   0.244   6.177
 9543SOL    HW229529   3.352   0.222   6.091
 9544SOL     OW29530   4.811   4.033   3.929
 9544SOL    HW129531   4.762   4.120   3.935
 9544SOL    HW229532   4.842   4.018   3.835
 9545SOL     OW29533   0.872   5.154   2.004
 9545SOL    HW129534   0.923   5.139   1.919
 9545SOL    HW229535   0.783   5.195   1.982
 9546SOL     OW29536   3.216   1.922   6.298
 9546SOL    HW129537   3.305   1.966   6.304
 9546SOL    HW229538   3.185   1.921   6.203
 9547SOL     OW29539   3.321   5.446   4.390
 9547SOL    HW129540   3.256   5.495   4.333
 9547SOL    HW229541   3.326   5.489   4.480
 9548SOL     OW29542   1.008   5.363   5.436
 9548SOL    HW129543   0.931   5.299   5.444
 9548SOL    HW229544   1.063   5.337   5.357
 9549SOL     OW29545   3.634   0.730   2.651
 9549SOL    HW129546   3.641   0.819   2.696
 9549SOL    HW229547   3.613   0.660   2.719
 9550SOL     OW29548   6.158   2.535   0.814
 9550SOL    HW129549   6.243   2.588   0.806
 9550SOL    HW229550   6.135   2.496   0.725
 9551SOL     OW29551   5.799   3.097   6.124
 9551SOL    HW129552   5.812   3.064   6.031
 9551SOL    HW229553   5.870   3.058   6.183
 9552SOL     OW29554   2.301   0.694   6.081
 9552SOL    HW129555   2.248   0.776   6.059
 9552SOL    HW229556   2.279   0.622   6.015
 9553SOL     OW29557   5.211   1.698   0.450
 9553SOL    HW129558   5.178   1.707   0.544
 9553SOL    HW229559   5.217   1.601   0.427
 9554SOL     OW29560   2.271   6.455   3.816
 9554SOL    HW129561   2.321   6.383   3.863
 9554SOL    HW229562   2.317   6.543   3.829
 9555SOL     OW29563   6.963   1.678   3.716
 9555SOL    HW129564   7.022   1.723   3.649
 9555SOL    HW229565   6.899   1.617   3.669
 9556SOL     OW29566   1.391   4.740   1.499
 9556SOL    HW129567   1.326   4.667   1.519
 9556SOL    HW229568   1.437   4.721   1.413
 9557SOL     OW29569   4.928   6.944   2.010
 9557SOL    HW129570   4.837   6.985   2.003
 9557SOL    HW229571   4.997   7.016   1.999
 9558SOL     OW29572   5.568   6.666   5.513
 9558SOL    HW129573   5.567   6.566   5.516
 9558SOL    HW229574   5.573   6.701   5.607
 9559SOL     OW29575   1.097   3.719   0.158
 9559SOL    HW129576   1.069   3.800   0.106
 9559SOL    HW229577   1.194   3.725   0.179
 9560SOL     OW29578   2.956   1.061   2.644
 9560SOL    HW129579   2.884   0.994   2.626
 9560SOL    HW229580   2.979   1.109   2.559
 9561SOL     OW29581   0.373   0.758   1.665
 9561SOL    HW129582   0.296   0.817   1.688
 9561SOL    HW229583   0.434   0.805   1.602
 9562SOL     OW29584   3.064   6.186   4.463
 9562SOL    HW129585   3.050   6.158   4.558
 9562SOL    HW229586   3.054   6.106   4.404
 9563SOL     OW29587   0.381   6.333   0.637
 9563SOL    HW129588   0.417   6.426   0.626
 9563SOL    HW229589   0.452   6.267   0.614
 9564SOL     OW29590   1.949   1.441   1.397
 9564SOL    HW129591   1.879   1.445   1.326
 9564SOL    HW229592   2.006   1.360   1.383
 9565SOL     OW29593   2.940   1.378   4.277
 9565SOL    HW129594   2.894   1.339   4.197
 9565SOL    HW229595   2.879   1.441   4.323
 9566SOL     OW29596   2.405   6.406   0.553
 9566SOL    HW129597   2.346   6.328   0.532
 9566SOL    HW229598   2.390   6.434   0.647
 9567SOL     OW29599   5.826   4.422   0.247
 9567SOL    HW129600   5.848   4.326   0.267
 9567SOL    HW229601   5.897   4.460   0.187
 9568SOL     OW29602   4.207   1.289   0.618
 9568SOL    HW129603   4.254   1.219   0.564
 9568SOL    HW229604   4.110   1.265   0.625
 9569SOL     OW29605   0.137   0.816   2.233
 9569SOL    HW129606   0.107   0.741   2.175
 9569SOL    HW229607   0.133   0.788   2.329
 9570SOL     OW29608   1.018   2.535   0.974
 9570SOL    HW129609   0.919   2.538   0.989
 9570SOL    HW229610   1.064   2.513   1.060
 9571SOL     OW29611   2.101   2.566   6.160
 9571SOL    HW129612   2.067   2.611   6.243
 9571SOL    HW229613   2.024   2.545   6.100
 9572SOL     OW29614   2.504   4.740   2.669
 9572SOL    HW129615   2.498   4.838   2.688
 9572SOL    HW229616   2.546   4.726   2.580
 9573SOL     OW29617   6.674   1.390   5.656
 9573SOL    HW129618   6.595   1.411   5.714
 9573SOL    HW229619   6.649   1.319   5.590
 9574SOL     OW29620   3.541   2.923   2.026
 9574SOL    HW129621   3.619   2.864   2.046
 9574SOL    HW229622   3.562   3.017   2.055
 9575SOL     OW29623   6.463   0.593   2.311
 9575SOL    HW129624   6.472   0.495   2.291
 9575SOL    HW229625   6.533   0.643   2.260
 9576SOL     OW29626   1.726   2.124   7.024
 9576SOL    HW129627   1.749   2.114   6.927
 9576SOL    HW229628   1.676   2.043   0.029
 9577SOL     OW29629   0.079   5.755   6.764
 9577SOL    HW129630   7.011   5.782   6.742
 9577SOL    HW229631   0.139   5.835   6.753
 9578SOL     OW29632   1.285   2.599   2.770
 9578SOL    HW129633   1.204   2.594   2.710
 9578SOL    HW229634   1.255   2.593   2.865
 9579SOL     OW29635   6.257   5.971   2.533
 9579SOL    HW129636   6.348   5.927   2.536
 9579SOL    HW229637   6.243   6.021   2.618
 9580SOL     OW29638   4.898   3.639   1.004
 9580SOL    HW129639   4.901   3.739   1.008
 9580SOL    HW229640   4.878   3.610   0.911
 9581SOL     OW29641   0.618   0.332   6.317
 9581SOL    HW129642   0.682   0.277   6.370
 9581SOL    HW229643   0.665   0.413   6.281
 9582SOL     OW29644   3.648   5.487   4.847
 9582SOL    HW129645   3.726   5.440   4.889
 9582SOL    HW229646   3.680   5.547   4.775
 9583SOL     OW29647   3.154   4.502   1.295
 9583SOL    HW129648   3.211   4.503   1.377
 9583SOL    HW229649   3.058   4.516   1.321
 9584SOL     OW29650   1.682   5.375   5.746
 9584SOL    HW129651   1.730   5.461   5.763
 9584SOL    HW229652   1.598   5.392   5.695
 9585SOL     OW29653   5.412   6.609   2.147
 9585SOL    HW129654   5.318   6.595   2.117
 9585SOL    HW229655   5.423   6.575   2.241
 9586SOL     OW29656   4.415   5.079   2.320
 9586SOL    HW129657   4.498   5.134   2.314
 9586SOL    HW229658   4.440   4.983   2.338
 9587SOL     OW29659   1.240   6.579   2.571
 9587SOL    HW129660   1.149   6.559   2.535
 9587SOL    HW229661   1.288   6.493   2.588
 9588SOL     OW29662   6.185   6.114   0.606
 9588SOL    HW129663   6.236   6.198   0.625
 9588SOL    HW229664   6.248   6.044   0.573
 9589SOL     OW29665   1.795   3.987   6.772
 9589SOL    HW129666   1.758   4.060   6.829
 9589SOL    HW229667   1.738   3.977   6.691
 9590SOL     OW29668   6.363   2.418   1.641
 9590SOL    HW129669   6.413   2.343   1.597
 9590SOL    HW229670   6.284   2.442   1.585
 9591SOL     OW29671   4.045   5.792   6.133
 9591SOL    HW129672   4.102   5.852   6.078
 9591SOL    HW229673   4.079   5.791   6.227
 9592SOL     OW29674   3.262   5.319   0.948
 9592SOL    HW129675   3.354   5.284   0.967
 9592SOL    HW229676   3.259   5.417   0.967
 9593SOL     OW29677   1.034   2.034   5.346
 9593SOL    HW129678   1.091   2.102   5.299
 9593SOL    HW229679   1.073   1.943   5.332
 9594SOL     OW29680   2.717   6.195   4.467
 9594SOL    HW129681   2.715   6.291   4.495
 9594SOL    HW229682   2.739   6.189   4.370
 9595SOL     OW29683   0.638   2.780   3.547
 9595SOL    HW129684   0.737   2.762   3.543
 9595SOL    HW229685   0.621   2.855   3.611
 9596SOL     OW29686   0.889   5.228   0.447
 9596SOL    HW129687   0.885   5.248   0.349
 9596SOL    HW229688   0.867   5.131   0.462
 9597SOL     OW29689   0.277   4.307   1.236
 9597SOL    HW129690   0.299   4.335   1.330
 9597SOL    HW229691   0.256   4.209   1.235
 9598SOL     OW29692   2.076   3.962   3.396
 9598SOL    HW129693   1.985   4.000   3.385
 9598SOL    HW229694   2.072   3.862   3.395
 9599SOL     OW29695   3.323   0.299   4.036
 9599SOL    HW129696   3.382   0.232   4.079
 9599SOL    HW229697   3.318   0.281   3.937
 9600SOL     OW29698   2.843   0.177   0.214
 9600SOL    HW129699   2.814   0.120   0.137
 9600SOL    HW229700   2.762   0.214   0.261
 9601SOL     OW29701   5.470   4.312   7.023
 9601SOL    HW129702   5.490   4.361   0.082
 9601SOL    HW229703   5.532   4.234   7.014
 9602SOL     OW29704   4.958   3.740   5.448
 9602SOL    HW129705   4.922   3.829   5.477
 9602SOL    HW229706   4.888   3.670   5.460
 9603SOL     OW29707   5.380   0.087   6.593
 9603SOL    HW129708   5.439   0.104   6.672
 9603SOL    HW229709   5.293   0.135   6.605
 9604SOL     OW29710   5.156   6.767   1.572
 9604SOL    HW129711   5.068   6.773   1.524
 9604SOL    HW229712   5.167   6.847   1.631
 9605SOL     OW29713   0.870   5.414   2.837
 9605SOL    HW129714   0.956   5.391   2.883
 9605SOL    HW229715   0.827   5.491   2.883
 9606SOL     OW29716   1.357   6.863   6.444
 9606SOL    HW129717   1.350   6.797   6.369
 9606SOL    HW229718   1.434   6.925   6.426
 9607SOL     OW29719   2.753   1.203   0.406
 9607SOL    HW129720   2.726   1.300   0.402
 9607SOL    HW229721   2.789   1.175   0.317
 9608SOL     OW29722   0.229   4.848   1.975
 9608SOL    HW129723   0.272   4.920   1.920
 9608SOL    HW229724   0.184   4.783   1.914
 9609SOL     OW29725   3.923   3.063   0.127
 9609SOL    HW129726   3.851   3.117   0.083
 9609SOL    HW229727   3.910   3.066   0.226
 9610SOL     OW29728   1.533   4.609   3.381
 9610SOL    HW129729   1.486   4.524   3.403
 9610SOL    HW229730   1.466   4.676   3.349
 9611SOL     OW29731   1.276   6.048   0.293
 9611SOL    HW129732   1.279   5.954   0.258
 9611SOL    HW229733   1.206   6.055   0.364
 9612SOL     OW29734   0.546   2.959   1.804
 9612SOL    HW129735   0.608   3.017   1.857
 9612SOL    HW229736   0.519   2.880   1.858
 9613SOL     OW29737   5.489   6.643   3.763
 9613SOL    HW129738   5.459   6.664   3.670
 9613SOL    HW229739   5.468   6.547   3.784
 9614SOL     OW29740   3.806   1.813   1.909
 9614SOL    HW129741   3.778   1.887   1.848
 9614SOL    HW229742   3.751   1.816   1.993
 9615SOL     OW29743   2.540   1.286   1.179
 9615SOL    HW129744   2.599   1.313   1.255
 9615SOL    HW229745   2.456   1.340   1.181
 9616SOL     OW29746   3.616   3.782   0.980
 9616SOL    HW129747   3.594   3.696   0.934
 9616SOL    HW229748   3.674   3.764   1.060
 9617SOL     OW29749   1.918   2.993   3.585
 9617SOL    HW129750   1.911   2.941   3.500
 9617SOL    HW229751   1.867   3.079   3.575
 9618SOL     OW29752   2.755   0.065   1.090
 9618SOL    HW129753   2.821   7.018   1.106
 9618SOL    HW229754   2.718   0.058   0.997
 9619SOL     OW29755   1.974   0.197   5.703
 9619SOL    HW129756   1.941   0.198   5.608
 9619SOL    HW229757   2.026   0.280   5.721
 9620SOL     OW29758   4.355   0.140   5.303
 9620SOL    HW129759   4.351   0.040   5.303
 9620SOL    HW229760   4.288   0.177   5.368
 9621SOL     OW29761   1.918   3.206   1.890
 9621SOL    HW129762   1.858   3.128   1.874
 9621SOL    HW229763   1.866   3.291   1.881
 9622SOL     OW29764   6.516   1.714   0.689
 9622SOL    HW129765   6.442   1.657   0.654
 9622SOL    HW229766   6.604   1.669   0.673
 9623SOL     OW29767   2.693   3.592   5.781
 9623SOL    HW129768   2.710   3.534   5.702
 9623SOL    HW229769   2.682   3.687   5.751
 9624SOL     OW29770   5.956   3.845   2.932
 9624SOL    HW129771   5.872   3.808   2.892
 9624SOL    HW229772   5.955   3.945   2.926
 9625SOL     OW29773   5.369   5.250   6.932
 9625SOL    HW129774   5.390   5.296   7.018
 9625SOL    HW229775   5.342   5.156   6.950
 9626SOL     OW29776   4.347   5.192   0.560
 9626SOL    HW129777   4.296   5.140   0.492
 9626SOL    HW229778   4.381   5.276   0.518
 9627SOL     OW29779   0.705   6.325   6.488
 9627SOL    HW129780   0.711   6.227   6.504
 9627SOL    HW229781   0.653   6.368   6.561
 9628SOL     OW29782   5.476   4.701   1.057
 9628SOL    HW129783   5.508   4.635   0.989
 9628SOL    HW229784   5.503   4.671   1.148
 9629SOL     OW29785   1.870   0.315   0.994
 9629SOL    HW129786   1.909   0.359   0.913
 9629SOL    HW229787   1.832   0.384   1.055
 9630SOL     OW29788   6.131   6.737   4.624
 9630SOL    HW129789   6.143   6.643   4.591
 9630SOL    HW229790   6.081   6.736   4.711
 9631SOL     OW29791   6.884   6.262   6.394
 9631SOL    HW129792   6.815   6.205   6.437
 9631SOL    HW229793   6.947   6.205   6.341
 9632SOL     OW29794   1.546   6.788   2.672
 9632SOL    HW129795   1.596   6.707   2.643
 9632SOL    HW229796   1.594   6.870   2.638
 9633SOL     OW29797   5.430   5.027   6.494
 9633SOL    HW129798   5.348   4.972   6.510
 9633SOL    HW229799   5.413   5.092   6.420
 9634SOL     OW29800   1.316   6.442   3.865
 9634SOL    HW129801   1.389   6.374   3.857
 9634SOL    HW229802   1.326   6.492   3.951
 9635SOL     OW29803   2.047   6.487   5.008
 9635SOL    HW129804   2.100   6.412   4.968
 9635SOL    HW229805   1.958   6.452   5.040
 9636SOL     OW29806   3.881   1.495   5.642
 9636SOL    HW129807   3.943   1.571   5.661
 9636SOL    HW229808   3.909   1.415   5.695
 9637SOL     OW29809   2.484   2.489   6.639
 9637SOL    HW129810   2.463   2.528   6.729
 9637SOL    HW229811   2.463   2.556   6.568
 9638SOL     OW29812   0.245   3.385   6.159
 9638SOL    HW129813   0.171   3.389   6.225
 9638SOL    HW229814   0.222   3.318   6.087
 9639SOL     OW29815   4.139   1.810   2.109
 9639SOL    HW129816   4.192   1.726   2.096
 9639SOL    HW229817   4.109   1.844   2.020
 9640SOL     OW29818   2.197   3.050   3.925
 9640SOL    HW129819   2.217   3.144   3.951
 9640SOL    HW229820   2.100   3.031   3.939
 9641SOL     OW29821   4.574   0.205   0.260
 9641SOL    HW129822   4.674   0.200   0.252
 9641SOL    HW229823   4.532   0.143   0.194
 9642SOL     OW29824   2.749   6.996   4.938
 9642SOL    HW129825   2.712   7.000   5.032
 9642SOL    HW229826   2.705   6.921   4.889
 9643SOL     OW29827   5.607   4.230   3.498
 9643SOL    HW129828   5.569   4.224   3.590
 9643SOL    HW229829   5.559   4.301   3.447
 9644SOL     OW29830   1.008   3.585   6.324
 9644SOL    HW129831   0.947   3.606   6.247
 9644SOL    HW229832   0.960   3.599   6.410
 9645SOL     OW29833   2.499   4.970   4.836
 9645SOL    HW129834   2.533   4.959   4.930
 9645SOL    HW229835   2.469   4.881   4.801
 9646SOL     OW29836   3.613   4.871   2.900
 9646SOL    HW129837   3.697   4.903   2.857
 9646SOL    HW229838   3.633   4.839   2.993
 9647SOL     OW29839   6.329   4.426   0.968
 9647SOL    HW129840   6.233   4.398   0.974
 9647SOL    HW229841   6.357   4.424   0.872
 9648SOL     OW29842   4.229   1.305   1.087
 9648SOL    HW129843   4.324   1.296   1.058
 9648SOL    HW229844   4.175   1.341   1.011
 9649SOL     OW29845   2.741   6.938   0.258
 9649SOL    HW129846   2.707   6.878   0.330
 9649SOL    HW229847   2.797   7.010   0.297
 9650SOL     OW29848   0.020   5.174   2.602
 9650SOL    HW129849   6.964   5.158   2.656
 9650SOL    HW229850   0.056   5.086   2.568
 9651SOL     OW29851   0.053   1.815   5.763
 9651SOL    HW129852   0.073   1.720   5.737
 9651SOL    HW229853   7.011   1.816   5.836
 9652SOL     OW29854   0.865   4.925   1.413
 9652SOL    HW129855   0.773   4.956   1.391
 9652SOL    HW229856   0.924   5.005   1.428
 9653SOL     OW29857   4.118   4.824   5.189
 9653SOL    HW129858   4.142   4.920   5.172
 9653SOL    HW229859   4.030   4.819   5.237
 9654SOL     OW29860   2.935   2.208   1.434
 9654SOL    HW129861   2.925   2.308   1.439
 9654SOL    HW229862   2.858   2.171   1.382
 9655SOL     OW29863   6.766   1.966   6.272
 9655SOL    HW129864   6.694   1.898   6.260
 9655SOL    HW229865   6.789   1.974   6.369
 9656SOL     OW29866   2.387   0.563   2.985
 9656SOL    HW129867   2.310   0.585   3.045
 9656SOL    HW229868   2.396   0.634   2.915
 9657SOL     OW29869   5.328   0.869   4.298
 9657SOL    HW129870   5.291   0.798   4.237
 9657SOL    HW229871   5.412   0.906   4.259
 9658SOL     OW29872   0.244   1.944   2.500
 9658SOL    HW129873   0.288   1.930   2.411
 9658SOL    HW229874   0.147   1.965   2.486
 9659SOL     OW29875   0.076   3.812   0.350
 9659SOL    HW129876   0.066   3.881   0.422
 9659SOL    HW229877   0.053   3.852   0.262
 9660SOL     OW29878   0.533   6.207   1.024
 9660SOL    HW129879   0.453   6.217   1.083
 9660SOL    HW229880   0.557   6.296   0.985
 9661SOL     OW29881   4.591   6.330   1.027
 9661SOL    HW129882   4.643   6.266   0.972
 9661SOL    HW229883   4.553   6.283   1.107
 9662SOL     OW29884   6.124   2.768   4.684
 9662SOL    HW129885   6.067   2.732   4.610
 9662SOL    HW229886   6.126   2.868   4.679
 9663SOL     OW29887   1.607   5.470   3.807
 9663SOL    HW129888   1.699   5.433   3.822
 9663SOL    HW229889   1.584   5.536   3.878
 9664SOL     OW29890   4.328   6.621   2.527
 9664SOL    HW129891   4.399   6.575   2.474
 9664SOL    HW229892   4.346   6.610   2.625
 9665SOL     OW29893   5.963   4.763   5.705
 9665SOL    HW129894   5.920   4.854   5.708
 9665SOL    HW229895   5.894   4.694   5.683
 9666SOL     OW29896   5.908   4.107   1.013
 9666SOL    HW129897   5.963   4.156   0.946
 9666SOL    HW229898   5.933   4.010   1.012
 9667SOL     OW29899   4.112   3.348   3.932
 9667SOL    HW129900   4.150   3.411   4.001
 9667SOL    HW229901   4.023   3.383   3.902
 9668SOL     OW29902   6.823   1.682   5.296
 9668SOL    HW129903   6.829   1.588   5.261
 9668SOL    HW229904   6.911   1.727   5.285
 9669SOL     OW29905   0.541   0.789   0.965
 9669SOL    HW129906   0.445   0.775   0.989
 9669SOL    HW229907   0.548   0.827   0.873
 9670SOL     OW29908   4.195   4.525   6.025
 9670SOL    HW129909   4.267   4.465   5.990
 9670SOL    HW229910   4.193   4.610   5.971
 9671SOL     OW29911   6.919   5.326   6.066
 9671SOL    HW129912   6.945   5.318   6.162
 9671SOL    HW229913   6.824   5.299   6.054
 9672SOL     OW29914   1.251   6.597   5.289
 9672SOL    HW129915   1.176   6.663   5.283
 9672SOL    HW229916   1.305   6.600   5.205
 9673SOL     OW29917   3.609   5.002   6.806
 9673SOL    HW129918   3.557   5.002   6.721
 9673SOL    HW229919   3.707   4.994   6.786
 9674SOL     OW29920   2.779   6.143   2.011
 9674SOL    HW129921   2.709   6.105   2.073
 9674SOL    HW229922   2.748   6.132   1.916
 9675SOL     OW29923   5.888   0.920   2.064
 9675SOL    HW129924   5.835   0.932   1.980
 9675SOL    HW229925   5.979   0.959   2.052
 9676SOL     OW29926   1.523   3.536   5.791
 9676SOL    HW129927   1.541   3.578   5.702
 9676SOL    HW229928   1.590   3.570   5.857
 9677SOL     OW29929   2.392   4.172   5.860
 9677SOL    HW129930   2.403   4.135   5.768
 9677SOL    HW229931   2.341   4.107   5.917
 9678SOL     OW29932   4.075   3.562   2.938
 9678SOL    HW129933   4.027   3.642   2.903
 9678SOL    HW229934   4.061   3.484   2.877
 9679SOL     OW29935   1.078   2.997   2.158
 9679SOL    HW129936   1.106   3.035   2.246
 9679SOL    HW229937   1.083   3.069   2.088
 9680SOL     OW29938   5.978   6.570   3.799
 9680SOL    HW129939   6.041   6.646   3.780
 9680SOL    HW229940   6.029   6.484   3.799
 9681SOL     OW29941   1.989   0.611   1.261
 9681SOL    HW129942   2.076   0.592   1.216
 9681SOL    HW229943   2.006   0.640   1.355
 9682SOL     OW29944   4.743   5.174   3.195
 9682SOL    HW129945   4.735   5.076   3.181
 9682SOL    HW229946   4.663   5.220   3.157
 9683SOL     OW29947   4.082   5.367   0.431
 9683SOL    HW129948   4.124   5.370   0.340
 9683SOL    HW229949   4.019   5.290   0.436
 9684SOL     OW29950   0.242   3.489   4.776
 9684SOL    HW129951   0.276   3.538   4.696
 9684SOL    HW229952   0.317   3.435   4.816
 9685SOL     OW29953   2.651   2.941   1.431
 9685SOL    HW129954   2.704   2.862   1.399
 9685SOL    HW229955   2.556   2.915   1.443
 9686SOL     OW29956   0.057   1.425   1.281
 9686SOL    HW129957   0.081   1.521   1.268
 9686SOL    HW229958   0.053   1.405   1.379
 9687SOL     OW29959   2.080   0.801   3.249
 9687SOL    HW129960   2.042   0.893   3.260
 9687SOL    HW229961   2.023   0.749   3.185
 9688SOL     OW29962   0.109   2.509   2.833
 9688SOL    HW129963   0.144   2.544   2.920
 9688SOL    HW229964   0.009   2.516   2.832
 9689SOL     OW29965   2.063   6.777   6.995
 9689SOL    HW129966   2.135   6.708   6.986
 9689SOL    HW229967   2.050   6.800   0.066
 9690SOL     OW29968   5.943   4.822   0.031
 9690SOL    HW129969   6.031   4.869   0.018
 9690SOL    HW229970   5.950   4.758   0.107
 9691SOL     OW29971   2.008   4.859   2.022
 9691SOL    HW129972   2.014   4.807   1.937
 9691SOL    HW229973   2.030   4.955   2.004
 9692SOL     OW29974   2.682   5.011   2.345
 9692SOL    HW129975   2.763   4.972   2.301
 9692SOL    HW229976   2.686   5.111   2.339
 9693SOL     OW29977   6.919   5.557   2.000
 9693SOL    HW129978   6.936   5.623   2.072
 9693SOL    HW229979   6.869   5.600   1.925
 9694SOL     OW29980   2.007   2.203   0.074
 9694SOL    HW129981   1.910   2.195   0.095
 9694SOL    HW229982   2.050   2.114   0.082
 9695SOL     OW29983   5.864   4.700   0.351
 9695SOL    HW129984   5.883   4.620   0.294
 9695SOL    HW229985   5.948   4.752   0.364
 9696SOL     OW29986   3.966   2.597   1.519
 9696SOL    HW129987   3.878   2.552   1.529
 9696SOL    HW229988   3.983   2.657   1.597
 9697SOL     OW29989   0.777   4.733   6.918
 9697SOL    HW129990   0.774   4.830   6.893
 9697SOL    HW229991   0.845   4.719   6.990
 9698SOL     OW29992   5.820   0.838   4.776
 9698SOL    HW129993   5.901   0.891   4.750
 9698SOL    HW229994   5.837   0.741   4.758
 9699SOL     OW29995   0.932   4.040   5.750
 9699SOL    HW129996   0.963   4.127   5.786
 9699SOL    HW229997   0.855   4.007   5.805
 9700SOL     OW29998   3.435   4.974   5.517
 9700SOL    HW129999   3.379   4.983   5.435
 9700SOL    HW230000   3.503   4.901   5.504
 9701SOL     OW30001   3.726   5.867   5.542
 9701SOL    HW130002   3.781   5.947   5.517
 9701SOL    HW230003   3.636   5.897   5.573
 9702SOL     OW30004   5.274   1.254   0.512
 9702SOL    HW130005   5.307   1.166   0.546
 9702SOL    HW230006   5.185   1.241   0.468
 9703SOL     OW30007   2.955   5.934   4.340
 9703SOL    HW130008   3.049   5.946   4.306
 9703SOL    HW230009   2.890   5.951   4.266
 9704SOL     OW30010   3.360   6.905   3.011
 9704SOL    HW130011   3.398   6.979   2.956
 9704SOL    HW230012   3.409   6.820   2.991
 9705SOL     OW30013   4.241   5.065   0.328
 9705SOL    HW130014   4.292   4.979   0.322
 9705SOL    HW230015   4.151   5.054   0.286
 9706SOL     OW30016   6.745   2.254   0.892
 9706SOL    HW130017   6.662   2.215   0.930
 9706SOL    HW230018   6.757   2.223   0.798
 9707SOL     OW30019   0.912   4.114   1.993
 9707SOL    HW130020   0.909   4.130   1.894
 9707SOL    HW230021   0.825   4.073   2.022
 9708SOL     OW30022   1.649   2.574   3.902
 9708SOL    HW130023   1.584   2.550   3.974
 9708SOL    HW230024   1.633   2.667   3.872
 9709SOL     OW30025   1.014   6.388   3.811
 9709SOL    HW130026   1.078   6.341   3.872
 9709SOL    HW230027   1.020   6.349   3.720
 9710SOL     OW30028   0.293   0.799   2.844
 9710SOL    HW130029   0.294   0.718   2.786
 9710SOL    HW230030   0.299   0.882   2.787
 9711SOL     OW30031   1.627   3.087   5.924
 9711SOL    HW130032   1.605   3.004   5.872
 9711SOL    HW230033   1.557   3.157   5.906
 9712SOL     OW30034   5.616   2.298   4.743
 9712SOL    HW130035   5.682   2.225   4.759
 9712SOL    HW230036   5.584   2.293   4.648
 9713SOL     OW30037   0.180   4.554   2.864
 9713SOL    HW130038   0.206   4.650   2.873
 9713SOL    HW230039   0.240   4.498   2.920
 9714SOL     OW30040   2.291   1.369   1.122
 9714SOL    HW130041   2.199   1.409   1.126
 9714SOL    HW230042   2.284   1.269   1.122
 9715SOL     OW30043   6.018   5.652   4.804
 9715SOL    HW130044   6.090   5.600   4.849
 9715SOL    HW230045   6.037   5.750   4.813
 9716SOL     OW30046   3.675   1.932   6.624
 9716SOL    HW130047   3.728   1.908   6.543
 9716SOL    HW230048   3.588   1.881   6.624
 9717SOL     OW30049   4.932   5.707   4.356
 9717SOL    HW130050   4.964   5.694   4.262
 9717SOL    HW230051   4.916   5.618   4.398
 9718SOL     OW30052   4.220   2.609   1.372
 9718SOL    HW130053   4.150   2.610   1.443
 9718SOL    HW230054   4.211   2.689   1.313
 9719SOL     OW30055   0.944   2.226   0.523
 9719SOL    HW130056   0.985   2.297   0.580
 9719SOL    HW230057   0.863   2.262   0.477
 9720SOL     OW30058   0.506   6.200   1.901
 9720SOL    HW130059   0.576   6.142   1.944
 9720SOL    HW230060   0.475   6.269   1.967
 9721SOL     OW30061   0.776   3.312   2.061
 9721SOL    HW130062   0.763   3.358   1.974
 9721SOL    HW230063   0.757   3.376   2.136
 9722SOL     OW30064   0.411   0.652   3.652
 9722SOL    HW130065   0.495   0.641   3.705
 9722SOL    HW230066   0.414   0.739   3.603
 9723SOL     OW30067   0.765   6.599   3.034
 9723SOL    HW130068   0.728   6.688   3.060
 9723SOL    HW230069   0.825   6.610   2.954
 9724SOL     OW30070   2.900   2.689   1.675
 9724SOL    HW130071   2.822   2.748   1.691
 9724SOL    HW230072   2.921   2.637   1.758
 9725SOL     OW30073   4.216   3.648   6.419
 9725SOL    HW130074   4.230   3.734   6.369
 9725SOL    HW230075   4.118   3.626   6.420
 9726SOL     OW30076   5.540   6.965   4.692
 9726SOL    HW130077   5.471   6.923   4.751
 9726SOL    HW230078   5.496   0.005   4.631
 9727SOL     OW30079   1.317   3.901   5.526
 9727SOL    HW130080   1.378   3.966   5.571
 9727SOL    HW230081   1.247   3.871   5.591
 9728SOL     OW30082   1.754   6.517   6.301
 9728SOL    HW130083   1.844   6.527   6.259
 9728SOL    HW230084   1.686   6.568   6.247
 9729SOL     OW30085   1.232   4.409   3.093
 9729SOL    HW130086   1.221   4.475   3.166
 9729SOL    HW230087   1.215   4.453   3.005
 9730SOL     OW30088   6.892   3.405   2.678
 9730SOL    HW130089   6.916   3.390   2.582
 9730SOL    HW230090   6.798   3.374   2.693
 9731SOL     OW30091   4.207   4.952   0.750
 9731SOL    HW130092   4.217   4.864   0.704
 9731SOL    HW230093   4.111   4.980   0.749
 9732SOL     OW30094   6.968   6.085   2.441
 9732SOL    HW130095   6.974   6.030   2.524
 9732SOL    HW230096   7.003   6.033   2.363
 9733SOL     OW30097   5.923   5.178   4.540
 9733SOL    HW130098   5.886   5.161   4.448
 9733SOL    HW230099   5.875   5.120   4.606
 9734SOL     OW30100   5.683   1.678   4.033
 9734SOL    HW130101   5.758   1.709   4.092
 9734SOL    HW230102   5.718   1.614   3.965
 9735SOL     OW30103   1.888   5.260   2.963
 9735SOL    HW130104   1.931   5.180   2.921
 9735SOL    HW230105   1.846   5.317   2.893
 9736SOL     OW30106   5.531   0.916   0.017
 9736SOL    HW130107   5.624   0.911   7.009
 9736SOL    HW230108   5.468   0.929   6.967
 9737SOL     OW30109   4.171   2.188   4.662
 9737SOL    HW130110   4.153   2.112   4.724
 9737SOL    HW230111   4.190   2.271   4.716
 9738SOL     OW30112   1.269   0.801   3.247
 9738SOL    HW130113   1.223   0.885   3.278
 9738SOL    HW230114   1.360   0.823   3.214
 9739SOL     OW30115   6.914   4.699   1.529
 9739SOL    HW130116   6.898   4.740   1.619
 9739SOL    HW230117   6.903   4.769   1.458
 9740SOL     OW30118   5.736   3.752   2.782
 9740SOL    HW130119   5.678   3.753   2.701
 9740SOL    HW230120   5.748   3.657   2.813
 9741SOL     OW30121   4.590   1.536   2.812
 9741SOL    HW130122   4.605   1.554   2.909
 9741SOL    HW230123   4.547   1.447   2.801
 9742SOL     OW30124   5.016   0.402   3.275
 9742SOL    HW130125   4.930   0.359   3.304
 9742SOL    HW230126   5.061   0.344   3.207
 9743SOL     OW30127   1.960   2.773   6.020
 9743SOL    HW130128   1.901   2.769   6.101
 9743SOL    HW230129   2.038   2.832   6.040
 9744SOL     OW30130   1.294   0.814   2.434
 9744SOL    HW130131   1.383   0.843   2.399
 9744SOL    HW230132   1.281   0.849   2.526
 9745SOL     OW30133   0.551   2.272   4.971
 9745SOL    HW130134   0.476   2.239   4.913
 9745SOL    HW230135   0.557   2.215   5.053
 9746SOL     OW30136   5.387   0.968   5.710
 9746SOL    HW130137   5.313   0.963   5.643
 9746SOL    HW230138   5.372   1.045   5.772
 9747SOL     OW30139   1.485   1.234   1.246
 9747SOL    HW130140   1.465   1.313   1.303
 9747SOL    HW230141   1.468   1.150   1.298
 9748SOL     OW30142   1.431   6.202   4.813
 9748SOL    HW130143   1.361   6.260   4.771
 9748SOL    HW230144   1.401   6.107   4.812
 9749SOL     OW30145   1.160   3.151   5.403
 9749SOL    HW130146   1.218   3.121   5.327
 9749SOL    HW230147   1.173   3.248   5.419
 9750SOL     OW30148   5.363   4.708   3.715
 9750SOL    HW130149   5.370   4.807   3.722
 9750SOL    HW230150   5.329   4.671   3.801
 9751SOL     OW30151   1.644   2.352   0.879
 9751SOL    HW130152   1.722   2.401   0.917
 9751SOL    HW230153   1.641   2.259   0.917
 9752SOL     OW30154   4.379   0.402   6.269
 9752SOL    HW130155   4.392   0.499   6.291
 9752SOL    HW230156   4.297   0.391   6.213
 9753SOL     OW30157   6.510   6.258   4.886
 9753SOL    HW130158   6.484   6.355   4.892
 9753SOL    HW230159   6.577   6.246   4.812
 9754SOL     OW30160   1.490   1.635   6.995
 9754SOL    HW130161   1.410   1.606   0.022
 9754SOL    HW230162   1.466   1.645   6.899
 9755SOL     OW30163   4.114   3.419   4.930
 9755SOL    HW130164   4.212   3.410   4.907
 9755SOL    HW230165   4.062   3.433   4.846
 9756SOL     OW30166   5.987   2.776   6.994
 9756SOL    HW130167   5.899   2.745   0.004
 9756SOL    HW230168   6.061   2.743   0.026
 9757SOL     OW30169   5.116   3.109   3.372
 9757SOL    HW130170   5.096   3.165   3.452
 9757SOL    HW230171   5.054   3.134   3.297
 9758SOL     OW30172   2.141   0.012   5.794
 9758SOL    HW130173   2.063   0.072   5.778
 9758SOL    HW230174   2.162   6.988   5.710
 9759SOL     OW30175   1.641   6.438   1.349
 9759SOL    HW130176   1.686   6.492   1.277
 9759SOL    HW230177   1.553   6.480   1.372
 9760SOL     OW30178   5.415   4.395   4.737
 9760SOL    HW130179   5.508   4.356   4.739
 9760SOL    HW230180   5.420   4.493   4.755
 9761SOL     OW30181   5.830   4.754   1.549
 9761SOL    HW130182   5.870   4.799   1.629
 9761SOL    HW230183   5.786   4.823   1.491
 9762SOL     OW30184   1.903   2.011   4.689
 9762SOL    HW130185   2.000   2.032   4.682
 9762SOL    HW230186   1.868   1.987   4.598
 9763SOL     OW30187   4.420   1.327   1.679
 9763SOL    HW130188   4.361   1.406   1.660
 9763SOL    HW230189   4.398   1.254   1.615
 9764SOL     OW30190   1.476   2.667   3.596
 9764SOL    HW130191   1.446   2.694   3.505
 9764SOL    HW230192   1.553   2.724   3.624
 9765SOL     OW30193   6.784   2.107   5.219
 9765SOL    HW130194   6.699   2.063   5.190
 9765SOL    HW230195   6.810   2.178   5.153
 9766SOL     OW30196   3.432   0.661   3.355
 9766SOL    HW130197   3.474   0.605   3.283
 9766SOL    HW230198   3.370   0.728   3.313
 9767SOL     OW30199   5.271   1.345   5.218
 9767SOL    HW130200   5.227   1.326   5.131
 9767SOL    HW230201   5.292   1.443   5.224
 9768SOL     OW30202   4.646   2.110   2.695
 9768SOL    HW130203   4.572   2.054   2.731
 9768SOL    HW230204   4.668   2.183   2.759
 9769SOL     OW30205   1.351   2.546   1.173
 9769SOL    HW130206   1.287   2.623   1.167
 9769SOL    HW230207   1.316   2.479   1.240
 9770SOL     OW30208   5.844   5.263   5.767
 9770SOL    HW130209   5.760   5.253   5.821
 9770SOL    HW230210   5.878   5.357   5.776
 9771SOL     OW30211   4.381   4.592   0.857
 9771SOL    HW130212   4.291   4.619   0.822
 9771SOL    HW230213   4.416   4.665   0.916
 9772SOL     OW30214   0.312   6.719   1.721
 9772SOL    HW130215   0.319   6.670   1.633
 9772SOL    HW230216   0.404   6.733   1.758
 9773SOL     OW30217   5.445   5.570   3.776
 9773SOL    HW130218   5.397   5.630   3.839
 9773SOL    HW230219   5.382   5.538   3.705
 9774SOL     OW30220   5.935   5.269   3.790
 9774SOL    HW130221   5.843   5.248   3.824
 9774SOL    HW230222   5.932   5.356   3.740
 9775SOL     OW30223   2.085   2.725   4.711
 9775SOL    HW130224   2.137   2.711   4.627
 9775SOL    HW230225   2.016   2.796   4.696
 9776SOL     OW30226   6.949   5.710   4.456
 9776SOL    HW130227   6.892   5.789   4.433
 9776SOL    HW230228   6.906   5.627   4.422
 9777SOL     OW30229   5.992   4.441   5.887
 9777SOL    HW130230   6.020   4.417   5.794
 9777SOL    HW230231   6.071   4.475   5.937
 9778SOL     OW30232   4.541   6.876   2.865
 9778SOL    HW130233   4.553   6.890   2.766
 9778SOL    HW230234   4.457   6.921   2.894
 9779SOL     OW30235   2.491   1.269   4.948
 9779SOL    HW130236   2.514   1.226   4.861
 9779SOL    HW230237   2.528   1.362   4.949
 9780SOL     OW30238   2.307   3.326   0.601
 9780SOL    HW130239   2.225   3.356   0.650
 9780SOL    HW230240   2.283   3.254   0.535
 9781SOL     OW30241   1.883   4.418   4.739
 9781SOL    HW130242   1.938   4.436   4.657
 9781SOL    HW230243   1.854   4.323   4.739
 9782SOL     OW30244   6.863   0.153   1.621
 9782SOL    HW130245   6.794   0.082   1.635
 9782SOL    HW230246   6.836   0.236   1.670
 9783SOL     OW30247   5.943   1.331   1.817
 9783SOL    HW130248   5.930   1.429   1.801
 9783SOL    HW230249   5.880   1.280   1.759
 9784SOL     OW30250   4.434   1.051   3.208
 9784SOL    HW130251   4.415   1.148   3.191
 9784SOL    HW230252   4.352   1.006   3.244
 9785SOL     OW30253   0.017   2.789   2.712
 9785SOL    HW130254   6.970   2.721   2.720
 9785SOL    HW230255   0.042   2.822   2.802
 9786SOL     OW30256   2.275   5.480   5.913
 9786SOL    HW130257   2.330   5.402   5.944
 9786SOL    HW230258   2.191   5.446   5.869
 9787SOL     OW30259   5.057   3.983   1.616
 9787SOL    HW130260   4.983   3.942   1.669
 9787SOL    HW230261   5.021   4.060   1.562
 9788SOL     OW30262   0.348   0.088   4.180
 9788SOL    HW130263   0.420   0.051   4.122
 9788SOL    HW230264   0.353   0.188   4.181
 9789SOL     OW30265   2.236   5.686   5.694
 9789SOL    HW130266   2.322   5.737   5.688
 9789SOL    HW230267   2.243   5.603   5.638
 9790SOL     OW30268   5.405   1.853   4.194
 9790SOL    HW130269   5.346   1.926   4.229
 9790SOL    HW230270   5.481   1.839   4.257
 9791SOL     OW30271   1.747   1.052   1.098
 9791SOL    HW130272   1.738   1.098   1.187
 9791SOL    HW230273   1.825   0.990   1.100
 9792SOL     OW30274   4.818   4.965   1.037
 9792SOL    HW130275   4.831   5.008   1.126
 9792SOL    HW230276   4.796   4.868   1.050
 9793SOL     OW30277   5.648   6.222   2.651
 9793SOL    HW130278   5.738   6.254   2.621
 9793SOL    HW230279   5.606   6.167   2.578
 9794SOL     OW30280   5.338   2.836   5.734
 9794SOL    HW130281   5.276   2.772   5.690
 9794SOL    HW230282   5.342   2.816   5.832
 9795SOL     OW30283   1.275   3.463   4.366
 9795SOL    HW130284   1.267   3.429   4.273
 9795SOL    HW230285   1.347   3.412   4.414
 9796SOL     OW30286   3.028   5.178   0.941
 9796SOL    HW130287   3.122   5.209   0.932
 9796SOL    HW230288   3.024   5.097   0.999
 9797SOL     OW30289   4.332   3.940   6.628
 9797SOL    HW130290   4.420   3.893   6.636
 9797SOL    HW230291   4.307   3.947   6.532
 9798SOL     OW30292   3.020   0.555   1.231
 9798SOL    HW130293   2.981   0.558   1.323
 9798SOL    HW230294   2.989   0.472   1.185
 9799SOL     OW30295   3.227   3.127   2.475
 9799SOL    HW130296   3.239   3.085   2.385
 9799SOL    HW230297   3.245   3.059   2.546
 9800SOL     OW30298   4.358   5.713   6.586
 9800SOL    HW130299   4.359   5.754   6.677
 9800SOL    HW230300   4.366   5.614   6.594
 9801SOL     OW30301   4.625   5.663   0.276
 9801SOL    HW130302   4.631   5.630   0.182
 9801SOL    HW230303   4.699   5.729   0.293
 9802SOL     OW30304   0.834   3.317   1.185
 9802SOL    HW130305   0.757   3.281   1.236
 9802SOL    HW230306   0.804   3.345   1.094
 9803SOL     OW30307   6.349   0.117   6.968
 9803SOL    HW130308   6.425   0.175   7.000
 9803SOL    HW230309   6.364   0.024   6.999
 9804SOL     OW30310   0.395   5.348   3.911
 9804SOL    HW130311   0.312   5.353   3.967
 9804SOL    HW230312   0.386   5.410   3.833
 9805SOL     OW30313   1.151   5.299   6.842
 9805SOL    HW130314   1.190   5.383   6.881
 9805SOL    HW230315   1.186   5.287   6.749
 9806SOL     OW30316   0.105   2.736   1.698
 9806SOL    HW130317   0.091   2.650   1.748
 9806SOL    HW230318   0.019   2.767   1.660
 9807SOL     OW30319   4.216   1.932   0.230
 9807SOL    HW130320   4.294   1.873   0.212
 9807SOL    HW230321   4.179   1.912   0.321
 9808SOL     OW30322   6.563   1.652   4.780
 9808SOL    HW130323   6.473   1.612   4.764
 9808SOL    HW230324   6.599   1.619   4.867
 9809SOL     OW30325   0.575   1.520   4.480
 9809SOL    HW130326   0.584   1.420   4.487
 9809SOL    HW230327   0.479   1.545   4.491
 9810SOL     OW30328   2.701   1.588   3.246
 9810SOL    HW130329   2.726   1.550   3.157
 9810SOL    HW230330   2.767   1.659   3.271
 9811SOL     OW30331   6.584   6.224   2.914
 9811SOL    HW130332   6.668   6.270   2.942
 9811SOL    HW230333   6.589   6.202   2.816
 9812SOL     OW30334   4.840   2.322   5.837
 9812SOL    HW130335   4.745   2.326   5.868
 9812SOL    HW230336   4.861   2.230   5.804
 9813SOL     OW30337   6.487   5.321   0.174
 9813SOL    HW130338   6.483   5.332   0.075
 9813SOL    HW230339   6.569   5.268   0.198
 9814SOL     OW30340   6.784   6.666   6.140
 9814SOL    HW130341   6.820   6.615   6.218
 9814SOL    HW230342   6.697   6.710   6.166
 9815SOL     OW30343   6.351   3.648   1.434
 9815SOL    HW130344   6.375   3.569   1.491
 9815SOL    HW230345   6.371   3.627   1.339
 9816SOL     OW30346   6.670   0.119   0.049
 9816SOL    HW130347   6.705   0.033   0.087
 9816SOL    HW230348   6.598   0.155   0.109
 9817SOL     OW30349   3.392   5.885   1.225
 9817SOL    HW130350   3.455   5.855   1.153
 9817SOL    HW230351   3.307   5.832   1.220
 9818SOL     OW30352   1.566   0.595   3.521
 9818SOL    HW130353   1.535   0.572   3.613
 9818SOL    HW230354   1.556   0.515   3.461
 9819SOL     OW30355   6.381   3.668   4.893
 9819SOL    HW130356   6.429   3.582   4.878
 9819SOL    HW230357   6.283   3.653   4.891
 9820SOL     OW30358   2.992   2.319   6.366
 9820SOL    HW130359   3.065   2.382   6.391
 9820SOL    HW230360   2.976   2.324   6.267
 9821SOL     OW30361   4.867   2.294   1.933
 9821SOL    HW130362   4.783   2.341   1.960
 9821SOL    HW230363   4.946   2.340   1.975
 9822SOL     OW30364   4.153   5.795   4.912
 9822SOL    HW130365   4.123   5.773   5.005
 9822SOL    HW230366   4.103   5.875   4.879
 9823SOL     OW30367   1.876   0.779   2.790
 9823SOL    HW130368   1.943   0.706   2.780
 9823SOL    HW230369   1.814   0.756   2.865
 9824SOL     OW30370   1.143   6.110   5.592
 9824SOL    HW130371   1.198   6.089   5.672
 9824SOL    HW230372   1.048   6.080   5.608
 9825SOL     OW30373   5.020   6.297   6.205
 9825SOL    HW130374   4.963   6.371   6.241
 9825SOL    HW230375   5.114   6.329   6.197
 9826SOL     OW30376   3.056   6.373   5.580
 9826SOL    HW130377   3.099   6.463   5.583
 9826SOL    HW230378   2.958   6.383   5.564
 9827SOL     OW30379   1.890   5.529   2.143
 9827SOL    HW130380   1.881   5.520   2.044
 9827SOL    HW230381   1.883   5.439   2.186
 9828SOL     OW30382   3.794   1.819   5.358
 9828SOL    HW130383   3.720   1.803   5.423
 9828SOL    HW230384   3.882   1.811   5.404
 9829SOL     OW30385   4.224   5.549   6.115
 9829SOL    HW130386   4.228   5.615   6.040
 9829SOL    HW230387   4.211   5.457   6.077
 9830SOL     OW30388   5.795   1.864   2.945
 9830SOL    HW130389   5.760   1.814   2.866
 9830SOL    HW230390   5.868   1.812   2.988
 9831SOL     OW30391   0.636   4.138   2.105
 9831SOL    HW130392   0.685   4.184   2.178
 9831SOL    HW230393   0.538   4.135   2.126
 9832SOL     OW30394   4.735   4.179   4.351
 9832SOL    HW130395   4.762   4.096   4.302
 9832SOL    HW230396   4.707   4.157   4.444
 9833SOL     OW30397   3.603   3.957   4.257
 9833SOL    HW130398   3.587   3.888   4.328
 9833SOL    HW230399   3.638   4.041   4.299
 9834SOL     OW30400   2.425   5.486   5.197
 9834SOL    HW130401   2.503   5.484   5.260
 9834SOL    HW230402   2.446   5.545   5.119
 9835SOL     OW30403   3.621   4.180   4.908
 9835SOL    HW130404   3.700   4.188   4.968
 9835SOL    HW230405   3.643   4.218   4.818
 9836SOL     OW30406   0.792   3.625   5.610
 9836SOL    HW130407   0.718   3.559   5.625
 9836SOL    HW230408   0.762   3.716   5.637
 9837SOL     OW30409   5.003   2.128   1.723
 9837SOL    HW130410   4.962   2.162   1.807
 9837SOL    HW230411   4.938   2.136   1.648
 9838SOL     OW30412   0.699   6.386   1.699
 9838SOL    HW130413   0.770   6.338   1.751
 9838SOL    HW230414   0.730   6.478   1.678
 9839SOL     OW30415   4.368   0.837   2.357
 9839SOL    HW130416   4.311   0.758   2.379
 9839SOL    HW230417   4.334   0.880   2.273
 9840SOL     OW30418   5.881   1.734   6.564
 9840SOL    HW130419   5.900   1.641   6.530
 9840SOL    HW230420   5.818   1.728   6.641
 9841SOL     OW30421   0.011   6.228   3.425
 9841SOL    HW130422   7.003   6.180   3.507
 9841SOL    HW230423   0.092   6.281   3.449
 9842SOL     OW30424   2.693   2.379   6.800
 9842SOL    HW130425   2.669   2.457   6.742
 9842SOL    HW230426   2.616   2.358   6.861
 9843SOL     OW30427   0.044   6.686   0.884
 9843SOL    HW130428   0.105   6.609   0.905
 9843SOL    HW230429   0.042   6.701   0.785
 9844SOL     OW30430   4.748   6.997   4.255
 9844SOL    HW130431   4.775   6.965   4.346
 9844SOL    HW230432   4.795   6.942   4.185
 9845SOL     OW30433   1.638   3.099   1.658
 9845SOL    HW130434   1.626   3.186   1.610
 9845SOL    HW230435   1.553   3.075   1.704
 9846SOL     OW30436   5.160   1.167   1.386
 9846SOL    HW130437   5.163   1.068   1.389
 9846SOL    HW230438   5.079   1.200   1.434
 9847SOL     OW30439   4.048   3.940   0.639
 9847SOL    HW130440   4.017   3.907   0.728
 9847SOL    HW230441   4.104   4.022   0.651
 9848SOL     OW30442   3.764   3.828   5.408
 9848SOL    HW130443   3.705   3.906   5.432
 9848SOL    HW230444   3.717   3.743   5.430
 9849SOL     OW30445   0.785   1.807   5.581
 9849SOL    HW130446   0.754   1.830   5.489
 9849SOL    HW230447   0.790   1.890   5.637
 9850SOL     OW30448   0.600   0.361   4.670
 9850SOL    HW130449   0.655   0.278   4.670
 9850SOL    HW230450   0.576   0.385   4.765
 9851SOL     OW30451   3.997   5.042   4.482
 9851SOL    HW130452   3.978   4.997   4.395
 9851SOL    HW230453   4.043   4.977   4.543
 9852SOL     OW30454   1.956   1.762   6.871
 9852SOL    HW130455   1.878   1.740   6.813
 9852SOL    HW230456   2.040   1.756   6.817
 9853SOL     OW30457   6.971   4.449   3.901
 9853SOL    HW130458   6.894   4.388   3.881
 9853SOL    HW230459   0.030   4.397   3.897
 9854SOL     OW30460   1.066   5.484   6.252
 9854SOL    HW130461   1.052   5.405   6.312
 9854SOL    HW230462   0.978   5.527   6.233
 9855SOL     OW30463   1.965   3.645   1.565
 9855SOL    HW130464   1.973   3.679   1.659
 9855SOL    HW230465   1.877   3.675   1.527
 9856SOL     OW30466   5.847   3.919   3.184
 9856SOL    HW130467   5.925   3.949   3.129
 9856SOL    HW230468   5.838   3.820   3.178
 9857SOL     OW30469   4.063   1.643   3.908
 9857SOL    HW130470   4.141   1.705   3.908
 9857SOL    HW230471   4.082   1.566   3.969
 9858SOL     OW30472   6.473   6.247   2.639
 9858SOL    HW130473   6.511   6.303   2.566
 9858SOL    HW230474   6.397   6.296   2.682
 9859SOL     OW30475   0.105   6.049   4.227
 9859SOL    HW130476   0.056   5.969   4.192
 9859SOL    HW230477   0.039   6.122   4.246
 9860SOL     OW30478   1.712   3.273   4.902
 9860SOL    HW130479   1.679   3.190   4.859
 9860SOL    HW230480   1.635   3.326   4.938
 9861SOL     OW30481   3.693   1.137   4.049
 9861SOL    HW130482   3.705   1.092   4.138
 9861SOL    HW230483   3.595   1.150   4.032
 9862SOL     OW30484   1.279   5.540   0.714
 9862SOL    HW130485   1.348   5.525   0.785
 9862SOL    HW230486   1.295   5.630   0.672
 9863SOL     OW30487   4.240   6.337   0.818
 9863SOL    HW130488   4.167   6.405   0.812
 9863SOL    HW230489   4.255   6.312   0.913
 9864SOL     OW30490   2.845   5.933   5.186
 9864SOL    HW130491   2.865   5.876   5.106
 9864SOL    HW230492   2.746   5.942   5.196
 9865SOL     OW30493   0.646   6.152   5.902
 9865SOL    HW130494   0.723   6.209   5.931
 9865SOL    HW230495   0.645   6.068   5.956
 9866SOL     OW30496   6.361   5.310   4.298
 9866SOL    HW130497   6.420   5.362   4.236
 9866SOL    HW230498   6.399   5.313   4.390
 9867SOL     OW30499   4.659   1.970   1.694
 9867SOL    HW130500   4.694   2.060   1.670
 9867SOL    HW230501   4.661   1.958   1.793
 9868SOL     OW30502   1.669   4.470   3.716
 9868SOL    HW130503   1.603   4.422   3.658
 9868SOL    HW230504   1.666   4.568   3.694
 9869SOL     OW30505   0.073   2.570   1.037
 9869SOL    HW130506   0.151   2.520   1.074
 9869SOL    HW230507   7.014   2.522   1.060
 9870SOL     OW30508   3.243   1.323   2.263
 9870SOL    HW130509   3.204   1.392   2.202
 9870SOL    HW230510   3.340   1.311   2.241
 9871SOL     OW30511   0.166   3.936   4.397
 9871SOL    HW130512   0.231   4.004   4.432
 9871SOL    HW230513   0.093   3.922   4.464
 9872SOL     OW30514   1.550   5.165   5.326
 9872SOL    HW130515   1.532   5.079   5.279
 9872SOL    HW230516   1.624   5.153   5.391
 9873SOL     OW30517   2.103   1.633   5.541
 9873SOL    HW130518   2.141   1.561   5.599
 9873SOL    HW230519   2.059   1.592   5.461
 9874SOL     OW30520   0.168   2.720   4.694
 9874SOL    HW130521   0.214   2.764   4.771
 9874SOL    HW230522   0.172   2.620   4.707
 9875SOL     OW30523   6.869   5.570   0.573
 9875SOL    HW130524   6.920   5.576   0.487
 9875SOL    HW230525   6.908   5.498   0.630
 9876SOL     OW30526   2.390   6.849   3.490
 9876SOL    HW130527   2.433   6.939   3.482
 9876SOL    HW230528   2.424   6.789   3.418
 9877SOL     OW30529   0.677   5.623   5.154
 9877SOL    HW130530   0.642   5.534   5.128
 9877SOL    HW230531   0.776   5.617   5.168
 9878SOL     OW30532   2.216   3.036   0.113
 9878SOL    HW130533   2.208   3.048   0.212
 9878SOL    HW230534   2.138   3.078   0.068
 9879SOL     OW30535   0.365   5.027   6.270
 9879SOL    HW130536   0.269   5.001   6.279
 9879SOL    HW230537   0.414   4.960   6.215
 9880SOL     OW30538   2.911   1.607   0.472
 9880SOL    HW130539   2.870   1.594   0.562
 9880SOL    HW230540   3.011   1.604   0.481
 9881SOL     OW30541   5.539   0.419   4.667
 9881SOL    HW130542   5.637   0.399   4.657
 9881SOL    HW230543   5.514   0.413   4.764
 9882SOL     OW30544   4.044   3.664   4.545
 9882SOL    HW130545   4.101   3.586   4.519
 9882SOL    HW230546   4.072   3.745   4.493
 9883SOL     OW30547   2.157   0.020   1.198
 9883SOL    HW130548   2.147   6.957   1.241
 9883SOL    HW230549   2.255   0.043   1.191
 9884SOL     OW30550   1.800   3.697   6.329
 9884SOL    HW130551   1.850   3.734   6.407
 9884SOL    HW230552   1.851   3.716   6.245
 9885SOL     OW30553   6.179   3.473   4.515
 9885SOL    HW130554   6.122   3.518   4.446
 9885SOL    HW230555   6.247   3.538   4.548
 9886SOL     OW30556   4.877   6.112   1.170
 9886SOL    HW130557   4.878   6.188   1.235
 9886SOL    HW230558   4.910   6.144   1.081
 9887SOL     OW30559   3.713   0.243   0.326
 9887SOL    HW130560   3.647   0.168   0.333
 9887SOL    HW230561   3.757   0.241   0.237
 9888SOL     OW30562   5.837   4.978   2.270
 9888SOL    HW130563   5.935   4.992   2.283
 9888SOL    HW230564   5.822   4.901   2.209
 9889SOL     OW30565   0.017   5.373   3.735
 9889SOL    HW130566   0.030   5.318   3.817
 9889SOL    HW230567   0.096   5.433   3.722
 9890SOL     OW30568   6.824   4.007   1.797
 9890SOL    HW130569   6.846   4.104   1.807
 9890SOL    HW230570   6.773   3.994   1.712
 9891SOL     OW30571   5.636   4.553   0.801
 9891SOL    HW130572   5.581   4.590   0.727
 9891SOL    HW230573   5.721   4.605   0.808
 9892SOL     OW30574   2.173   5.433   4.292
 9892SOL    HW130575   2.147   5.414   4.387
 9892SOL    HW230576   2.140   5.359   4.233
 9893SOL     OW30577   5.660   4.832   3.104
 9893SOL    HW130578   5.611   4.863   3.185
 9893SOL    HW230579   5.735   4.772   3.131
 9894SOL     OW30580   3.820   2.887   6.161
 9894SOL    HW130581   3.831   2.871   6.063
 9894SOL    HW230582   3.847   2.981   6.183
 9895SOL     OW30583   5.043   2.624   6.890
 9895SOL    HW130584   5.060   2.703   6.831
 9895SOL    HW230585   4.968   2.645   6.953
 9896SOL     OW30586   4.214   4.147   0.695
 9896SOL    HW130587   4.232   4.187   0.605
 9896SOL    HW230588   4.246   4.210   0.766
 9897SOL     OW30589   5.966   2.068   2.873
 9897SOL    HW130590   6.052   2.052   2.922
 9897SOL    HW230591   5.899   2.000   2.902
 9898SOL     OW30592   1.332   5.481   5.814
 9898SOL    HW130593   1.276   5.462   5.894
 9898SOL    HW230594   1.307   5.420   5.739
 9899SOL     OW30595   5.414   5.060   2.495
 9899SOL    HW130596   5.421   5.013   2.407
 9899SOL    HW230597   5.396   4.993   2.567
 9900SOL     OW30598   1.132   2.522   4.251
 9900SOL    HW130599   1.105   2.490   4.160
 9900SOL    HW230600   1.103   2.617   4.262
 9901SOL     OW30601   2.937   2.837   5.859
 9901SOL    HW130602   2.940   2.759   5.922
 9901SOL    HW230603   3.022   2.890   5.868
 9902SOL     OW30604   4.105   3.274   0.298
 9902SOL    HW130605   4.074   3.234   0.385
 9902SOL    HW230606   4.194   3.237   0.275
 9903SOL     OW30607   4.440   2.297   1.939
 9903SOL    HW130608   4.422   2.324   2.034
 9903SOL    HW230609   4.456   2.379   1.884
 9904SOL     OW30610   6.633   1.626   1.253
 9904SOL    HW130611   6.601   1.564   1.324
 9904SOL    HW230612   6.619   1.585   1.164
 9905SOL     OW30613   1.222   0.269   6.107
 9905SOL    HW130614   1.307   0.294   6.061
 9905SOL    HW230615   1.179   0.193   6.059
 9906SOL     OW30616   2.766   3.446   6.461
 9906SOL    HW130617   2.767   3.462   6.560
 9906SOL    HW230618   2.746   3.532   6.414
 9907SOL     OW30619   2.824   6.402   2.346
 9907SOL    HW130620   2.815   6.304   2.327
 9907SOL    HW230621   2.866   6.414   2.436
 9908SOL     OW30622   1.240   3.858   6.192
 9908SOL    HW130623   1.192   3.791   6.135
 9908SOL    HW230624   1.314   3.899   6.140
 9909SOL     OW30625   3.138   0.980   2.844
 9909SOL    HW130626   3.047   1.010   2.817
 9909SOL    HW230627   3.131   0.909   2.913
 9910SOL     OW30628   6.613   3.823   0.388
 9910SOL    HW130629   6.709   3.797   0.400
 9910SOL    HW230630   6.579   3.784   0.303
 9911SOL     OW30631   3.322   5.116   3.491
 9911SOL    HW130632   3.363   5.053   3.558
 9911SOL    HW230633   3.224   5.100   3.486
 9912SOL     OW30634   5.110   0.316   1.341
 9912SOL    HW130635   5.158   0.387   1.391
 9912SOL    HW230636   5.119   0.332   1.243
 9913SOL     OW30637   4.970   2.344   3.208
 9913SOL    HW130638   5.024   2.296   3.278
 9913SOL    HW230639   4.950   2.281   3.133
 9914SOL     OW30640   1.000   0.495   4.810
 9914SOL    HW130641   0.970   0.578   4.857
 9914SOL    HW230642   1.005   0.420   4.875
 9915SOL     OW30643   5.114   3.184   3.867
 9915SOL    HW130644   5.054   3.237   3.927
 9915SOL    HW230645   5.145   3.102   3.916
 9916SOL     OW30646   2.223   2.759   2.571
 9916SOL    HW130647   2.151   2.692   2.590
 9916SOL    HW230648   2.311   2.711   2.561
 9917SOL     OW30649   3.184   3.905   5.990
 9917SOL    HW130650   3.120   3.934   5.919
 9917SOL    HW230651   3.250   3.841   5.951
 9918SOL     OW30652   2.278   1.840   5.468
 9918SOL    HW130653   2.238   1.749   5.459
 9918SOL    HW230654   2.369   1.832   5.509
 9919SOL     OW30655   0.522   5.386   3.269
 9919SOL    HW130656   0.494   5.362   3.362
 9919SOL    HW230657   0.463   5.459   3.235
 9920SOL     OW30658   4.108   6.395   1.506
 9920SOL    HW130659   4.172   6.468   1.529
 9920SOL    HW230660   4.104   6.329   1.582
 9921SOL     OW30661   5.960   0.505   3.084
 9921SOL    HW130662   6.034   0.566   3.114
 9921SOL    HW230663   5.904   0.480   3.163
 9922SOL     OW30664   4.264   4.709   0.612
 9922SOL    HW130665   4.270   4.719   0.512
 9922SOL    HW230666   4.355   4.708   0.652
 9923SOL     OW30667   6.534   2.163   5.858
 9923SOL    HW130668   6.452   2.106   5.850
 9923SOL    HW230669   6.553   2.181   5.955
 9924SOL     OW30670   6.649   1.037   2.741
 9924SOL    HW130671   6.741   1.062   2.711
 9924SOL    HW230672   6.628   0.944   2.712
 9925SOL     OW30673   2.706   2.644   5.308
 9925SOL    HW130674   2.632   2.686   5.255
 9925SOL    HW230675   2.715   2.548   5.280
 9926SOL     OW30676   1.073   1.285   0.509
 9926SOL    HW130677   1.136   1.362   0.500
 9926SOL    HW230678   0.997   1.296   0.444
 9927SOL     OW30679   0.291   1.586   2.356
 9927SOL    HW130680   0.223   1.545   2.295
 9927SOL    HW230681   0.331   1.515   2.414
 9928SOL     OW30682   0.019   4.227   2.179
 9928SOL    HW130683   0.000   4.136   2.143
 9928SOL    HW230684   0.082   4.220   2.257
 9929SOL     OW30685   2.511   4.041   0.456
 9929SOL    HW130686   2.573   4.028   0.379
 9929SOL    HW230687   2.536   4.124   0.506
 9930SOL     OW30688   0.008   6.542   6.411
 9930SOL    HW130689   0.066   6.593   6.347
 9930SOL    HW230690   0.019   6.444   6.395
 9931SOL     OW30691   1.594   6.214   6.018
 9931SOL    HW130692   1.668   6.149   5.998
 9931SOL    HW230693   1.507   6.165   6.026
 9932SOL     OW30694   1.276   1.724   0.210
 9932SOL    HW130695   1.300   1.808   0.258
 9932SOL    HW230696   1.204   1.744   0.143
 9933SOL     OW30697   2.145   1.338   3.593
 9933SOL    HW130698   2.187   1.401   3.658
 9933SOL    HW230699   2.052   1.369   3.572
 9934SOL     OW30700   4.449   1.122   5.927
 9934SOL    HW130701   4.400   1.109   5.840
 9934SOL    HW230702   4.413   1.203   5.973
 9935SOL     OW30703   2.902   2.108   1.027
 9935SOL    HW130704   2.924   2.204   1.039
 9935SOL    HW230705   2.812   2.089   1.064
 9936SOL     OW30706   5.941   6.017   5.635
 9936SOL    HW130707   5.926   5.987   5.541
 9936SOL    HW230708   5.854   6.013   5.685
 9937SOL     OW30709   0.730   6.847   3.142
 9937SOL    HW130710   0.750   6.941   3.171
 9937SOL    HW230711   0.786   6.783   3.194
 9938SOL     OW30712   6.700   1.112   4.007
 9938SOL    HW130713   6.787   1.071   3.983
 9938SOL    HW230714   6.683   1.099   4.105
 9939SOL     OW30715   2.301   4.284   1.417
 9939SOL    HW130716   2.331   4.197   1.379
 9939SOL    HW230717   2.215   4.312   1.373
 9940SOL     OW30718   0.685   0.421   3.127
 9940SOL    HW130719   0.701   0.426   3.226
 9940SOL    HW230720   0.596   0.461   3.106
 9941SOL     OW30721   5.073   4.972   6.346
 9941SOL    HW130722   5.064   4.958   6.247
 9941SOL    HW230723   5.114   5.061   6.364
 9942SOL     OW30724   4.770   5.070   3.660
 9942SOL    HW130725   4.678   5.034   3.650
 9942SOL    HW230726   4.818   5.065   3.572
 9943SOL     OW30727   2.314   4.334   6.845
 9943SOL    HW130728   2.268   4.422   6.858
 9943SOL    HW230729   2.375   4.316   6.922
 9944SOL     OW30730   1.422   4.804   0.421
 9944SOL    HW130731   1.349   4.869   0.443
 9944SOL    HW230732   1.388   4.735   0.357
 9945SOL     OW30733   5.571   3.574   6.609
 9945SOL    HW130734   5.651   3.518   6.590
 9945SOL    HW230735   5.521   3.591   6.524
 9946SOL     OW30736   5.329   1.352   2.589
 9946SOL    HW130737   5.281   1.267   2.566
 9946SOL    HW230738   5.372   1.390   2.507
 9947SOL     OW30739   1.521   1.655   3.886
 9947SOL    HW130740   1.558   1.633   3.796
 9947SOL    HW230741   1.435   1.706   3.875
 9948SOL     OW30742   6.349   6.986   4.196
 9948SOL    HW130743   6.317   7.011   4.287
 9948SOL    HW230744   6.449   6.991   4.192
 9949SOL     OW30745   6.248   4.568   4.494
 9949SOL    HW130746   6.203   4.592   4.409
 9949SOL    HW230747   6.309   4.489   4.479
 9950SOL     OW30748   6.339   4.589   5.656
 9950SOL    HW130749   6.335   4.671   5.713
 9950SOL    HW230750   6.276   4.520   5.692
 9951SOL     OW30751   0.327   2.186   2.195
 9951SOL    HW130752   0.378   2.115   2.147
 9951SOL    HW230753   0.369   2.203   2.284
 9952SOL     OW30754   0.615   4.185   1.856
 9952SOL    HW130755   0.666   4.121   1.798
 9952SOL    HW230756   0.630   4.161   1.952
 9953SOL     OW30757   5.881   2.169   3.346
 9953SOL    HW130758   5.956   2.119   3.390
 9953SOL    HW230759   5.916   2.254   3.308
 9954SOL     OW30760   3.090   1.992   6.039
 9954SOL    HW130761   3.071   2.086   6.065
 9954SOL    HW230762   3.004   1.942   6.030
 9955SOL     OW30763   5.734   3.300   0.364
 9955SOL    HW130764   5.648   3.254   0.386
 9955SOL    HW230765   5.785   3.316   0.448
 9956SOL     OW30766   2.068   3.694   3.462
 9956SOL    HW130767   2.049   3.707   3.560
 9956SOL    HW230768   2.067   3.596   3.441
 9957SOL     OW30769   5.429   6.711   1.012
 9957SOL    HW130770   5.335   6.676   1.009
 9957SOL    HW230771   5.429   6.808   0.986
 9958SOL     OW30772   4.692   4.794   0.006
 9958SOL    HW130773   4.705   4.730   0.081
 9958SOL    HW230774   4.719   4.885   0.034
 9959SOL     OW30775   4.402   4.368   0.610
 9959SOL    HW130776   4.339   4.396   0.682
 9959SOL    HW230777   4.487   4.419   0.617
 9960SOL     OW30778   6.825   6.876   6.741
 9960SOL    HW130779   6.821   6.786   6.696
 9960SOL    HW230780   6.920   6.898   6.763
 9961SOL     OW30781   2.579   5.173   2.051
 9961SOL    HW130782   2.547   5.158   2.145
 9961SOL    HW230783   2.662   5.229   2.053
 9962SOL     OW30784   3.094   6.033   1.895
 9962SOL    HW130785   3.106   6.033   1.994
 9962SOL    HW230786   3.161   5.972   1.853
 9963SOL     OW30787   1.555   1.577   6.306
 9963SOL    HW130788   1.630   1.637   6.278
 9963SOL    HW230789   1.490   1.568   6.230
 9964SOL     OW30790   4.704   3.935   5.552
 9964SOL    HW130791   4.729   4.018   5.502
 9964SOL    HW230792   4.689   3.957   5.648
 9965SOL     OW30793   2.928   5.494   4.583
 9965SOL    HW130794   2.952   5.478   4.679
 9965SOL    HW230795   2.858   5.428   4.555
 9966SOL     OW30796   3.733   4.883   2.503
 9966SOL    HW130797   3.788   4.834   2.572
 9966SOL    HW230798   3.643   4.902   2.540
 9967SOL     OW30799   6.436   6.951   3.210
 9967SOL    HW130800   6.422   6.970   3.113
 9967SOL    HW230801   6.518   6.895   3.221
 9968SOL     OW30802   3.916   6.542   1.120
 9968SOL    HW130803   3.838   6.511   1.174
 9968SOL    HW230804   3.954   6.465   1.069
 9969SOL     OW30805   1.551   5.200   3.599
 9969SOL    HW130806   1.574   5.284   3.549
 9969SOL    HW230807   1.487   5.222   3.673
 9970SOL     OW30808   6.536   4.147   1.427
 9970SOL    HW130809   6.445   4.108   1.436
 9970SOL    HW230810   6.552   4.172   1.331
 9971SOL     OW30811   1.115   4.260   2.152
 9971SOL    HW130812   1.129   4.353   2.120
 9971SOL    HW230813   1.071   4.206   2.080
 9972SOL     OW30814   3.399   3.909   0.011
 9972SOL    HW130815   3.338   3.863   0.075
 9972SOL    HW230816   3.494   3.888   0.034
 9973SOL     OW30817   3.452   1.789   3.485
 9973SOL    HW130818   3.356   1.780   3.460
 9973SOL    HW230819   3.507   1.725   3.432
 9974SOL     OW30820   0.627   2.487   3.299
 9974SOL    HW130821   0.664   2.469   3.391
 9974SOL    HW230822   0.579   2.575   3.299
 9975SOL     OW30823   1.033   5.016   6.691
 9975SOL    HW130824   1.127   5.047   6.707
 9975SOL    HW230825   1.035   4.929   6.642
 9976SOL     OW30826   2.914   4.605   6.590
 9976SOL    HW130827   2.900   4.522   6.644
 9976SOL    HW230828   2.884   4.589   6.496
 9977SOL     OW30829   4.986   6.064   4.649
 9977SOL    HW130830   4.985   6.164   4.660
 9977SOL    HW230831   5.066   6.037   4.598
 9978SOL     OW30832   0.700   2.819   6.082
 9978SOL    HW130833   0.728   2.740   6.136
 9978SOL    HW230834   0.661   2.888   6.142
 9979SOL     OW30835   4.650   3.173   5.269
 9979SOL    HW130836   4.581   3.245   5.279
 9979SOL    HW230837   4.727   3.209   5.216
 9980SOL     OW30838   1.017   0.616   0.170
 9980SOL    HW130839   0.967   0.541   0.213
 9980SOL    HW230840   1.112   0.614   0.199
 9981SOL     OW30841   0.380   2.443   1.678
 9981SOL    HW130842   0.449   2.460   1.748
 9981SOL    HW230843   0.293   2.420   1.722
 9982SOL     OW30844   2.003   2.062   5.096
 9982SOL    HW130845   1.965   2.090   5.184
 9982SOL    HW230846   1.932   2.020   5.040
 9983SOL     OW30847   7.011   3.130   2.137
 9983SOL    HW130848   0.002   3.041   2.094
 9983SOL    HW230849   7.020   3.202   2.068
 9984SOL     OW30850   0.070   5.791   0.973
 9984SOL    HW130851   0.039   5.849   0.897
 9984SOL    HW230852   0.137   5.725   0.939
 9985SOL     OW30853   4.248   5.391   0.798
 9985SOL    HW130854   4.333   5.442   0.816
 9985SOL    HW230855   4.184   5.449   0.749
 9986SOL     OW30856   4.841   4.279   0.044
 9986SOL    HW130857   4.792   4.354   7.025
 9986SOL    HW230858   4.912   4.245   7.009
 9987SOL     OW30859   5.475   3.082   1.697
 9987SOL    HW130860   5.526   3.001   1.725
 9987SOL    HW230861   5.468   3.145   1.775
 9988SOL     OW30862   5.412   6.209   4.521
 9988SOL    HW130863   5.344   6.262   4.572
 9988SOL    HW230864   5.489   6.188   4.580
 9989SOL     OW30865   6.610   5.693   2.248
 9989SOL    HW130866   6.682   5.624   2.255
 9989SOL    HW230867   6.540   5.662   2.184
 9990SOL     OW30868   0.311   0.020   3.493
 9990SOL    HW130869   0.315   6.966   3.433
 9990SOL    HW230870   0.283   7.017   3.585
 9991SOL     OW30871   1.568   4.249   4.313
 9991SOL    HW130872   1.604   4.209   4.228
 9991SOL    HW230873   1.636   4.312   4.351
 9992SOL     OW30874   3.316   4.284   1.198
 9992SOL    HW130875   3.330   4.318   1.105
 9992SOL    HW230876   3.240   4.332   1.241
 9993SOL     OW30877   3.639   6.948   4.328
 9993SOL    HW130878   3.584   6.948   4.245
 9993SOL    HW230879   3.640   0.014   4.367
 9994SOL     OW30880   0.015   4.460   4.177
 9994SOL    HW130881   7.006   4.377   4.220
 9994SOL    HW230882   0.008   4.452   4.078
 9995SOL     OW30883   2.862   0.484   5.054
 9995SOL    HW130884   2.802   0.415   5.012
 9995SOL    HW230885   2.944   0.440   5.089
 9996SOL     OW30886   1.920   4.202   1.125
 9996SOL    HW130887   1.887   4.134   1.191
 9996SOL    HW230888   2.020   4.208   1.130
 9997SOL     OW30889   6.429   2.253   4.401
 9997SOL    HW130890   6.447   2.274   4.304
 9997SOL    HW230891   6.436   2.154   4.415
 9998SOL     OW30892   4.819   3.848   2.739
 9998SOL    HW130893   4.875   3.765   2.735
 9998SOL    HW230894   4.795   3.876   2.646
 9999SOL     OW30895   6.942   6.707   4.092
 9999SOL    HW130896   7.025   6.655   4.114
 9999SOL    HW230897   6.955   6.753   4.004
10000SOL     OW30898   4.916   2.002   1.983
10000SOL    HW130899   4.843   1.934   1.978
10000SOL    HW230900   4.879   2.089   2.017
10001SOL     OW30901   3.205   6.178   2.472
10001SOL    HW130902   3.269   6.107   2.500
10001SOL    HW230903   3.113   6.154   2.502
10002SOL     OW30904   2.449   0.884   1.248
10002SOL    HW130905   2.442   0.942   1.166
10002SOL    HW230906   2.479   0.793   1.221
10003SOL     OW30907   1.934   1.363   3.315
10003SOL    HW130908   1.908   1.374   3.411
10003SOL    HW230909   1.980   1.446   3.284
10004SOL     OW30910   5.590   4.178   4.549
10004SOL    HW130911   5.624   4.256   4.602
10004SOL    HW230912   5.628   4.094   4.587
10005SOL     OW30913   2.582   5.984   3.464
10005SOL    HW130914   2.523   6.064   3.462
10005SOL    HW230915   2.526   5.902   3.473
10006SOL     OW30916   5.235   0.748   5.380
10006SOL    HW130917   5.294   0.756   5.299
10006SOL    HW230918   5.146   0.711   5.353
10007SOL     OW30919   1.034   4.334   4.471
10007SOL    HW130920   1.030   4.429   4.442
10007SOL    HW230921   1.106   4.287   4.421
10008SOL     OW30922   3.918   1.880   4.542
10008SOL    HW130923   3.870   1.798   4.510
10008SOL    HW230924   3.865   1.961   4.518
10009SOL     OW30925   1.649   4.270   1.776
10009SOL    HW130926   1.603   4.204   1.717
10009SOL    HW230927   1.582   4.319   1.830
10010SOL     OW30928   2.427   5.141   6.910
10010SOL    HW130929   2.438   5.058   6.965
10010SOL    HW230930   2.447   5.121   6.814
10011SOL     OW30931   0.361   3.571   0.018
10011SOL    HW130932   0.425   3.564   6.967
10011SOL    HW230933   0.412   3.593   0.101
10012SOL     OW30934   4.904   0.861   2.138
10012SOL    HW130935   4.824   0.829   2.190
10012SOL    HW230936   4.946   0.783   2.092
10013SOL     OW30937   1.222   5.771   4.970
10013SOL    HW130938   1.239   5.706   4.896
10013SOL    HW230939   1.306   5.786   5.022
10014SOL     OW30940   0.484   6.721   3.395
10014SOL    HW130941   0.534   6.669   3.326
10014SOL    HW230942   0.411   6.774   3.350
10015SOL     OW30943   3.754   5.442   6.319
10015SOL    HW130944   3.810   5.369   6.282
10015SOL    HW230945   3.690   5.475   6.249
10016SOL     OW30946   2.039   0.311   3.733
10016SOL    HW130947   2.081   0.396   3.765
10016SOL    HW230948   2.101   0.265   3.670
10017SOL     OW30949   2.965   1.844   3.480
10017SOL    HW130950   2.887   1.835   3.418
10017SOL    HW230951   3.049   1.820   3.432
10018SOL     OW30952   6.589   3.844   5.925
10018SOL    HW130953   6.587   3.747   5.951
10018SOL    HW230954   6.497   3.874   5.900
10019SOL     OW30955   0.695   1.484   2.857
10019SOL    HW130956   0.749   1.529   2.927
10019SOL    HW230957   0.626   1.548   2.822
10020SOL     OW30958   6.661   0.728   2.166
10020SOL    HW130959   6.761   0.719   2.169
10020SOL    HW230960   6.636   0.825   2.166
10021SOL     OW30961   1.461   3.505   1.249
10021SOL    HW130962   1.439   3.413   1.283
10021SOL    HW230963   1.523   3.550   1.313
10022SOL     OW30964   2.635   6.531   0.659
10022SOL    HW130965   2.567   6.496   0.722
10022SOL    HW230966   2.604   6.516   0.565
10023SOL     OW30967   2.611   6.687   5.947
10023SOL    HW130968   2.693   6.641   5.981
10023SOL    HW230969   2.546   6.620   5.915
10024SOL     OW30970   1.523   4.891   3.123
10024SOL    HW130971   1.615   4.930   3.130
10024SOL    HW230972   1.529   4.797   3.089
10025SOL     OW30973   1.554   3.909   1.932
10025SOL    HW130974   1.479   3.909   1.998
10025SOL    HW230975   1.640   3.927   1.979
10026SOL     OW30976   4.968   1.325   2.666
10026SOL    HW130977   5.048   1.279   2.628
10026SOL    HW230978   4.909   1.356   2.592
10027SOL     OW30979   1.550   2.443   5.498
10027SOL    HW130980   1.533   2.376   5.426
10027SOL    HW230981   1.491   2.523   5.483
10028SOL     OW30982   3.202   0.584   2.162
10028SOL    HW130983   3.248   0.557   2.078
10028SOL    HW230984   3.132   0.516   2.186
10029SOL     OW30985   0.106   2.973   4.481
10029SOL    HW130986   0.128   3.067   4.507
10029SOL    HW230987   0.132   2.911   4.555
10030SOL     OW30988   2.574   6.568   5.114
10030SOL    HW130989   2.571   6.662   5.148
10030SOL    HW230990   2.533   6.508   5.183
10031SOL     OW30991   3.823   5.170   4.690
10031SOL    HW130992   3.744   5.199   4.637
10031SOL    HW230993   3.896   5.142   4.628
10032SOL     OW30994   3.197   5.955   5.485
10032SOL    HW130995   3.106   5.927   5.515
10032SOL    HW230996   3.194   6.049   5.450
10033SOL     OW30997   4.881   1.498   3.803
10033SOL    HW130998   4.888   1.468   3.708
10033SOL    HW230999   4.973   1.510   3.841
10034SOL     OW31000   1.860   0.676   3.155
10034SOL    HW131001   1.797   0.736   3.205
10034SOL    HW231002   1.821   0.584   3.149
10035SOL     OW31003   6.375   3.523   0.214
10035SOL    HW131004   6.283   3.491   0.194
10035SOL    HW231005   6.399   3.497   0.308
10036SOL     OW31006   6.865   0.898   6.720
10036SOL    HW131007   6.948   0.953   6.731
10036SOL    HW231008   6.868   0.821   6.784
10037SOL     OW31009   6.206   0.251   6.089
10037SOL    HW131010   6.292   0.229   6.136
10037SOL    HW231011   6.182   0.346   6.106
10038SOL     OW31012   4.429   0.125   7.021
10038SOL    HW131013   4.416   0.207   6.965
10038SOL    HW231014   4.350   0.112   0.054
10039SOL     OW31015   4.801   5.102   4.806
10039SOL    HW131016   4.739   5.027   4.781
10039SOL    HW231017   4.871   5.067   4.868
10040SOL     OW31018   4.191   0.167   0.837
10040SOL    HW131019   4.223   0.232   0.768
10040SOL    HW231020   4.266   0.106   0.861
10041SOL     OW31021   6.705   4.603   5.626
10041SOL    HW131022   6.690   4.609   5.724
10041SOL    HW231023   6.680   4.689   5.582
10042SOL     OW31024   0.565   1.146   5.576
10042SOL    HW131025   0.522   1.090   5.648
10042SOL    HW231026   0.497   1.207   5.536
10043SOL     OW31027   0.998   0.848   2.710
10043SOL    HW131028   1.033   0.930   2.756
10043SOL    HW231029   0.903   0.862   2.684
10044SOL     OW31030   2.282   1.852   4.805
10044SOL    HW131031   2.236   1.909   4.737
10044SOL    HW231032   2.358   1.803   4.762
10045SOL     OW31033   4.900   0.175   4.620
10045SOL    HW131034   4.963   0.202   4.693
10045SOL    HW231035   4.807   0.201   4.644
10046SOL     OW31036   0.284   1.745   2.015
10046SOL    HW131037   0.273   1.681   1.938
10046SOL    HW231038   0.266   1.838   1.984
10047SOL     OW31039   6.236   2.721   5.222
10047SOL    HW131040   6.231   2.755   5.316
10047SOL    HW231041   6.198   2.628   5.219
10048SOL     OW31042   2.982   1.379   1.666
10048SOL    HW131043   3.030   1.457   1.627
10048SOL    HW231044   2.967   1.310   1.594
10049SOL     OW31045   1.557   0.919   0.067
10049SOL    HW131046   1.539   1.002   0.119
10049SOL    HW231047   1.646   0.881   0.094
10050SOL     OW31048   5.537   3.053   4.861
10050SOL    HW131049   5.517   2.993   4.784
10050SOL    HW231050   5.506   3.010   4.946
10051SOL     OW31051   6.485   2.913   4.538
10051SOL    HW131052   6.573   2.898   4.492
10051SOL    HW231053   6.432   2.981   4.487
10052SOL     OW31054   1.954   3.115   1.428
10052SOL    HW131055   2.029   3.118   1.494
10052SOL    HW231056   1.917   3.022   1.423
10053SOL     OW31057   3.657   4.896   3.278
10053SOL    HW131058   3.639   4.847   3.364
10053SOL    HW231059   3.754   4.918   3.271
10054SOL     OW31060   4.594   5.724   6.405
10054SOL    HW131061   4.521   5.746   6.470
10054SOL    HW231062   4.553   5.699   6.316
10055SOL     OW31063   6.421   2.506   4.864
10055SOL    HW131064   6.414   2.557   4.778
10055SOL    HW231065   6.330   2.492   4.902
10056SOL     OW31066   6.160   5.337   0.824
10056SOL    HW131067   6.171   5.281   0.906
10056SOL    HW231068   6.213   5.296   0.749
10057SOL     OW31069   4.219   1.676   4.533
10057SOL    HW131070   4.240   1.773   4.545
10057SOL    HW231071   4.148   1.666   4.463
10058SOL     OW31072   6.715   5.085   4.156
10058SOL    HW131073   6.802   5.038   4.144
10058SOL    HW231074   6.647   5.021   4.193
10059SOL     OW31075   5.605   6.652   0.710
10059SOL    HW131076   5.613   6.578   0.776
10059SOL    HW231077   5.675   6.721   0.727
10060SOL     OW31078   2.644   2.181   1.959
10060SOL    HW131079   2.733   2.225   1.963
10060SOL    HW231080   2.585   2.218   2.031
10061SOL     OW31081   5.628   1.140   4.049
10061SOL    HW131082   5.666   1.220   4.096
10061SOL    HW231083   5.533   1.158   4.024
10062SOL     OW31084   6.055   6.481   4.531
10062SOL    HW131085   6.060   6.481   4.431
10062SOL    HW231086   5.960   6.480   4.560
10063SOL     OW31087   1.505   2.150   3.214
10063SOL    HW131088   1.572   2.191   3.276
10063SOL    HW231089   1.434   2.104   3.267
10064SOL     OW31090   5.912   5.273   5.131
10064SOL    HW131091   5.924   5.228   5.220
10064SOL    HW231092   5.946   5.212   5.059
10065SOL     OW31093   1.306   0.576   1.958
10065SOL    HW131094   1.313   0.559   2.056
10065SOL    HW231095   1.385   0.628   1.927
10066SOL     OW31096   1.012   0.683   4.008
10066SOL    HW131097   1.013   0.587   3.979
10066SOL    HW231098   1.054   0.740   3.937
10067SOL     OW31099   5.820   4.530   4.125
10067SOL    HW131100   5.780   4.515   4.215
10067SOL    HW231101   5.910   4.487   4.121
10068SOL     OW31102   5.181   2.790   4.398
10068SOL    HW131103   5.218   2.883   4.395
10068SOL    HW231104   5.099   2.789   4.456
10069SOL     OW31105   2.152   6.669   3.504
10069SOL    HW131106   2.187   6.581   3.535
10069SOL    HW231107   2.225   6.720   3.459
10070SOL     OW31108   0.450   6.453   4.963
10070SOL    HW131109   0.406   6.427   4.877
10070SOL    HW231110   0.480   6.370   5.011
10071SOL     OW31111   4.556   5.146   4.238
10071SOL    HW131112   4.492   5.169   4.311
10071SOL    HW231113   4.609   5.065   4.263
10072SOL     OW31114   0.158   6.525   3.714
10072SOL    HW131115   0.170   6.492   3.620
10072SOL    HW231116   0.123   6.618   3.712
10073SOL     OW31117   5.957   4.394   4.573
10073SOL    HW131118   6.024   4.377   4.500
10073SOL    HW231119   5.991   4.469   4.631
10074SOL     OW31120   1.117   6.987   5.702
10074SOL    HW131121   1.110   0.031   5.774
10074SOL    HW231122   1.191   6.924   5.725
10075SOL     OW31123   1.251   2.514   3.023
10075SOL    HW131124   1.237   2.543   3.118
10075SOL    HW231125   1.260   2.414   3.020
10076SOL     OW31126   5.426   0.135   4.508
10076SOL    HW131127   5.381   0.224   4.520
10076SOL    HW231128   5.442   0.120   4.410
10077SOL     OW31129   3.731   2.427   6.659
10077SOL    HW131130   3.707   2.490   6.585
10077SOL    HW231131   3.756   2.338   6.621
10078SOL     OW31132   6.107   6.259   4.689
10078SOL    HW131133   6.088   6.320   4.612
10078SOL    HW231134   6.129   6.313   4.770
10079SOL     OW31135   1.792   3.225   2.175
10079SOL    HW131136   1.784   3.128   2.153
10079SOL    HW231137   1.877   3.240   2.225
10080SOL     OW31138   3.087   2.170   6.700
10080SOL    HW131139   3.066   2.267   6.688
10080SOL    HW231140   3.063   2.120   6.617
10081SOL     OW31141   0.429   6.885   6.383
10081SOL    HW131142   0.429   6.945   6.463
10081SOL    HW231143   0.520   6.847   6.370
10082SOL     OW31144   6.854   2.523   2.314
10082SOL    HW131145   6.823   2.583   2.388
10082SOL    HW231146   6.924   2.570   2.260
10083SOL     OW31147   4.905   0.973   3.727
10083SOL    HW131148   4.813   1.013   3.722
10083SOL    HW231149   4.964   1.017   3.659
10084SOL     OW31150   3.097   0.486   5.737
10084SOL    HW131151   3.157   0.563   5.715
10084SOL    HW231152   3.028   0.476   5.665
10085SOL     OW31153   0.809   4.822   3.219
10085SOL    HW131154   0.845   4.875   3.142
10085SOL    HW231155   0.774   4.734   3.185
10086SOL     OW31156   5.867   5.326   2.462
10086SOL    HW131157   5.801   5.254   2.441
10086SOL    HW231158   5.921   5.299   2.542
10087SOL     OW31159   1.213   1.306   4.325
10087SOL    HW131160   1.275   1.282   4.399
10087SOL    HW231161   1.152   1.228   4.306
10088SOL     OW31162   7.005   6.622   5.548
10088SOL    HW131163   6.973   6.529   5.562
10088SOL    HW231164   7.018   6.638   5.450
10089SOL     OW31165   2.559   1.669   3.618
10089SOL    HW131166   2.577   1.620   3.533
10089SOL    HW231167   2.595   1.617   3.695
10090SOL     OW31168   0.753   4.328   1.144
10090SOL    HW131169   0.668   4.315   1.196
10090SOL    HW231170   0.748   4.278   1.058
10091SOL     OW31171   1.143   3.234   4.959
10091SOL    HW131172   1.141   3.328   4.924
10091SOL    HW231173   1.050   3.202   4.976
10092SOL     OW31174   1.509   4.070   5.166
10092SOL    HW131175   1.479   3.974   5.162
10092SOL    HW231176   1.563   4.084   5.249
10093SOL     OW31177   0.586   5.324   5.240
10093SOL    HW131178   0.619   5.315   5.145
10093SOL    HW231179   0.535   5.242   5.265
10094SOL     OW31180   2.521   0.003   2.550
10094SOL    HW131181   2.580   0.077   2.520
10094SOL    HW231182   2.431   0.039   2.573
10095SOL     OW31183   6.097   1.360   4.831
10095SOL    HW131184   6.030   1.412   4.884
10095SOL    HW231185   6.071   1.361   4.734
10096SOL     OW31186   6.802   5.124   2.716
10096SOL    HW131187   6.855   5.070   2.781
10096SOL    HW231188   6.733   5.178   2.764
10097SOL     OW31189   0.889   1.347   0.307
10097SOL    HW131190   0.794   1.370   0.284
10097SOL    HW231191   0.948   1.369   0.230
10098SOL     OW31192   1.999   6.445   6.146
10098SOL    HW131193   2.006   6.423   6.049
10098SOL    HW231194   2.003   6.360   6.199
10099SOL     OW31195   0.462   4.318   6.358
10099SOL    HW131196   0.426   4.288   6.269
10099SOL    HW231197   0.445   4.415   6.370
10100SOL     OW31198   5.184   6.773   5.439
10100SOL    HW131199   5.119   6.845   5.418
10100SOL    HW231200   5.236   6.750   5.357
10101SOL     OW31201   6.064   4.540   1.713
10101SOL    HW131202   6.160   4.518   1.698
10101SOL    HW231203   6.034   4.607   1.644
10102SOL     OW31204   2.323   0.772   3.358
10102SOL    HW131205   2.228   0.775   3.327
10102SOL    HW231206   2.367   0.859   3.336
10103SOL     OW31207   3.256   0.909   4.838
10103SOL    HW131208   3.284   0.995   4.796
10103SOL    HW231209   3.200   0.857   4.774
10104SOL     OW31210   0.382   4.104   5.103
10104SOL    HW131211   0.436   4.187   5.083
10104SOL    HW231212   0.404   4.072   5.195
10105SOL     OW31213   1.233   1.320   6.241
10105SOL    HW131214   1.152   1.339   6.296
10105SOL    HW231215   1.289   1.403   6.235
10106SOL     OW31216   5.632   4.487   1.184
10106SOL    HW131217   5.665   4.508   1.276
10106SOL    HW231218   5.708   4.493   1.119
10107SOL     OW31219   6.557   1.810   6.206
10107SOL    HW131220   6.530   1.905   6.226
10107SOL    HW231221   6.535   1.752   6.284
10108SOL     OW31222   6.572   6.266   6.961
10108SOL    HW131223   6.577   6.364   6.947
10108SOL    HW231224   6.487   6.243   7.009
10109SOL     OW31225   4.075   6.360   2.857
10109SOL    HW131226   4.112   6.329   2.770
10109SOL    HW231227   4.097   6.457   2.870
10110SOL     OW31228   4.121   6.775   5.542
10110SOL    HW131229   4.058   6.834   5.592
10110SOL    HW231230   4.215   6.807   5.556
10111SOL     OW31231   6.799   3.508   3.184
10111SOL    HW131232   6.865   3.575   3.150
10111SOL    HW231233   6.848   3.432   3.226
10112SOL     OW31234   6.111   4.080   5.097
10112SOL    HW131235   6.202   4.119   5.113
10112SOL    HW231236   6.049   4.151   5.065
10113SOL     OW31237   3.905   1.418   6.964
10113SOL    HW131238   3.844   1.482   7.012
10113SOL    HW231239   3.885   1.421   6.866
10114SOL     OW31240   5.517   0.853   0.899
10114SOL    HW131241   5.508   0.932   0.960
10114SOL    HW231242   5.609   0.814   0.909
10115SOL     OW31243   2.769   1.886   3.279
10115SOL    HW131244   2.752   1.942   3.199
10115SOL    HW231245   2.695   1.899   3.346
10116SOL     OW31246   0.559   6.476   0.914
10116SOL    HW131247   0.512   6.524   0.840
10116SOL    HW231248   0.530   6.513   1.002
10117SOL     OW31249   6.463   0.600   4.420
10117SOL    HW131250   6.528   0.580   4.346
10117SOL    HW231251   6.513   0.610   4.506
10118SOL     OW31252   7.012   4.752   2.707
10118SOL    HW131253   0.067   4.810   2.711
10118SOL    HW231254   0.006   4.670   2.653
10119SOL     OW31255   1.885   6.705   4.634
10119SOL    HW131256   1.957   6.717   4.566
10119SOL    HW231257   1.795   6.716   4.591
10120SOL     OW31258   0.632   3.075   4.077
10120SOL    HW131259   0.703   3.130   4.121
10120SOL    HW231260   0.587   3.130   4.006
10121SOL     OW31261   6.588   4.968   4.950
10121SOL    HW131262   6.538   4.940   4.868
10121SOL    HW231263   6.590   4.892   5.015
10122SOL     OW31264   5.833   2.540   0.337
10122SOL    HW131265   5.805   2.530   0.432
10122SOL    HW231266   5.928   2.510   0.327
10123SOL     OW31267   6.497   6.273   0.483
10123SOL    HW131268   6.529   6.264   0.577
10123SOL    HW231269   6.515   6.188   0.433
10124SOL     OW31270   2.072   4.055   6.765
10124SOL    HW131271   1.987   4.002   6.761
10124SOL    HW231272   2.147   3.995   6.792
10125SOL     OW31273   2.260   0.609   2.579
10125SOL    HW131274   2.171   0.606   2.625
10125SOL    HW231275   2.247   0.598   2.481
10126SOL     OW31276   6.530   5.950   6.343
10126SOL    HW131277   6.490   5.888   6.411
10126SOL    HW231278   6.460   5.973   6.274
10127SOL     OW31279   2.693   5.482   6.015
10127SOL    HW131280   2.673   5.410   5.948
10127SOL    HW231281   2.669   5.450   6.106
10128SOL     OW31282   0.943   1.696   1.390
10128SOL    HW131283   1.031   1.650   1.377
10128SOL    HW231284   0.937   1.773   1.326
10129SOL     OW31285   4.755   2.814   4.101
10129SOL    HW131286   4.752   2.765   4.013
10129SOL    HW231287   4.725   2.752   4.174
10130SOL     OW31288   2.280   4.651   2.850
10130SOL    HW131289   2.301   4.631   2.755
10130SOL    HW231290   2.357   4.702   2.890
10131SOL     OW31291   0.774   1.818   3.287
10131SOL    HW131292   0.787   1.908   3.246
10131SOL    HW231293   0.817   1.815   3.377
10132SOL     OW31294   3.035   6.218   3.003
10132SOL    HW131295   3.070   6.243   3.093
10132SOL    HW231296   2.983   6.132   3.010
10133SOL     OW31297   4.124   6.302   2.597
10133SOL    HW131298   4.104   6.251   2.513
10133SOL    HW231299   4.057   6.376   2.608
10134SOL     OW31300   6.955   0.302   3.986
10134SOL    HW131301   6.870   0.292   4.037
10134SOL    HW231302   7.019   0.229   4.012
10135SOL     OW31303   5.160   3.274   2.775
10135SOL    HW131304   5.235   3.310   2.718
10135SOL    HW231305   5.080   3.334   2.766
10136SOL     OW31306   5.390   6.984   2.807
10136SOL    HW131307   5.373   0.033   2.871
10136SOL    HW231308   5.345   6.901   2.840
10137SOL     OW31309   6.688   5.628   3.800
10137SOL    HW131310   6.666   5.720   3.830
10137SOL    HW231311   6.783   5.624   3.771
10138SOL     OW31312   4.549   2.311   1.164
10138SOL    HW131313   4.613   2.387   1.178
10138SOL    HW231314   4.598   2.231   1.131
10139SOL     OW31315   4.037   3.345   2.801
10139SOL    HW131316   4.021   3.262   2.855
10139SOL    HW231317   4.052   3.320   2.706
10140SOL     OW31318   6.177   5.764   5.808
10140SOL    HW131319   6.142   5.824   5.881
10140SOL    HW231320   6.193   5.818   5.726
10141SOL     OW31321   3.422   1.871   4.568
10141SOL    HW131322   3.347   1.806   4.559
10141SOL    HW231323   3.489   1.837   4.634
10142SOL     OW31324   5.575   6.288   5.207
10142SOL    HW131325   5.537   6.381   5.201
10142SOL    HW231326   5.501   6.221   5.201
10143SOL     OW31327   4.825   0.216   1.433
10143SOL    HW131328   4.823   0.128   1.482
10143SOL    HW231329   4.913   0.226   1.387
10144SOL     OW31330   4.498   6.429   6.420
10144SOL    HW131331   4.403   6.412   6.444
10144SOL    HW231332   4.530   6.512   6.466
10145SOL     OW31333   3.957   6.335   6.021
10145SOL    HW131334   3.987   6.416   6.070
10145SOL    HW231335   4.035   6.291   5.978
10146SOL     OW31336   3.696   5.108   5.605
10146SOL    HW131337   3.753   5.125   5.685
10146SOL    HW231338   3.608   5.072   5.633
10147SOL     OW31339   5.433   4.439   4.358
10147SOL    HW131340   5.410   4.520   4.305
10147SOL    HW231341   5.530   4.442   4.384
10148SOL     OW31342   5.851   4.895   6.827
10148SOL    HW131343   5.760   4.937   6.829
10148SOL    HW231344   5.874   4.861   6.918
10149SOL     OW31345   5.200   1.996   0.872
10149SOL    HW131346   5.285   2.012   0.922
10149SOL    HW231347   5.148   2.082   0.868
10150SOL     OW31348   4.373   3.977   0.331
10150SOL    HW131349   4.348   4.068   0.300
10150SOL    HW231350   4.448   3.941   0.274
10151SOL     OW31351   0.771   0.127   6.419
10151SOL    HW131352   0.734   0.048   6.468
10151SOL    HW231353   0.858   0.153   6.460
10152SOL     OW31354   1.883   5.725   4.202
10152SOL    HW131355   1.877   5.681   4.292
10152SOL    HW231356   1.875   5.824   4.212
10153SOL     OW31357   4.551   5.837   4.310
10153SOL    HW131358   4.628   5.890   4.344
10153SOL    HW231359   4.504   5.793   4.387
10154SOL     OW31360   5.961   6.718   5.305
10154SOL    HW131361   6.039   6.737   5.364
10154SOL    HW231362   5.929   6.803   5.263
10155SOL     OW31363   4.018   1.733   5.705
10155SOL    HW131364   3.959   1.808   5.733
10155SOL    HW231365   4.084   1.714   5.778
10156SOL     OW31366   6.425   0.174   2.030
10156SOL    HW131367   6.469   0.231   1.961
10156SOL    HW231368   6.455   0.202   2.121
10157SOL     OW31369   5.965   2.337   6.032
10157SOL    HW131370   5.899   2.310   5.961
10157SOL    HW231371   6.014   2.419   6.002
10158SOL     OW31372   4.516   3.643   0.067
10158SOL    HW131373   4.609   3.624   0.036
10158SOL    HW231374   4.513   3.734   0.109
10159SOL     OW31375   2.823   3.540   6.023
10159SOL    HW131376   2.920   3.522   6.007
10159SOL    HW231377   2.772   3.532   5.937
10160SOL     OW31378   1.279   3.837   2.081
10160SOL    HW131379   1.355   3.776   2.104
10160SOL    HW231380   1.217   3.844   2.159
10161SOL     OW31381   3.586   4.285   0.346
10161SOL    HW131382   3.563   4.349   0.273
10161SOL    HW231383   3.503   4.249   0.387
10162SOL     OW31384   2.543   4.248   0.639
10162SOL    HW131385   2.476   4.214   0.705
10162SOL    HW231386   2.502   4.321   0.585
10163SOL     OW31387   5.423   4.726   6.866
10163SOL    HW131388   5.479   4.718   6.784
10163SOL    HW231389   5.328   4.702   6.844
10164SOL     OW31390   5.888   3.331   5.022
10164SOL    HW131391   5.933   3.363   4.938
10164SOL    HW231392   5.938   3.365   5.102
10165SOL     OW31393   1.294   2.519   3.911
10165SOL    HW131394   1.351   2.439   3.888
10165SOL    HW231395   1.203   2.488   3.937
10166SOL     OW31396   3.750   1.156   2.119
10166SOL    HW131397   3.840   1.186   2.152
10166SOL    HW231398   3.679   1.198   2.175
10167SOL     OW31399   4.203   1.981   6.128
10167SOL    HW131400   4.133   2.051   6.115
10167SOL    HW231401   4.277   1.995   6.062
10168SOL     OW31402   6.573   4.113   5.035
10168SOL    HW131403   6.491   4.142   5.086
10168SOL    HW231404   6.554   4.025   4.992
10169SOL     OW31405   6.493   3.816   3.237
10169SOL    HW131406   6.553   3.771   3.171
10169SOL    HW231407   6.402   3.827   3.198
10170SOL     OW31408   1.011   4.302   5.865
10170SOL    HW131409   0.921   4.335   5.838
10170SOL    HW231410   1.048   4.362   5.936
10171SOL     OW31411   6.244   3.914   6.126
10171SOL    HW131412   6.164   3.855   6.112
10171SOL    HW231413   6.228   4.003   6.082
10172SOL     OW31414   6.359   6.991   3.651
10172SOL    HW131415   6.332   0.002   3.740
10172SOL    HW231416   6.455   7.012   3.634
10173SOL     OW31417   1.350   2.720   0.776
10173SOL    HW131418   1.383   2.731   0.683
10173SOL    HW231419   1.395   2.642   0.819
10174SOL     OW31420   5.655   5.125   2.430
10174SOL    HW131421   5.679   5.038   2.385
10174SOL    HW231422   5.563   5.117   2.469
10175SOL     OW31423   6.940   2.429   3.775
10175SOL    HW131424   6.949   2.399   3.680
10175SOL    HW231425   6.959   2.527   3.780
10176SOL     OW31426   1.737   3.601   5.972
10176SOL    HW131427   1.715   3.540   6.048
10176SOL    HW231428   1.836   3.603   5.959
10177SOL     OW31429   1.782   0.838   0.679
10177SOL    HW131430   1.785   0.801   0.772
10177SOL    HW231431   1.873   0.870   0.652
10178SOL     OW31432   6.773   2.275   5.006
10178SOL    HW131433   6.717   2.209   4.957
10178SOL    HW231434   6.869   2.262   4.981
10179SOL     OW31435   1.214   1.593   5.867
10179SOL    HW131436   1.213   1.527   5.791
10179SOL    HW231437   1.235   1.684   5.831
10180SOL     OW31438   4.257   6.526   0.130
10180SOL    HW131439   4.321   6.514   0.205
10180SOL    HW231440   4.171   6.479   0.152
10181SOL     OW31441   4.935   3.387   2.102
10181SOL    HW131442   4.928   3.307   2.161
10181SOL    HW231443   4.900   3.468   2.150
10182SOL     OW31444   5.561   1.198   2.251
10182SOL    HW131445   5.647   1.187   2.201
10182SOL    HW231446   5.557   1.289   2.291
10183SOL     OW31447   0.759   1.896   6.329
10183SOL    HW131448   0.764   1.809   6.279
10183SOL    HW231449   0.850   1.937   6.332
10184SOL     OW31450   4.090   0.775   6.324
10184SOL    HW131451   4.027   0.852   6.326
10184SOL    HW231452   4.047   0.695   6.368
10185SOL     OW31453   5.791   5.785   1.825
10185SOL    HW131454   5.767   5.809   1.919
10185SOL    HW231455   5.774   5.863   1.766
10186SOL     OW31456   5.780   3.256   2.745
10186SOL    HW131457   5.873   3.264   2.708
10186SOL    HW231458   5.724   3.331   2.709
10187SOL     OW31459   0.770   2.366   1.329
10187SOL    HW131460   0.682   2.335   1.363
10187SOL    HW231461   0.780   2.339   1.233
10188SOL     OW31462   3.987   6.455   0.771
10188SOL    HW131463   3.895   6.440   0.736
10188SOL    HW231464   4.009   6.552   0.768
10189SOL     OW31465   1.785   0.502   5.227
10189SOL    HW131466   1.695   0.531   5.261
10189SOL    HW231467   1.847   0.489   5.305
10190SOL     OW31468   4.608   3.249   1.485
10190SOL    HW131469   4.571   3.338   1.510
10190SOL    HW231470   4.680   3.261   1.416
10191SOL     OW31471   4.827   4.426   6.788
10191SOL    HW131472   4.922   4.396   6.780
10191SOL    HW231473   4.766   4.357   6.749
10192SOL     OW31474   4.398   0.890   5.570
10192SOL    HW131475   4.415   0.985   5.598
10192SOL    HW231476   4.325   0.851   5.625
10193SOL     OW31477   4.195   3.557   1.850
10193SOL    HW131478   4.222   3.461   1.852
10193SOL    HW231479   4.161   3.584   1.940
10194SOL     OW31480   5.837   4.320   5.177
10194SOL    HW131481   5.750   4.311   5.130
10194SOL    HW231482   5.912   4.315   5.110
10195SOL     OW31483   5.980   5.084   0.842
10195SOL    HW131484   6.064   5.094   0.897
10195SOL    HW231485   5.997   5.021   0.767
10196SOL     OW31486   5.195   1.623   4.507
10196SOL    HW131487   5.134   1.691   4.545
10196SOL    HW231488   5.273   1.668   4.463
10197SOL     OW31489   0.029   1.909   4.564
10197SOL    HW131490   0.054   1.918   4.468
10197SOL    HW231491   6.974   1.850   4.572
10198SOL     OW31492   3.398   0.830   1.925
10198SOL    HW131493   3.449   0.886   1.860
10198SOL    HW231494   3.396   0.876   2.014
10199SOL     OW31495   2.556   3.140   5.911
10199SOL    HW131496   2.618   3.159   5.987
10199SOL    HW231497   2.575   3.048   5.876
10200SOL     OW31498   4.629   2.096   1.022
10200SOL    HW131499   4.687   2.015   1.022
10200SOL    HW231500   4.595   2.113   0.929
10201SOL     OW31501   0.646   4.787   0.718
10201SOL    HW131502   0.687   4.723   0.783
10201SOL    HW231503   0.550   4.801   0.740
10202SOL     OW31504   3.594   2.593   6.501
10202SOL    HW131505   3.541   2.664   6.455
10202SOL    HW231506   3.561   2.503   6.474
10203SOL     OW31507   5.854   2.898   3.977
10203SOL    HW131508   5.881   2.802   3.985
10203SOL    HW231509   5.760   2.903   3.942
10204SOL     OW31510   5.696   0.103   6.785
10204SOL    HW131511   5.693   0.052   6.698
10204SOL    HW231512   5.603   0.111   6.821
10205SOL     OW31513   0.950   1.031   0.922
10205SOL    HW131514   1.016   1.055   0.850
10205SOL    HW231515   0.919   1.113   0.968
10206SOL     OW31516   0.504   0.376   5.817
10206SOL    HW131517   0.604   0.383   5.819
10206SOL    HW231518   0.468   0.440   5.749
10207SOL     OW31519   1.207   1.724   6.307
10207SOL    HW131520   1.202   1.814   6.266
10207SOL    HW231521   1.177   1.728   6.402
10208SOL     OW31522   6.062   4.994   4.090
10208SOL    HW131523   6.073   5.087   4.123
10208SOL    HW231524   6.149   4.961   4.054
10209SOL     OW31525   6.820   7.022   6.208
10209SOL    HW131526   6.770   6.943   6.174
10209SOL    HW231527   6.793   0.015   6.303
10210SOL     OW31528   4.914   6.523   1.490
10210SOL    HW131529   4.907   6.609   1.438
10210SOL    HW231530   4.890   6.540   1.585
10211SOL     OW31531   4.060   6.788   4.455
10211SOL    HW131532   4.104   6.767   4.543
10211SOL    HW231533   4.127   6.777   4.381
10212SOL     OW31534   1.151   0.693   5.019
10212SOL    HW131535   1.175   0.597   5.009
10212SOL    HW231536   1.210   0.735   5.089
10213SOL     OW31537   4.256   2.865   1.221
10213SOL    HW131538   4.301   2.949   1.251
10213SOL    HW231539   4.196   2.885   1.143
10214SOL     OW31540   1.053   2.512   1.726
10214SOL    HW131541   1.109   2.529   1.808
10214SOL    HW231542   1.111   2.517   1.645
10215SOL     OW31543   4.052   3.228   3.265
10215SOL    HW131544   3.973   3.243   3.324
10215SOL    HW231545   4.106   3.152   3.300
10216SOL     OW31546   0.049   1.168   1.168
10216SOL    HW131547   0.116   1.102   1.203
10216SOL    HW231548   0.077   1.261   1.194
10217SOL     OW31549   2.589   1.122   3.270
10217SOL    HW131550   2.507   1.072   3.243
10217SOL    HW231551   2.567   1.182   3.347
10218SOL     OW31552   1.106   3.192   1.959
10218SOL    HW131553   1.050   3.234   1.888
10218SOL    HW231554   1.162   3.120   1.919
10219SOL     OW31555   0.382   1.959   3.076
10219SOL    HW131556   0.441   2.025   3.123
10219SOL    HW231557   0.309   2.009   3.028
10220SOL     OW31558   3.817   2.974   1.261
10220SOL    HW131559   3.732   3.012   1.223
10220SOL    HW231560   3.795   2.914   1.338
10221SOL     OW31561   0.844   5.766   3.331
10221SOL    HW131562   0.920   5.827   3.352
10221SOL    HW231563   0.861   5.722   3.242
10222SOL     OW31564   2.890   3.430   5.074
10222SOL    HW131565   2.811   3.378   5.043
10222SOL    HW231566   2.904   3.413   5.172
10223SOL     OW31567   0.152   4.898   1.045
10223SOL    HW131568   0.136   4.925   1.140
10223SOL    HW231569   0.234   4.944   1.011
10224SOL     OW31570   6.171   3.066   3.580
10224SOL    HW131571   6.124   3.067   3.491
10224SOL    HW231572   6.253   3.010   3.573
10225SOL     OW31573   1.789   4.283   6.231
10225SOL    HW131574   1.728   4.362   6.222
10225SOL    HW231575   1.781   4.226   6.149
10226SOL     OW31576   3.935   0.839   7.007
10226SOL    HW131577   3.870   0.780   0.030
10226SOL    HW231578   4.011   0.863   0.041
10227SOL     OW31579   5.139   4.147   0.711
10227SOL    HW131580   5.187   4.227   0.750
10227SOL    HW231581   5.189   4.064   0.735
10228SOL     OW31582   6.715   0.026   0.888
10228SOL    HW131583   6.770   0.104   0.918
10228SOL    HW231584   6.643   0.008   0.956
10229SOL     OW31585   0.868   3.491   5.040
10229SOL    HW131586   0.803   3.475   4.965
10229SOL    HW231587   0.961   3.496   5.004
10230SOL     OW31588   6.489   5.586   2.701
10230SOL    HW131589   6.429   5.509   2.719
10230SOL    HW231590   6.531   5.616   2.787
10231SOL     OW31591   1.545   6.295   4.411
10231SOL    HW131592   1.535   6.394   4.425
10231SOL    HW231593   1.512   6.271   4.320
10232SOL     OW31594   2.799   0.971   3.318
10232SOL    HW131595   2.877   1.031   3.336
10232SOL    HW231596   2.719   1.026   3.294
10233SOL     OW31597   3.650   4.135   5.419
10233SOL    HW131598   3.745   4.154   5.392
10233SOL    HW231599   3.641   4.149   5.517
10234SOL     OW31600   6.348   0.017   1.471
10234SOL    HW131601   6.385   6.981   1.540
10234SOL    HW231602   6.417   0.087   1.449
10235SOL     OW31603   1.324   2.071   2.291
10235SOL    HW131604   1.363   2.019   2.215
10235SOL    HW231605   1.293   2.160   2.258
10236SOL     OW31606   2.338   6.322   0.115
10236SOL    HW131607   2.391   6.386   0.170
10236SOL    HW231608   2.325   6.236   0.166
10237SOL     OW31609   0.406   3.259   0.185
10237SOL    HW131610   0.322   3.253   0.131
10237SOL    HW231611   0.386   3.232   0.279
10238SOL     OW31612   4.294   4.955   1.264
10238SOL    HW131613   4.295   4.865   1.221
10238SOL    HW231614   4.382   5.000   1.248
10239SOL     OW31615   1.171   2.799   4.833
10239SOL    HW131616   1.206   2.768   4.922
10239SOL    HW231617   1.078   2.834   4.844
10240SOL     OW31618   2.570   6.936   1.678
10240SOL    HW131619   2.606   6.843   1.683
10240SOL    HW231620   2.528   6.961   1.765
10241SOL     OW31621   5.129   1.950   2.145
10241SOL    HW131622   5.055   1.979   2.085
10241SOL    HW231623   5.166   2.029   2.194
10242SOL     OW31624   0.177   2.289   0.590
10242SOL    HW131625   0.107   2.355   0.619
10242SOL    HW231626   0.148   2.197   0.614
10243SOL     OW31627   2.421   4.636   1.346
10243SOL    HW131628   2.381   4.707   1.289
10243SOL    HW231629   2.382   4.641   1.438
10244SOL     OW31630   2.435   4.050   1.352
10244SOL    HW131631   2.520   4.036   1.403
10244SOL    HW231632   2.385   3.963   1.347
10245SOL     OW31633   3.528   3.866   1.294
10245SOL    HW131634   3.558   3.779   1.255
10245SOL    HW231635   3.536   3.863   1.394
10246SOL     OW31636   2.959   3.322   4.220
10246SOL    HW131637   2.862   3.338   4.201
10246SOL    HW231638   3.000   3.271   4.143
10247SOL     OW31639   0.927   4.321   5.308
10247SOL    HW131640   0.970   4.275   5.230
10247SOL    HW231641   0.886   4.253   5.369
10248SOL     OW31642   1.257   0.148   3.628
10248SOL    HW131643   1.263   0.240   3.666
10248SOL    HW231644   1.348   0.115   3.605
10249SOL     OW31645   1.847   4.689   0.054
10249SOL    HW131646   1.840   4.723   0.148
10249SOL    HW231647   1.939   4.708   0.018
10250SOL     OW31648   6.353   3.512   0.529
10250SOL    HW131649   6.449   3.514   0.555
10250SOL    HW231650   6.296   3.530   0.610
10251SOL     OW31651   1.777   0.924   3.939
10251SOL    HW131652   1.758   0.835   3.982
10251SOL    HW231653   1.846   0.911   3.867
10252SOL     OW31654   4.757   3.549   5.497
10252SOL    HW131655   4.689   3.548   5.423
10252SOL    HW231656   4.740   3.472   5.558
10253SOL     OW31657   4.137   6.696   0.743
10253SOL    HW131658   4.104   6.787   0.719
10253SOL    HW231659   4.217   6.673   0.687
10254SOL     OW31660   4.650   1.276   5.613
10254SOL    HW131661   4.716   1.210   5.648
10254SOL    HW231662   4.691   1.329   5.538
10255SOL     OW31663   2.514   6.365   1.166
10255SOL    HW131664   2.515   6.464   1.184
10255SOL    HW231665   2.419   6.336   1.154
10256SOL     OW31666   4.893   0.917   1.877
10256SOL    HW131667   4.932   1.008   1.863
10256SOL    HW231668   4.887   0.898   1.975
10257SOL     OW31669   2.623   4.572   3.650
10257SOL    HW131670   2.693   4.587   3.580
10257SOL    HW231671   2.541   4.533   3.608
10258SOL     OW31672   3.568   2.132   3.237
10258SOL    HW131673   3.532   2.103   3.326
10258SOL    HW231674   3.647   2.191   3.251
10259SOL     OW31675   1.051   4.177   3.875
10259SOL    HW131676   1.070   4.222   3.962
10259SOL    HW231677   0.952   4.171   3.861
10260SOL     OW31678   1.059   1.676   3.758
10260SOL    HW131679   1.101   1.753   3.806
10260SOL    HW231680   1.127   1.604   3.744
10261SOL     OW31681   0.591   4.006   0.546
10261SOL    HW131682   0.597   4.089   0.491
10261SOL    HW231683   0.524   4.020   0.620
10262SOL     OW31684   3.586   0.253   6.571
10262SOL    HW131685   3.663   0.274   6.632
10262SOL    HW231686   3.564   0.156   6.577
10263SOL     OW31687   5.734   0.837   0.290
10263SOL    HW131688   5.666   0.900   0.328
10263SOL    HW231689   5.763   0.868   0.200
10264SOL     OW31690   5.982   4.805   6.596
10264SOL    HW131691   5.917   4.805   6.521
10264SOL    HW231692   5.935   4.829   6.681
10265SOL     OW31693   2.489   2.595   0.300
10265SOL    HW131694   2.483   2.665   0.371
10265SOL    HW231695   2.397   2.569   0.271
10266SOL     OW31696   3.297   2.932   2.823
10266SOL    HW131697   3.346   2.862   2.875
10266SOL    HW231698   3.224   2.970   2.879
10267SOL     OW31699   5.258   0.935   1.062
10267SOL    HW131700   5.335   0.996   1.046
10267SOL    HW231701   5.195   0.940   0.985
10268SOL     OW31702   5.759   6.547   1.867
10268SOL    HW131703   5.859   6.547   1.860
10268SOL    HW231704   5.720   6.532   1.776
10269SOL     OW31705   1.388   2.856   6.659
10269SOL    HW131706   1.332   2.837   6.739
10269SOL    HW231707   1.465   2.915   6.685
10270SOL     OW31708   3.456   6.028   2.535
10270SOL    HW131709   3.535   5.967   2.538
10270SOL    HW231710   3.457   6.080   2.449
10271SOL     OW31711   3.085   2.639   0.341
10271SOL    HW131712   3.135   2.557   0.372
10271SOL    HW231713   3.055   2.691   0.420
10272SOL     OW31714   0.219   1.303   3.909
10272SOL    HW131715   0.127   1.280   3.941
10272SOL    HW231716   0.212   1.363   3.829
10273SOL     OW31717   2.982   4.854   4.450
10273SOL    HW131718   2.883   4.838   4.454
10273SOL    HW231719   3.024   4.824   4.536
10274SOL     OW31720   0.880   5.280   5.823
10274SOL    HW131721   0.868   5.242   5.914
10274SOL    HW231722   0.973   5.262   5.791
10275SOL     OW31723   7.019   0.579   2.469
10275SOL    HW131724   6.923   0.553   2.474
10275SOL    HW231725   0.040   0.518   2.405
10276SOL     OW31726   4.595   5.701   5.744
10276SOL    HW131727   4.513   5.645   5.739
10276SOL    HW231728   4.672   5.644   5.773
10277SOL     OW31729   1.141   0.080   4.350
10277SOL    HW131730   1.151   0.088   4.251
10277SOL    HW231731   1.122   7.011   4.374
10278SOL     OW31732   0.145   0.580   4.479
10278SOL    HW131733   0.140   0.675   4.511
10278SOL    HW231734   0.084   0.568   4.400
10279SOL     OW31735   2.764   5.758   3.786
10279SOL    HW131736   2.696   5.736   3.716
10279SOL    HW231737   2.721   5.758   3.876
10280SOL     OW31738   5.309   3.311   6.982
10280SOL    HW131739   5.296   3.405   6.952
10280SOL    HW231740   5.389   3.272   6.937
10281SOL     OW31741   0.224   2.593   3.087
10281SOL    HW131742   0.231   2.691   3.108
10281SOL    HW231743   0.311   2.562   3.048
10282SOL     OW31744   4.860   3.304   3.308
10282SOL    HW131745   4.844   3.205   3.311
10282SOL    HW231746   4.848   3.337   3.214
10283SOL     OW31747   1.144   2.872   0.541
10283SOL    HW131748   1.087   2.841   0.618
10283SOL    HW231749   1.149   2.799   0.473
10284SOL     OW31750   6.606   2.070   4.030
10284SOL    HW131751   6.563   1.986   3.997
10284SOL    HW231752   6.642   2.121   3.953
10285SOL     OW31753   3.986   6.817   3.261
10285SOL    HW131754   4.002   6.749   3.332
10285SOL    HW231755   3.949   6.772   3.180
10286SOL     OW31756   3.638   0.441   4.317
10286SOL    HW131757   3.571   0.472   4.250
10286SOL    HW231758   3.712   0.393   4.271
10287SOL     OW31759   1.845   5.844   2.070
10287SOL    HW131760   1.797   5.764   2.104
10287SOL    HW231761   1.925   5.816   2.018
10288SOL     OW31762   3.887   6.968   4.545
10288SOL    HW131763   3.827   6.920   4.610
10288SOL    HW231764   3.951   6.903   4.505
10289SOL     OW31765   3.395   6.116   1.038
10289SOL    HW131766   3.347   6.052   1.098
10289SOL    HW231767   3.362   6.105   0.944
10290SOL     OW31768   2.962   3.203   2.451
10290SOL    HW131769   2.929   3.134   2.386
10290SOL    HW231770   3.055   3.179   2.480
10291SOL     OW31771   3.624   1.654   3.307
10291SOL    HW131772   3.719   1.684   3.296
10291SOL    HW231773   3.622   1.555   3.319
10292SOL     OW31774   0.554   1.317   5.900
10292SOL    HW131775   0.465   1.283   5.932
10292SOL    HW231776   0.539   1.379   5.823
10293SOL     OW31777   0.654   3.055   3.655
10293SOL    HW131778   0.709   2.999   3.717
10293SOL    HW231779   0.714   3.119   3.608
10294SOL     OW31780   4.079   1.964   3.088
10294SOL    HW131781   4.087   1.935   2.993
10294SOL    HW231782   4.167   1.955   3.134
10295SOL     OW31783   1.213   2.455   6.099
10295SOL    HW131784   1.261   2.390   6.039
10295SOL    HW231785   1.206   2.544   6.054
10296SOL     OW31786   5.835   0.978   5.859
10296SOL    HW131787   5.767   1.051   5.852
10296SOL    HW231788   5.870   0.973   5.953
10297SOL     OW31789   2.223   1.489   6.884
10297SOL    HW131790   2.204   1.544   6.965
10297SOL    HW231791   2.289   1.417   6.907
10298SOL     OW31792   1.567   4.663   2.031
10298SOL    HW131793   1.520   4.575   2.023
10298SOL    HW231794   1.640   4.656   2.099
10299SOL     OW31795   3.957   6.528   2.593
10299SOL    HW131796   3.880   6.584   2.621
10299SOL    HW231797   3.952   6.510   2.495
10300SOL     OW31798   1.252   4.224   1.772
10300SOL    HW131799   1.288   4.282   1.698
10300SOL    HW231800   1.187   4.158   1.734
10301SOL     OW31801   4.380   1.427   5.467
10301SOL    HW131802   4.464   1.479   5.483
10301SOL    HW231803   4.340   1.455   5.380
10302SOL     OW31804   2.554   6.257   3.658
10302SOL    HW131805   2.506   6.278   3.573
10302SOL    HW231806   2.496   6.202   3.717
10303SOL     OW31807   1.211   5.730   3.986
10303SOL    HW131808   1.208   5.802   4.056
10303SOL    HW231809   1.207   5.772   3.895
10304SOL     OW31810   6.156   0.388   1.135
10304SOL    HW131811   6.102   0.451   1.190
10304SOL    HW231812   6.221   0.439   1.078
10305SOL     OW31813   2.834   4.367   5.823
10305SOL    HW131814   2.755   4.419   5.855
10305SOL    HW231815   2.847   4.287   5.883
10306SOL     OW31816   5.495   5.982   0.523
10306SOL    HW131817   5.411   6.010   0.476
10306SOL    HW231818   5.550   6.063   0.545
10307SOL     OW31819   2.979   1.544   4.840
10307SOL    HW131820   2.935   1.528   4.928
10307SOL    HW231821   2.925   1.609   4.787
10308SOL     OW31822   2.261   4.289   2.242
10308SOL    HW131823   2.213   4.247   2.318
10308SOL    HW231824   2.258   4.228   2.162
10309SOL     OW31825   6.494   1.290   6.234
10309SOL    HW131826   6.579   1.337   6.258
10309SOL    HW231827   6.514   1.194   6.212
10310SOL     OW31828   3.226   3.348   6.853
10310SOL    HW131829   3.207   3.379   6.946
10310SOL    HW231830   3.291   3.411   6.810
10311SOL     OW31831   6.490   5.609   0.162
10311SOL    HW131832   6.514   5.557   0.244
10311SOL    HW231833   6.511   5.555   0.081
10312SOL     OW31834   4.452   0.585   2.829
10312SOL    HW131835   4.529   0.628   2.781
10312SOL    HW231836   4.369   0.638   2.811
10313SOL     OW31837   3.767   5.881   2.526
10313SOL    HW131838   3.723   5.802   2.568
10313SOL    HW231839   3.815   5.934   2.596
10314SOL     OW31840   6.885   0.499   0.638
10314SOL    HW131841   6.973   0.452   0.628
10314SOL    HW231842   6.816   0.452   0.584
10315SOL     OW31843   5.461   6.521   4.133
10315SOL    HW131844   5.541   6.508   4.074
10315SOL    HW231845   5.479   6.482   4.223
10316SOL     OW31846   6.591   2.484   6.021
10316SOL    HW131847   6.623   2.478   5.926
10316SOL    HW231848   6.579   2.391   6.058
10317SOL     OW31849   4.070   6.379   6.327
10317SOL    HW131850   3.984   6.330   6.318
10317SOL    HW231851   4.081   6.442   6.250
10318SOL     OW31852   4.900   1.009   6.172
10318SOL    HW131853   4.866   0.916   6.169
10318SOL    HW231854   4.826   1.073   6.152
10319SOL     OW31855   0.724   4.505   5.266
10319SOL    HW131856   0.659   4.445   5.313
10319SOL    HW231857   0.817   4.469   5.278
10320SOL     OW31858   0.375   6.208   2.874
10320SOL    HW131859   0.305   6.275   2.897
10320SOL    HW231860   0.400   6.217   2.778
10321SOL     OW31861   6.217   1.831   2.257
10321SOL    HW131862   6.142   1.867   2.312
10321SOL    HW231863   6.194   1.738   2.226
10322SOL     OW31864   4.205   5.080   5.237
10322SOL    HW131865   4.288   5.027   5.255
10322SOL    HW231866   4.192   5.147   5.309
10323SOL     OW31867   6.277   4.703   4.933
10323SOL    HW131868   6.308   4.797   4.949
10323SOL    HW231869   6.356   4.643   4.921
10324SOL     OW31870   3.363   3.274   2.983
10324SOL    HW131871   3.422   3.353   3.001
10324SOL    HW231872   3.397   3.225   2.903
10325SOL     OW31873   0.457   4.846   2.588
10325SOL    HW131874   0.495   4.930   2.549
10325SOL    HW231875   0.517   4.769   2.566
10326SOL     OW31876   6.025   4.076   6.824
10326SOL    HW131877   5.953   4.008   6.838
10326SOL    HW231878   6.008   4.126   6.739
10327SOL     OW31879   2.273   3.014   1.774
10327SOL    HW131880   2.213   3.092   1.793
10327SOL    HW231881   2.351   3.045   1.719
10328SOL     OW31882   6.110   2.522   1.515
10328SOL    HW131883   6.154   2.490   1.431
10328SOL    HW231884   6.031   2.579   1.491
10329SOL     OW31885   2.377   1.006   3.189
10329SOL    HW131886   2.339   0.943   3.122
10329SOL    HW231887   2.320   1.088   3.194
10330SOL     OW31888   4.282   0.593   1.691
10330SOL    HW131889   4.373   0.614   1.655
10330SOL    HW231890   4.285   0.592   1.791
10331SOL     OW31891   5.891   6.255   6.515
10331SOL    HW131892   5.912   6.161   6.487
10331SOL    HW231893   5.804   6.257   6.564
10332SOL     OW31894   0.040   0.215   6.811
10332SOL    HW131895   0.075   0.133   6.856
10332SOL    HW231896   0.116   0.267   6.772
10333SOL     OW31897   0.476   5.712   4.952
10333SOL    HW131898   0.381   5.731   4.975
10333SOL    HW231899   0.519   5.661   5.027
10334SOL     OW31900   3.051   0.196   4.068
10334SOL    HW131901   3.149   0.187   4.054
10334SOL    HW231902   3.002   0.142   4.001
10335SOL     OW31903   1.403   4.268   6.877
10335SOL    HW131904   1.367   4.234   6.964
10335SOL    HW231905   1.350   4.229   6.802
10336SOL     OW31906   6.435   0.086   2.478
10336SOL    HW131907   6.457   0.046   2.389
10336SOL    HW231908   6.492   0.168   2.492
10337SOL     OW31909   0.478   5.977   6.622
10337SOL    HW131910   0.476   5.911   6.546
10337SOL    HW231911   0.557   6.037   6.612
10338SOL     OW31912   1.684   6.281   2.286
10338SOL    HW131913   1.661   6.252   2.193
10338SOL    HW231914   1.609   6.256   2.348
10339SOL     OW31915   6.036   3.468   5.914
10339SOL    HW131916   6.031   3.495   5.818
10339SOL    HW231917   6.022   3.548   5.973
10340SOL     OW31918   1.995   3.089   7.002
10340SOL    HW131919   1.923   3.023   7.024
10340SOL    HW231920   1.954   3.174   6.969
10341SOL     OW31921   2.107   3.484   2.283
10341SOL    HW131922   2.100   3.395   2.328
10341SOL    HW231923   2.141   3.472   2.190
10342SOL     OW31924   1.847   0.524   3.673
10342SOL    HW131925   1.757   0.492   3.702
10342SOL    HW231926   1.911   0.446   3.672
10343SOL     OW31927   2.620   5.522   0.170
10343SOL    HW131928   2.618   5.604   0.113
10343SOL    HW231929   2.629   5.442   0.110
10344SOL     OW31930   3.914   3.892   0.148
10344SOL    HW131931   3.860   3.960   0.197
10344SOL    HW231932   3.968   3.838   0.213
10345SOL     OW31933   1.847   2.982   5.640
10345SOL    HW131934   1.897   3.039   5.706
10345SOL    HW231935   1.873   2.886   5.653
10346SOL     OW31936   0.226   5.440   1.365
10346SOL    HW131937   0.319   5.474   1.374
10346SOL    HW231938   0.191   5.463   1.274
10347SOL     OW31939   4.972   1.046   3.229
10347SOL    HW131940   5.066   1.051   3.194
10347SOL    HW231941   4.974   1.021   3.326
10348SOL     OW31942   6.510   2.555   0.252
10348SOL    HW131943   6.431   2.602   0.214
10348SOL    HW231944   6.590   2.615   0.251
10349SOL     OW31945   0.713   0.695   6.794
10349SOL    HW131946   0.765   0.780   6.789
10349SOL    HW231947   0.631   0.709   6.850
10350SOL     OW31948   2.837   5.314   5.039
10350SOL    HW131949   2.853   5.221   5.006
10350SOL    HW231950   2.751   5.349   5.004
10351SOL     OW31951   4.753   5.079   0.026
10351SOL    HW131952   4.755   5.091   6.953
10351SOL    HW231953   4.658   5.086   0.058
10352SOL     OW31954   2.971   0.668   6.390
10352SOL    HW131955   2.978   0.641   6.294
10352SOL    HW231956   2.959   0.587   6.448
10353SOL     OW31957   6.772   2.854   4.466
10353SOL    HW131958   6.810   2.946   4.472
10353SOL    HW231959   6.831   2.797   4.409
10354SOL     OW31960   5.652   1.434   1.496
10354SOL    HW131961   5.555   1.413   1.508
10354SOL    HW231962   5.662   1.506   1.427
10355SOL     OW31963   2.441   6.438   1.971
10355SOL    HW131964   2.402   6.470   1.885
10355SOL    HW231965   2.404   6.347   1.993
10356SOL     OW31966   0.203   4.461   6.169
10356SOL    HW131967   0.198   4.556   6.138
10356SOL    HW231968   0.145   4.404   6.111
10357SOL     OW31969   2.326   2.721   6.511
10357SOL    HW131970   2.250   2.753   6.568
10357SOL    HW231971   2.362   2.798   6.458
10358SOL     OW31972   0.290   2.305   2.765
10358SOL    HW131973   0.339   2.368   2.703
10358SOL    HW231974   0.194   2.332   2.770
10359SOL     OW31975   0.607   1.283   0.857
10359SOL    HW131976   0.690   1.339   0.861
10359SOL    HW231977   0.569   1.273   0.949
10360SOL     OW31978   4.347   5.052   3.151
10360SOL    HW131979   4.404   4.971   3.139
10360SOL    HW231980   4.264   5.043   3.096
10361SOL     OW31981   2.590   6.587   2.344
10361SOL    HW131982   2.680   6.544   2.350
10361SOL    HW231983   2.586   6.665   2.407
10362SOL     OW31984   1.623   4.598   4.879
10362SOL    HW131985   1.552   4.527   4.881
10362SOL    HW231986   1.676   4.590   4.795
10363SOL     OW31987   4.660   1.065   3.370
10363SOL    HW131988   4.724   1.138   3.348
10363SOL    HW231989   4.588   1.061   3.301
10364SOL     OW31990   2.889   3.649   1.447
10364SOL    HW131991   2.850   3.710   1.516
10364SOL    HW231992   2.842   3.663   1.360
10365SOL     OW31993   4.091   5.838   0.570
10365SOL    HW131994   4.090   5.874   0.663
10365SOL    HW231995   4.058   5.908   0.507
10366SOL     OW31996   2.709   0.291   4.071
10366SOL    HW131997   2.622   0.278   4.119
10366SOL    HW231998   2.729   0.389   4.066
10367SOL     OW31999   5.808   1.951   2.527
10367SOL    HW132000   5.755   1.904   2.456
10367SOL    HW232001   5.843   1.884   2.592
10368SOL     OW32002   2.715   0.794   1.588
10368SOL    HW132003   2.629   0.808   1.638
10368SOL    HW232004   2.705   0.828   1.495
10369SOL     OW32005   4.015   0.931   0.652
10369SOL    HW132006   4.002   0.874   0.570
10369SOL    HW232007   3.997   1.027   0.629
10370SOL     OW32008   4.566   0.703   5.154
10370SOL    HW132009   4.613   0.761   5.087
10370SOL    HW232010   4.496   0.648   5.108
10371SOL     OW32011   3.228   5.778   5.763
10371SOL    HW132012   3.266   5.711   5.827
10371SOL    HW232013   3.154   5.828   5.808
10372SOL     OW32014   2.508   0.887   5.059
10372SOL    HW132015   2.592   0.848   5.021
10372SOL    HW232016   2.530   0.972   5.108
10373SOL     OW32017   1.591   6.502   4.825
10373SOL    HW132018   1.513   6.486   4.765
10373SOL    HW232019   1.652   6.423   4.822
10374SOL     OW32020   2.926   1.434   3.467
10374SOL    HW132021   2.905   1.524   3.507
10374SOL    HW232022   3.025   1.423   3.460
10375SOL     OW32023   5.206   2.169   0.334
10375SOL    HW132024   5.228   2.083   0.381
10375SOL    HW232025   5.107   2.182   0.334
10376SOL     OW32026   0.796   0.912   4.037
10376SOL    HW132027   0.808   0.986   4.104
10376SOL    HW232028   0.878   0.854   4.037
10377SOL     OW32029   0.221   0.468   3.571
10377SOL    HW132030   0.139   0.523   3.557
10377SOL    HW232031   0.281   0.513   3.637
10378SOL     OW32032   6.902   0.882   6.039
10378SOL    HW132033   6.878   0.937   6.119
10378SOL    HW232034   6.827   0.884   5.973
10379SOL     OW32035   5.389   0.428   5.288
10379SOL    HW132036   5.389   0.329   5.300
10379SOL    HW232037   5.297   0.459   5.264
10380SOL     OW32038   5.794   0.532   2.868
10380SOL    HW132039   5.836   0.509   2.780
10380SOL    HW232040   5.854   0.503   2.943
10381SOL     OW32041   4.631   5.395   6.106
10381SOL    HW132042   4.563   5.457   6.145
10381SOL    HW232043   4.690   5.360   6.179
10382SOL     OW32044   2.564   5.428   6.252
10382SOL    HW132045   2.612   5.402   6.336
10382SOL    HW232046   2.471   5.391   6.254
10383SOL     OW32047   1.607   3.504   0.475
10383SOL    HW132048   1.578   3.412   0.502
10383SOL    HW232049   1.703   3.503   0.449
10384SOL     OW32050   6.900   0.214   0.949
10384SOL    HW132051   6.951   0.233   1.033
10384SOL    HW232052   6.957   0.159   0.887
10385SOL     OW32053   5.855   0.212   6.225
10385SOL    HW132054   5.917   0.204   6.147
10385SOL    HW232055   5.878   0.142   6.293
10386SOL     OW32056   6.458   3.417   4.866
10386SOL    HW132057   6.416   3.391   4.953
10386SOL    HW232058   6.418   3.362   4.792
10387SOL     OW32059   2.567   2.454   3.082
10387SOL    HW132060   2.646   2.439   3.023
10387SOL    HW232061   2.493   2.393   3.053
10388SOL     OW32062   0.973   5.216   3.104
10388SOL    HW132063   1.057   5.199   3.156
10388SOL    HW232064   0.907   5.262   3.163
10389SOL     OW32065   0.753   4.760   3.485
10389SOL    HW132066   0.743   4.790   3.390
10389SOL    HW232067   0.850   4.749   3.506
10390SOL     OW32068   1.930   3.767   3.126
10390SOL    HW132069   1.932   3.795   3.030
10390SOL    HW232070   2.015   3.720   3.149
10391SOL     OW32071   1.582   5.979   6.406
10391SOL    HW132072   1.654   6.010   6.468
10391SOL    HW232073   1.621   5.920   6.336
10392SOL     OW32074   5.626   4.832   0.296
10392SOL    HW132075   5.587   4.775   0.224
10392SOL    HW232076   5.715   4.795   0.322
10393SOL     OW32077   0.864   1.259   3.965
10393SOL    HW132078   0.826   1.242   3.874
10393SOL    HW232079   0.947   1.204   3.977
10394SOL     OW32080   2.283   6.591   6.714
10394SOL    HW132081   2.262   6.583   6.811
10394SOL    HW232082   2.199   6.602   6.662
10395SOL     OW32083   6.987   0.822   4.013
10395SOL    HW132084   0.057   0.849   4.012
10395SOL    HW232085   6.942   0.858   3.931
10396SOL     OW32086   0.878   0.239   3.781
10396SOL    HW132087   0.923   0.151   3.788
10396SOL    HW232088   0.886   0.273   3.687
10397SOL     OW32089   4.048   0.922   3.059
10397SOL    HW132090   4.087   0.962   2.976
10397SOL    HW232091   4.021   0.995   3.121
10398SOL     OW32092   6.478   3.020   1.339
10398SOL    HW132093   6.492   3.050   1.244
10398SOL    HW232094   6.465   3.100   1.398
10399SOL     OW32095   4.567   2.096   5.598
10399SOL    HW132096   4.484   2.042   5.608
10399SOL    HW232097   4.605   2.117   5.688
10400SOL     OW32098   2.515   5.721   2.675
10400SOL    HW132099   2.461   5.798   2.641
10400SOL    HW232100   2.474   5.636   2.644
10401SOL     OW32101   6.956   5.758   2.212
10401SOL    HW132102   6.957   5.851   2.178
10401SOL    HW232103   0.023   5.721   2.212
10402SOL     OW32104   0.841   3.440   5.313
10402SOL    HW132105   0.898   3.501   5.368
10402SOL    HW232106   0.854   3.462   5.216
10403SOL     OW32107   5.530   1.579   2.140
10403SOL    HW132108   5.492   1.581   2.048
10403SOL    HW232109   5.493   1.656   2.193
10404SOL     OW32110   0.615   6.532   4.032
10404SOL    HW132111   0.522   6.501   4.016
10404SOL    HW232112   0.679   6.475   3.980
10405SOL     OW32113   1.955   6.193   5.734
10405SOL    HW132114   1.942   6.109   5.787
10405SOL    HW232115   1.993   6.264   5.793
10406SOL     OW32116   2.831   4.531   6.326
10406SOL    HW132117   2.822   4.431   6.329
10406SOL    HW232118   2.782   4.566   6.246
10407SOL     OW32119   1.188   1.988   6.162
10407SOL    HW132120   1.227   1.929   6.092
10407SOL    HW232121   1.207   2.084   6.140
10408SOL     OW32122   4.606   4.393   3.422
10408SOL    HW132123   4.515   4.435   3.426
10408SOL    HW232124   4.617   4.345   3.335
10409SOL     OW32125   0.400   3.780   1.982
10409SOL    HW132126   0.390   3.814   2.075
10409SOL    HW232127   0.497   3.774   1.959
10410SOL     OW32128   4.504   0.795   1.066
10410SOL    HW132129   4.415   0.759   1.039
10410SOL    HW232130   4.492   0.880   1.117
10411SOL     OW32131   2.222   4.707   3.131
10411SOL    HW132132   2.206   4.633   3.066
10411SOL    HW232133   2.311   4.749   3.112
10412SOL     OW32134   1.606   2.336   0.147
10412SOL    HW132135   1.694   2.376   0.171
10412SOL    HW232136   1.620   2.259   0.084
10413SOL     OW32137   0.344   2.193   6.537
10413SOL    HW132138   0.286   2.120   6.575
10413SOL    HW232139   0.438   2.160   6.530
10414SOL     OW32140   5.278   6.340   6.767
10414SOL    HW132141   5.347   6.378   6.706
10414SOL    HW232142   5.322   6.286   6.838
10415SOL     OW32143   0.362   5.851   3.544
10415SOL    HW132144   0.433   5.855   3.615
10415SOL    HW232145   0.272   5.848   3.587
10416SOL     OW32146   6.175   2.070   4.506
10416SOL    HW132147   6.160   2.131   4.585
10416SOL    HW232148   6.272   2.046   4.501
10417SOL     OW32149   3.916   5.044   3.272
10417SOL    HW132150   3.901   5.115   3.202
10417SOL    HW232151   3.989   4.983   3.242
10418SOL     OW32152   6.919   4.215   6.391
10418SOL    HW132153   6.864   4.219   6.308
10418SOL    HW232154   6.950   4.121   6.406
10419SOL     OW32155   3.029   0.900   5.234
10419SOL    HW132156   3.105   0.965   5.228
10419SOL    HW232157   3.028   0.842   5.153
10420SOL     OW32158   6.916   3.297   3.290
10420SOL    HW132159   6.871   3.217   3.250
10420SOL    HW232160   7.015   3.287   3.280
10421SOL     OW32161   1.074   4.676   3.888
10421SOL    HW132162   1.111   4.758   3.843
10421SOL    HW232163   1.149   4.613   3.909
10422SOL     OW32164   6.732   3.619   4.725
10422SOL    HW132165   6.706   3.554   4.653
10422SOL    HW232166   6.757   3.568   4.808
10423SOL     OW32167   3.963   4.818   3.981
10423SOL    HW132168   3.897   4.807   3.907
10423SOL    HW232169   4.050   4.778   3.954
10424SOL     OW32170   3.690   0.987   6.581
10424SOL    HW132171   3.753   1.051   6.538
10424SOL    HW232172   3.713   0.976   6.677
10425SOL     OW32173   2.443   0.699   0.854
10425SOL    HW132174   2.384   0.776   0.833
10425SOL    HW232175   2.538   0.729   0.858
10426SOL     OW32176   5.747   2.661   6.021
10426SOL    HW132177   5.756   2.603   6.102
10426SOL    HW232178   5.834   2.662   5.971
10427SOL     OW32179   5.921   6.665   4.819
10427SOL    HW132180   5.841   6.627   4.866
10427SOL    HW232181   5.902   6.760   4.794
10428SOL     OW32182   1.844   0.978   3.487
10428SOL    HW132183   1.831   0.882   3.463
10428SOL    HW232184   1.895   1.024   3.414
10429SOL     OW32185   0.922   3.389   2.747
10429SOL    HW132186   0.977   3.323   2.696
10429SOL    HW232187   0.948   3.482   2.722
10430SOL     OW32188   3.608   0.543   3.842
10430SOL    HW132189   3.703   0.561   3.815
10430SOL    HW232190   3.557   0.511   3.762
10431SOL     OW32191   3.285   1.885   3.944
10431SOL    HW132192   3.358   1.875   3.877
10431SOL    HW232193   3.240   1.797   3.958
10432SOL     OW32194   0.060   6.916   6.250
10432SOL    HW132195   6.986   6.917   6.243
10432SOL    HW232196   0.095   7.005   6.221
10433SOL     OW32197   1.571   6.969   1.929
10433SOL    HW132198   1.630   0.003   1.875
10433SOL    HW232199   1.492   7.021   1.963
10434SOL     OW32200   4.460   6.342   5.687
10434SOL    HW132201   4.525   6.403   5.643
10434SOL    HW232202   4.492   6.247   5.681
10435SOL     OW32203   1.029   2.738   6.738
10435SOL    HW132204   1.110   2.779   6.778
10435SOL    HW232205   0.981   2.807   6.683
10436SOL     OW32206   0.156   4.508   5.041
10436SOL    HW132207   0.149   4.409   5.023
10436SOL    HW232208   0.245   4.528   5.083
10437SOL     OW32209   5.528   5.245   5.421
10437SOL    HW132210   5.442   5.203   5.391
10437SOL    HW232211   5.567   5.298   5.346
10438SOL     OW32212   6.725   6.028   6.168
10438SOL    HW132213   6.821   6.006   6.185
10438SOL    HW232214   6.667   5.977   6.231
10439SOL     OW32215   6.958   0.111   4.316
10439SOL    HW132216   6.918   0.020   4.301
10439SOL    HW232217   7.025   0.107   4.390
10440SOL     OW32218   6.772   2.284   6.322
10440SOL    HW132219   6.855   2.231   6.302
10440SOL    HW232220   6.797   2.370   6.367
10441SOL     OW32221   3.917   2.037   0.964
10441SOL    HW132222   3.917   2.132   0.993
10441SOL    HW232223   3.889   2.031   0.869
10442SOL     OW32224   2.537   1.711   5.455
10442SOL    HW132225   2.522   1.794   5.401
10442SOL    HW232226   2.554   1.634   5.394
10443SOL     OW32227   0.469   1.151   3.212
10443SOL    HW132228   0.434   1.194   3.295
10443SOL    HW232229   0.526   1.215   3.162
10444SOL     OW32230   3.978   5.446   4.657
10444SOL    HW132231   3.947   5.422   4.749
10444SOL    HW232232   4.006   5.543   4.657
10445SOL     OW32233   1.906   4.253   2.698
10445SOL    HW132234   1.985   4.308   2.670
10445SOL    HW232235   1.918   4.222   2.792
10446SOL     OW32236   1.761   4.372   5.408
10446SOL    HW132237   1.845   4.344   5.454
10446SOL    HW232238   1.781   4.448   5.345
10447SOL     OW32239   0.157   1.717   3.154
10447SOL    HW132240   0.227   1.788   3.154
10447SOL    HW232241   0.184   1.642   3.093
10448SOL     OW32242   2.684   6.485   2.938
10448SOL    HW132243   2.768   6.482   2.991
10448SOL    HW232244   2.670   6.396   2.894
10449SOL     OW32245   3.720   5.821   6.599
10449SOL    HW132246   3.729   5.825   6.698
10449SOL    HW232247   3.707   5.726   6.571
10450SOL     OW32248   0.069   0.512   6.198
10450SOL    HW132249   7.019   0.471   6.249
10450SOL    HW232250   0.155   0.472   6.228
10451SOL     OW32251   2.070   0.677   3.478
10451SOL    HW132252   2.161   0.701   3.512
10451SOL    HW232253   2.051   0.728   3.395
10452SOL     OW32254   6.906   3.466   4.005
10452SOL    HW132255   6.881   3.414   4.087
10452SOL    HW232256   6.977   3.533   4.029
10453SOL     OW32257   4.458   5.529   3.349
10453SOL    HW132258   4.410   5.571   3.426
10453SOL    HW232259   4.394   5.517   3.273
10454SOL     OW32260   6.473   0.816   6.057
10454SOL    HW132261   6.437   0.822   5.964
10454SOL    HW232262   6.399   0.797   6.121
10455SOL     OW32263   6.003   6.458   4.235
10455SOL    HW132264   5.994   6.362   4.210
10455SOL    HW232265   6.065   6.504   4.171
10456SOL     OW32266   0.187   5.336   0.218
10456SOL    HW132267   0.264   5.388   0.182
10456SOL    HW232268   0.148   5.383   0.297
10457SOL     OW32269   3.926   2.690   0.017
10457SOL    HW132270   3.943   2.786   7.018
10457SOL    HW232271   3.948   2.631   6.965
10458SOL     OW32272   6.906   5.899   6.570
10458SOL    HW132273   6.880   5.805   6.547
10458SOL    HW232274   6.828   5.960   6.555
10459SOL     OW32275   6.942   5.349   0.706
10459SOL    HW132276   6.984   5.258   0.703
10459SOL    HW232277   6.929   5.377   0.801
10460SOL     OW32278   0.794   3.077   0.312
10460SOL    HW132279   0.893   3.063   0.301
10460SOL    HW232280   0.750   3.076   0.222
10461SOL     OW32281   0.084   5.718   5.262
10461SOL    HW132282   0.051   5.625   5.246
10461SOL    HW232283   0.019   5.767   5.319
10462SOL     OW32284   4.103   1.581   0.764
10462SOL    HW132285   4.182   1.549   0.712
10462SOL    HW232286   4.040   1.629   0.702
10463SOL     OW32287   4.960   3.020   6.195
10463SOL    HW132288   5.002   3.102   6.156
10463SOL    HW232289   4.969   2.944   6.130
10464SOL     OW32290   5.993   4.946   2.923
10464SOL    HW132291   5.937   4.891   2.861
10464SOL    HW232292   5.945   5.030   2.947
10465SOL     OW32293   5.898   3.735   2.071
10465SOL    HW132294   5.826   3.797   2.103
10465SOL    HW232295   5.961   3.785   2.011
10466SOL     OW32296   5.772   4.776   6.365
10466SOL    HW132297   5.712   4.735   6.296
10466SOL    HW232298   5.723   4.851   6.411
10467SOL     OW32299   1.808   2.913   0.043
10467SOL    HW132300   1.810   2.881   0.137
10467SOL    HW232301   1.713   2.927   0.015
10468SOL     OW32302   2.889   4.818   3.842
10468SOL    HW132303   2.927   4.872   3.917
10468SOL    HW232304   2.818   4.758   3.878
10469SOL     OW32305   6.035   1.724   4.867
10469SOL    HW132306   6.070   1.655   4.804
10469SOL    HW232307   6.020   1.684   4.957
10470SOL     OW32308   2.551   2.530   4.015
10470SOL    HW132309   2.477   2.467   4.039
10470SOL    HW232310   2.540   2.560   3.920
10471SOL     OW32311   2.885   6.978   0.668
10471SOL    HW132312   2.924   6.899   0.619
10471SOL    HW232313   2.938   0.034   0.646
10472SOL     OW32314   3.449   4.998   0.718
10472SOL    HW132315   3.437   5.064   0.644
10472SOL    HW232316   3.486   5.044   0.798
10473SOL     OW32317   5.064   4.492   6.610
10473SOL    HW132318   5.103   4.570   6.658
10473SOL    HW232319   5.036   4.520   6.518
10474SOL     OW32320   5.531   0.887   4.092
10474SOL    HW132321   5.552   0.984   4.079
10474SOL    HW232322   5.476   0.854   4.015
10475SOL     OW32323   1.211   6.432   1.791
10475SOL    HW132324   1.256   6.387   1.713
10475SOL    HW232325   1.112   6.435   1.775
10476SOL     OW32326   3.967   6.246   0.374
10476SOL    HW132327   3.877   6.284   0.392
10476SOL    HW232328   4.031   6.276   0.445
10477SOL     OW32329   6.435   6.303   3.997
10477SOL    HW132330   6.468   6.216   4.035
10477SOL    HW232331   6.428   6.370   4.070
10478SOL     OW32332   6.317   6.942   0.131
10478SOL    HW132333   6.262   6.859   0.142
10478SOL    HW232334   6.298   7.005   0.206
10479SOL     OW32335   0.262   1.680   2.641
10479SOL    HW132336   0.288   1.607   2.578
10479SOL    HW232337   0.240   1.763   2.590
10480SOL     OW32338   1.356   0.582   2.238
10480SOL    HW132339   1.290   0.638   2.289
10480SOL    HW232340   1.363   0.492   2.282
10481SOL     OW32341   0.259   0.417   2.796
10481SOL    HW132342   0.311   0.477   2.736
10481SOL    HW232343   0.216   0.471   2.869
10482SOL     OW32344   5.248   3.599   3.500
10482SOL    HW132345   5.346   3.611   3.485
10482SOL    HW232346   5.206   3.558   3.419
10483SOL     OW32347   6.126   5.507   0.483
10483SOL    HW132348   6.075   5.525   0.567
10483SOL    HW232349   6.157   5.593   0.443
10484SOL     OW32350   6.522   1.025   1.374
10484SOL    HW132351   6.593   1.093   1.354
10484SOL    HW232352   6.433   1.070   1.378
10485SOL     OW32353   5.014   3.858   5.766
10485SOL    HW132354   4.999   3.911   5.682
10485SOL    HW232355   4.981   3.765   5.753
10486SOL     OW32356   5.971   2.713   0.618
10486SOL    HW132357   5.903   2.715   0.691
10486SOL    HW232358   6.012   2.622   0.613
10487SOL     OW32359   6.094   6.494   1.293
10487SOL    HW132360   6.163   6.454   1.234
10487SOL    HW232361   6.137   6.533   1.374
10488SOL     OW32362   3.005   2.841   6.755
10488SOL    HW132363   3.026   2.781   6.832
10488SOL    HW232364   2.947   2.917   6.786
10489SOL     OW32365   6.898   5.635   6.509
10489SOL    HW132366   6.930   5.643   6.415
10489SOL    HW232367   6.973   5.601   6.567
10490SOL     OW32368   6.815   1.027   3.340
10490SOL    HW132369   6.903   1.050   3.298
10490SOL    HW232370   6.818   0.934   3.376
10491SOL     OW32371   2.134   4.270   6.173
10491SOL    HW132372   2.038   4.273   6.200
10491SOL    HW232373   2.145   4.318   6.086
10492SOL     OW32374   4.862   3.346   5.189
10492SOL    HW132375   4.866   3.439   5.152
10492SOL    HW232376   4.948   3.299   5.167
10493SOL     OW32377   3.605   0.902   1.775
10493SOL    HW132378   3.576   0.905   1.679
10493SOL    HW232379   3.698   0.866   1.779
10494SOL     OW32380   5.543   1.724   3.815
10494SOL    HW132381   5.584   1.697   3.902
10494SOL    HW232382   5.463   1.781   3.833
10495SOL     OW32383   2.077   6.790   0.689
10495SOL    HW132384   2.112   6.810   0.780
10495SOL    HW232385   2.081   6.691   0.673
10496SOL     OW32386   0.094   6.969   6.951
10496SOL    HW132387   0.146   6.887   6.975
10496SOL    HW232388   0.079   6.970   6.852
10497SOL     OW32389   1.534   0.945   0.920
10497SOL    HW132390   1.611   0.977   0.975
10497SOL    HW232391   1.514   0.850   0.943
10498SOL     OW32392   1.909   6.922   6.313
10498SOL    HW132393   2.002   6.910   6.348
10498SOL    HW232394   1.907   6.900   6.215
10499SOL     OW32395   3.040   5.940   3.352
10499SOL    HW132396   3.126   5.984   3.379
10499SOL    HW232397   3.022   5.862   3.411
10500SOL     OW32398   1.047   2.272   5.982
10500SOL    HW132399   1.055   2.335   6.059
10500SOL    HW232400   0.954   2.234   5.979
10501SOL     OW32401   2.278   4.198   2.738
10501SOL    HW132402   2.335   4.280   2.736
10501SOL    HW232403   2.293   4.145   2.654
10502SOL     OW32404   3.266   6.608   0.348
10502SOL    HW132405   3.296   6.590   0.442
10502SOL    HW232406   3.222   6.698   0.344
10503SOL     OW32407   3.811   3.070   0.394
10503SOL    HW132408   3.783   2.974   0.403
10503SOL    HW232409   3.839   3.105   0.483
10504SOL     OW32410   2.679   2.565   0.065
10504SOL    HW132411   2.614   2.566   0.141
10504SOL    HW232412   2.659   2.640   0.003
10505SOL     OW32413   6.320   6.155   1.069
10505SOL    HW132414   6.270   6.123   0.989
10505SOL    HW232415   6.255   6.173   1.144
10506SOL     OW32416   0.620   4.304   6.005
10506SOL    HW132417   0.602   4.399   6.030
10506SOL    HW232418   0.638   4.298   5.907
10507SOL     OW32419   0.961   0.590   6.454
10507SOL    HW132420   0.958   0.533   6.372
10507SOL    HW232421   1.017   0.545   6.524
10508SOL     OW32422   5.378   4.993   3.699
10508SOL    HW132423   5.366   5.077   3.752
10508SOL    HW232424   5.451   5.006   3.631
10509SOL     OW32425   1.055   6.602   6.894
10509SOL    HW132426   0.963   6.567   6.878
10509SOL    HW232427   1.070   6.616   6.991
10510SOL     OW32428   5.586   5.337   6.576
10510SOL    HW132429   5.512   5.401   6.598
10510SOL    HW232430   5.644   5.323   6.657
10511SOL     OW32431   4.482   3.423   0.428
10511SOL    HW132432   4.458   3.329   0.454
10511SOL    HW232433   4.473   3.434   0.329
10512SOL     OW32434   4.661   0.400   6.259
10512SOL    HW132435   4.563   0.393   6.240
10512SOL    HW232436   4.709   0.326   6.211
10513SOL     OW32437   0.808   2.185   6.086
10513SOL    HW132438   0.856   2.207   6.171
10513SOL    HW232439   0.816   2.087   6.068
10514SOL     OW32440   6.410   4.257   0.056
10514SOL    HW132441   6.425   4.247   6.983
10514SOL    HW232442   6.359   4.341   0.074
10515SOL     OW32443   6.466   1.545   2.901
10515SOL    HW132444   6.560   1.525   2.876
10515SOL    HW232445   6.410   1.463   2.888
10516SOL     OW32446   4.351   0.666   6.344
10516SOL    HW132447   4.396   0.702   6.426
10516SOL    HW232448   4.262   0.710   6.333
10517SOL     OW32449   6.548   1.748   2.714
10517SOL    HW132450   6.492   1.732   2.795
10517SOL    HW232451   6.512   1.695   2.637
10518SOL     OW32452   0.949   6.020   0.158
10518SOL    HW132453   0.939   6.085   0.234
10518SOL    HW232454   0.982   6.068   0.077
10519SOL     OW32455   3.361   2.934   5.668
10519SOL    HW132456   3.340   2.917   5.764
10519SOL    HW232457   3.297   3.002   5.631
10520SOL     OW32458   3.154   2.933   6.389
10520SOL    HW132459   3.113   2.974   6.470
10520SOL    HW232460   3.116   2.842   6.376
10521SOL     OW32461   6.394   6.431   1.519
10521SOL    HW132462   6.426   6.338   1.504
10521SOL    HW232463   6.457   6.496   1.476
10522SOL     OW32464   6.725   1.366   0.654
10522SOL    HW132465   6.739   1.408   0.565
10522SOL    HW232466   6.641   1.312   0.653
10523SOL     OW32467   0.268   5.302   6.235
10523SOL    HW132468   0.319   5.285   6.151
10523SOL    HW232469   0.302   5.242   6.308
10524SOL     OW32470   2.078   6.934   4.235
10524SOL    HW132471   2.113   7.021   4.269
10524SOL    HW232472   1.982   6.943   4.211
10525SOL     OW32473   1.608   6.760   5.103
10525SOL    HW132474   1.539   6.687   5.102
10525SOL    HW232475   1.653   6.764   5.013
10526SOL     OW32476   0.772   0.740   2.461
10526SOL    HW132477   0.678   0.725   2.429
10526SOL    HW232478   0.798   0.665   2.522
10527SOL     OW32479   0.723   2.755   4.705
10527SOL    HW132480   0.677   2.836   4.742
10527SOL    HW232481   0.741   2.690   4.780
10528SOL     OW32482   0.503   5.235   4.870
10528SOL    HW132483   0.424   5.287   4.838
10528SOL    HW232484   0.569   5.296   4.913
10529SOL     OW32485   0.625   6.400   3.619
10529SOL    HW132486   0.570   6.482   3.639
10529SOL    HW232487   0.564   6.325   3.592
10530SOL     OW32488   2.643   2.134   6.267
10530SOL    HW132489   2.668   2.091   6.180
10530SOL    HW232490   2.677   2.228   6.269
10531SOL     OW32491   1.440   3.452   4.729
10531SOL    HW132492   1.482   3.496   4.808
10531SOL    HW232493   1.435   3.517   4.654
10532SOL     OW32494   3.057   2.674   6.993
10532SOL    HW132495   3.053   2.678   0.067
10532SOL    HW232496   3.100   2.588   6.965
10533SOL     OW32497   3.296   1.326   5.121
10533SOL    HW132498   3.280   1.397   5.190
10533SOL    HW232499   3.313   1.369   5.032
10534SOL     OW32500   6.934   6.174   0.711
10534SOL    HW132501   6.909   6.261   0.753
10534SOL    HW232502   6.912   6.178   0.613
10535SOL     OW32503   0.500   1.243   2.731
10535SOL    HW132504   0.423   1.181   2.718
10535SOL    HW232505   0.571   1.196   2.784
10536SOL     OW32506   4.847   0.177   3.343
10536SOL    HW132507   4.918   0.167   3.413
10536SOL    HW232508   4.774   0.112   3.360
10537SOL     OW32509   2.931   5.508   3.248
10537SOL    HW132510   2.926   5.409   3.263
10537SOL    HW232511   2.880   5.555   3.320
10538SOL     OW32512   4.111   3.914   6.792
10538SOL    HW132513   4.186   3.919   6.726
10538SOL    HW232514   4.113   3.825   6.839
10539SOL     OW32515   0.708   3.384   6.341
10539SOL    HW132516   0.751   3.344   6.260
10539SOL    HW232517   0.750   3.347   6.423
10540SOL     OW32518   1.548   1.247   5.652
10540SOL    HW132519   1.597   1.301   5.583
10540SOL    HW232520   1.489   1.180   5.606
10541SOL     OW32521   4.044   3.526   1.062
10541SOL    HW132522   3.962   3.556   1.013
10541SOL    HW232523   4.020   3.453   1.125
10542SOL     OW32524   0.671   2.147   7.004
10542SOL    HW132525   0.599   2.216   7.004
10542SOL    HW232526   0.643   2.069   0.035
10543SOL     OW32527   0.240   2.018   5.818
10543SOL    HW132528   0.181   1.938   5.807
10543SOL    HW232529   0.220   2.085   5.747
10544SOL     OW32530   2.354   2.279   2.993
10544SOL    HW132531   2.342   2.187   3.030
10544SOL    HW232532   2.299   2.289   2.910
10545SOL     OW32533   6.892   0.231   2.582
10545SOL    HW132534   6.898   0.321   2.626
10545SOL    HW232535   6.977   0.182   2.596
10546SOL     OW32536   2.189   0.077   4.634
10546SOL    HW132537   2.205   0.121   4.545
10546SOL    HW232538   2.277   0.057   4.677
10547SOL     OW32539   4.408   1.169   2.002
10547SOL    HW132540   4.464   1.191   2.082
10547SOL    HW232541   4.316   1.208   2.013
10548SOL     OW32542   5.334   3.856   4.133
10548SOL    HW132543   5.249   3.836   4.181
10548SOL    HW232544   5.329   3.819   4.040
10549SOL     OW32545   0.756   0.414   2.279
10549SOL    HW132546   0.832   0.382   2.334
10549SOL    HW232547   0.673   0.364   2.303
10550SOL     OW32548   5.415   0.099   4.232
10550SOL    HW132549   5.330   0.126   4.186
10550SOL    HW232550   5.432   0.002   4.218
10551SOL     OW32551   1.375   2.017   5.350
10551SOL    HW132552   1.338   2.062   5.269
10551SOL    HW232553   1.335   2.059   5.432
10552SOL     OW32554   3.948   2.182   5.808
10552SOL    HW132555   4.025   2.214   5.753
10552SOL    HW232556   3.960   2.085   5.830
10553SOL     OW32557   0.618   5.544   0.576
10553SOL    HW132558   0.641   5.581   0.666
10553SOL    HW232559   0.607   5.445   0.582
10554SOL     OW32560   6.447   4.793   0.003
10554SOL    HW132561   6.473   4.804   6.933
10554SOL    HW232562   6.525   4.757   0.054
10555SOL     OW32563   3.419   1.780   1.961
10555SOL    HW132564   3.378   1.752   2.048
10555SOL    HW232565   3.424   1.880   1.958
10556SOL     OW32566   2.143   3.512   5.154
10556SOL    HW132567   2.151   3.546   5.060
10556SOL    HW232568   2.197   3.570   5.215
10557SOL     OW32569   0.449   2.566   2.926
10557SOL    HW132570   0.511   2.644   2.915
10557SOL    HW232571   0.426   2.529   2.836
10558SOL     OW32572   4.650   6.438   5.263
10558SOL    HW132573   4.606   6.472   5.347
10558SOL    HW232574   4.720   6.504   5.234
10559SOL     OW32575   4.083   1.796   0.990
10559SOL    HW132576   4.118   1.773   0.899
10559SOL    HW232577   4.032   1.882   0.985
10560SOL     OW32578   1.489   4.927   5.218
10560SOL    HW132579   1.393   4.907   5.199
10560SOL    HW232580   1.547   4.862   5.170
10561SOL     OW32581   1.785   5.124   0.044
10561SOL    HW132582   1.734   5.066   0.108
10561SOL    HW232583   1.780   5.084   6.979
10562SOL     OW32584   4.748   0.107   0.708
10562SOL    HW132585   4.743   0.157   0.622
10562SOL    HW232586   4.686   0.028   0.705
10563SOL     OW32587   1.839   1.685   4.938
10563SOL    HW132588   1.896   1.710   5.016
10563SOL    HW232589   1.895   1.680   4.855
10564SOL     OW32590   5.882   0.801   1.721
10564SOL    HW132591   5.866   0.840   1.630
10564SOL    HW232592   5.970   0.833   1.756
10565SOL     OW32593   6.546   1.168   5.500
10565SOL    HW132594   6.553   1.084   5.554
10565SOL    HW232595   6.451   1.183   5.474
10566SOL     OW32596   3.317   3.927   6.285
10566SOL    HW132597   3.397   3.882   6.246
10566SOL    HW232598   3.286   3.999   6.224
10567SOL     OW32599   1.687   3.511   4.500
10567SOL    HW132600   1.745   3.527   4.420
10567SOL    HW232601   1.744   3.501   4.582
10568SOL     OW32602   6.017   1.198   2.205
10568SOL    HW132603   6.069   1.204   2.119
10568SOL    HW232604   5.924   1.168   2.186
10569SOL     OW32605   6.022   3.127   2.290
10569SOL    HW132606   6.002   3.211   2.340
10569SOL    HW232607   5.961   3.120   2.210
10570SOL     OW32608   1.877   4.586   2.603
10570SOL    HW132609   1.943   4.530   2.553
10570SOL    HW232610   1.830   4.529   2.671
10571SOL     OW32611   6.605   5.412   3.287
10571SOL    HW132612   6.639   5.377   3.200
10571SOL    HW232613   6.612   5.512   3.289
10572SOL     OW32614   5.578   3.457   2.633
10572SOL    HW132615   5.551   3.553   2.622
10572SOL    HW232616   5.602   3.419   2.544
10573SOL     OW32617   5.721   5.889   3.736
10573SOL    HW132618   5.720   5.789   3.728
10573SOL    HW232619   5.642   5.927   3.688
10574SOL     OW32620   1.505   2.021   3.755
10574SOL    HW132621   1.477   2.111   3.788
10574SOL    HW232622   1.604   2.012   3.764
10575SOL     OW32623   0.765   0.733   4.349
10575SOL    HW132624   0.816   0.820   4.354
10575SOL    HW232625   0.674   0.751   4.312
10576SOL     OW32626   1.716   6.057   5.452
10576SOL    HW132627   1.687   6.065   5.548
10576SOL    HW232628   1.774   5.976   5.441
10577SOL     OW32629   1.991   3.089   6.326
10577SOL    HW132630   1.947   3.179   6.327
10577SOL    HW232631   2.030   3.072   6.236
10578SOL     OW32632   5.632   0.477   5.223
10578SOL    HW132633   5.533   0.467   5.237
10578SOL    HW232634   5.668   0.397   5.175
10579SOL     OW32635   4.057   1.337   0.889
10579SOL    HW132636   3.999   1.269   0.845
10579SOL    HW232637   4.073   1.413   0.827
10580SOL     OW32638   6.507   6.330   6.563
10580SOL    HW132639   6.436   6.269   6.530
10580SOL    HW232640   6.556   6.370   6.485
10581SOL     OW32641   6.177   0.687   3.191
10581SOL    HW132642   6.247   0.616   3.200
10581SOL    HW232643   6.180   0.748   3.269
10582SOL     OW32644   3.298   5.076   0.435
10582SOL    HW132645   3.236   5.091   0.358
10582SOL    HW232646   3.343   5.162   0.459
10583SOL     OW32647   3.757   0.939   6.826
10583SOL    HW132648   3.834   0.917   6.885
10583SOL    HW232649   3.678   0.883   6.852
10584SOL     OW32650   5.716   6.025   1.391
10584SOL    HW132651   5.746   5.930   1.379
10584SOL    HW232652   5.712   6.047   1.488
10585SOL     OW32653   1.458   3.306   5.946
10585SOL    HW132654   1.365   3.268   5.952
10585SOL    HW232655   1.456   3.391   5.894
10586SOL     OW32656   2.642   5.979   5.929
10586SOL    HW132657   2.725   6.012   5.884
10586SOL    HW232658   2.629   5.882   5.909
10587SOL     OW32659   6.114   3.480   0.173
10587SOL    HW132660   6.091   3.384   0.158
10587SOL    HW232661   6.039   3.526   0.221
10588SOL     OW32662   0.905   4.653   2.317
10588SOL    HW132663   0.948   4.582   2.374
10588SOL    HW232664   0.809   4.629   2.301
10589SOL     OW32665   5.730   2.598   4.140
10589SOL    HW132666   5.828   2.611   4.123
10589SOL    HW232667   5.715   2.582   4.237
10590SOL     OW32668   1.310   6.862   3.017
10590SOL    HW132669   1.318   6.785   2.954
10590SOL    HW232670   1.342   6.945   2.973
10591SOL     OW32671   1.673   1.556   5.713
10591SOL    HW132672   1.689   1.480   5.650
10591SOL    HW232673   1.750   1.562   5.777
10592SOL     OW32674   6.725   1.399   7.011
10592SOL    HW132675   6.671   1.322   0.020
10592SOL    HW232676   6.821   1.385   0.009
10593SOL     OW32677   2.445   5.757   1.623
10593SOL    HW132678   2.534   5.727   1.658
10593SOL    HW232679   2.386   5.677   1.610
10594SOL     OW32680   6.256   1.887   3.581
10594SOL    HW132681   6.320   1.964   3.584
10594SOL    HW232682   6.285   1.817   3.647
10595SOL     OW32683   3.233   6.869   5.946
10595SOL    HW132684   3.184   6.869   6.033
10595SOL    HW232685   3.275   6.780   5.931
10596SOL     OW32686   4.112   6.774   2.078
10596SOL    HW132687   4.120   6.758   2.177
10596SOL    HW232688   4.130   6.871   2.059
10597SOL     OW32689   2.541   1.355   4.591
10597SOL    HW132690   2.470   1.421   4.616
10597SOL    HW232691   2.563   1.300   4.672
10598SOL     OW32692   2.256   2.788   7.019
10598SOL    HW132693   2.191   2.801   6.943
10598SOL    HW232694   2.257   2.871   0.049
10599SOL     OW32695   6.351   1.393   6.963
10599SOL    HW132696   6.260   1.382   6.922
10599SOL    HW232697   6.395   1.303   6.971
10600SOL     OW32698   2.690   3.069   6.277
10600SOL    HW132699   2.698   3.157   6.232
10600SOL    HW232700   2.725   2.997   6.218
10601SOL     OW32701   2.851   6.461   6.308
10601SOL    HW132702   2.755   6.463   6.336
10601SOL    HW232703   2.856   6.458   6.208
10602SOL     OW32704   4.593   1.107   1.439
10602SOL    HW132705   4.621   1.015   1.410
10602SOL    HW232706   4.504   1.102   1.483
10603SOL     OW32707   1.422   6.063   3.880
10603SOL    HW132708   1.344   6.005   3.857
10603SOL    HW232709   1.505   6.007   3.886
10604SOL     OW32710   6.631   4.265   4.580
10604SOL    HW132711   6.614   4.167   4.586
10604SOL    HW232712   6.643   4.302   4.672
10605SOL     OW32713   1.071   5.420   0.496
10605SOL    HW132714   1.007   5.347   0.472
10605SOL    HW232715   1.102   5.407   0.590
10606SOL     OW32716   0.137   0.881   1.680
10606SOL    HW132717   0.080   0.902   1.601
10606SOL    HW232718   0.159   0.965   1.729
10607SOL     OW32719   4.360   4.588   6.362
10607SOL    HW132720   4.371   4.683   6.391
10607SOL    HW232721   4.264   4.569   6.344
10608SOL     OW32722   5.871   1.543   4.453
10608SOL    HW132723   5.862   1.601   4.372
10608SOL    HW232724   5.794   1.561   4.515
10609SOL     OW32725   3.993   5.890   1.123
10609SOL    HW132726   4.035   5.979   1.107
10609SOL    HW232727   3.968   5.881   1.219
10610SOL     OW32728   1.521   3.587   6.215
10610SOL    HW132729   1.535   3.684   6.197
10610SOL    HW232730   1.427   3.573   6.248
10611SOL     OW32731   5.322   2.750   6.005
10611SOL    HW132732   5.230   2.786   5.996
10611SOL    HW232733   5.320   2.650   6.000
10612SOL     OW32734   2.515   0.292   6.217
10612SOL    HW132735   2.594   0.262   6.164
10612SOL    HW232736   2.502   0.390   6.204
10613SOL     OW32737   0.614   6.876   5.392
10613SOL    HW132738   0.574   6.860   5.302
10613SOL    HW232739   0.546   6.857   5.463
10614SOL     OW32740   6.541   1.003   4.485
10614SOL    HW132741   6.543   0.952   4.571
10614SOL    HW232742   6.590   0.951   4.415
10615SOL     OW32743   4.801   5.587   5.064
10615SOL    HW132744   4.751   5.646   5.127
10615SOL    HW232745   4.885   5.633   5.034
10616SOL     OW32746   2.963   6.144   0.587
10616SOL    HW132747   3.024   6.209   0.542
10616SOL    HW232748   2.892   6.194   0.637
10617SOL     OW32749   2.212   2.648   0.213
10617SOL    HW132750   2.206   2.692   0.124
10617SOL    HW232751   2.145   2.573   0.218
10618SOL     OW32752   6.328   2.269   0.514
10618SOL    HW132753   6.303   2.201   0.583
10618SOL    HW232754   6.262   2.266   0.439
10619SOL     OW32755   0.723   3.989   3.136
10619SOL    HW132756   0.764   4.070   3.094
10619SOL    HW232757   0.731   3.912   3.072
10620SOL     OW32758   1.439   6.253   5.110
10620SOL    HW132759   1.407   6.164   5.142
10620SOL    HW232760   1.440   6.254   5.010
10621SOL     OW32761   1.484   5.770   6.728
10621SOL    HW132762   1.417   5.774   6.654
10621SOL    HW232763   1.439   5.795   6.814
10622SOL     OW32764   4.106   0.027   1.963
10622SOL    HW132765   4.107   0.117   2.006
10622SOL    HW232766   4.127   0.035   1.866
10623SOL     OW32767   5.810   2.596   3.622
10623SOL    HW132768   5.762   2.624   3.705
10623SOL    HW232769   5.876   2.524   3.644
10624SOL     OW32770   1.695   0.896   4.702
10624SOL    HW132771   1.671   0.973   4.642
10624SOL    HW232772   1.786   0.913   4.742
10625SOL     OW32773   0.555   3.553   6.836
10625SOL    HW132774   0.641   3.596   6.866
10625SOL    HW232775   0.575   3.483   6.768
10626SOL     OW32776   1.180   2.053   1.958
10626SOL    HW132777   1.195   2.015   1.867
10626SOL    HW232778   1.166   1.979   2.023
10627SOL     OW32779   6.707   6.669   2.564
10627SOL    HW132780   6.667   6.585   2.526
10627SOL    HW232781   6.757   6.647   2.648
10628SOL     OW32782   6.311   5.105   5.023
10628SOL    HW132783   6.406   5.075   5.008
10628SOL    HW232784   6.286   5.092   5.119
10629SOL     OW32785   2.271   4.903   5.942
10629SOL    HW132786   2.217   4.986   5.955
10629SOL    HW232787   2.295   4.864   6.031
10630SOL     OW32788   6.152   0.797   2.928
10630SOL    HW132789   6.052   0.794   2.924
10630SOL    HW232790   6.183   0.759   3.015
10631SOL     OW32791   0.480   6.850   3.824
10631SOL    HW132792   0.538   6.881   3.748
10631SOL    HW232793   0.533   6.850   3.908
10632SOL     OW32794   6.493   2.471   4.530
10632SOL    HW132795   6.440   2.403   4.480
10632SOL    HW232796   6.431   2.538   4.570
10633SOL     OW32797   2.620   4.994   1.489
10633SOL    HW132798   2.541   4.945   1.525
10633SOL    HW232799   2.591   5.085   1.458
10634SOL     OW32800   2.882   5.815   1.112
10634SOL    HW132801   2.899   5.912   1.131
10634SOL    HW232802   2.963   5.761   1.138
10635SOL     OW32803   2.956   0.683   0.877
10635SOL    HW132804   3.046   0.645   0.899
10635SOL    HW232805   2.960   0.783   0.880
10636SOL     OW32806   0.802   1.990   1.606
10636SOL    HW132807   0.758   1.931   1.673
10636SOL    HW232808   0.782   1.957   1.514
10637SOL     OW32809   3.354   4.199   5.261
10637SOL    HW132810   3.314   4.248   5.338
10637SOL    HW232811   3.437   4.246   5.230
10638SOL     OW32812   6.570   6.299   4.425
10638SOL    HW132813   6.515   6.338   4.351
10638SOL    HW232814   6.629   6.370   4.464
10639SOL     OW32815   0.656   0.933   4.865
10639SOL    HW132816   0.570   0.890   4.840
10639SOL    HW232817   0.706   0.873   4.928
10640SOL     OW32818   5.148   0.432   0.200
10640SOL    HW132819   5.164   0.477   0.112
10640SOL    HW232820   5.190   0.486   0.273
10641SOL     OW32821   5.041   1.712   0.090
10641SOL    HW132822   4.989   1.765   0.157
10641SOL    HW232823   4.996   1.625   0.073
10642SOL     OW32824   0.469   1.949   1.772
10642SOL    HW132825   0.555   1.897   1.769
10642SOL    HW232826   0.392   1.887   1.786
10643SOL     OW32827   2.292   3.778   5.317
10643SOL    HW132828   2.352   3.855   5.293
10643SOL    HW232829   2.347   3.703   5.354
10644SOL     OW32830   4.627   1.603   4.174
10644SOL    HW132831   4.666   1.517   4.205
10644SOL    HW232832   4.534   1.588   4.141
10645SOL     OW32833   1.616   0.446   4.614
10645SOL    HW132834   1.584   0.353   4.631
10645SOL    HW232835   1.550   0.493   4.556
10646SOL     OW32836   1.136   2.685   5.724
10646SOL    HW132837   1.227   2.648   5.738
10646SOL    HW232838   1.139   2.785   5.730
10647SOL     OW32839   6.323   4.956   0.624
10647SOL    HW132840   6.253   4.960   0.552
10647SOL    HW232841   6.349   5.049   0.651
10648SOL     OW32842   4.610   3.323   6.419
10648SOL    HW132843   4.629   3.275   6.333
10648SOL    HW232844   4.688   3.381   6.443
10649SOL     OW32845   0.084   5.041   5.774
10649SOL    HW132846   0.153   5.111   5.756
10649SOL    HW232847   0.029   5.026   5.692
10650SOL     OW32848   2.357   6.261   3.965
10650SOL    HW132849   2.408   6.182   3.934
10650SOL    HW232850   2.375   6.276   4.062
10651SOL     OW32851   5.016   6.784   5.731
10651SOL    HW132852   4.987   6.709   5.672
10651SOL    HW232853   5.070   6.849   5.679
10652SOL     OW32854   3.382   0.507   6.242
10652SOL    HW132855   3.428   0.566   6.176
10652SOL    HW232856   3.344   0.428   6.195
10653SOL     OW32857   5.056   4.624   4.296
10653SOL    HW132858   5.124   4.588   4.360
10653SOL    HW232859   5.025   4.551   4.235
10654SOL     OW32860   2.910   0.597   1.487
10654SOL    HW132861   2.860   0.521   1.527
10654SOL    HW232862   2.862   0.683   1.505
10655SOL     OW32863   3.340   6.203   1.961
10655SOL    HW132864   3.247   6.174   1.985
10655SOL    HW232865   3.400   6.123   1.956
10656SOL     OW32866   6.246   2.107   0.144
10656SOL    HW132867   6.331   2.055   0.147
10656SOL    HW232868   6.192   2.089   0.225
10657SOL     OW32869   5.422   0.042   1.034
10657SOL    HW132870   5.509   0.008   1.069
10657SOL    HW232871   5.354   0.042   1.107
10658SOL     OW32872   1.159   5.438   3.916
10658SOL    HW132873   1.071   5.405   3.883
10658SOL    HW232874   1.145   5.494   3.998
10659SOL     OW32875   5.738   0.255   0.673
10659SOL    HW132876   5.749   0.196   0.753
10659SOL    HW232877   5.776   0.346   0.693
10660SOL     OW32878   3.991   4.005   5.533
10660SOL    HW132879   3.947   3.919   5.510
10660SOL    HW232880   4.089   3.991   5.546
10661SOL     OW32881   0.494   6.382   2.121
10661SOL    HW132882   0.499   6.459   2.058
10661SOL    HW232883   0.585   6.366   2.160
10662SOL     OW32884   6.757   1.689   0.564
10662SOL    HW132885   6.712   1.736   0.488
10662SOL    HW232886   6.856   1.689   0.549
10663SOL     OW32887   0.340   0.349   0.758
10663SOL    HW132888   0.416   0.414   0.763
10663SOL    HW232889   0.359   0.280   0.689
10664SOL     OW32890   2.072   4.916   0.332
10664SOL    HW132891   2.026   5.002   0.314
10664SOL    HW232892   2.005   4.847   0.360
10665SOL     OW32893   6.980   2.433   0.616
10665SOL    HW132894   6.938   2.382   0.541
10665SOL    HW232895   6.933   2.413   0.702
10666SOL     OW32896   2.399   5.928   0.016
10666SOL    HW132897   2.451   5.981   6.976
10666SOL    HW232898   2.334   5.987   0.063
10667SOL     OW32899   3.861   1.927   5.780
10667SOL    HW132900   3.809   1.982   5.715
10667SOL    HW232901   3.804   1.853   5.815
10668SOL     OW32902   1.623   1.996   6.635
10668SOL    HW132903   1.563   1.915   6.630
10668SOL    HW232904   1.593   2.063   6.567
10669SOL     OW32905   1.685   0.018   0.023
10669SOL    HW132906   1.656   0.114   0.011
10669SOL    HW232907   1.763   7.025   6.989
10670SOL     OW32908   5.486   4.479   5.555
10670SOL    HW132909   5.513   4.393   5.512
10670SOL    HW232910   5.469   4.464   5.652
10671SOL     OW32911   2.434   2.677   2.890
10671SOL    HW132912   2.530   2.681   2.917
10671SOL    HW232913   2.428   2.645   2.795
10672SOL     OW32914   0.556   2.407   1.076
10672SOL    HW132915   0.516   2.448   1.158
10672SOL    HW232916   0.484   2.368   1.019
10673SOL     OW32917   2.663   3.096   5.360
10673SOL    HW132918   2.750   3.062   5.324
10673SOL    HW232919   2.590   3.078   5.294
10674SOL     OW32920   4.004   3.313   1.613
10674SOL    HW132921   3.936   3.318   1.541
10674SOL    HW232922   4.096   3.316   1.573
10675SOL     OW32923   0.306   6.899   5.478
10675SOL    HW132924   0.304   6.992   5.514
10675SOL    HW232925   0.281   6.835   5.549
10676SOL     OW32926   5.969   0.044   6.481
10676SOL    HW132927   5.872   0.020   6.488
10676SOL    HW232928   6.024   7.004   6.531
10677SOL     OW32929   0.216   0.548   1.249
10677SOL    HW132930   0.240   0.454   1.222
10677SOL    HW232931   0.241   0.562   1.345
10678SOL     OW32932   2.153   5.879   2.309
10678SOL    HW132933   2.125   5.967   2.271
10678SOL    HW232934   2.073   5.822   2.326
10679SOL     OW32935   5.406   5.174   3.972
10679SOL    HW132936   5.348   5.131   4.041
10679SOL    HW232937   5.422   5.270   3.996
10680SOL     OW32938   1.205   3.567   2.585
10680SOL    HW132939   1.228   3.485   2.533
10680SOL    HW232940   1.169   3.540   2.675
10681SOL     OW32941   6.525   2.613   5.706
10681SOL    HW132942   6.469   2.531   5.702
10681SOL    HW232943   6.470   2.689   5.742
10682SOL     OW32944   0.246   0.998   2.448
10682SOL    HW132945   0.160   1.025   2.405
10682SOL    HW232946   0.259   0.899   2.438
10683SOL     OW32947   1.522   1.830   4.599
10683SOL    HW132948   1.609   1.799   4.636
10683SOL    HW232949   1.533   1.855   4.503
10684SOL     OW32950   6.256   4.524   7.020
10684SOL    HW132951   6.330   4.590   0.010
10684SOL    HW232952   6.230   4.526   6.924
10685SOL     OW32953   0.377   3.030   3.299
10685SOL    HW132954   0.291   3.018   3.349
10685SOL    HW232955   0.428   3.106   3.339
10686SOL     OW32956   2.973   5.593   0.661
10686SOL    HW132957   3.020   5.595   0.749
10686SOL    HW232958   3.012   5.520   0.604
10687SOL     OW32959   0.251   4.830   2.819
10687SOL    HW132960   0.320   4.804   2.751
10687SOL    HW232961   0.287   4.904   2.876
10688SOL     OW32962   6.887   4.796   1.840
10688SOL    HW132963   6.917   4.884   1.875
10688SOL    HW232964   6.810   4.763   1.894
10689SOL     OW32965   0.420   0.578   2.643
10689SOL    HW132966   0.434   0.504   2.578
10689SOL    HW232967   0.478   0.563   2.724
10690SOL     OW32968   4.660   4.880   1.980
10690SOL    HW132969   4.720   4.910   2.054
10690SOL    HW232970   4.595   4.812   2.016
10691SOL     OW32971   6.816   1.349   1.713
10691SOL    HW132972   6.845   1.444   1.709
10691SOL    HW232973   6.762   1.334   1.796
10692SOL     OW32974   3.421   5.734   3.705
10692SOL    HW132975   3.508   5.783   3.707
10692SOL    HW232976   3.435   5.641   3.737
10693SOL     OW32977   6.618   1.613   1.764
10693SOL    HW132978   6.671   1.622   1.680
10693SOL    HW232979   6.628   1.521   1.800
10694SOL     OW32980   4.585   6.519   0.802
10694SOL    HW132981   4.584   6.464   0.886
10694SOL    HW232982   4.658   6.587   0.808
10695SOL     OW32983   6.971   2.196   3.932
10695SOL    HW132984   6.940   2.286   3.963
10695SOL    HW232985   6.938   2.179   3.840
10696SOL     OW32986   6.995   5.861   1.441
10696SOL    HW132987   7.006   5.799   1.362
10696SOL    HW232988   6.905   5.847   1.482
10697SOL     OW32989   1.180   6.223   4.645
10697SOL    HW132990   1.175   6.292   4.717
10697SOL    HW232991   1.142   6.137   4.678
10698SOL     OW32992   2.779   6.967   3.892
10698SOL    HW132993   2.757   6.986   3.988
10698SOL    HW232994   2.799   0.026   3.845
10699SOL     OW32995   3.232   2.094   2.853
10699SOL    HW132996   3.273   2.105   2.763
10699SOL    HW232997   3.297   2.048   2.914
10700SOL     OW32998   6.973   6.607   1.267
10700SOL    HW132999   6.917   6.683   1.236
10700SOL    HW233000   6.965   6.531   1.202
10701SOL     OW33001   2.928   6.476   0.491
10701SOL    HW133002   2.974   6.422   0.422
10701SOL    HW233003   2.836   6.441   0.505
10702SOL     OW33004   6.049   2.461   0.578
10702SOL    HW133005   5.988   2.399   0.628
10702SOL    HW233006   6.053   2.433   0.482
10703SOL     OW33007   4.099   3.741   3.887
10703SOL    HW133008   4.025   3.781   3.941
10703SOL    HW233009   4.167   3.700   3.948
10704SOL     OW33010   4.976   0.292   2.371
10704SOL    HW133011   4.899   0.247   2.326
10704SOL    HW233012   4.984   0.258   2.464
10705SOL     OW33013   6.914   3.139   6.085
10705SOL    HW133014   6.827   3.136   6.135
10705SOL    HW233015   6.911   3.214   6.019
10706SOL     OW33016   3.316   0.865   2.670
10706SOL    HW133017   3.300   0.767   2.675
10706SOL    HW233018   3.259   0.912   2.738
10707SOL     OW33019   5.996   0.157   5.935
10707SOL    HW133020   6.028   0.077   5.886
10707SOL    HW233021   6.068   0.191   5.995
10708SOL     OW33022   4.326   1.087   0.486
10708SOL    HW133023   4.310   1.095   0.388
10708SOL    HW233024   4.374   1.001   0.505
10709SOL     OW33025   5.941   6.735   5.670
10709SOL    HW133026   5.865   6.795   5.646
10709SOL    HW233027   5.943   6.657   5.607
10710SOL     OW33028   6.267   5.060   3.431
10710SOL    HW133029   6.326   5.115   3.372
10710SOL    HW233030   6.231   5.117   3.505
10711SOL     OW33031   1.594   0.121   3.813
10711SOL    HW133032   1.531   0.048   3.840
10711SOL    HW233033   1.614   0.178   3.892
10712SOL     OW33034   3.542   1.181   5.125
10712SOL    HW133035   3.462   1.223   5.083
10712SOL    HW233036   3.596   1.134   5.056
10713SOL     OW33037   1.171   5.903   1.379
10713SOL    HW133038   1.222   5.844   1.316
10713SOL    HW233039   1.173   5.997   1.346
10714SOL     OW33040   6.876   5.297   5.551
10714SOL    HW133041   6.921   5.212   5.524
10714SOL    HW233042   6.867   5.299   5.651
10715SOL     OW33043   5.016   1.810   4.567
10715SOL    HW133044   5.000   1.841   4.661
10715SOL    HW233045   4.945   1.848   4.508
10716SOL     OW33046   6.523   0.331   3.944
10716SOL    HW133047   6.461   0.387   3.998
10716SOL    HW233048   6.495   0.235   3.948
10717SOL     OW33049   0.312   0.330   1.449
10717SOL    HW133050   0.363   0.374   1.523
10717SOL    HW233051   0.233   0.282   1.486
10718SOL     OW33052   6.101   5.227   0.029
10718SOL    HW133053   6.158   5.146   0.044
10718SOL    HW233054   6.077   5.267   0.117
10719SOL     OW33055   5.563   0.484   1.997
10719SOL    HW133056   5.466   0.508   2.005
10719SOL    HW233057   5.574   0.386   2.013
10720SOL     OW33058   0.190   3.736   6.428
10720SOL    HW133059   0.266   3.771   6.482
10720SOL    HW233060   0.225   3.688   6.348
10721SOL     OW33061   5.174   2.599   4.784
10721SOL    HW133062   5.272   2.578   4.790
10721SOL    HW233063   5.161   2.688   4.742
10722SOL     OW33064   6.993   3.549   0.007
10722SOL    HW133065   7.011   3.488   6.956
10722SOL    HW233066   7.024   3.641   7.011
10723SOL     OW33067   5.755   3.915   6.616
10723SOL    HW133068   5.663   3.950   6.601
10723SOL    HW233069   5.769   3.899   6.714
10724SOL     OW33070   4.262   6.404   6.526
10724SOL    HW133071   4.188   6.404   6.458
10724SOL    HW233072   4.226   6.374   6.614
10725SOL     OW33073   6.902   6.070   5.134
10725SOL    HW133074   6.810   6.056   5.096
10725SOL    HW233075   6.970   6.061   5.061
10726SOL     OW33076   4.897   1.120   4.372
10726SOL    HW133077   4.835   1.142   4.447
10726SOL    HW233078   4.988   1.099   4.408
10727SOL     OW33079   2.297   6.580   5.656
10727SOL    HW133080   2.343   6.493   5.674
10727SOL    HW233081   2.330   6.618   5.570
10728SOL     OW33082   5.094   6.084   3.189
10728SOL    HW133083   5.013   6.139   3.209
10728SOL    HW233084   5.133   6.112   3.102
10729SOL     OW33085   5.841   2.581   2.761
10729SOL    HW133086   5.843   2.622   2.670
10729SOL    HW233087   5.748   2.586   2.798
10730SOL     OW33088   2.138   6.518   2.768
10730SOL    HW133089   2.162   6.509   2.865
10730SOL    HW233090   2.051   6.473   2.751
10731SOL     OW33091   3.253   6.973   6.513
10731SOL    HW133092   3.272   0.007   6.590
10731SOL    HW233093   3.337   6.961   6.459
10732SOL     OW33094   5.929   5.962   3.467
10732SOL    HW133095   5.888   5.999   3.550
10732SOL    HW233096   5.993   5.889   3.491
10733SOL     OW33097   0.129   0.578   5.872
10733SOL    HW133098   0.040   0.598   5.913
10733SOL    HW233099   0.193   0.550   5.943
10734SOL     OW33100   1.376   1.299   5.407
10734SOL    HW133101   1.331   1.324   5.493
10734SOL    HW233102   1.422   1.211   5.418
10735SOL     OW33103   1.339   5.278   1.797
10735SOL    HW133104   1.424   5.227   1.784
10735SOL    HW233105   1.276   5.258   1.722
10736SOL     OW33106   6.003   0.064   3.896
10736SOL    HW133107   5.918   0.115   3.882
10736SOL    HW233108   6.005   7.011   3.834
10737SOL     OW33109   6.654   1.389   1.921
10737SOL    HW133110   6.605   1.309   1.956
10737SOL    HW233111   6.710   1.429   1.993
10738SOL     OW33112   3.197   0.836   1.732
10738SOL    HW133113   3.265   0.849   1.805
10738SOL    HW233114   3.187   0.921   1.681
10739SOL     OW33115   6.056   2.423   2.870
10739SOL    HW133116   6.085   2.389   2.780
10739SOL    HW233117   5.974   2.479   2.859
10740SOL     OW33118   1.358   6.665   6.238
10740SOL    HW133119   1.422   6.605   6.190
10740SOL    HW233120   1.309   6.614   6.308
10741SOL     OW33121   2.544   2.461   3.553
10741SOL    HW133122   2.508   2.517   3.628
10741SOL    HW233123   2.582   2.377   3.590
10742SOL     OW33124   6.128   6.127   3.209
10742SOL    HW133125   6.124   6.042   3.156
10742SOL    HW233126   6.056   6.126   3.279
10743SOL     OW33127   3.594   1.115   5.895
10743SOL    HW133128   3.544   1.156   5.971
10743SOL    HW233129   3.677   1.167   5.877
10744SOL     OW33130   1.796   0.360   0.345
10744SOL    HW133131   1.727   0.308   0.295
10744SOL    HW233132   1.780   0.351   0.443
10745SOL     OW33133   2.223   4.841   1.277
10745SOL    HW133134   2.173   4.783   1.212
10745SOL    HW233135   2.196   4.817   1.370
10746SOL     OW33136   1.801   6.253   6.205
10746SOL    HW133137   1.753   6.262   6.118
10746SOL    HW233138   1.788   6.336   6.259
10747SOL     OW33139   6.302   1.546   4.862
10747SOL    HW133140   6.264   1.457   4.836
10747SOL    HW233141   6.349   1.538   4.950
10748SOL     OW33142   4.004   6.262   1.284
10748SOL    HW133143   4.050   6.304   1.362
10748SOL    HW233144   3.908   6.291   1.283
10749SOL     OW33145   5.557   5.486   2.533
10749SOL    HW133146   5.512   5.533   2.457
10749SOL    HW233147   5.629   5.427   2.497
10750SOL     OW33148   4.934   2.343   4.119
10750SOL    HW133149   4.874   2.276   4.076
10750SOL    HW233150   4.957   2.414   4.053
10751SOL     OW33151   0.435   5.091   5.265
10751SOL    HW133152   0.360   5.061   5.206
10751SOL    HW233153   0.503   5.019   5.272
10752SOL     OW33154   6.266   6.440   1.021
10752SOL    HW133155   6.185   6.418   0.966
10752SOL    HW233156   6.325   6.359   1.026
10753SOL     OW33157   4.811   6.164   3.949
10753SOL    HW133158   4.823   6.259   3.979
10753SOL    HW233159   4.714   6.140   3.950
10754SOL     OW33160   1.384   3.555   1.585
10754SOL    HW133161   1.471   3.506   1.590
10754SOL    HW233162   1.335   3.543   1.672
10755SOL     OW33163   6.351   3.237   1.198
10755SOL    HW133164   6.318   3.318   1.148
10755SOL    HW233165   6.383   3.265   1.288
10756SOL     OW33166   0.197   2.348   1.074
10756SOL    HW133167   0.249   2.262   1.075
10756SOL    HW233168   0.108   2.332   1.030
10757SOL     OW33169   6.923   3.948   1.411
10757SOL    HW133170   6.975   4.024   1.449
10757SOL    HW233171   6.980   3.865   1.412
10758SOL     OW33172   0.658   0.246   6.799
10758SOL    HW133173   0.666   0.228   6.897
10758SOL    HW233174   0.731   0.308   6.770
10759SOL     OW33175   2.565   2.405   6.320
10759SOL    HW133176   2.603   2.356   6.399
10759SOL    HW233177   2.466   2.393   6.318
10760SOL     OW33178   0.499   5.196   0.350
10760SOL    HW133179   0.421   5.248   0.317
10760SOL    HW233180   0.507   5.208   0.449
10761SOL     OW33181   0.562   1.546   6.066
10761SOL    HW133182   0.464   1.567   6.068
10761SOL    HW233183   0.598   1.566   5.975
10762SOL     OW33184   3.716   6.502   6.318
10762SOL    HW133185   3.794   6.440   6.317
10762SOL    HW233186   3.673   6.503   6.228
10763SOL     OW33187   5.205   0.550   3.015
10763SOL    HW133188   5.169   0.461   3.040
10763SOL    HW233189   5.133   0.619   3.022
10764SOL     OW33190   4.014   0.808   4.711
10764SOL    HW133191   3.991   0.826   4.807
10764SOL    HW233192   4.012   0.894   4.660
10765SOL     OW33193   6.897   1.678   2.985
10765SOL    HW133194   6.894   1.778   2.978
10765SOL    HW233195   6.985   1.645   2.952
10766SOL     OW33196   1.954   5.007   6.054
10766SOL    HW133197   2.014   5.018   6.134
10766SOL    HW233198   1.952   5.092   6.002
10767SOL     OW33199   1.763   5.679   0.443
10767SOL    HW133200   1.668   5.693   0.415
10767SOL    HW233201   1.821   5.668   0.362
10768SOL     OW33202   5.788   5.893   0.514
10768SOL    HW133203   5.691   5.917   0.517
10768SOL    HW233204   5.842   5.976   0.508
10769SOL     OW33205   3.174   3.367   4.643
10769SOL    HW133206   3.102   3.434   4.631
10769SOL    HW233207   3.239   3.373   4.567
10770SOL     OW33208   5.187   6.898   4.008
10770SOL    HW133209   5.250   6.879   4.084
10770SOL    HW233210   5.151   6.991   4.017
10771SOL     OW33211   4.894   6.016   5.751
10771SOL    HW133212   4.968   6.030   5.686
10771SOL    HW233213   4.910   6.071   5.833
10772SOL     OW33214   5.813   4.765   2.757
10772SOL    HW133215   5.881   4.699   2.723
10772SOL    HW233216   5.819   4.849   2.703
10773SOL     OW33217   6.558   4.732   0.971
10773SOL    HW133218   6.568   4.783   0.886
10773SOL    HW233219   6.469   4.752   1.012
10774SOL     OW33220   1.559   3.214   0.511
10774SOL    HW133221   1.500   3.138   0.540
10774SOL    HW233222   1.655   3.187   0.519
10775SOL     OW33223   0.870   4.235   1.384
10775SOL    HW133224   0.802   4.242   1.311
10775SOL    HW233225   0.881   4.324   1.428
10776SOL     OW33226   1.280   2.020   3.300
10776SOL    HW133227   1.291   1.956   3.224
10776SOL    HW233228   1.211   2.088   3.277
10777SOL     OW33229   3.524   1.363   2.179
10777SOL    HW133230   3.481   1.368   2.089
10777SOL    HW233231   3.562   1.453   2.203
10778SOL     OW33232   6.175   6.292   3.600
10778SOL    HW133233   6.090   6.251   3.568
10778SOL    HW233234   6.175   6.293   3.700
10779SOL     OW33235   5.550   3.992   4.272
10779SOL    HW133236   5.546   4.017   4.369
10779SOL    HW233237   5.461   3.958   4.243
10780SOL     OW33238   1.427   5.957   5.051
10780SOL    HW133239   1.379   5.960   4.963
10780SOL    HW233240   1.525   5.968   5.034
10781SOL     OW33241   5.822   2.016   5.469
10781SOL    HW133242   5.853   1.980   5.381
10781SOL    HW233243   5.822   2.116   5.467
10782SOL     OW33244   1.323   2.764   5.076
10782SOL    HW133245   1.353   2.677   5.037
10782SOL    HW233246   1.276   2.747   5.162
10783SOL     OW33247   1.220   2.929   2.895
10783SOL    HW133248   1.208   3.028   2.897
10783SOL    HW233249   1.299   2.906   2.839
10784SOL     OW33250   3.729   6.360   2.399
10784SOL    HW133251   3.650   6.421   2.402
10784SOL    HW233252   3.732   6.306   2.483
10785SOL     OW33253   1.703   5.992   2.393
10785SOL    HW133254   1.752   6.063   2.343
10785SOL    HW233255   1.680   5.917   2.331
10786SOL     OW33256   3.931   0.980   1.947
10786SOL    HW133257   3.921   0.881   1.943
10786SOL    HW233258   3.854   1.019   1.999
10787SOL     OW33259   3.821   1.200   3.495
10787SOL    HW133260   3.877   1.278   3.524
10787SOL    HW233261   3.833   1.124   3.559
10788SOL     OW33262   0.503   5.059   0.744
10788SOL    HW133263   0.529   5.020   0.833
10788SOL    HW233264   0.453   4.991   0.691
10789SOL     OW33265   6.431   1.499   0.353
10789SOL    HW133266   6.525   1.476   0.380
10789SOL    HW233267   6.396   1.570   0.414
10790SOL     OW33268   0.446   2.476   4.766
10790SOL    HW133269   0.353   2.442   4.751
10790SOL    HW233270   0.508   2.398   4.775
10791SOL     OW33271   1.677   1.776   3.414
10791SOL    HW133272   1.582   1.803   3.431
10791SOL    HW233273   1.686   1.744   3.319
10792SOL     OW33274   3.804   1.986   1.358
10792SOL    HW133275   3.851   1.914   1.308
10792SOL    HW233276   3.793   1.959   1.453
10793SOL     OW33277   4.440   1.259   4.995
10793SOL    HW133278   4.511   1.219   4.937
10793SOL    HW233279   4.480   1.283   5.084
10794SOL     OW33280   4.388   3.159   0.493
10794SOL    HW133281   4.300   3.164   0.541
10794SOL    HW233282   4.414   3.064   0.480
10795SOL     OW33283   0.326   3.590   3.191
10795SOL    HW133284   0.329   3.590   3.091
10795SOL    HW233285   0.420   3.593   3.227
10796SOL     OW33286   6.920   6.869   0.061
10796SOL    HW133287   6.927   6.921   0.146
10796SOL    HW233288   6.991   6.898   7.023
10797SOL     OW33289   4.095   3.869   0.361
10797SOL    HW133290   4.070   3.913   0.448
10797SOL    HW233291   4.194   3.877   0.348
10798SOL     OW33292   2.421   0.225   6.473
10798SOL    HW133293   2.461   0.238   6.382
10798SOL    HW233294   2.493   0.215   6.541
10799SOL     OW33295   2.708   1.544   2.734
10799SOL    HW133296   2.673   1.580   2.820
10799SOL    HW233297   2.740   1.619   2.676
10800SOL     OW33298   1.567   0.231   5.473
10800SOL    HW133299   1.571   0.189   5.564
10800SOL    HW233300   1.513   0.315   5.477
10801SOL     OW33301   2.807   6.414   6.034
10801SOL    HW133302   2.778   6.351   5.961
10801SOL    HW233303   2.876   6.477   5.998
10802SOL     OW33304   0.492   4.214   4.764
10802SOL    HW133305   0.565   4.171   4.816
10802SOL    HW233306   0.493   4.313   4.781
10803SOL     OW33307   6.756   4.541   5.169
10803SOL    HW133308   6.786   4.457   5.124
10803SOL    HW233309   6.727   4.521   5.263
10804SOL     OW33310   5.250   4.793   1.508
10804SOL    HW133311   5.217   4.875   1.555
10804SOL    HW233312   5.178   4.756   1.451
10805SOL     OW33313   4.384   7.011   0.803
10805SOL    HW133314   4.465   6.964   0.838
10805SOL    HW233315   4.346   6.960   0.726
10806SOL     OW33316   5.059   3.602   7.025
10806SOL    HW133317   5.038   3.700   0.007
10806SOL    HW233318   5.157   3.591   7.006
10807SOL     OW33319   4.151   6.407   3.559
10807SOL    HW133320   4.063   6.407   3.608
10807SOL    HW233321   4.225   6.414   3.625
10808SOL     OW33322   0.106   2.968   6.188
10808SOL    HW133323   0.190   2.969   6.134
10808SOL    HW233324   0.040   3.032   6.149
10809SOL     OW33325   2.509   0.548   3.433
10809SOL    HW133326   2.496   0.636   3.387
10809SOL    HW233327   2.439   0.537   3.503
10810SOL     OW33328   6.808   1.378   5.304
10810SOL    HW133329   6.788   1.325   5.387
10810SOL    HW233330   6.876   1.330   5.249
10811SOL     OW33331   4.522   4.703   5.594
10811SOL    HW133332   4.572   4.750   5.666
10811SOL    HW233333   4.472   4.626   5.632
10812SOL     OW33334   6.727   2.350   3.013
10812SOL    HW133335   6.694   2.406   2.938
10812SOL    HW233336   6.718   2.253   2.989
10813SOL     OW33337   2.698   6.074   1.749
10813SOL    HW133338   2.599   6.066   1.753
10813SOL    HW233339   2.723   6.140   1.678
10814SOL     OW33340   1.850   0.075   4.954
10814SOL    HW133341   1.882   0.044   4.864
10814SOL    HW233342   1.865   0.174   4.962
10815SOL     OW33343   5.088   2.794   3.042
10815SOL    HW133344   5.185   2.818   3.049
10815SOL    HW233345   5.061   2.738   3.120
10816SOL     OW33346   2.326   1.611   2.219
10816SOL    HW133347   2.259   1.583   2.151
10816SOL    HW233348   2.284   1.609   2.310
10817SOL     OW33349   4.432   6.683   1.945
10817SOL    HW133350   4.342   6.649   1.915
10817SOL    HW233351   4.434   6.782   1.939
10818SOL     OW33352   4.687   3.545   6.642
10818SOL    HW133353   4.672   3.459   6.690
10818SOL    HW233354   4.603   3.571   6.593
10819SOL     OW33355   0.060   3.970   6.392
10819SOL    HW133356   0.124   4.042   6.417
10819SOL    HW233357   0.106   3.881   6.400
10820SOL     OW33358   0.087   6.497   4.886
10820SOL    HW133359   0.129   6.579   4.924
10820SOL    HW233360   0.108   6.418   4.943
10821SOL     OW33361   6.646   0.687   0.777
10821SOL    HW133362   6.548   0.703   0.765
10821SOL    HW233363   6.662   0.592   0.804
10822SOL     OW33364   1.009   4.115   1.696
10822SOL    HW133365   1.054   4.050   1.758
10822SOL    HW233366   0.974   4.066   1.616
10823SOL     OW33367   1.424   0.425   0.837
10823SOL    HW133368   1.466   0.335   0.837
10823SOL    HW233369   1.325   0.415   0.823
10824SOL     OW33370   5.615   0.395   2.713
10824SOL    HW133371   5.666   0.317   2.678
10824SOL    HW233372   5.677   0.453   2.766
10825SOL     OW33373   3.536   1.238   0.859
10825SOL    HW133374   3.540   1.244   0.959
10825SOL    HW233375   3.505   1.325   0.821
10826SOL     OW33376   6.384   2.995   1.914
10826SOL    HW133377   6.367   3.016   2.010
10826SOL    HW233378   6.477   3.022   1.890
10827SOL     OW33379   0.015   2.447   4.174
10827SOL    HW133380   6.981   2.494   4.110
10827SOL    HW233381   7.004   2.455   4.267
10828SOL     OW33382   0.779   5.977   0.509
10828SOL    HW133383   0.710   5.912   0.541
10828SOL    HW233384   0.735   6.064   0.487
10829SOL     OW33385   3.034   3.431   1.419
10829SOL    HW133386   3.103   3.444   1.347
10829SOL    HW233387   2.976   3.512   1.424
10830SOL     OW33388   4.761   2.498   4.259
10830SOL    HW133389   4.836   2.434   4.243
10830SOL    HW233390   4.680   2.465   4.210
10831SOL     OW33391   5.456   1.829   2.947
10831SOL    HW133392   5.456   1.847   2.849
10831SOL    HW233393   5.366   1.794   2.975
10832SOL     OW33394   0.039   1.752   0.794
10832SOL    HW133395   0.084   1.662   0.798
10832SOL    HW233396   0.037   1.791   0.886
10833SOL     OW33397   3.297   0.011   4.773
10833SOL    HW133398   3.362   0.013   4.697
10833SOL    HW233399   3.249   0.099   4.778
10834SOL     OW33400   0.695   1.373   4.811
10834SOL    HW133401   0.762   1.389   4.739
10834SOL    HW233402   0.629   1.304   4.780
10835SOL     OW33403   6.870   1.602   2.344
10835SOL    HW133404   6.939   1.665   2.307
10835SOL    HW233405   6.787   1.653   2.367
10836SOL     OW33406   1.969   2.622   6.673
10836SOL    HW133407   2.002   2.673   6.752
10836SOL    HW233408   2.011   2.531   6.672
10837SOL     OW33409   0.617   5.277   0.594
10837SOL    HW133410   0.592   5.202   0.656
10837SOL    HW233411   0.715   5.274   0.576
10838SOL     OW33412   5.840   7.002   6.976
10838SOL    HW133413   5.789   0.002   6.894
10838SOL    HW233414   5.776   6.993   0.027
10839SOL     OW33415   2.350   1.824   0.644
10839SOL    HW133416   2.436   1.791   0.605
10839SOL    HW233417   2.369   1.894   0.713
10840SOL     OW33418   3.945   5.556   1.991
10840SOL    HW133419   4.044   5.569   1.992
10840SOL    HW233420   3.918   5.503   2.072
10841SOL     OW33421   3.648   4.841   6.559
10841SOL    HW133422   3.732   4.853   6.506
10841SOL    HW233423   3.570   4.835   6.496
10842SOL     OW33424   6.331   2.784   1.472
10842SOL    HW133425   6.290   2.751   1.557
10842SOL    HW233426   6.408   2.844   1.493
10843SOL     OW33427   0.247   1.604   1.788
10843SOL    HW133428   0.199   1.534   1.841
10843SOL    HW233429   0.343   1.578   1.777
10844SOL     OW33430   4.600   6.646   4.072
10844SOL    HW133431   4.597   6.549   4.046
10844SOL    HW233432   4.534   6.697   4.017
10845SOL     OW33433   1.820   2.658   0.798
10845SOL    HW133434   1.774   2.738   0.836
10845SOL    HW233435   1.837   2.591   0.870
10846SOL     OW33436   3.947   1.707   1.698
10846SOL    HW133437   4.047   1.717   1.698
10846SOL    HW233438   3.909   1.752   1.779
10847SOL     OW33439   4.156   3.138   6.314
10847SOL    HW133440   4.141   3.147   6.412
10847SOL    HW233441   4.243   3.181   6.289
10848SOL     OW33442   1.507   0.746   6.576
10848SOL    HW133443   1.538   0.657   6.609
10848SOL    HW233444   1.542   0.761   6.483
10849SOL     OW33445   2.830   4.769   4.168
10849SOL    HW133446   2.925   4.787   4.140
10849SOL    HW233447   2.784   4.717   4.096
10850SOL     OW33448   5.333   6.688   0.544
10850SOL    HW133449   5.332   6.761   0.476
10850SOL    HW233450   5.406   6.705   0.610
10851SOL     OW33451   4.044   2.116   6.455
10851SOL    HW133452   3.969   2.115   6.522
10851SOL    HW233453   4.033   2.193   6.393
10852SOL     OW33454   0.331   0.449   6.030
10852SOL    HW133455   0.311   0.375   6.094
10852SOL    HW233456   0.391   0.416   5.958
10853SOL     OW33457   2.169   1.368   4.497
10853SOL    HW133458   2.070   1.374   4.512
10853SOL    HW233459   2.217   1.418   4.569
10854SOL     OW33460   6.853   6.379   0.123
10854SOL    HW133461   6.821   6.441   0.051
10854SOL    HW233462   6.784   6.310   0.140
10855SOL     OW33463   1.216   6.328   0.726
10855SOL    HW133464   1.122   6.294   0.721
10855SOL    HW233465   1.257   6.325   0.635
10856SOL     OW33466   6.301   6.703   6.485
10856SOL    HW133467   6.316   6.654   6.571
10856SOL    HW233468   6.311   6.640   6.408
10857SOL     OW33469   5.895   1.307   3.985
10857SOL    HW133470   5.935   1.216   3.976
10857SOL    HW233471   5.927   1.350   4.069
10858SOL     OW33472   2.116   1.971   0.305
10858SOL    HW133473   2.078   1.932   0.222
10858SOL    HW233474   2.078   1.924   0.385
10859SOL     OW33475   0.732   4.443   1.924
10859SOL    HW133476   0.687   4.354   1.913
10859SOL    HW233477   0.672   4.515   1.891
10860SOL     OW33478   6.495   2.007   0.139
10860SOL    HW133479   6.498   1.970   0.046
10860SOL    HW233480   6.511   2.105   0.137
10861SOL     OW33481   3.270   2.888   1.986
10861SOL    HW133482   3.219   2.928   2.062
10861SOL    HW233483   3.364   2.923   1.987
10862SOL     OW33484   3.817   3.136   5.534
10862SOL    HW133485   3.723   3.123   5.503
10862SOL    HW233486   3.856   3.217   5.489
10863SOL     OW33487   1.995   1.639   3.038
10863SOL    HW133488   2.075   1.593   3.000
10863SOL    HW233489   1.995   1.631   3.138
10864SOL     OW33490   3.055   4.795   1.982
10864SOL    HW133491   3.147   4.781   1.946
10864SOL    HW233492   3.001   4.713   1.966
10865SOL     OW33493   4.107   1.313   3.339
10865SOL    HW133494   4.106   1.351   3.432
10865SOL    HW233495   4.160   1.373   3.279
10866SOL     OW33496   0.048   3.941   2.985
10866SOL    HW133497   0.002   3.868   3.035
10866SOL    HW233498   0.112   3.902   2.919
10867SOL     OW33499   4.235   3.563   0.391
10867SOL    HW133500   4.223   3.605   0.481
10867SOL    HW233501   4.330   3.536   0.379
10868SOL     OW33502   1.172   1.466   4.760
10868SOL    HW133503   1.221   1.506   4.682
10868SOL    HW233504   1.110   1.395   4.726
10869NA      NA33505   6.735   2.549   5.590
10870NA      NA33506   4.330   4.678   5.175
10871NA      NA33507   1.033   4.699   2.768
10872NA      NA33508   5.766   4.104   3.331
10873NA      NA33509   4.037   2.059   5.251
10874NA      NA33510   2.490   5.027   0.466
10875NA      NA33511   0.937   5.155   6.894
10876NA      NA33512   3.428   4.067   1.251
10877NA      NA33513   4.355   5.158   0.788
10878NA      NA33514   3.130   0.810   6.565
10879NA      NA33515   5.619   6.541   2.058
10880NA      NA33516   1.666   6.780   5.338
10881NA      NA33517   4.109   4.987   1.976
10882NA      NA33518   3.570   3.269   6.682
   7.02597   7.02597   7.02597
