Generated by trjconv : CNT in water t= 253.00000
33518
    1C        C    1   2.843   2.769   4.747
    1C        C    2   2.899   2.720   4.867
    1C        C    3   2.839   2.771   4.983
    1C        C    4   2.848   2.773   4.261
    1C        C    5   2.900   2.724   4.383
    1C        C    6   2.846   2.772   4.505
    1C        C    7   3.008   2.634   4.625
    1C        C    8   2.893   2.718   4.626
    1C        C    9   3.073   2.597   4.744
    1C        C   10   3.009   2.631   4.865
    1C        C   11   3.180   2.493   4.977
    1C        C   12   3.058   2.562   4.977
    1C        C   13   2.850   2.771   3.771
    1C        C   14   2.903   2.725   3.894
    1C        C   15   2.854   2.775   4.017
    1C        C   16   3.019   2.644   4.137
    1C        C   17   2.903   2.725   4.140
    1C        C   18   3.083   2.616   4.259
    1C        C   19   3.019   2.648   4.381
    1C        C   20   3.207   2.556   4.503
    1C        C   21   3.075   2.607   4.504
    1C        C   22   3.276   2.530   4.623
    1C        C   23   3.208   2.551   4.745
    1C        C   24   3.409   2.480   4.864
    1C        C   25   3.267   2.501   4.864
    1C        C   26   3.489   2.475   4.979
    1C        C   27   2.854   2.774   3.282
    1C        C   28   2.907   2.727   3.404
    1C        C   29   2.852   2.772   3.527
    1C        C   30   3.018   2.640   3.648
    1C        C   31   2.905   2.726   3.649
    1C        C   32   3.079   2.604   3.771
    1C        C   33   3.017   2.641   3.892
    1C        C   34   3.207   2.548   4.014
    1C        C   35   3.078   2.605   4.014
    1C        C   36   3.277   2.531   4.136
    1C        C   37   3.213   2.560   4.259
    1C        C   38   3.415   2.505   4.380
    1C        C   39   3.277   2.534   4.382
    1C        C   40   3.485   2.499   4.502
    1C        C   41   3.413   2.498   4.624
    1C        C   42   3.627   2.483   4.746
    1C        C   43   3.485   2.479   4.744
    1C        C   44   3.703   2.489   4.865
    1C        C   45   3.628   2.481   4.983
    1C        C   46   2.841   2.758   2.794
    1C        C   47   2.896   2.713   2.916
    1C        C   48   2.849   2.771   3.036
    1C        C   49   3.016   2.640   3.158
    1C        C   50   2.904   2.727   3.158
    1C        C   51   3.078   2.606   3.281
    1C        C   52   3.024   2.648   3.404
    1C        C   53   3.210   2.547   3.528
    1C        C   54   3.082   2.608   3.527
    1C        C   55   3.276   2.520   3.649
    1C        C   56   3.208   2.546   3.770
    1C        C   57   3.414   2.497   3.892
    1C        C   58   3.276   2.527   3.893
    1C        C   59   3.485   2.494   4.014
    1C        C   60   3.414   2.497   4.136
    1C        C   61   3.625   2.492   4.260
    1C        C   62   3.484   2.490   4.258
    1C        C   63   3.698   2.502   4.381
    1C        C   64   3.627   2.503   4.502
    1C        C   65   3.832   2.546   4.622
    1C        C   66   3.698   2.501   4.624
    1C        C   67   3.902   2.566   4.742
    1C        C   68   3.839   2.525   4.862
    1C        C   69   4.052   2.581   4.977
    1C        C   70   3.923   2.526   4.975
    1C        C   71   2.829   2.741   2.309
    1C        C   72   2.885   2.699   2.432
    1C        C   73   2.829   2.747   2.552
    1C        C   74   3.007   2.627   2.671
    1C        C   75   2.890   2.707   2.672
    1C        C   76   3.070   2.594   2.793
    1C        C   77   3.013   2.634   2.916
    1C        C   78   3.204   2.540   3.036
    1C        C   79   3.075   2.596   3.037
    1C        C   80   3.273   2.526   3.159
    1C        C   81   3.207   2.550   3.282
    1C        C   82   3.412   2.495   3.401
    1C        C   83   3.274   2.525   3.404
    1C        C   84   3.484   2.494   3.523
    1C        C   85   3.416   2.502   3.647
    1C        C   86   3.625   2.504   3.769
    1C        C   87   3.485   2.491   3.770
    1C        C   88   3.696   2.507   3.892
    1C        C   89   3.626   2.501   4.015
    1C        C   90   3.828   2.553   4.135
    1C        C   91   3.694   2.509   4.138
    1C        C   92   3.897   2.572   4.256
    1C        C   93   3.831   2.549   4.379
    1C        C   94   4.027   2.634   4.499
    1C        C   95   3.899   2.574   4.501
    1C        C   96   4.088   2.670   4.621
    1C        C   97   4.030   2.628   4.742
    1C        C   98   4.189   2.766   4.863
    1C        C   99   4.097   2.656   4.864
    1C        C  100   4.210   2.845   4.977
    1C        C  101   2.819   2.726   2.073
    1C        C  102   2.990   2.590   2.187
    1C        C  103   2.878   2.679   2.191
    1C        C  104   3.059   2.572   2.310
    1C        C  105   3.000   2.616   2.430
    1C        C  106   3.199   2.534   2.551
    1C        C  107   3.069   2.588   2.550
    1C        C  108   3.268   2.518   2.673
    1C        C  109   3.198   2.534   2.795
    1C        C  110   3.409   2.493   2.915
    1C        C  111   3.269   2.509   2.915
    1C        C  112   3.481   2.493   3.036
    1C        C  113   3.412   2.500   3.159
    1C        C  114   3.625   2.493   3.279
    1C        C  115   3.484   2.490   3.280
    1C        C  116   3.696   2.503   3.401
    1C        C  117   3.625   2.497   3.524
    1C        C  118   3.831   2.542   3.646
    1C        C  119   3.695   2.504   3.646
    1C        C  120   3.895   2.572   3.768
    1C        C  121   3.833   2.541   3.892
    1C        C  122   4.022   2.642   4.012
    1C        C  123   3.897   2.576   4.013
    1C        C  124   4.087   2.675   4.133
    1C        C  125   4.025   2.631   4.253
    1C        C  126   4.190   2.764   4.375
    1C        C  127   4.083   2.672   4.375
    1C        C  128   4.240   2.817   4.497
    1C        C  129   4.187   2.771   4.619
    1C        C  130   4.322   2.936   4.739
    1C        C  131   4.236   2.822   4.741
    1C        C  132   4.356   3.003   4.858
    1C        C  133   4.278   2.966   4.968
    1C        C  134   3.172   2.471   2.080
    1C        C  135   3.037   2.508   2.080
    1C        C  136   3.257   2.480   2.191
    1C        C  137   3.191   2.518   2.310
    1C        C  138   3.404   2.476   2.428
    1C        C  139   3.266   2.508   2.429
    1C        C  140   3.478   2.477   2.548
    1C        C  141   3.407   2.493   2.669
    1C        C  142   3.619   2.489   2.789
    1C        C  143   3.478   2.483   2.791
    1C        C  144   3.690   2.502   2.910
    1C        C  145   3.622   2.495   3.034
    1C        C  146   3.830   2.537   3.154
    1C        C  147   3.694   2.500   3.156
    1C        C  148   3.896   2.563   3.276
    1C        C  149   3.832   2.540   3.400
    1C        C  150   4.023   2.630   3.520
    1C        C  151   3.897   2.566   3.523
    1C        C  152   4.079   2.669   3.643
    1C        C  153   4.020   2.638   3.768
    1C        C  154   4.188   2.769   3.885
    1C        C  155   4.080   2.678   3.889
    1C        C  156   4.242   2.814   4.008
    1C        C  157   4.197   2.763   4.132
    1C        C  158   4.334   2.923   4.252
    1C        C  159   4.243   2.816   4.255
    1C        C  160   4.370   2.985   4.374
    1C        C  161   4.322   2.932   4.496
    1C        C  162   4.437   3.114   4.614
    1C        C  163   4.364   2.993   4.617
    1C        C  164   4.468   3.183   4.733
    1C        C  165   4.431   3.122   4.855
    1C        C  166   4.514   3.319   4.973
    1C        C  167   4.477   3.185   4.971
    1C        C  168   3.474   2.430   2.077
    1C        C  169   3.396   2.457   2.191
    1C        C  170   3.618   2.470   2.307
    1C        C  171   3.476   2.461   2.307
    1C        C  172   3.693   2.487   2.425
    1C        C  173   3.619   2.480   2.545
    1C        C  174   3.825   2.533   2.666
    1C        C  175   3.689   2.496   2.666
    1C        C  176   3.893   2.556   2.788
    1C        C  177   3.827   2.536   2.911
    1C        C  178   4.023   2.624   3.032
    1C        C  179   3.896   2.563   3.032
    1C        C  180   4.085   2.663   3.153
    1C        C  181   4.022   2.628   3.274
    1C        C  182   4.191   2.755   3.396
    1C        C  183   4.080   2.668   3.396
    1C        C  184   4.239   2.807   3.519
    1C        C  185   4.186   2.762   3.642
    1C        C  186   4.337   2.918   3.762
    1C        C  187   4.241   2.813   3.762
    1C        C  188   4.376   2.977   3.884
    1C        C  189   4.334   2.922   4.007
    1C        C  190   4.444   3.103   4.125
    1C        C  191   4.373   2.981   4.129
    1C        C  192   4.471   3.169   4.247
    1C        C  193   4.437   3.109   4.371
    1C        C  194   4.499   3.315   4.490
    1C        C  195   4.464   3.178   4.491
    1C        C  196   4.518   3.386   4.611
    1C        C  197   4.520   3.316   4.733
    1C        C  198   4.552   3.532   4.851
    1C        C  199   4.535   3.390   4.854
    1C        C  200   4.582   3.619   4.961
    1C        C  201   3.613   2.414   2.075
    1C        C  202   3.826   2.509   2.180
    1C        C  203   3.691   2.461   2.185
    1C        C  204   3.898   2.538   2.299
    1C        C  205   3.831   2.518   2.422
    1C        C  206   4.018   2.619   2.543
    1C        C  207   3.892   2.556   2.544
    1C        C  208   4.078   2.659   2.665
    1C        C  209   4.019   2.622   2.788
    1C        C  210   4.194   2.745   2.904
    1C        C  211   4.082   2.659   2.909
    1C        C  212   4.248   2.795   3.025
    1C        C  213   4.194   2.753   3.148
    1C        C  214   4.329   2.913   3.270
    1C        C  215   4.243   2.801   3.272
    1C        C  216   4.365   2.971   3.394
    1C        C  217   4.332   2.913   3.519
    1C        C  218   4.431   3.105   3.639
    1C        C  219   4.374   2.975   3.638
    1C        C  220   4.465   3.170   3.759
    1C        C  221   4.438   3.104   3.881
    1C        C  222   4.503   3.307   4.001
    1C        C  223   4.469   3.169   4.003
    1C        C  224   4.511   3.377   4.124
    1C        C  225   4.501   3.307   4.246
    1C        C  226   4.519   3.522   4.365
    1C        C  227   4.514   3.381   4.366
    1C        C  228   4.514   3.595   4.486
    1C        C  229   4.524   3.527   4.609
    1C        C  230   4.501   3.740   4.728
    1C        C  231   4.534   3.601   4.728
    1C        C  232   4.495   3.818   4.845
    1C        C  233   4.544   3.753   4.959
    1C        C  234   4.018   2.606   2.063
    1C        C  235   3.896   2.538   2.063
    1C        C  236   4.087   2.644   2.179
    1C        C  237   4.022   2.609   2.300
    1C        C  238   4.200   2.729   2.418
    1C        C  239   4.080   2.652   2.421
    1C        C  240   4.253   2.781   2.538
    1C        C  241   4.194   2.739   2.660
    1C        C  242   4.331   2.902   2.783
    1C        C  243   4.246   2.789   2.781
    1C        C  244   4.371   2.964   2.903
    1C        C  245   4.339   2.904   3.027
    1C        C  246   4.434   3.095   3.147
    1C        C  247   4.376   2.966   3.148
    1C        C  248   4.458   3.158   3.271
    1C        C  249   4.428   3.097   3.395
    1C        C  250   4.491   3.305   3.512
    1C        C  251   4.452   3.169   3.514
    1C        C  252   4.510   3.375   3.634
    1C        C  253   4.502   3.306   3.757
    1C        C  254   4.523   3.518   3.878
    1C        C  255   4.514   3.377   3.879
    1C        C  256   4.516   3.588   4.000
    1C        C  257   4.521   3.518   4.122
    1C        C  258   4.490   3.731   4.241
    1C        C  259   4.516   3.592   4.242
    1C        C  260   4.475   3.803   4.362
    1C        C  261   4.482   3.733   4.484
    1C        C  262   4.422   3.936   4.602
    1C        C  263   4.473   3.805   4.605
    1C        C  264   4.394   4.005   4.722
    1C        C  265   4.429   3.942   4.844
    1C        C  266   4.322   4.131   4.957
    1C        C  267   4.395   4.013   4.961
    1C        C  268   4.260   2.776   2.062
    1C        C  269   4.197   2.732   2.178
    1C        C  270   4.341   2.894   2.298
    1C        C  271   4.252   2.783   2.298
    1C        C  272   4.381   2.953   2.419
    1C        C  273   4.342   2.891   2.539
    1C        C  274   4.445   3.079   2.661
    1C        C  275   4.375   2.957   2.660
    1C        C  276   4.465   3.152   2.780
    1C        C  277   4.439   3.088   2.903
    1C        C  278   4.507   3.292   3.024
    1C        C  279   4.461   3.158   3.023
    1C        C  280   4.521   3.362   3.145
    1C        C  281   4.499   3.293   3.267
    1C        C  282   4.517   3.508   3.388
    1C        C  283   4.507   3.367   3.387
    1C        C  284   4.516   3.581   3.509
    1C        C  285   4.518   3.516   3.635
    1C        C  286   4.499   3.728   3.753
    1C        C  287   4.524   3.589   3.755
    1C        C  288   4.475   3.795   3.874
    1C        C  289   4.494   3.728   3.997
    1C        C  290   4.422   3.929   4.116
    1C        C  291   4.476   3.799   4.118
    1C        C  292   4.391   3.995   4.237
    1C        C  293   4.428   3.936   4.360
    1C        C  294   4.318   4.121   4.478
    1C        C  295   4.391   4.000   4.480
    1C        C  296   4.282   4.185   4.599
    1C        C  297   4.323   4.128   4.721
    1C        C  298   4.199   4.312   4.833
    1C        C  299   4.283   4.196   4.839
    1C        C  300   4.169   4.398   4.943
    1C        C  301   4.358   2.875   2.061
    1C        C  302   4.470   3.067   2.176
    1C        C  303   4.396   2.945   2.177
    1C        C  304   4.481   3.144   2.295
    1C        C  305   4.444   3.080   2.416
    1C        C  306   4.507   3.281   2.534
    1C        C  307   4.470   3.145   2.538
    1C        C  308   4.522   3.354   2.655
    1C        C  309   4.501   3.289   2.778
    1C        C  310   4.526   3.500   2.898
    1C        C  311   4.521   3.359   2.900
    1C        C  312   4.520   3.573   3.018
    1C        C  313   4.518   3.503   3.141
    1C        C  314   4.485   3.713   3.262
    1C        C  315   4.512   3.574   3.263
    1C        C  316   4.470   3.784   3.383
    1C        C  317   4.493   3.720   3.507
    1C        C  318   4.420   3.920   3.626
    1C        C  319   4.478   3.791   3.628
    1C        C  320   4.388   3.985   3.747
    1C        C  321   4.421   3.926   3.871
    1C        C  322   4.313   4.110   3.989
    1C        C  323   4.390   3.991   3.993
    1C        C  324   4.270   4.165   4.112
    1C        C  325   4.314   4.113   4.236
    1C        C  326   4.181   4.282   4.350
    1C        C  327   4.274   4.176   4.356
    1C        C  328   4.130   4.332   4.472
    1C        C  329   4.188   4.291   4.593
    1C        C  330   4.024   4.436   4.711
    1C        C  331   4.136   4.348   4.711
    1C        C  332   3.970   4.492   4.829
    1C        C  333   4.053   4.476   4.941
    1C        C  334   4.547   3.268   2.060
    1C        C  335   4.537   3.128   2.065
    1C        C  336   4.535   3.352   2.172
    1C        C  337   4.514   3.282   2.293
    1C        C  338   4.520   3.495   2.409
    1C        C  339   4.520   3.354   2.414
    1C        C  340   4.516   3.567   2.531
    1C        C  341   4.522   3.495   2.652
    1C        C  342   4.495   3.707   2.772
    1C        C  343   4.521   3.568   2.774
    1C        C  344   4.472   3.776   2.893
    1C        C  345   4.495   3.712   3.017
    1C        C  346   4.422   3.912   3.138
    1C        C  347   4.470   3.780   3.138
    1C        C  348   4.394   3.980   3.259
    1C        C  349   4.424   3.918   3.382
    1C        C  350   4.315   4.101   3.501
    1C        C  351   4.395   3.985   3.503
    1C        C  352   4.271   4.161   3.621
    1C        C  353   4.314   4.105   3.743
    1C        C  354   4.174   4.265   3.864
    1C        C  355   4.268   4.160   3.865
    1C        C  356   4.124   4.320   3.984
    1C        C  357   4.177   4.271   4.105
    1C        C  358   4.010   4.403   4.227
    1C        C  359   4.128   4.325   4.226
    1C        C  360   3.949   4.443   4.348
    1C        C  361   4.015   4.414   4.470
    1C        C  362   3.826   4.515   4.593
    1C        C  363   3.956   4.459   4.590
    1C        C  364   3.761   4.548   4.714
    1C        C  365   3.839   4.543   4.832
    1C        C  366   3.628   4.595   4.952
    1C        C  367   3.766   4.576   4.947
    1C        C  368   4.513   3.568   2.050
    1C        C  369   4.527   3.493   2.167
    1C        C  370   4.502   3.707   2.286
    1C        C  371   4.522   3.567   2.287
    1C        C  372   4.482   3.777   2.407
    1C        C  373   4.495   3.706   2.529
    1C        C  374   4.426   3.907   2.649
    1C        C  375   4.480   3.776   2.650
    1C        C  376   4.389   3.972   2.769
    1C        C  377   4.423   3.909   2.891
    1C        C  378   4.313   4.089   3.011
    1C        C  379   4.391   3.972   3.013
    1C        C  380   4.274   4.153   3.131
    1C        C  381   4.311   4.094   3.253
    1C        C  382   4.171   4.251   3.374
    1C        C  383   4.267   4.148   3.376
    1C        C  384   4.117   4.302   3.495
    1C        C  385   4.173   4.263   3.618
    1C        C  386   4.004   4.388   3.741
    1C        C  387   4.122   4.312   3.741
    1C        C  388   3.941   4.427   3.861
    1C        C  389   4.006   4.399   3.983
    1C        C  390   3.817   4.495   4.106
    1C        C  391   3.944   4.433   4.106
    1C        C  392   3.751   4.518   4.229
    1C        C  393   3.820   4.500   4.351
    1C        C  394   3.617   4.555   4.472
    1C        C  395   3.756   4.534   4.472
    1C        C  396   3.548   4.573   4.594
    1C        C  397   3.621   4.569   4.715
    1C        C  398   3.412   4.557   4.834
    1C        C  399   3.551   4.584   4.836
    1C        C  400   3.344   4.515   4.950
    1C        C  401   4.502   3.707   2.049
    1C        C  402   4.458   3.917   2.168
    1C        C  403   4.499   3.782   2.167
    1C        C  404   4.413   3.980   2.286
    1C        C  405   4.433   3.909   2.406
    1C        C  406   4.321   4.091   2.525
    1C        C  407   4.398   3.973   2.527
    1C        C  408   4.277   4.151   2.646
    1C        C  409   4.310   4.089   2.769
    1C        C  410   4.168   4.248   2.889
    1C        C  411   4.267   4.147   2.890
    1C        C  412   4.119   4.300   3.010
    1C        C  413   4.176   4.255   3.131
    1C        C  414   4.001   4.376   3.252
    1C        C  415   4.122   4.303   3.252
    1C        C  416   3.940   4.413   3.374
    1C        C  417   4.003   4.385   3.498
    1C        C  418   3.813   4.482   3.616
    1C        C  419   3.940   4.420   3.619
    1C        C  420   3.745   4.505   3.738
    1C        C  421   3.811   4.483   3.861
    1C        C  422   3.608   4.536   3.985
    1C        C  423   3.746   4.508   3.984
    1C        C  424   3.540   4.543   4.109
    1C        C  425   3.612   4.544   4.230
    1C        C  426   3.401   4.547   4.356
    1C        C  427   3.542   4.557   4.352
    1C        C  428   3.332   4.551   4.479
    1C        C  429   3.407   4.561   4.597
    1C        C  430   3.195   4.522   4.720
    1C        C  431   3.333   4.555   4.717
    1C        C  432   3.127   4.498   4.843
    1C        C  433   3.208   4.490   4.957
    1C        C  434   4.384   4.121   2.053
    1C        C  435   4.448   3.996   2.053
    1C        C  436   4.301   4.161   2.162
    1C        C  437   4.334   4.098   2.285
    1C        C  438   4.177   4.248   2.403
    1C        C  439   4.281   4.152   2.404
    1C        C  440   4.123   4.297   2.524
    1C        C  441   4.178   4.251   2.646
    1C        C  442   4.003   4.378   2.764
    1C        C  443   4.115   4.292   2.765
    1C        C  444   3.941   4.411   2.887
    1C        C  445   4.003   4.380   3.010
    1C        C  446   3.811   4.474   3.128
    1C        C  447   3.939   4.413   3.131
    1C        C  448   3.745   4.499   3.251
    1C        C  449   3.815   4.478   3.372
    1C        C  450   3.608   4.527   3.495
    1C        C  451   3.747   4.503   3.493
    1C        C  452   3.537   4.539   3.617
    1C        C  453   3.606   4.531   3.740
    1C        C  454   3.396   4.545   3.866
    1C        C  455   3.537   4.540   3.863
    1C        C  456   3.327   4.536   3.989
    1C        C  457   3.399   4.539   4.111
    1C        C  458   3.192   4.503   4.237
    1C        C  459   3.330   4.535   4.235
    1C        C  460   3.125   4.487   4.360
    1C        C  461   3.194   4.518   4.479
    1C        C  462   2.995   4.440   4.603
    1C        C  463   3.125   4.495   4.600
    1C        C  464   2.933   4.401   4.724
    1C        C  465   2.996   4.442   4.845
    1C        C  466   2.805   4.338   4.959
    1C        C  467   2.910   4.431   4.959
    1C        C  468   4.124   4.289   2.039
    1C        C  469   4.187   4.248   2.158
    1C        C  470   4.003   4.363   2.278
    1C        C  471   4.124   4.289   2.279
    1C        C  472   3.937   4.399   2.398
    1C        C  473   4.004   4.373   2.520
    1C        C  474   3.812   4.466   2.641
    1C        C  475   3.943   4.412   2.641
    1C        C  476   3.744   4.487   2.763
    1C        C  477   3.811   4.467   2.885
    1C        C  478   3.604   4.521   3.009
    1C        C  479   3.742   4.493   3.006
    1C        C  480   3.534   4.535   3.131
    1C        C  481   3.607   4.528   3.252
    1C        C  482   3.395   4.529   3.379
    1C        C  483   3.536   4.529   3.374
    1C        C  484   3.324   4.528   3.501
    1C        C  485   3.396   4.539   3.622
    1C        C  486   3.189   4.499   3.745
    1C        C  487   3.326   4.533   3.744
    1C        C  488   3.123   4.475   3.868
    1C        C  489   3.191   4.500   3.990
    1C        C  490   3.003   4.410   4.116
    1C        C  491   3.128   4.478   4.114
    1C        C  492   2.942   4.376   4.239
    1C        C  493   3.000   4.419   4.360
    1C        C  494   2.829   4.301   4.484
    1C        C  495   2.938   4.390   4.483
    1C        C  496   2.771   4.260   4.606
    1C        C  497   2.820   4.315   4.727
    1C        C  498   2.663   4.168   4.841
    1C        C  499   2.751   4.279   4.845
    1C        C  500   2.592   4.121   4.952
    1C        C  501   4.002   4.355   2.039
    1C        C  502   3.816   4.465   2.154
    1C        C  503   3.941   4.400   2.157
    1C        C  504   3.746   4.486   2.275
    1C        C  505   3.810   4.460   2.397
    1C        C  506   3.603   4.506   2.518
    1C        C  507   3.741   4.478   2.519
    1C        C  508   3.536   4.516   2.642
    1C        C  509   3.605   4.513   2.765
    1C        C  510   3.393   4.521   2.885
    1C        C  511   3.534   4.526   2.887
    1C        C  512   3.322   4.520   3.007
    1C        C  513   3.393   4.529   3.129
    1C        C  514   3.189   4.493   3.254
    1C        C  515   3.327   4.522   3.254
    1C        C  516   3.122   4.470   3.376
    1C        C  517   3.186   4.498   3.499
    1C        C  518   2.999   4.406   3.625
    1C        C  519   3.122   4.475   3.623
    1C        C  520   2.939   4.369   3.748
    1C        C  521   3.000   4.406   3.870
    1C        C  522   2.834   4.281   3.995
    1C        C  523   2.945   4.369   3.995
    1C        C  524   2.787   4.231   4.119
    1C        C  525   2.834   4.285   4.241
    1C        C  526   2.691   4.134   4.365
    1C        C  527   2.777   4.246   4.364
    1C        C  528   2.656   4.073   4.487
    1C        C  529   2.691   4.143   4.604
    1C        C  530   2.582   3.961   4.729
    1C        C  531   2.640   4.091   4.725
    1C        C  532   2.542   3.901   4.851
    1C        C  533   2.528   3.996   4.957
    1C        C  534   3.619   4.556   2.039
    1C        C  535   3.750   4.507   2.038
    1C        C  536   3.537   4.534   2.154
    1C        C  537   3.605   4.507   2.276
    1C        C  538   3.391   4.517   2.396
    1C        C  539   3.532   4.514   2.397
    1C        C  540   3.323   4.513   2.520
    1C        C  541   3.394   4.516   2.642
    1C        C  542   3.185   4.473   2.763
    1C        C  543   3.322   4.508   2.763
    1C        C  544   3.120   4.460   2.888
    1C        C  545   3.185   4.484   3.010
    1C        C  546   2.993   4.403   3.136
    1C        C  547   3.119   4.466   3.134
    1C        C  548   2.934   4.364   3.258
    1C        C  549   2.996   4.405   3.378
    1C        C  550   2.834   4.274   3.505
    1C        C  551   2.941   4.367   3.502
    1C        C  552   2.782   4.227   3.627
    1C        C  553   2.829   4.281   3.749
    1C        C  554   2.699   4.118   3.875
    1C        C  555   2.783   4.232   3.873
    1C        C  556   2.657   4.063   3.998
    1C        C  557   2.699   4.121   4.120
    1C        C  558   2.588   3.946   4.244
    1C        C  559   2.655   4.071   4.245
    1C        C  560   2.567   3.879   4.366
    1C        C  561   2.594   3.945   4.488
    1C        C  562   2.525   3.750   4.616
    1C        C  563   2.557   3.887   4.611
    1C        C  564   2.510   3.681   4.739
    1C        C  565   2.511   3.761   4.857
    1C        C  566   2.532   3.549   4.976
    1C        C  567   2.519   3.687   4.975
    1C        C  568   3.329   4.468   2.038
    1C        C  569   3.397   4.507   2.154
    1C        C  570   3.184   4.469   2.279
    1C        C  571   3.321   4.508   2.274
    1C        C  572   3.118   4.450   2.402
    1C        C  573   3.187   4.477   2.522
    1C        C  574   2.986   4.398   2.647
    1C        C  575   3.115   4.454   2.642
    1C        C  576   2.932   4.359   2.771
    1C        C  577   2.996   4.392   2.892
    1C        C  578   2.824   4.271   3.016
    1C        C  579   2.935   4.359   3.015
    1C        C  580   2.777   4.220   3.139
    1C        C  581   2.831   4.267   3.261
    1C        C  582   2.696   4.108   3.384
    1C        C  583   2.784   4.219   3.385
    1C        C  584   2.659   4.053   3.508
    1C        C  585   2.692   4.118   3.629
    1C        C  586   2.597   3.931   3.755
    1C        C  587   2.660   4.058   3.753
    1C        C  588   2.568   3.870   3.879
    1C        C  589   2.596   3.936   4.000
    1C        C  590   2.534   3.737   4.128
    1C        C  591   2.570   3.873   4.124
    1C        C  592   2.518   3.672   4.253
    1C        C  593   2.530   3.743   4.375
    1C        C  594   2.504   3.533   4.496
    1C        C  595   2.514   3.674   4.497
    1C        C  596   2.513   3.464   4.619
    1C        C  597   2.514   3.539   4.738
    1C        C  598   2.537   3.329   4.862
    1C        C  599   2.523   3.469   4.861
    1C        C  600   2.537   3.250   4.978
    1C        C  601   3.196   4.430   2.042
    1C        C  602   2.982   4.390   2.158
    1C        C  603   3.119   4.431   2.159
    1C        C  604   2.926   4.350   2.282
    1C        C  605   2.991   4.389   2.402
    1C        C  606   2.822   4.263   2.528
    1C        C  607   2.929   4.355   2.524
    1C        C  608   2.771   4.216   2.651
    1C        C  609   2.821   4.270   2.772
    1C        C  610   2.682   4.111   2.895
    1C        C  611   2.772   4.220   2.894
    1C        C  612   2.648   4.050   3.018
    1C        C  613   2.690   4.109   3.140
    1C        C  614   2.589   3.924   3.266
    1C        C  615   2.649   4.052   3.263
    1C        C  616   2.567   3.860   3.389
    1C        C  617   2.595   3.927   3.511
    1C        C  618   2.532   3.728   3.637
    1C        C  619   2.567   3.865   3.634
    1C        C  620   2.517   3.662   3.761
    1C        C  621   2.529   3.734   3.882
    1C        C  622   2.511   3.526   4.009
    1C        C  623   2.522   3.667   4.006
    1C        C  624   2.511   3.458   4.133
    1C        C  625   2.512   3.531   4.254
    1C        C  626   2.537   3.321   4.379
    1C        C  627   2.512   3.460   4.376
    1C        C  628   2.557   3.253   4.501
    1C        C  629   2.536   3.324   4.622
    1C        C  630   2.591   3.118   4.742
    1C        C  631   2.547   3.253   4.743
    1C        C  632   2.618   3.051   4.864
    1C        C  633   2.560   3.112   4.980
    1C        C  634   2.783   4.298   2.050
    1C        C  635   2.891   4.387   2.048
    1C        C  636   2.745   4.227   2.165
    1C        C  637   2.811   4.265   2.283
    1C        C  638   2.673   4.111   2.410
    1C        C  639   2.764   4.218   2.408
    1C        C  640   2.637   4.047   2.531
    1C        C  641   2.685   4.104   2.651
    1C        C  642   2.580   3.923   2.776
    1C        C  643   2.640   4.051   2.775
    1C        C  644   2.560   3.857   2.899
    1C        C  645   2.584   3.924   3.020
    1C        C  646   2.526   3.723   3.146
    1C        C  647   2.560   3.860   3.144
    1C        C  648   2.512   3.655   3.270
    1C        C  649   2.524   3.725   3.391
    1C        C  650   2.507   3.517   3.520
    1C        C  651   2.515   3.658   3.515
    1C        C  652   2.507   3.448   3.643
    1C        C  653   2.505   3.522   3.764
    1C        C  654   2.530   3.313   3.889
    1C        C  655   2.513   3.454   3.887
    1C        C  656   2.549   3.249   4.013
    1C        C  657   2.534   3.319   4.135
    1C        C  658   2.608   3.121   4.255
    1C        C  659   2.555   3.251   4.257
    1C        C  660   2.639   3.059   4.379
    1C        C  661   2.603   3.120   4.501
    1C        C  662   2.713   2.938   4.625
    1C        C  663   2.629   3.052   4.623
    1C        C  664   2.750   2.877   4.747
    1C        C  665   2.701   2.934   4.867
    1C        C  666   2.742   2.871   4.985
    1C        C  667   2.672   4.025   2.052
    1C        C  668   2.677   4.103   2.168
    1C        C  669   2.583   3.913   2.292
    1C        C  670   2.638   4.045   2.290
    1C        C  671   2.552   3.849   2.414
    1C        C  672   2.572   3.922   2.534
    1C        C  673   2.512   3.719   2.659
    1C        C  674   2.547   3.856   2.656
    1C        C  675   2.510   3.649   2.781
    1C        C  676   2.525   3.720   2.902
    1C        C  677   2.501   3.511   3.029
    1C        C  678   2.513   3.652   3.025
    1C        C  679   2.497   3.442   3.152
    1C        C  680   2.499   3.514   3.274
    1C        C  681   2.526   3.307   3.399
    1C        C  682   2.501   3.446   3.398
    1C        C  683   2.549   3.242   3.522
    1C        C  684   2.529   3.309   3.645
    1C        C  685   2.603   3.112   3.769
    1C        C  686   2.547   3.242   3.768
    1C        C  687   2.635   3.053   3.893
    1C        C  688   2.603   3.118   4.014
    1C        C  689   2.715   2.936   4.137
    1C        C  690   2.636   3.052   4.135
    1C        C  691   2.759   2.882   4.261
    1C        C  692   2.715   2.940   4.382
    1C        C  693   2.755   2.880   4.503
    1C        C  694   2.618   3.896   2.056
    1C        C  695   2.524   3.704   2.174
    1C        C  696   2.569   3.838   2.174
    1C        C  697   2.505   3.640   2.298
    1C        C  698   2.515   3.713   2.418
    1C        C  699   2.483   3.503   2.543
    1C        C  700   2.496   3.644   2.540
    1C        C  701   2.491   3.434   2.666
    1C        C  702   2.500   3.508   2.786
    1C        C  703   2.512   3.297   2.909
    1C        C  704   2.496   3.437   2.908
    1C        C  705   2.539   3.233   3.032
    1C        C  706   2.527   3.304   3.154
    1C        C  707   2.596   3.106   3.279
    1C        C  708   2.546   3.238   3.277
    1C        C  709   2.635   3.047   3.401
    1C        C  710   2.604   3.111   3.523
    1C        C  711   2.715   2.933   3.650
    1C        C  712   2.636   3.050   3.646
    1C        C  713   2.758   2.878   3.773
    1C        C  714   2.713   2.935   3.894
    1C        C  715   2.758   2.879   4.016
    1C        C  716   2.453   3.497   2.062
    1C        C  717   2.493   3.631   2.058
    1C        C  718   2.464   3.422   2.183
    1C        C  719   2.483   3.500   2.301
    1C        C  720   2.505   3.289   2.426
    1C        C  721   2.481   3.429   2.423
    1C        C  722   2.528   3.222   2.547
    1C        C  723   2.513   3.294   2.668
    1C        C  724   2.581   3.095   2.793
    1C        C  725   2.522   3.223   2.789
    1C        C  726   2.607   3.029   2.915
    1C        C  727   2.573   3.096   3.035
    1C        C  728   2.712   2.932   3.157
    1C        C  729   2.624   3.042   3.156
    1C        C  730   2.760   2.879   3.280
    1C        C  731   2.719   2.933   3.404
    1C        C  732   2.758   2.878   3.527
    1C        C  733   2.488   3.197   2.073
    1C        C  734   2.483   3.280   2.186
    1C        C  735   2.580   3.086   2.305
    1C        C  736   2.520   3.215   2.306
    1C        C  737   2.612   3.023   2.428
    1C        C  738   2.587   3.094   2.548
    1C        C  739   2.698   2.916   2.672
    1C        C  740   2.618   3.032   2.671
    1C        C  741   2.745   2.862   2.794
    1C        C  742   2.695   2.919   2.914
    1C        C  743   2.750   2.871   3.035
    1C        C  744   2.541   3.069   2.074
    1C        C  745   2.684   2.897   2.186
    1C        C  746   2.607   3.015   2.186
    1C        C  747   2.729   2.842   2.308
    1C        C  748   2.691   2.906   2.429
    1C        C  749   2.732   2.850   2.552
    1C        C  750   2.734   2.836   2.070
    1C        C  751   3.648   2.291   2.000
    1C        O  752   3.708   2.198   2.061
    1C        O  753   3.664   2.291   1.861
    1C        C  754   4.649   3.064   1.993
    1C        O  755   4.650   3.035   1.870
    1C        O  756   4.781   3.074   2.038
    1C        C  757   4.470   4.214   1.977
    1C        O  758   4.557   4.279   2.040
    1C        O  759   4.467   4.221   1.837
    1C        C  760   3.587   4.666   1.945
    1C        O  761   3.608   4.785   1.979
    1C        O  762   3.571   4.644   1.807
    1C        C  763   2.855   4.504   1.964
    1C        O  764   2.878   4.494   1.841
    1C        O  765   2.760   4.596   2.010
    1C        C  766   2.357   3.461   1.955
    1C        O  767   2.389   3.464   1.833
    1C        O  768   2.223   3.488   1.988
    1C        C  769   4.699   3.584   5.045
    1C        O  770   4.695   3.604   5.170
    1C        O  771   4.828   3.583   4.992
    1C        C  772   4.285   4.463   5.010
    1C        O  773   4.289   4.476   5.136
    1C        O  774   4.343   4.573   4.946
    1C        C  775   4.150   2.494   5.046
    1C        O  776   4.217   2.402   4.993
    1C        O  777   4.127   2.463   5.180
    1C        C  778   2.932   4.512   5.081
    1C        O  779   2.888   4.630   5.090
    1C        O  780   2.982   4.462   5.202
    1C        C  781   2.492   3.041   5.090
    1C        O  782   2.380   2.987   5.070
    1C        O  783   2.505   3.057   5.228
    1C        C  784   2.408   4.003   5.044
    1C        O  785   2.291   4.028   5.005
    1C        O  786   2.420   4.027   5.182
    1C        C  787   2.946   2.427   1.995
    1C        O  788   2.980   2.434   1.874
    1C        O  789   2.913   2.301   2.042
    1C        C  790   3.172   2.380   5.072
    1C        O  791   3.172   2.257   5.043
    1C        O  792   3.197   2.398   5.209
    1C        H  793   4.236   3.051   5.019
    1C        H  794   4.210   2.804   5.075
    1C        H  795   4.531   3.116   5.033
    1C        H  796   4.562   3.357   5.061
    1C        H  797   4.571   3.805   5.049
    1C        H  798   4.378   3.952   5.047
    1C        H  799   4.336   4.197   5.041
    1C        H  800   4.043   4.546   5.022
    1C        H  801   3.812   4.540   5.037
    1C        H  802   3.585   4.647   5.036
    1C        H  803   3.402   4.475   5.031
    1C        H  804   3.168   4.460   5.052
    1C        H  805   3.877   2.510   5.070
    1C        H  806   3.672   2.425   5.063
    1C        H  807   2.988   2.534   5.053
    1C        H  808   3.443   2.437   5.067
    1C        H  809   2.887   2.745   5.075
    1C        H  810   2.666   2.854   5.057
    1C        H  811   2.559   3.296   5.072
    1C        H  812   2.605   3.515   5.048
    1C        H  813   2.461   3.722   5.059
    1C        H  814   2.586   4.179   5.041
    1C        H  815   2.781   4.302   5.057
    1C        H  816   2.702   2.869   1.974
    1C        H  817   2.814   2.656   1.993
    1C        H  818   3.216   2.424   1.994
    1C        H  819   3.441   2.491   1.995
    1C        H  820   3.879   2.481   1.974
    1C        H  821   4.067   2.615   1.968
    1C        H  822   4.263   2.709   1.978
    1C        H  823   4.429   2.874   1.981
    1C        H  824   4.587   3.303   1.967
    1C        H  825   4.474   3.521   1.962
    1C        H  826   4.505   3.751   1.951
    1C        H  827   3.808   4.518   1.949
    1C        H  828   3.939   4.343   1.952
    1C        H  829   4.194   4.334   1.972
    1C        H  830   4.530   3.977   1.986
    1C        H  831   2.582   3.863   1.961
    1C        H  832   2.759   4.033   1.989
    1C        H  833   2.730   4.285   1.958
    1C        H  834   3.383   4.466   1.946
    1C        H  835   3.155   4.394   1.950
    1C        H  836   2.494   2.996   2.011
    1C        H  837   2.489   3.250   1.981
    1C        H  838   2.482   3.679   1.963
    2V3OU   H29  839   2.807   3.541   2.489
    2V3OU   C27  840   2.788   3.501   2.592
    2V3OU   H27  841   2.730   3.572   2.656
    2V3OU   H28  842   2.731   3.406   2.580
    2V3OU   O11  843   2.912   3.469   2.654
    2V3OU   C15  844   2.927   3.394   2.769
    2V3OU   C13  845   3.052   3.370   2.830
    2V3OU   C14  846   3.080   3.269   2.923
    2V3OU   C16  847   2.976   3.185   2.961
    2V3OU    H6  848   2.992   3.101   3.030
    2V3OU   C12  849   3.211   3.233   2.980
    2V3OU    O2  850   3.230   3.129   3.047
    2V3OU   C10  851   3.325   3.315   2.936
    2V3OU    C8  852   3.453   3.273   2.969
    2V3OU   O10  853   3.487   3.159   3.035
    2V3OU   H26  854   3.404   3.115   3.058
    2V3OU    C6  855   3.564   3.351   2.924
    2V3OU    C5  856   3.536   3.462   2.845
    2V3OU    C4  857   3.702   3.297   2.925
    2V3OU    H4  858   3.723   3.225   3.010
    2V3OU    H5  859   3.713   3.231   2.833
    2V3OU    C2  860   3.815   3.400   2.927
    2V3OU    O6  861   3.803   3.473   3.050
    2V3OU   H21  862   3.767   3.558   3.021
    2V3OU    C3  863   3.779   3.500   2.817
    2V3OU    H2  864   3.863   3.574   2.810
    2V3OU    H3  865   3.778   3.438   2.724
    2V3OU   C25  866   3.949   3.328   2.911
    2V3OU    O7  867   3.998   3.298   2.802
    2V3OU   C26  868   4.033   3.293   3.033
    2V3OU   H22  869   4.073   3.382   3.087
    2V3OU   H23  870   4.118   3.227   3.002
    2V3OU    O8  871   3.965   3.207   3.122
    2V3OU   H24  872   3.925   3.260   3.192
    2V3OU    C1  873   3.643   3.566   2.827
    2V3OU    H1  874   3.623   3.625   2.733
    2V3OU    O3  875   3.650   3.650   2.942
    2V3OU   C19  876   3.616   3.788   2.931
    2V3OU    H9  877   3.520   3.801   2.873
    2V3OU    O4  878   3.710   3.844   2.841
    2V3OU   C20  879   3.838   3.875   2.895
    2V3OU   H10  880   3.898   3.779   2.899
    2V3OU   C24  881   3.610   3.852   3.070
    2V3OU   H16  882   3.545   3.786   3.134
    2V3OU   H17  883   3.558   3.950   3.055
    2V3OU   C23  884   3.749   3.875   3.129
    2V3OU   H15  885   3.791   3.771   3.147
    2V3OU    N1  886   3.737   3.948   3.254
    2V3OU   H19  887   3.811   3.925   3.317
    2V3OU   H20  888   3.657   3.930   3.310
    2V3OU   C21  889   3.844   3.948   3.029
    2V3OU   H11  890   3.950   3.931   3.065
    2V3OU    O5  891   3.829   4.089   3.032
    2V3OU   H18  892   3.781   4.107   3.114
    2V3OU   C22  893   3.910   3.950   2.784
    2V3OU   H12  894   3.863   4.049   2.761
    2V3OU   H13  895   3.898   3.893   2.688
    2V3OU   H14  896   4.018   3.963   2.811
    2V3OU   C11  897   3.161   3.465   2.808
    2V3OU    O1  898   3.131   3.583   2.780
    2V3OU    C9  899   3.298   3.425   2.849
    2V3OU    C7  900   3.405   3.501   2.804
    2V3OU    O9  901   3.389   3.618   2.734
    2V3OU   H25  902   3.298   3.631   2.704
    2V3OU   C17  903   2.825   3.308   2.816
    2V3OU    H7  904   2.726   3.349   2.792
    2V3OU   C18  905   2.849   3.208   2.909
    2V3OU    H8  906   2.778   3.165   2.981
    3SOL     OW  907   2.587   5.595   0.271
    3SOL    HW1  908   2.671   5.548   0.242
    3SOL    HW2  909   2.519   5.589   0.199
    4SOL     OW  910   6.800   0.029   2.079
    4SOL    HW1  911   6.841   0.097   2.140
    4SOL    HW2  912   6.700   0.031   2.089
    5SOL     OW  913   4.255   1.649   2.580
    5SOL    HW1  914   4.267   1.745   2.607
    5SOL    HW2  915   4.258   1.642   2.480
    6SOL     OW  916   3.963   0.938   1.651
    6SOL    HW1  917   3.950   0.972   1.558
    6SOL    HW2  918   4.011   0.850   1.648
    7SOL     OW  919   0.429   4.010   3.235
    7SOL    HW1  920   0.348   4.045   3.282
    7SOL    HW2  921   0.402   3.957   3.155
    8SOL     OW  922   3.178   0.956   0.065
    8SOL    HW1  923   3.245   0.926   0.132
    8SOL    HW2  924   3.112   0.883   0.047
    9SOL     OW  925   4.990   0.595   6.020
    9SOL    HW1  926   5.010   0.524   5.952
    9SOL    HW2  927   5.075   0.637   6.052
   10SOL     OW  928   1.718   5.057   5.684
   10SOL    HW1  929   1.668   4.985   5.731
   10SOL    HW2  930   1.817   5.042   5.695
   11SOL     OW  931   2.705   0.677   5.674
   11SOL    HW1  932   2.635   0.671   5.745
   11SOL    HW2  933   2.778   0.612   5.693
   12SOL     OW  934   3.296   5.369   3.325
   12SOL    HW1  935   3.199   5.371   3.301
   12SOL    HW2  936   3.311   5.299   3.395
   13SOL     OW  937   4.229   6.256   3.559
   13SOL    HW1  938   4.247   6.202   3.641
   13SOL    HW2  939   4.240   6.353   3.581
   14SOL     OW  940   3.528   5.371   5.747
   14SOL    HW1  941   3.610   5.325   5.712
   14SOL    HW2  942   3.454   5.304   5.758
   15SOL     OW  943   0.454   6.377   1.969
   15SOL    HW1  944   0.375   6.418   2.016
   15SOL    HW2  945   0.448   6.395   1.871
   16SOL     OW  946   5.696   2.565   6.052
   16SOL    HW1  947   5.733   2.658   6.042
   16SOL    HW2  948   5.737   2.521   6.131
   17SOL     OW  949   5.406   6.612   6.523
   17SOL    HW1  950   5.382   6.696   6.571
   17SOL    HW2  951   5.496   6.622   6.481
   18SOL     OW  952   3.183   0.843   5.762
   18SOL    HW1  953   3.192   0.795   5.849
   18SOL    HW2  954   3.272   0.848   5.717
   19SOL     OW  955   0.176   1.062   2.801
   19SOL    HW1  956   0.263   1.058   2.850
   19SOL    HW2  957   0.120   0.984   2.828
   20SOL     OW  958   5.365   1.497   4.041
   20SOL    HW1  959   5.407   1.584   4.014
   20SOL    HW2  960   5.274   1.515   4.079
   21SOL     OW  961   3.231   1.226   2.529
   21SOL    HW1  962   3.331   1.233   2.532
   21SOL    HW2  963   3.199   1.168   2.604
   22SOL     OW  964   1.477   6.484   6.932
   22SOL    HW1  965   1.508   6.569   6.974
   22SOL    HW2  966   1.424   6.504   6.850
   23SOL     OW  967   5.580   5.500   3.146
   23SOL    HW1  968   5.607   5.413   3.105
   23SOL    HW2  969   5.500   5.487   3.204
   24SOL     OW  970   3.793   0.214   3.425
   24SOL    HW1  971   3.781   0.141   3.493
   24SOL    HW2  972   3.882   0.256   3.437
   25SOL     OW  973   3.529   0.381   4.597
   25SOL    HW1  974   3.502   0.301   4.651
   25SOL    HW2  975   3.622   0.408   4.622
   26SOL     OW  976   6.928   0.452   0.606
   26SOL    HW1  977   6.876   0.384   0.553
   26SOL    HW2  978   6.865   0.518   0.647
   27SOL     OW  979   1.648   2.106   2.933
   27SOL    HW1  980   1.585   2.107   3.011
   27SOL    HW2  981   1.633   2.023   2.879
   28SOL     OW  982   2.575   1.100   5.830
   28SOL    HW1  983   2.538   1.048   5.907
   28SOL    HW2  984   2.573   1.042   5.748
   29SOL     OW  985   6.316   1.929   2.223
   29SOL    HW1  986   6.388   1.924   2.292
   29SOL    HW2  987   6.237   1.876   2.253
   30SOL     OW  988   3.921   0.968   3.809
   30SOL    HW1  989   3.918   0.889   3.749
   30SOL    HW2  990   3.892   1.050   3.759
   31SOL     OW  991   0.827   2.906   6.360
   31SOL    HW1  992   0.815   2.989   6.415
   31SOL    HW2  993   0.921   2.901   6.327
   32SOL     OW  994   6.840   1.727   2.734
   32SOL    HW1  995   6.805   1.760   2.646
   32SOL    HW2  996   6.940   1.725   2.731
   33SOL     OW  997   1.213   5.161   5.274
   33SOL    HW1  998   1.165   5.087   5.321
   33SOL    HW2  999   1.230   5.134   5.179
   34SOL     OW 1000   2.860   0.048   4.761
   34SOL    HW1 1001   2.892   0.010   4.674
   34SOL    HW2 1002   2.836   0.144   4.748
   35SOL     OW 1003   4.050   3.226   6.483
   35SOL    HW1 1004   4.135   3.253   6.528
   35SOL    HW2 1005   4.033   3.129   6.499
   36SOL     OW 1006   5.648   0.592   4.793
   36SOL    HW1 1007   5.673   0.682   4.830
   36SOL    HW2 1008   5.549   0.580   4.797
   37SOL     OW 1009   1.218   1.960   0.187
   37SOL    HW1 1010   1.136   1.967   0.129
   37SOL    HW2 1011   1.297   1.940   0.130
   38SOL     OW 1012   0.814   4.964   2.745
   38SOL    HW1 1013   0.804   4.897   2.672
   38SOL    HW2 1014   0.724   5.000   2.769
   39SOL     OW 1015   6.879   4.463   6.726
   39SOL    HW1 1016   6.862   4.536   6.660
   39SOL    HW2 1017   6.851   4.493   6.817
   40SOL     OW 1018   4.492   1.683   0.686
   40SOL    HW1 1019   4.394   1.699   0.695
   40SOL    HW2 1020   4.518   1.603   0.739
   41SOL     OW 1021   6.797   4.666   3.171
   41SOL    HW1 1022   6.741   4.626   3.243
   41SOL    HW2 1023   6.756   4.648   3.082
   42SOL     OW 1024   2.899   4.915   4.690
   42SOL    HW1 1025   2.864   4.900   4.597
   42SOL    HW2 1026   2.928   5.010   4.699
   43SOL     OW 1027   5.086   6.695   5.488
   43SOL    HW1 1028   5.064   6.792   5.486
   43SOL    HW2 1029   5.143   6.675   5.568
   44SOL     OW 1030   4.261   1.859   6.566
   44SOL    HW1 1031   4.210   1.794   6.509
   44SOL    HW2 1032   4.316   1.918   6.507
   45SOL     OW 1033   4.732   5.870   1.804
   45SOL    HW1 1034   4.650   5.927   1.806
   45SOL    HW2 1035   4.808   5.918   1.848
   46SOL     OW 1036   0.327   3.359   3.074
   46SOL    HW1 1037   0.391   3.283   3.076
   46SOL    HW2 1038   0.237   3.328   3.103
   47SOL     OW 1039   4.716   4.004   0.851
   47SOL    HW1 1040   4.673   4.090   0.880
   47SOL    HW2 1041   4.794   3.984   0.909
   48SOL     OW 1042   6.369   3.377   6.135
   48SOL    HW1 1043   6.316   3.446   6.185
   48SOL    HW2 1044   6.315   3.293   6.127
   49SOL     OW 1045   5.535   3.603   1.408
   49SOL    HW1 1046   5.630   3.627   1.424
   49SOL    HW2 1047   5.514   3.612   1.310
   50SOL     OW 1048   5.438   0.894   5.005
   50SOL    HW1 1049   5.365   0.942   5.054
   50SOL    HW2 1050   5.400   0.813   4.961
   51SOL     OW 1051   2.094   6.774   3.358
   51SOL    HW1 1052   2.179   6.743   3.314
   51SOL    HW2 1053   2.023   6.705   3.344
   52SOL     OW 1054   6.219   3.331   2.578
   52SOL    HW1 1055   6.216   3.421   2.535
   52SOL    HW2 1056   6.187   3.262   2.513
   53SOL     OW 1057   4.687   6.466   3.750
   53SOL    HW1 1058   4.703   6.373   3.782
   53SOL    HW2 1059   4.766   6.523   3.775
   54SOL     OW 1060   4.466   5.118   1.225
   54SOL    HW1 1061   4.476   5.212   1.194
   54SOL    HW2 1062   4.526   5.102   1.303
   55SOL     OW 1063   1.893   2.804   6.168
   55SOL    HW1 1064   1.845   2.773   6.250
   55SOL    HW2 1065   1.829   2.849   6.106
   56SOL     OW 1066   0.113   1.227   0.831
   56SOL    HW1 1067   0.026   1.193   0.865
   56SOL    HW2 1068   0.185   1.210   0.898
   57SOL     OW 1069   4.629   0.726   1.268
   57SOL    HW1 1070   4.699   0.770   1.324
   57SOL    HW2 1071   4.652   0.738   1.171
   58SOL     OW 1072   0.200   6.669   5.763
   58SOL    HW1 1073   0.206   6.570   5.749
   58SOL    HW2 1074   0.171   6.688   5.857
   59SOL     OW 1075   0.803   2.374   5.659
   59SOL    HW1 1076   0.802   2.275   5.652
   59SOL    HW2 1077   0.889   2.404   5.701
   60SOL     OW 1078   5.383   2.642   4.634
   60SOL    HW1 1079   5.300   2.627   4.688
   60SOL    HW2 1080   5.424   2.729   4.661
   61SOL     OW 1081   6.674   2.137   4.638
   61SOL    HW1 1082   6.631   2.203   4.699
   61SOL    HW2 1083   6.654   2.160   4.543
   62SOL     OW 1084   1.214   1.084   1.870
   62SOL    HW1 1085   1.297   1.098   1.924
   62SOL    HW2 1086   1.172   0.997   1.895
   63SOL     OW 1087   5.459   1.462   3.290
   63SOL    HW1 1088   5.506   1.394   3.347
   63SOL    HW2 1089   5.403   1.521   3.348
   64SOL     OW 1090   0.544   3.103   6.232
   64SOL    HW1 1091   0.573   3.175   6.295
   64SOL    HW2 1092   0.618   3.082   6.169
   65SOL     OW 1093   0.820   4.683   6.588
   65SOL    HW1 1094   0.855   4.606   6.640
   65SOL    HW2 1095   0.733   4.658   6.545
   66SOL     OW 1096   4.154   1.037   5.059
   66SOL    HW1 1097   4.176   1.090   5.141
   66SOL    HW2 1098   4.108   0.952   5.085
   67SOL     OW 1099   6.900   3.258   5.590
   67SOL    HW1 1100   6.914   3.274   5.492
   67SOL    HW2 1101   6.908   3.160   5.609
   68SOL     OW 1102   6.168   1.157   7.000
   68SOL    HW1 1103   6.174   1.069   0.026
   68SOL    HW2 1104   6.196   1.145   6.904
   69SOL     OW 1105   0.615   3.540   6.313
   69SOL    HW1 1106   0.542   3.564   6.248
   69SOL    HW2 1107   0.629   3.615   6.376
   70SOL     OW 1108   5.737   4.468   5.143
   70SOL    HW1 1109   5.690   4.538   5.197
   70SOL    HW2 1110   5.672   4.426   5.079
   71SOL     OW 1111   3.857   1.789   3.790
   71SOL    HW1 1112   3.777   1.766   3.734
   71SOL    HW2 1113   3.925   1.717   3.780
   72SOL     OW 1114   1.506   0.128   3.892
   72SOL    HW1 1115   1.559   0.213   3.902
   72SOL    HW2 1116   1.468   0.103   3.981
   73SOL     OW 1117   3.896   0.520   1.281
   73SOL    HW1 1118   3.920   0.460   1.358
   73SOL    HW2 1119   3.910   0.615   1.307
   74SOL     OW 1120   4.011   0.764   0.077
   74SOL    HW1 1121   3.982   0.676   0.040
   74SOL    HW2 1122   4.077   0.807   0.015
   75SOL     OW 1123   4.442   1.040   1.018
   75SOL    HW1 1124   4.499   1.060   1.098
   75SOL    HW2 1125   4.363   0.985   1.045
   76SOL     OW 1126   2.892   3.389   1.437
   76SOL    HW1 1127   2.979   3.434   1.416
   76SOL    HW2 1128   2.872   3.397   1.534
   77SOL     OW 1129   0.669   0.254   3.725
   77SOL    HW1 1130   0.710   0.191   3.791
   77SOL    HW2 1131   0.717   0.342   3.729
   78SOL     OW 1132   5.569   1.731   7.009
   78SOL    HW1 1133   5.489   1.712   0.044
   78SOL    HW2 1134   5.550   1.702   6.915
   79SOL     OW 1135   2.925   5.828   1.635
   79SOL    HW1 1136   2.866   5.753   1.665
   79SOL    HW2 1137   3.000   5.840   1.700
   80SOL     OW 1138   4.466   1.338   3.918
   80SOL    HW1 1139   4.563   1.360   3.924
   80SOL    HW2 1140   4.451   1.276   3.841
   81SOL     OW 1141   2.706   0.032   2.378
   81SOL    HW1 1142   2.746   0.124   2.372
   81SOL    HW2 1143   2.611   0.038   2.406
   82SOL     OW 1144   5.646   4.838   0.816
   82SOL    HW1 1145   5.548   4.839   0.798
   82SOL    HW2 1146   5.686   4.753   0.783
   83SOL     OW 1147   0.486   0.210   0.295
   83SOL    HW1 1148   0.443   0.120   0.289
   83SOL    HW2 1149   0.563   0.214   0.231
   84SOL     OW 1150   6.222   2.980   3.203
   84SOL    HW1 1151   6.147   2.920   3.230
   84SOL    HW2 1152   6.270   3.011   3.285
   85SOL     OW 1153   1.744   1.259   3.598
   85SOL    HW1 1154   1.674   1.262   3.669
   85SOL    HW2 1155   1.807   1.184   3.615
   86SOL     OW 1156   0.898   1.764   6.667
   86SOL    HW1 1157   0.921   1.856   6.635
   86SOL    HW2 1158   0.959   1.739   6.742
   87SOL     OW 1159   5.207   4.569   0.909
   87SOL    HW1 1160   5.232   4.514   0.829
   87SOL    HW2 1161   5.266   4.649   0.913
   88SOL     OW 1162   2.996   1.826   6.264
   88SOL    HW1 1163   3.006   1.815   6.363
   88SOL    HW2 1164   2.899   1.836   6.242
   89SOL     OW 1165   2.289   2.444   6.837
   89SOL    HW1 1166   2.354   2.425   6.910
   89SOL    HW2 1167   2.297   2.374   6.766
   90SOL     OW 1168   4.266   5.092   2.313
   90SOL    HW1 1169   4.254   5.112   2.216
   90SOL    HW2 1170   4.205   5.150   2.367
   91SOL     OW 1171   5.943   3.720   5.806
   91SOL    HW1 1172   5.965   3.811   5.770
   91SOL    HW2 1173   5.843   3.710   5.811
   92SOL     OW 1174   4.689   4.621   0.810
   92SOL    HW1 1175   4.623   4.596   0.882
   92SOL    HW2 1176   4.738   4.703   0.838
   93SOL     OW 1177   3.409   3.426   0.747
   93SOL    HW1 1178   3.474   3.368   0.797
   93SOL    HW2 1179   3.318   3.385   0.752
   94SOL     OW 1180   2.431   5.803   6.385
   94SOL    HW1 1181   2.503   5.749   6.341
   94SOL    HW2 1182   2.342   5.776   6.347
   95SOL     OW 1183   0.828   6.928   2.852
   95SOL    HW1 1184   0.833   6.995   2.926
   95SOL    HW2 1185   0.895   6.856   2.868
   96SOL     OW 1186   3.304   7.003   4.841
   96SOL    HW1 1187   3.227   0.021   4.891
   96SOL    HW2 1188   3.273   6.924   4.788
   97SOL     OW 1189   2.119   3.380   6.364
   97SOL    HW1 1190   2.055   3.303   6.355
   97SOL    HW2 1191   2.212   3.345   6.377
   98SOL     OW 1192   1.239   3.204   0.652
   98SOL    HW1 1193   1.172   3.148   0.702
   98SOL    HW2 1194   1.304   3.144   0.606
   99SOL     OW 1195   4.052   2.776   1.524
   99SOL    HW1 1196   3.990   2.796   1.599
   99SOL    HW2 1197   3.999   2.760   1.440
  100SOL     OW 1198   1.117   6.416   4.482
  100SOL    HW1 1199   1.075   6.450   4.397
  100SOL    HW2 1200   1.189   6.479   4.510
  101SOL     OW 1201   2.203   5.086   2.177
  101SOL    HW1 1202   2.228   5.134   2.261
  101SOL    HW2 1203   2.259   5.004   2.167
  102SOL     OW 1204   3.764   5.590   1.118
  102SOL    HW1 1205   3.845   5.619   1.170
  102SOL    HW2 1206   3.729   5.504   1.156
  103SOL     OW 1207   2.460   2.095   1.895
  103SOL    HW1 1208   2.400   2.097   1.814
  103SOL    HW2 1209   2.505   2.005   1.900
  104SOL     OW 1210   1.467   6.016   2.882
  104SOL    HW1 1211   1.412   6.094   2.911
  104SOL    HW2 1212   1.411   5.954   2.827
  105SOL     OW 1213   6.597   1.243   6.075
  105SOL    HW1 1214   6.672   1.204   6.130
  105SOL    HW2 1215   6.630   1.323   6.025
  106SOL     OW 1216   3.740   6.232   4.130
  106SOL    HW1 1217   3.809   6.269   4.192
  106SOL    HW2 1218   3.654   6.220   4.180
  107SOL     OW 1219   1.049   1.345   0.845
  107SOL    HW1 1220   1.030   1.256   0.805
  107SOL    HW2 1221   1.037   1.341   0.944
  108SOL     OW 1222   3.298   0.040   5.610
  108SOL    HW1 1223   3.265   0.013   5.519
  108SOL    HW2 1224   3.221   0.039   5.674
  109SOL     OW 1225   1.688   0.842   2.455
  109SOL    HW1 1226   1.595   0.861   2.426
  109SOL    HW2 1227   1.709   0.745   2.437
  110SOL     OW 1228   2.815   5.125   4.267
  110SOL    HW1 1229   2.810   5.175   4.181
  110SOL    HW2 1230   2.766   5.038   4.258
  111SOL     OW 1231   1.681   1.295   3.881
  111SOL    HW1 1232   1.744   1.358   3.836
  111SOL    HW2 1233   1.654   1.333   3.969
  112SOL     OW 1234   3.114   5.658   6.600
  112SOL    HW1 1235   3.190   5.639   6.538
  112SOL    HW2 1236   3.083   5.752   6.587
  113SOL     OW 1237   0.453   5.850   2.317
  113SOL    HW1 1238   0.387   5.832   2.390
  113SOL    HW2 1239   0.505   5.767   2.298
  114SOL     OW 1240   0.929   6.784   2.035
  114SOL    HW1 1241   0.970   6.815   2.120
  114SOL    HW2 1242   0.850   6.725   2.055
  115SOL     OW 1243   4.946   1.383   3.088
  115SOL    HW1 1244   4.973   1.295   3.051
  115SOL    HW2 1245   4.846   1.388   3.094
  116SOL     OW 1246   6.069   5.891   1.650
  116SOL    HW1 1247   6.126   5.818   1.614
  116SOL    HW2 1248   6.126   5.959   1.696
  117SOL     OW 1249   1.349   1.187   1.421
  117SOL    HW1 1250   1.369   1.273   1.375
  117SOL    HW2 1251   1.361   1.111   1.356
  118SOL     OW 1252   1.223   0.847   2.186
  118SOL    HW1 1253   1.133   0.824   2.150
  118SOL    HW2 1254   1.287   0.864   2.111
  119SOL     OW 1255   0.400   0.447   0.175
  119SOL    HW1 1256   0.443   0.372   0.226
  119SOL    HW2 1257   0.471   0.507   0.139
  120SOL     OW 1258   5.438   0.918   6.056
  120SOL    HW1 1259   5.408   0.981   6.128
  120SOL    HW2 1260   5.365   0.852   6.038
  121SOL     OW 1261   1.974   3.100   6.866
  121SOL    HW1 1262   2.070   3.075   6.878
  121SOL    HW2 1263   1.947   3.085   6.771
  122SOL     OW 1264   1.364   3.619   6.452
  122SOL    HW1 1265   1.277   3.584   6.417
  122SOL    HW2 1266   1.420   3.543   6.484
  123SOL     OW 1267   1.028   1.224   2.818
  123SOL    HW1 1268   1.064   1.238   2.911
  123SOL    HW2 1269   0.941   1.175   2.823
  124SOL     OW 1270   4.077   2.490   1.051
  124SOL    HW1 1271   4.082   2.444   1.140
  124SOL    HW2 1272   4.059   2.422   0.980
  125SOL     OW 1273   3.767   2.138   0.308
  125SOL    HW1 1274   3.730   2.173   0.222
  125SOL    HW2 1275   3.695   2.095   0.361
  126SOL     OW 1276   2.986   4.117   1.273
  126SOL    HW1 1277   2.946   4.094   1.362
  126SOL    HW2 1278   2.936   4.194   1.234
  127SOL     OW 1279   1.045   4.669   6.831
  127SOL    HW1 1280   1.085   4.635   6.746
  127SOL    HW2 1281   1.088   4.756   6.855
  128SOL     OW 1282   4.695   2.793   1.544
  128SOL    HW1 1283   4.777   2.772   1.492
  128SOL    HW2 1284   4.623   2.728   1.520
  129SOL     OW 1285   3.420   3.871   6.287
  129SOL    HW1 1286   3.414   3.932   6.367
  129SOL    HW2 1287   3.458   3.922   6.210
  130SOL     OW 1288   1.549   1.777   4.592
  130SOL    HW1 1289   1.599   1.864   4.600
  130SOL    HW2 1290   1.561   1.741   4.500
  131SOL     OW 1291   4.354   0.395   3.566
  131SOL    HW1 1292   4.294   0.420   3.490
  131SOL    HW2 1293   4.303   0.400   3.652
  132SOL     OW 1294   3.001   2.688   1.734
  132SOL    HW1 1295   2.999   2.605   1.789
  132SOL    HW2 1296   3.096   2.709   1.709
  133SOL     OW 1297   4.794   0.627   3.983
  133SOL    HW1 1298   4.829   0.618   3.890
  133SOL    HW2 1299   4.830   0.710   4.025
  134SOL     OW 1300   6.618   1.181   2.448
  134SOL    HW1 1301   6.555   1.106   2.467
  134SOL    HW2 1302   6.695   1.146   2.394
  135SOL     OW 1303   5.090   4.115   3.656
  135SOL    HW1 1304   5.101   4.208   3.692
  135SOL    HW2 1305   4.997   4.102   3.624
  136SOL     OW 1306   1.498   5.286   5.037
  136SOL    HW1 1307   1.439   5.344   5.093
  136SOL    HW2 1308   1.593   5.307   5.055
  137SOL     OW 1309   5.295   1.660   2.931
  137SOL    HW1 1310   5.266   1.617   3.017
  137SOL    HW2 1311   5.348   1.742   2.952
  138SOL     OW 1312   1.314   3.804   3.023
  138SOL    HW1 1313   1.341   3.721   2.974
  138SOL    HW2 1314   1.370   3.814   3.104
  139SOL     OW 1315   1.498   0.309   5.360
  139SOL    HW1 1316   1.545   0.363   5.290
  139SOL    HW2 1317   1.521   0.212   5.349
  140SOL     OW 1318   1.461   6.674   3.898
  140SOL    HW1 1319   1.363   6.666   3.880
  140SOL    HW2 1320   1.482   6.633   3.987
  141SOL     OW 1321   0.250   2.717   5.012
  141SOL    HW1 1322   0.231   2.666   4.928
  141SOL    HW2 1323   0.263   2.814   4.989
  142SOL     OW 1324   1.365   4.674   1.300
  142SOL    HW1 1325   1.360   4.743   1.373
  142SOL    HW2 1326   1.367   4.720   1.211
  143SOL     OW 1327   5.855   4.181   0.508
  143SOL    HW1 1328   5.865   4.151   0.413
  143SOL    HW2 1329   5.781   4.248   0.513
  144SOL     OW 1330   1.156   4.874   5.586
  144SOL    HW1 1331   1.115   4.916   5.505
  144SOL    HW2 1332   1.221   4.804   5.558
  145SOL     OW 1333   1.227   5.126   1.400
  145SOL    HW1 1334   1.168   5.047   1.413
  145SOL    HW2 1335   1.180   5.208   1.433
  146SOL     OW 1336   5.037   0.402   5.846
  146SOL    HW1 1337   4.953   0.378   5.797
  146SOL    HW2 1338   5.064   0.326   5.905
  147SOL     OW 1339   5.390   2.305   6.059
  147SOL    HW1 1340   5.367   2.401   6.073
  147SOL    HW2 1341   5.445   2.273   6.136
  148SOL     OW 1342   6.683   5.164   0.496
  148SOL    HW1 1343   6.723   5.072   0.491
  148SOL    HW2 1344   6.750   5.228   0.532
  149SOL     OW 1345   3.637   2.136   4.100
  149SOL    HW1 1346   3.712   2.130   4.034
  149SOL    HW2 1347   3.639   2.056   4.160
  150SOL     OW 1348   5.863   6.873   0.420
  150SOL    HW1 1349   5.831   6.866   0.326
  150SOL    HW2 1350   5.933   6.804   0.436
  151SOL     OW 1351   3.164   1.527   1.911
  151SOL    HW1 1352   3.177   1.560   1.818
  151SOL    HW2 1353   3.196   1.597   1.976
  152SOL     OW 1354   0.156   1.016   1.718
  152SOL    HW1 1355   0.238   1.071   1.702
  152SOL    HW2 1356   0.088   1.070   1.768
  153SOL     OW 1357   2.703   0.333   3.786
  153SOL    HW1 1358   2.719   0.246   3.740
  153SOL    HW2 1359   2.790   0.373   3.814
  154SOL     OW 1360   1.025   3.442   1.358
  154SOL    HW1 1361   1.124   3.448   1.373
  154SOL    HW2 1362   1.005   3.447   1.260
  155SOL     OW 1363   0.812   1.736   5.283
  155SOL    HW1 1364   0.797   1.827   5.320
  155SOL    HW2 1365   0.763   1.726   5.196
  156SOL     OW 1366   0.178   0.748   0.830
  156SOL    HW1 1367   0.264   0.720   0.872
  156SOL    HW2 1368   0.184   0.844   0.802
  157SOL     OW 1369   5.541   3.138   1.532
  157SOL    HW1 1370   5.615   3.158   1.595
  157SOL    HW2 1371   5.523   3.219   1.475
  158SOL     OW 1372   1.443   3.179   1.805
  158SOL    HW1 1373   1.537   3.149   1.790
  158SOL    HW2 1374   1.431   3.205   1.901
  159SOL     OW 1375   4.442   4.906   2.670
  159SOL    HW1 1376   4.517   4.968   2.647
  159SOL    HW2 1377   4.392   4.881   2.587
  160SOL     OW 1378   5.539   6.599   0.680
  160SOL    HW1 1379   5.524   6.652   0.597
  160SOL    HW2 1380   5.487   6.639   0.755
  161SOL     OW 1381   1.451   6.243   3.428
  161SOL    HW1 1382   1.401   6.159   3.447
  161SOL    HW2 1383   1.542   6.220   3.392
  162SOL     OW 1384   3.896   6.518   0.105
  162SOL    HW1 1385   3.932   6.579   0.176
  162SOL    HW2 1386   3.861   6.434   0.148
  163SOL     OW 1387   6.335   5.371   2.234
  163SOL    HW1 1388   6.374   5.388   2.325
  163SOL    HW2 1389   6.294   5.455   2.200
  164SOL     OW 1390   0.522   4.423   2.602
  164SOL    HW1 1391   0.446   4.478   2.636
  164SOL    HW2 1392   0.589   4.411   2.675
  165SOL     OW 1393   4.474   3.569   1.537
  165SOL    HW1 1394   4.511   3.478   1.521
  165SOL    HW2 1395   4.467   3.585   1.636
  166SOL     OW 1396   1.551   3.440   2.201
  166SOL    HW1 1397   1.573   3.513   2.266
  166SOL    HW2 1398   1.628   3.427   2.138
  167SOL     OW 1399   5.165   2.927   6.740
  167SOL    HW1 1400   5.073   2.891   6.724
  167SOL    HW2 1401   5.182   3.004   6.679
  168SOL     OW 1402   3.543   2.931   1.017
  168SOL    HW1 1403   3.547   2.915   1.116
  168SOL    HW2 1404   3.505   2.850   0.972
  169SOL     OW 1405   6.077   2.025   1.626
  169SOL    HW1 1406   6.052   1.979   1.541
  169SOL    HW2 1407   6.124   1.960   1.687
  170SOL     OW 1408   0.268   6.943   2.585
  170SOL    HW1 1409   0.192   6.945   2.519
  170SOL    HW2 1410   0.232   6.949   2.678
  171SOL     OW 1411   2.307   4.017   6.828
  171SOL    HW1 1412   2.258   4.095   6.789
  171SOL    HW2 1413   2.270   3.932   6.790
  172SOL     OW 1414   6.257   1.072   2.724
  172SOL    HW1 1415   6.286   1.166   2.740
  172SOL    HW2 1416   6.335   1.018   2.693
  173SOL     OW 1417   6.523   1.270   3.938
  173SOL    HW1 1418   6.482   1.305   3.854
  173SOL    HW2 1419   6.611   1.315   3.953
  174SOL     OW 1420   3.821   5.379   3.743
  174SOL    HW1 1421   3.772   5.438   3.807
  174SOL    HW2 1422   3.840   5.428   3.659
  175SOL     OW 1423   2.898   0.238   1.491
  175SOL    HW1 1424   2.927   0.274   1.580
  175SOL    HW2 1425   2.973   0.185   1.451
  176SOL     OW 1426   6.759   4.541   1.180
  176SOL    HW1 1427   6.815   4.513   1.258
  176SOL    HW2 1428   6.782   4.485   1.100
  177SOL     OW 1429   5.776   3.322   3.620
  177SOL    HW1 1430   5.815   3.410   3.593
  177SOL    HW2 1431   5.694   3.304   3.565
  178SOL     OW 1432   3.152   4.284   5.764
  178SOL    HW1 1433   3.139   4.190   5.796
  178SOL    HW2 1434   3.219   4.285   5.690
  179SOL     OW 1435   4.138   1.420   6.011
  179SOL    HW1 1436   4.197   1.364   5.953
  179SOL    HW2 1437   4.054   1.370   6.032
  180SOL     OW 1438   2.084   6.858   0.240
  180SOL    HW1 1439   2.114   6.878   0.147
  180SOL    HW2 1440   2.040   6.768   0.242
  181SOL     OW 1441   3.601   3.605   5.618
  181SOL    HW1 1442   3.567   3.541   5.549
  181SOL    HW2 1443   3.589   3.566   5.709
  182SOL     OW 1444   3.496   1.862   5.437
  182SOL    HW1 1445   3.447   1.877   5.351
  182SOL    HW2 1446   3.443   1.902   5.512
  183SOL     OW 1447   3.634   1.774   3.336
  183SOL    HW1 1448   3.592   1.861   3.362
  183SOL    HW2 1449   3.640   1.768   3.236
  184SOL     OW 1450   0.995   6.641   4.006
  184SOL    HW1 1451   0.975   6.593   4.091
  184SOL    HW2 1452   1.040   6.578   3.942
  185SOL     OW 1453   0.632   0.664   5.587
  185SOL    HW1 1454   0.626   0.763   5.598
  185SOL    HW2 1455   0.577   0.635   5.509
  186SOL     OW 1456   6.102   0.718   3.981
  186SOL    HW1 1457   6.067   0.651   3.915
  186SOL    HW2 1458   6.201   0.712   3.984
  187SOL     OW 1459   5.084   6.613   2.372
  187SOL    HW1 1460   5.153   6.680   2.400
  187SOL    HW2 1461   5.000   6.660   2.347
  188SOL     OW 1462   1.506   3.372   3.043
  188SOL    HW1 1463   1.441   3.441   3.013
  188SOL    HW2 1464   1.467   3.322   3.121
  189SOL     OW 1465   2.794   5.656   0.602
  189SOL    HW1 1466   2.697   5.674   0.614
  189SOL    HW2 1467   2.840   5.662   0.691
  190SOL     OW 1468   5.503   3.458   5.593
  190SOL    HW1 1469   5.465   3.515   5.666
  190SOL    HW2 1470   5.477   3.363   5.607
  191SOL     OW 1471   5.925   0.417   6.269
  191SOL    HW1 1472   6.019   0.435   6.298
  191SOL    HW2 1473   5.874   0.376   6.345
  192SOL     OW 1474   0.661   4.859   2.517
  192SOL    HW1 1475   0.664   4.940   2.458
  192SOL    HW2 1476   0.672   4.777   2.462
  193SOL     OW 1477   4.410   3.779   5.290
  193SOL    HW1 1478   4.326   3.749   5.337
  193SOL    HW2 1479   4.407   3.749   5.195
  194SOL     OW 1480   3.697   0.524   2.745
  194SOL    HW1 1481   3.757   0.455   2.704
  194SOL    HW2 1482   3.745   0.612   2.747
  195SOL     OW 1483   1.733   0.290   4.153
  195SOL    HW1 1484   1.718   0.313   4.057
  195SOL    HW2 1485   1.707   0.368   4.210
  196SOL     OW 1486   3.222   0.630   0.634
  196SOL    HW1 1487   3.237   0.545   0.584
  196SOL    HW2 1488   3.151   0.616   0.703
  197SOL     OW 1489   2.575   0.557   1.656
  197SOL    HW1 1490   2.628   0.479   1.691
  197SOL    HW2 1491   2.634   0.614   1.598
  198SOL     OW 1492   5.067   0.174   1.658
  198SOL    HW1 1493   5.094   0.098   1.600
  198SOL    HW2 1494   4.995   0.144   1.721
  199SOL     OW 1495   6.495   1.461   3.144
  199SOL    HW1 1496   6.413   1.455   3.086
  199SOL    HW2 1497   6.507   1.556   3.174
  200SOL     OW 1498   1.218   4.112   1.823
  200SOL    HW1 1499   1.255   4.083   1.912
  200SOL    HW2 1500   1.125   4.076   1.813
  201SOL     OW 1501   7.005   6.743   6.238
  201SOL    HW1 1502   6.919   6.781   6.272
  201SOL    HW2 1503   0.048   6.732   6.314
  202SOL     OW 1504   4.782   0.211   5.976
  202SOL    HW1 1505   4.787   0.296   6.029
  202SOL    HW2 1506   4.752   0.231   5.883
  203SOL     OW 1507   4.468   2.414   4.350
  203SOL    HW1 1508   4.488   2.397   4.447
  203SOL    HW2 1509   4.526   2.488   4.316
  204SOL     OW 1510   0.364   1.099   6.376
  204SOL    HW1 1511   0.452   1.109   6.422
  204SOL    HW2 1512   0.315   1.020   6.415
  205SOL     OW 1513   0.586   1.001   3.333
  205SOL    HW1 1514   0.546   1.082   3.289
  205SOL    HW2 1515   0.685   1.011   3.338
  206SOL     OW 1516   0.185   4.927   1.657
  206SOL    HW1 1517   0.214   4.833   1.674
  206SOL    HW2 1518   0.095   4.942   1.699
  207SOL     OW 1519   5.151   1.160   3.629
  207SOL    HW1 1520   5.238   1.115   3.607
  207SOL    HW2 1521   5.090   1.154   3.550
  208SOL     OW 1522   5.524   2.604   5.259
  208SOL    HW1 1523   5.450   2.555   5.304
  208SOL    HW2 1524   5.510   2.603   5.160
  209SOL     OW 1525   0.372   4.491   4.521
  209SOL    HW1 1526   0.396   4.394   4.516
  209SOL    HW2 1527   0.304   4.505   4.593
  210SOL     OW 1528   4.442   1.926   0.504
  210SOL    HW1 1529   4.485   1.849   0.551
  210SOL    HW2 1530   4.352   1.943   0.543
  211SOL     OW 1531   2.499   5.860   3.610
  211SOL    HW1 1532   2.434   5.788   3.586
  211SOL    HW2 1533   2.593   5.825   3.602
  212SOL     OW 1534   1.565   4.502   1.537
  212SOL    HW1 1535   1.532   4.569   1.604
  212SOL    HW2 1536   1.487   4.458   1.492
  213SOL     OW 1537   2.810   0.659   6.549
  213SOL    HW1 1538   2.783   0.600   6.473
  213SOL    HW2 1539   2.771   0.623   6.634
  214SOL     OW 1540   4.848   5.326   1.482
  214SOL    HW1 1541   4.913   5.374   1.541
  214SOL    HW2 1542   4.756   5.361   1.499
  215SOL     OW 1543   2.310   3.782   0.751
  215SOL    HW1 1544   2.338   3.699   0.799
  215SOL    HW2 1545   2.224   3.815   0.789
  216SOL     OW 1546   2.510   6.012   4.437
  216SOL    HW1 1547   2.420   5.972   4.453
  216SOL    HW2 1548   2.577   5.968   4.497
  217SOL     OW 1549   2.073   2.474   4.218
  217SOL    HW1 1550   2.067   2.573   4.213
  217SOL    HW2 1551   2.000   2.439   4.277
  218SOL     OW 1552   1.093   3.037   4.253
  218SOL    HW1 1553   1.061   3.068   4.342
  218SOL    HW2 1554   1.017   2.999   4.201
  219SOL     OW 1555   4.203   6.374   5.930
  219SOL    HW1 1556   4.167   6.464   5.954
  219SOL    HW2 1557   4.266   6.383   5.852
  220SOL     OW 1558   3.824   6.992   0.644
  220SOL    HW1 1559   3.799   0.047   0.703
  220SOL    HW2 1560   3.886   6.931   0.693
  221SOL     OW 1561   6.463   2.895   1.807
  221SOL    HW1 1562   6.378   2.940   1.780
  221SOL    HW2 1563   6.531   2.903   1.734
  222SOL     OW 1564   2.752   4.823   5.881
  222SOL    HW1 1565   2.652   4.830   5.888
  222SOL    HW2 1566   2.778   4.726   5.882
  223SOL     OW 1567   5.485   3.013   0.947
  223SOL    HW1 1568   5.428   3.017   1.029
  223SOL    HW2 1569   5.474   2.924   0.903
  224SOL     OW 1570   2.181   2.306   4.775
  224SOL    HW1 1571   2.264   2.250   4.768
  224SOL    HW2 1572   2.179   2.372   4.699
  225SOL     OW 1573   4.953   2.653   6.215
  225SOL    HW1 1574   5.010   2.689   6.141
  225SOL    HW2 1575   4.922   2.561   6.191
  226SOL     OW 1576   1.205   0.571   6.212
  226SOL    HW1 1577   1.190   0.644   6.146
  226SOL    HW2 1578   1.300   0.574   6.243
  227SOL     OW 1579   1.528   3.533   3.406
  227SOL    HW1 1580   1.557   3.620   3.367
  227SOL    HW2 1581   1.432   3.539   3.433
  228SOL     OW 1582   2.941   6.025   3.596
  228SOL    HW1 1583   2.981   5.945   3.640
  228SOL    HW2 1584   2.939   6.012   3.497
  229SOL     OW 1585   4.936   6.092   6.979
  229SOL    HW1 1586   4.908   6.148   6.901
  229SOL    HW2 1587   4.966   6.002   6.947
  230SOL     OW 1588   2.861   4.773   3.243
  230SOL    HW1 1589   2.861   4.673   3.249
  230SOL    HW2 1590   2.899   4.801   3.155
  231SOL     OW 1591   5.969   1.593   6.709
  231SOL    HW1 1592   6.040   1.556   6.650
  231SOL    HW2 1593   6.001   1.678   6.751
  232SOL     OW 1594   1.109   3.846   6.156
  232SOL    HW1 1595   1.047   3.881   6.086
  232SOL    HW2 1596   1.199   3.829   6.115
  233SOL     OW 1597   2.285   2.421   4.012
  233SOL    HW1 1598   2.253   2.411   3.918
  233SOL    HW2 1599   2.206   2.419   4.074
  234SOL     OW 1600   4.015   6.647   5.004
  234SOL    HW1 1601   3.949   6.711   5.042
  234SOL    HW2 1602   3.996   6.633   4.907
  235SOL     OW 1603   3.651   2.942   1.663
  235SOL    HW1 1604   3.563   2.972   1.627
  235SOL    HW2 1605   3.644   2.931   1.762
  236SOL     OW 1606   5.103   3.127   7.011
  236SOL    HW1 1607   5.079   3.171   6.924
  236SOL    HW2 1608   5.020   3.091   0.032
  237SOL     OW 1609   5.996   5.019   2.064
  237SOL    HW1 1610   6.020   5.093   2.127
  237SOL    HW2 1611   6.073   4.999   2.004
  238SOL     OW 1612   5.303   2.580   6.777
  238SOL    HW1 1613   5.287   2.552   6.682
  238SOL    HW2 1614   5.228   2.548   6.835
  239SOL     OW 1615   0.317   5.502   5.589
  239SOL    HW1 1616   0.253   5.436   5.549
  239SOL    HW2 1617   0.312   5.497   5.689
  240SOL     OW 1618   0.558   2.561   3.944
  240SOL    HW1 1619   0.569   2.479   3.999
  240SOL    HW2 1620   0.596   2.546   3.853
  241SOL     OW 1621   1.806   0.329   4.961
  241SOL    HW1 1622   1.894   0.342   4.915
  241SOL    HW2 1623   1.802   0.237   5.000
  242SOL     OW 1624   2.901   3.145   5.518
  242SOL    HW1 1625   2.866   3.104   5.433
  242SOL    HW2 1626   2.832   3.208   5.554
  243SOL     OW 1627   4.538   0.080   5.751
  243SOL    HW1 1628   4.448   0.101   5.712
  243SOL    HW2 1629   4.529   0.009   5.820
  244SOL     OW 1630   5.664   2.284   4.883
  244SOL    HW1 1631   5.593   2.214   4.871
  244SOL    HW2 1632   5.650   2.357   4.816
  245SOL     OW 1633   6.396   3.640   4.745
  245SOL    HW1 1634   6.417   3.736   4.729
  245SOL    HW2 1635   6.398   3.591   4.658
  246SOL     OW 1636   4.723   2.376   3.012
  246SOL    HW1 1637   4.639   2.421   3.044
  246SOL    HW2 1638   4.714   2.354   2.915
  247SOL     OW 1639   3.284   1.668   1.694
  247SOL    HW1 1640   3.328   1.752   1.727
  247SOL    HW2 1641   3.249   1.683   1.602
  248SOL     OW 1642   3.654   2.043   2.807
  248SOL    HW1 1643   3.634   1.948   2.828
  248SOL    HW2 1644   3.581   2.081   2.750
  249SOL     OW 1645   4.075   7.003   5.641
  249SOL    HW1 1646   4.023   6.957   5.569
  249SOL    HW2 1647   4.130   6.935   5.690
  250SOL     OW 1648   5.282   2.553   0.857
  250SOL    HW1 1649   5.200   2.538   0.913
  250SOL    HW2 1650   5.363   2.554   0.915
  251SOL     OW 1651   4.826   3.788   5.489
  251SOL    HW1 1652   4.771   3.707   5.472
  251SOL    HW2 1653   4.810   3.856   5.417
  252SOL     OW 1654   6.508   0.085   6.581
  252SOL    HW1 1655   6.563   0.162   6.614
  252SOL    HW2 1656   6.496   0.093   6.482
  253SOL     OW 1657   2.391   4.272   0.044
  253SOL    HW1 1658   2.364   4.176   0.047
  253SOL    HW2 1659   2.370   4.316   0.131
  254SOL     OW 1660   4.953   3.207   3.118
  254SOL    HW1 1661   4.982   3.225   3.025
  254SOL    HW2 1662   4.881   3.138   3.118
  255SOL     OW 1663   2.059   3.302   4.843
  255SOL    HW1 1664   1.977   3.352   4.816
  255SOL    HW2 1665   2.078   3.317   4.940
  256SOL     OW 1666   6.470   4.077   6.279
  256SOL    HW1 1667   6.550   4.048   6.332
  256SOL    HW2 1668   6.395   4.100   6.341
  257SOL     OW 1669   4.728   6.773   4.030
  257SOL    HW1 1670   4.757   6.868   4.043
  257SOL    HW2 1671   4.630   6.769   4.014
  258SOL     OW 1672   0.483   5.028   4.967
  258SOL    HW1 1673   0.508   5.111   5.017
  258SOL    HW2 1674   0.423   5.052   4.891
  259SOL     OW 1675   1.644   2.159   2.116
  259SOL    HW1 1676   1.618   2.063   2.101
  259SOL    HW2 1677   1.586   2.198   2.187
  260SOL     OW 1678   4.597   1.097   0.803
  260SOL    HW1 1679   4.524   1.098   0.872
  260SOL    HW2 1680   4.598   1.007   0.757
  261SOL     OW 1681   6.626   3.788   0.182
  261SOL    HW1 1682   6.572   3.705   0.169
  261SOL    HW2 1683   6.585   3.843   0.256
  262SOL     OW 1684   6.678   4.406   0.424
  262SOL    HW1 1685   6.744   4.331   0.432
  262SOL    HW2 1686   6.586   4.372   0.445
  263SOL     OW 1687   0.697   1.023   4.010
  263SOL    HW1 1688   0.758   0.948   3.984
  263SOL    HW2 1689   0.610   1.012   3.962
  264SOL     OW 1690   4.550   3.138   5.883
  264SOL    HW1 1691   4.482   3.065   5.880
  264SOL    HW2 1692   4.562   3.170   5.977
  265SOL     OW 1693   4.783   5.393   3.158
  265SOL    HW1 1694   4.784   5.365   3.062
  265SOL    HW2 1695   4.690   5.388   3.193
  266SOL     OW 1696   3.842   3.329   5.617
  266SOL    HW1 1697   3.758   3.374   5.648
  266SOL    HW2 1698   3.832   3.301   5.522
  267SOL     OW 1699   6.413   2.300   6.046
  267SOL    HW1 1700   6.461   2.234   5.989
  267SOL    HW2 1701   6.347   2.253   6.104
  268SOL     OW 1702   3.988   7.008   5.290
  268SOL    HW1 1703   4.074   0.036   5.275
  268SOL    HW2 1704   3.966   6.955   5.208
  269SOL     OW 1705   1.678   3.296   1.200
  269SOL    HW1 1706   1.595   3.342   1.168
  269SOL    HW2 1707   1.744   3.364   1.231
  270SOL     OW 1708   0.438   0.292   0.745
  270SOL    HW1 1709   0.360   0.336   0.700
  270SOL    HW2 1710   0.407   0.210   0.793
  271SOL     OW 1711   2.471   1.394   0.624
  271SOL    HW1 1712   2.427   1.434   0.704
  271SOL    HW2 1713   2.494   1.466   0.559
  272SOL     OW 1714   3.090   4.932   4.181
  272SOL    HW1 1715   3.015   4.875   4.147
  272SOL    HW2 1716   3.065   4.970   4.269
  273SOL     OW 1717   2.097   4.792   4.608
  273SOL    HW1 1718   2.039   4.862   4.651
  273SOL    HW2 1719   2.192   4.809   4.632
  274SOL     OW 1720   5.026   2.275   3.630
  274SOL    HW1 1721   4.942   2.227   3.652
  274SOL    HW2 1722   5.071   2.304   3.715
  275SOL     OW 1723   6.308   4.887   5.800
  275SOL    HW1 1724   6.212   4.881   5.830
  275SOL    HW2 1725   6.354   4.959   5.851
  276SOL     OW 1726   6.912   5.271   2.476
  276SOL    HW1 1727   6.938   5.326   2.396
  276SOL    HW2 1728   6.962   5.302   2.556
  277SOL     OW 1729   2.223   4.044   0.389
  277SOL    HW1 1730   2.253   3.958   0.431
  277SOL    HW2 1731   2.133   4.030   0.347
  278SOL     OW 1732   0.077   5.336   1.737
  278SOL    HW1 1733   6.999   5.322   1.739
  278SOL    HW2 1734   0.103   5.396   1.813
  279SOL     OW 1735   6.542   2.944   4.447
  279SOL    HW1 1736   6.555   3.020   4.510
  279SOL    HW2 1737   6.601   2.956   4.367
  280SOL     OW 1738   2.195   6.946   2.872
  280SOL    HW1 1739   2.109   6.989   2.901
  280SOL    HW2 1740   2.194   6.849   2.895
  281SOL     OW 1741   3.338   4.883   2.098
  281SOL    HW1 1742   3.315   4.918   2.189
  281SOL    HW2 1743   3.418   4.825   2.104
  282SOL     OW 1744   3.478   1.076   5.507
  282SOL    HW1 1745   3.473   1.109   5.413
  282SOL    HW2 1746   3.573   1.057   5.531
  283SOL     OW 1747   6.876   1.214   5.645
  283SOL    HW1 1748   6.892   1.123   5.607
  283SOL    HW2 1749   6.782   1.242   5.627
  284SOL     OW 1750   0.693   4.242   4.484
  284SOL    HW1 1751   0.690   4.339   4.459
  284SOL    HW2 1752   0.612   4.195   4.449
  285SOL     OW 1753   5.615   5.150   6.207
  285SOL    HW1 1754   5.689   5.216   6.191
  285SOL    HW2 1755   5.624   5.073   6.145
  286SOL     OW 1756   3.409   5.334   5.028
  286SOL    HW1 1757   3.383   5.255   5.084
  286SOL    HW2 1758   3.345   5.409   5.043
  287SOL     OW 1759   0.765   4.635   6.950
  287SOL    HW1 1760   0.727   4.543   6.941
  287SOL    HW2 1761   0.855   4.639   6.906
  288SOL     OW 1762   4.312   2.380   6.492
  288SOL    HW1 1763   4.260   2.357   6.410
  288SOL    HW2 1764   4.399   2.422   6.466
  289SOL     OW 1765   6.961   5.470   5.403
  289SOL    HW1 1766   6.994   5.565   5.403
  289SOL    HW2 1767   0.016   5.409   5.426
  290SOL     OW 1768   4.953   1.489   3.797
  290SOL    HW1 1769   4.870   1.491   3.853
  290SOL    HW2 1770   5.020   1.553   3.835
  291SOL     OW 1771   2.577   1.716   4.756
  291SOL    HW1 1772   2.522   1.752   4.681
  291SOL    HW2 1773   2.663   1.767   4.762
  292SOL     OW 1774   2.203   1.706   2.364
  292SOL    HW1 1775   2.183   1.780   2.299
  292SOL    HW2 1776   2.264   1.640   2.321
  293SOL     OW 1777   4.853   4.901   1.806
  293SOL    HW1 1778   4.827   4.993   1.779
  293SOL    HW2 1779   4.885   4.851   1.725
  294SOL     OW 1780   6.511   5.571   6.561
  294SOL    HW1 1781   6.436   5.635   6.579
  294SOL    HW2 1782   6.516   5.552   6.463
  295SOL     OW 1783   3.076   1.371   4.411
  295SOL    HW1 1784   3.116   1.350   4.322
  295SOL    HW2 1785   3.054   1.286   4.458
  296SOL     OW 1786   6.011   2.065   2.388
  296SOL    HW1 1787   6.003   2.151   2.439
  296SOL    HW2 1788   6.024   2.084   2.291
  297SOL     OW 1789   2.899   4.798   2.953
  297SOL    HW1 1790   2.940   4.837   2.870
  297SOL    HW2 1791   2.799   4.805   2.946
  298SOL     OW 1792   3.192   6.192   0.769
  298SOL    HW1 1793   3.148   6.105   0.745
  298SOL    HW2 1794   3.280   6.175   0.812
  299SOL     OW 1795   3.664   3.511   6.127
  299SOL    HW1 1796   3.700   3.548   6.212
  299SOL    HW2 1797   3.567   3.533   6.120
  300SOL     OW 1798   5.660   0.739   1.963
  300SOL    HW1 1799   5.573   0.698   1.989
  300SOL    HW2 1800   5.696   0.793   2.039
  301SOL     OW 1801   5.740   3.420   1.005
  301SOL    HW1 1802   5.830   3.439   1.044
  301SOL    HW2 1803   5.703   3.504   0.965
  302SOL     OW 1804   0.513   0.888   3.751
  302SOL    HW1 1805   0.533   0.986   3.742
  302SOL    HW2 1806   0.462   0.857   3.671
  303SOL     OW 1807   6.509   0.070   2.088
  303SOL    HW1 1808   6.498   0.064   1.988
  303SOL    HW2 1809   6.473   7.009   2.130
  304SOL     OW 1810   1.735   6.682   5.587
  304SOL    HW1 1811   1.811   6.718   5.532
  304SOL    HW2 1812   1.764   6.597   5.631
  305SOL     OW 1813   1.359   3.192   6.966
  305SOL    HW1 1814   1.324   3.145   6.885
  305SOL    HW2 1815   1.299   3.176   0.022
  306SOL     OW 1816   1.802   6.762   3.598
  306SOL    HW1 1817   1.901   6.771   3.590
  306SOL    HW2 1818   1.763   6.747   3.507
  307SOL     OW 1819   5.065   5.871   0.170
  307SOL    HW1 1820   5.108   5.959   0.192
  307SOL    HW2 1821   5.061   5.860   0.071
  308SOL     OW 1822   6.229   3.615   4.481
  308SOL    HW1 1823   6.166   3.546   4.516
  308SOL    HW2 1824   6.200   3.705   4.514
  309SOL     OW 1825   2.700   6.218   0.003
  309SOL    HW1 1826   2.725   6.184   6.934
  309SOL    HW2 1827   2.710   6.318   0.006
  310SOL     OW 1828   5.668   6.221   5.327
  310SOL    HW1 1829   5.742   6.162   5.294
  310SOL    HW2 1830   5.583   6.197   5.281
  311SOL     OW 1831   4.542   4.942   2.913
  311SOL    HW1 1832   4.456   4.959   2.962
  311SOL    HW2 1833   4.524   4.885   2.833
  312SOL     OW 1834   4.076   1.186   4.617
  312SOL    HW1 1835   4.152   1.188   4.683
  312SOL    HW2 1836   4.065   1.093   4.582
  313SOL     OW 1837   2.949   3.803   2.316
  313SOL    HW1 1838   2.927   3.753   2.232
  313SOL    HW2 1839   2.928   3.745   2.395
  314SOL     OW 1840   3.152   5.348   6.918
  314SOL    HW1 1841   3.127   5.327   7.013
  314SOL    HW2 1842   3.108   5.432   6.890
  315SOL     OW 1843   1.342   2.720   4.005
  315SOL    HW1 1844   1.404   2.642   3.998
  315SOL    HW2 1845   1.383   2.799   3.961
  316SOL     OW 1846   2.963   1.632   3.986
  316SOL    HW1 1847   3.056   1.654   4.016
  316SOL    HW2 1848   2.915   1.581   4.058
  317SOL     OW 1849   0.038   1.559   0.972
  317SOL    HW1 1850   0.065   1.472   1.013
  317SOL    HW2 1851   6.968   1.550   0.932
  318SOL     OW 1852   1.141   5.842   6.586
  318SOL    HW1 1853   1.057   5.788   6.580
  318SOL    HW2 1854   1.155   5.872   6.680
  319SOL     OW 1855   6.634   0.979   3.186
  319SOL    HW1 1856   6.604   1.068   3.151
  319SOL    HW2 1857   6.586   0.906   3.137
  320SOL     OW 1858   6.612   2.472   1.602
  320SOL    HW1 1859   6.585   2.445   1.694
  320SOL    HW2 1860   6.549   2.542   1.568
  321SOL     OW 1861   3.980   2.123   0.043
  321SOL    HW1 1862   4.074   2.149   0.018
  321SOL    HW2 1863   3.956   2.165   0.130
  322SOL     OW 1864   3.770   2.899   4.089
  322SOL    HW1 1865   3.786   2.932   3.996
  322SOL    HW2 1866   3.748   2.801   4.086
  323SOL     OW 1867   1.112   2.867   6.394
  323SOL    HW1 1868   1.133   2.956   6.352
  323SOL    HW2 1869   1.197   2.824   6.423
  324SOL     OW 1870   2.685   1.489   4.868
  324SOL    HW1 1871   2.755   1.449   4.808
  324SOL    HW2 1872   2.646   1.570   4.824
  325SOL     OW 1873   0.801   2.987   2.047
  325SOL    HW1 1874   0.766   3.068   2.000
  325SOL    HW2 1875   0.725   2.925   2.068
  326SOL     OW 1876   1.166   4.669   6.568
  326SOL    HW1 1877   1.139   4.658   6.472
  326SOL    HW2 1878   1.250   4.616   6.585
  327SOL     OW 1879   1.459   4.732   3.431
  327SOL    HW1 1880   1.400   4.702   3.355
  327SOL    HW2 1881   1.554   4.714   3.408
  328SOL     OW 1882   1.463   5.701   1.936
  328SOL    HW1 1883   1.377   5.673   1.894
  328SOL    HW2 1884   1.538   5.645   1.902
  329SOL     OW 1885   3.755   3.579   4.634
  329SOL    HW1 1886   3.720   3.546   4.722
  329SOL    HW2 1887   3.696   3.652   4.600
  330SOL     OW 1888   3.806   6.771   1.651
  330SOL    HW1 1889   3.832   6.680   1.621
  330SOL    HW2 1890   3.887   6.830   1.653
  331SOL     OW 1891   3.655   5.255   0.079
  331SOL    HW1 1892   3.729   5.215   0.024
  331SOL    HW2 1893   3.601   5.181   0.119
  332SOL     OW 1894   4.395   1.653   5.113
  332SOL    HW1 1895   4.345   1.593   5.051
  332SOL    HW2 1896   4.336   1.679   5.189
  333SOL     OW 1897   2.709   0.386   6.123
  333SOL    HW1 1898   2.746   0.463   6.072
  333SOL    HW2 1899   2.767   0.305   6.108
  334SOL     OW 1900   3.290   0.426   1.538
  334SOL    HW1 1901   3.190   0.435   1.531
  334SOL    HW2 1902   3.312   0.355   1.606
  335SOL     OW 1903   3.757   7.005   5.406
  335SOL    HW1 1904   3.847   7.001   5.364
  335SOL    HW2 1905   3.738   6.919   5.454
  336SOL     OW 1906   1.792   0.414   3.610
  336SOL    HW1 1907   1.839   0.471   3.543
  336SOL    HW2 1908   1.703   0.454   3.630
  337SOL     OW 1909   0.561   2.625   6.923
  337SOL    HW1 1910   0.575   2.545   6.865
  337SOL    HW2 1911   0.643   2.643   6.977
  338SOL     OW 1912   2.816   2.200   1.547
  338SOL    HW1 1913   2.811   2.265   1.471
  338SOL    HW2 1914   2.881   2.127   1.525
  339SOL     OW 1915   3.053   6.286   3.614
  339SOL    HW1 1916   3.029   6.190   3.628
  339SOL    HW2 1917   2.986   6.328   3.552
  340SOL     OW 1918   4.811   4.490   5.391
  340SOL    HW1 1919   4.853   4.429   5.324
  340SOL    HW2 1920   4.760   4.562   5.344
  341SOL     OW 1921   6.321   0.684   4.689
  341SOL    HW1 1922   6.283   0.736   4.766
  341SOL    HW2 1923   6.359   0.747   4.621
  342SOL     OW 1924   6.089   3.648   0.182
  342SOL    HW1 1925   5.989   3.646   0.188
  342SOL    HW2 1926   6.118   3.614   0.093
  343SOL     OW 1927   2.063   5.677   0.446
  343SOL    HW1 1928   2.117   5.697   0.364
  343SOL    HW2 1929   2.115   5.704   0.527
  344SOL     OW 1930   1.150   4.379   2.189
  344SOL    HW1 1931   1.128   4.284   2.167
  344SOL    HW2 1932   1.224   4.410   2.129
  345SOL     OW 1933   4.479   1.317   3.408
  345SOL    HW1 1934   4.454   1.233   3.360
  345SOL    HW2 1935   4.474   1.395   3.344
  346SOL     OW 1936   2.344   0.721   3.169
  346SOL    HW1 1937   2.375   0.785   3.239
  346SOL    HW2 1938   2.280   0.767   3.108
  347SOL     OW 1939   2.810   5.295   6.340
  347SOL    HW1 1940   2.804   5.200   6.309
  347SOL    HW2 1941   2.871   5.301   6.419
  348SOL     OW 1942   5.393   3.976   2.321
  348SOL    HW1 1943   5.340   4.048   2.365
  348SOL    HW2 1944   5.360   3.887   2.352
  349SOL     OW 1945   6.808   5.222   0.947
  349SOL    HW1 1946   6.842   5.128   0.954
  349SOL    HW2 1947   6.811   5.265   1.037
  350SOL     OW 1948   3.471   3.387   1.098
  350SOL    HW1 1949   3.442   3.478   1.068
  350SOL    HW2 1950   3.391   3.328   1.107
  351SOL     OW 1951   1.882   2.848   0.930
  351SOL    HW1 1952   1.831   2.884   1.008
  351SOL    HW2 1953   1.966   2.804   0.963
  352SOL     OW 1954   2.583   1.130   4.584
  352SOL    HW1 1955   2.668   1.082   4.604
  352SOL    HW2 1956   2.602   1.225   4.559
  353SOL     OW 1957   2.441   0.183   0.676
  353SOL    HW1 1958   2.427   0.258   0.740
  353SOL    HW2 1959   2.434   0.217   0.582
  354SOL     OW 1960   3.873   2.486   0.815
  354SOL    HW1 1961   3.893   2.552   0.887
  354SOL    HW2 1962   3.931   2.406   0.826
  355SOL     OW 1963   0.915   3.742   2.607
  355SOL    HW1 1964   0.909   3.806   2.683
  355SOL    HW2 1965   0.978   3.668   2.631
  356SOL     OW 1966   2.885   0.163   5.881
  356SOL    HW1 1967   2.839   0.240   5.837
  356SOL    HW2 1968   2.920   0.192   5.970
  357SOL     OW 1969   6.751   6.853   5.551
  357SOL    HW1 1970   6.840   6.831   5.590
  357SOL    HW2 1971   6.728   6.949   5.569
  358SOL     OW 1972   4.390   0.277   0.657
  358SOL    HW1 1973   4.362   0.360   0.608
  358SOL    HW2 1974   4.347   0.276   0.747
  359SOL     OW 1975   1.668   2.603   2.190
  359SOL    HW1 1976   1.749   2.657   2.209
  359SOL    HW2 1977   1.693   2.521   2.138
  360SOL     OW 1978   0.918   4.930   6.560
  360SOL    HW1 1979   1.015   4.936   6.534
  360SOL    HW2 1980   0.892   4.834   6.569
  361SOL     OW 1981   5.670   5.607   2.931
  361SOL    HW1 1982   5.647   5.589   3.026
  361SOL    HW2 1983   5.651   5.526   2.875
  362SOL     OW 1984   3.687   3.886   1.589
  362SOL    HW1 1985   3.726   3.920   1.675
  362SOL    HW2 1986   3.754   3.829   1.542
  363SOL     OW 1987   5.415   4.788   3.417
  363SOL    HW1 1988   5.412   4.709   3.356
  363SOL    HW2 1989   5.476   4.769   3.494
  364SOL     OW 1990   6.118   5.143   6.172
  364SOL    HW1 1991   6.055   5.074   6.210
  364SOL    HW2 1992   6.129   5.218   6.237
  365SOL     OW 1993   5.679   5.990   2.243
  365SOL    HW1 1994   5.648   6.062   2.180
  365SOL    HW2 1995   5.635   5.903   2.218
  366SOL     OW 1996   6.377   0.702   6.085
  366SOL    HW1 1997   6.363   0.680   6.181
  366SOL    HW2 1998   6.424   0.790   6.078
  367SOL     OW 1999   4.831   2.613   0.922
  367SOL    HW1 2000   4.888   2.532   0.910
  367SOL    HW2 2001   4.889   2.692   0.943
  368SOL     OW 2002   0.140   3.896   4.796
  368SOL    HW1 2003   0.226   3.851   4.823
  368SOL    HW2 2004   0.067   3.869   4.858
  369SOL     OW 2005   6.486   5.432   1.750
  369SOL    HW1 2006   6.514   5.345   1.710
  369SOL    HW2 2007   6.387   5.444   1.739
  370SOL     OW 2008   2.856   1.178   5.877
  370SOL    HW1 2009   2.759   1.157   5.887
  370SOL    HW2 2010   2.867   1.253   5.812
  371SOL     OW 2011   2.223   3.779   6.344
  371SOL    HW1 2012   2.260   3.707   6.285
  371SOL    HW2 2013   2.177   3.738   6.422
  372SOL     OW 2014   1.463   6.368   6.268
  372SOL    HW1 2015   1.387   6.310   6.239
  372SOL    HW2 2016   1.543   6.312   6.287
  373SOL     OW 2017   6.859   6.900   4.495
  373SOL    HW1 2018   6.815   6.812   4.510
  373SOL    HW2 2019   6.921   6.894   4.418
  374SOL     OW 2020   2.394   1.889   2.996
  374SOL    HW1 2021   2.394   1.873   2.898
  374SOL    HW2 2022   2.400   1.988   3.013
  375SOL     OW 2023   1.020   4.335   3.604
  375SOL    HW1 2024   1.051   4.311   3.512
  375SOL    HW2 2025   0.956   4.412   3.598
  376SOL     OW 2026   2.415   1.492   4.795
  376SOL    HW1 2027   2.514   1.498   4.806
  376SOL    HW2 2028   2.393   1.467   4.701
  377SOL     OW 2029   1.250   2.175   1.353
  377SOL    HW1 2030   1.336   2.149   1.309
  377SOL    HW2 2031   1.191   2.095   1.360
  378SOL     OW 2032   3.515   2.268   5.830
  378SOL    HW1 2033   3.447   2.211   5.877
  378SOL    HW2 2034   3.600   2.267   5.882
  379SOL     OW 2035   6.111   3.963   0.948
  379SOL    HW1 2036   6.021   4.001   0.926
  379SOL    HW2 2037   6.129   3.884   0.889
  380SOL     OW 2038   2.475   1.150   1.265
  380SOL    HW1 2039   2.514   1.215   1.199
  380SOL    HW2 2040   2.513   1.059   1.248
  381SOL     OW 2041   1.821   3.869   2.601
  381SOL    HW1 2042   1.796   3.777   2.570
  381SOL    HW2 2043   1.745   3.908   2.654
  382SOL     OW 2044   5.616   6.556   6.366
  382SOL    HW1 2045   5.676   6.619   6.317
  382SOL    HW2 2046   5.651   6.463   6.359
  383SOL     OW 2047   4.743   3.351   5.798
  383SOL    HW1 2048   4.686   3.287   5.849
  383SOL    HW2 2049   4.697   3.440   5.792
  384SOL     OW 2050   6.911   5.759   4.333
  384SOL    HW1 2051   6.850   5.822   4.284
  384SOL    HW2 2052   6.975   5.811   4.389
  385SOL     OW 2053   4.112   5.718   5.251
  385SOL    HW1 2054   4.133   5.782   5.178
  385SOL    HW2 2055   4.034   5.661   5.224
  386SOL     OW 2056   2.577   6.215   5.673
  386SOL    HW1 2057   2.496   6.253   5.628
  386SOL    HW2 2058   2.583   6.117   5.653
  387SOL     OW 2059   0.955   6.493   3.506
  387SOL    HW1 2060   0.866   6.455   3.530
  387SOL    HW2 2061   0.942   6.577   3.452
  388SOL     OW 2062   1.475   1.690   4.331
  388SOL    HW1 2063   1.464   1.789   4.341
  388SOL    HW2 2064   1.529   1.671   4.249
  389SOL     OW 2065   4.174   4.775   0.963
  389SOL    HW1 2066   4.084   4.807   0.936
  389SOL    HW2 2067   4.195   4.690   0.914
  390SOL     OW 2068   3.126   1.451   0.140
  390SOL    HW1 2069   3.178   1.391   0.079
  390SOL    HW2 2070   3.164   1.543   0.137
  391SOL     OW 2071   2.105   3.615   5.377
  391SOL    HW1 2072   2.111   3.595   5.279
  391SOL    HW2 2073   2.197   3.627   5.414
  392SOL     OW 2074   2.018   4.427   1.392
  392SOL    HW1 2075   1.977   4.378   1.469
  392SOL    HW2 2076   2.087   4.490   1.426
  393SOL     OW 2077   1.367   4.493   6.653
  393SOL    HW1 2078   1.341   4.437   6.732
  393SOL    HW2 2079   1.414   4.436   6.586
  394SOL     OW 2080   6.863   2.886   0.495
  394SOL    HW1 2081   6.953   2.867   0.533
  394SOL    HW2 2082   6.850   2.984   0.486
  395SOL     OW 2083   4.728   4.823   3.295
  395SOL    HW1 2084   4.723   4.751   3.225
  395SOL    HW2 2085   4.699   4.786   3.383
  396SOL     OW 2086   2.996   3.163   2.189
  396SOL    HW1 2087   3.072   3.108   2.154
  396SOL    HW2 2088   2.923   3.167   2.120
  397SOL     OW 2089   5.796   1.374   5.949
  397SOL    HW1 2090   5.830   1.314   5.877
  397SOL    HW2 2091   5.700   1.353   5.968
  398SOL     OW 2092   1.077   0.068   3.984
  398SOL    HW1 2093   1.032   0.094   4.069
  398SOL    HW2 2094   1.116   6.998   3.994
  399SOL     OW 2095   5.053   6.977   3.979
  399SOL    HW1 2096   5.003   0.034   4.016
  399SOL    HW2 2097   5.072   6.912   4.053
  400SOL     OW 2098   6.486   6.732   5.714
  400SOL    HW1 2099   6.389   6.744   5.734
  400SOL    HW2 2100   6.503   6.637   5.686
  401SOL     OW 2101   5.086   0.298   6.612
  401SOL    HW1 2102   5.109   0.352   6.693
  401SOL    HW2 2103   5.098   0.201   6.631
  402SOL     OW 2104   6.598   0.806   3.588
  402SOL    HW1 2105   6.656   0.725   3.585
  402SOL    HW2 2106   6.647   0.884   3.549
  403SOL     OW 2107   3.789   0.893   5.128
  403SOL    HW1 2108   3.883   0.859   5.140
  403SOL    HW2 2109   3.792   0.982   5.083
  404SOL     OW 2110   1.474   4.630   4.036
  404SOL    HW1 2111   1.495   4.591   3.946
  404SOL    HW2 2112   1.555   4.625   4.094
  405SOL     OW 2113   2.135   3.238   3.225
  405SOL    HW1 2114   2.145   3.144   3.255
  405SOL    HW2 2115   2.157   3.246   3.128
  406SOL     OW 2116   0.390   4.187   4.496
  406SOL    HW1 2117   0.423   4.126   4.568
  406SOL    HW2 2118   0.358   4.132   4.418
  407SOL     OW 2119   1.363   2.111   5.312
  407SOL    HW1 2120   1.283   2.052   5.297
  407SOL    HW2 2121   1.436   2.083   5.251
  408SOL     OW 2122   3.006   2.166   3.137
  408SOL    HW1 2123   2.976   2.218   3.217
  408SOL    HW2 2124   2.972   2.211   3.054
  409SOL     OW 2125   6.324   3.110   1.708
  409SOL    HW1 2126   6.347   3.190   1.652
  409SOL    HW2 2127   6.302   3.140   1.801
  410SOL     OW 2128   0.889   1.825   1.306
  410SOL    HW1 2129   0.866   1.733   1.336
  410SOL    HW2 2130   0.871   1.834   1.208
  411SOL     OW 2131   6.830   1.070   1.569
  411SOL    HW1 2132   6.835   0.970   1.565
  411SOL    HW2 2133   6.914   1.109   1.532
  412SOL     OW 2134   3.588   5.668   2.357
  412SOL    HW1 2135   3.576   5.703   2.450
  412SOL    HW2 2136   3.592   5.568   2.360
  413SOL     OW 2137   5.722   4.287   1.819
  413SOL    HW1 2138   5.726   4.324   1.912
  413SOL    HW2 2139   5.638   4.234   1.809
  414SOL     OW 2140   3.680   5.854   3.407
  414SOL    HW1 2141   3.743   5.877   3.333
  414SOL    HW2 2142   3.668   5.933   3.466
  415SOL     OW 2143   0.135   0.530   0.309
  415SOL    HW1 2144   0.132   0.628   0.288
  415SOL    HW2 2145   0.230   0.499   0.308
  416SOL     OW 2146   5.134   5.362   5.210
  416SOL    HW1 2147   5.184   5.372   5.123
  416SOL    HW2 2148   5.170   5.428   5.276
  417SOL     OW 2149   1.960   6.794   5.482
  417SOL    HW1 2150   2.044   6.786   5.428
  417SOL    HW2 2151   1.980   6.769   5.577
  418SOL     OW 2152   3.327   6.654   6.904
  418SOL    HW1 2153   3.269   6.573   6.893
  418SOL    HW2 2154   3.388   6.641   6.982
  419SOL     OW 2155   0.827   6.542   2.843
  419SOL    HW1 2156   0.842   6.599   2.923
  419SOL    HW2 2157   0.914   6.530   2.794
  420SOL     OW 2158   6.142   1.466   6.514
  420SOL    HW1 2159   6.163   1.379   6.470
  420SOL    HW2 2160   6.089   1.523   6.452
  421SOL     OW 2161   5.557   3.999   4.516
  421SOL    HW1 2162   5.501   3.924   4.553
  421SOL    HW2 2163   5.645   3.961   4.484
  422SOL     OW 2164   5.107   3.231   0.978
  422SOL    HW1 2165   5.049   3.198   0.903
  422SOL    HW2 2166   5.050   3.273   1.048
  423SOL     OW 2167   1.598   2.222   0.019
  423SOL    HW1 2168   1.607   2.211   6.941
  423SOL    HW2 2169   1.516   2.276   0.039
  424SOL     OW 2170   1.933   5.038   2.167
  424SOL    HW1 2171   2.031   5.056   2.178
  424SOL    HW2 2172   1.903   4.974   2.238
  425SOL     OW 2173   5.010   1.901   4.101
  425SOL    HW1 2174   5.026   1.962   4.024
  425SOL    HW2 2175   4.938   1.939   4.159
  426SOL     OW 2176   2.663   2.020   4.418
  426SOL    HW1 2177   2.713   2.073   4.487
  426SOL    HW2 2178   2.723   1.949   4.381
  427SOL     OW 2179   6.500   6.880   3.824
  427SOL    HW1 2180   6.540   6.967   3.796
  427SOL    HW2 2181   6.408   6.896   3.860
  428SOL     OW 2182   3.881   0.348   3.714
  428SOL    HW1 2183   3.874   0.442   3.747
  428SOL    HW2 2184   3.840   0.286   3.781
  429SOL     OW 2185   0.275   4.721   3.574
  429SOL    HW1 2186   0.314   4.771   3.497
  429SOL    HW2 2187   0.309   4.626   3.573
  430SOL     OW 2188   1.289   6.593   4.591
  430SOL    HW1 2189   1.213   6.638   4.638
  430SOL    HW2 2190   1.342   6.540   4.657
  431SOL     OW 2191   2.889   0.728   1.007
  431SOL    HW1 2192   2.816   0.790   0.977
  431SOL    HW2 2193   2.850   0.656   1.064
  432SOL     OW 2194   6.681   2.299   1.374
  432SOL    HW1 2195   6.595   2.279   1.328
  432SOL    HW2 2196   6.665   2.364   1.448
  433SOL     OW 2197   2.066   6.346   5.665
  433SOL    HW1 2198   2.153   6.393   5.679
  433SOL    HW2 2199   2.072   6.252   5.699
  434SOL     OW 2200   4.677   6.082   3.558
  434SOL    HW1 2201   4.703   6.141   3.634
  434SOL    HW2 2202   4.617   6.133   3.495
  435SOL     OW 2203   3.926   1.936   5.592
  435SOL    HW1 2204   3.926   1.998   5.514
  435SOL    HW2 2205   4.007   1.876   5.587
  436SOL     OW 2206   2.787   5.795   2.036
  436SOL    HW1 2207   2.855   5.867   2.032
  436SOL    HW2 2208   2.698   5.831   2.008
  437SOL     OW 2209   0.749   1.171   6.349
  437SOL    HW1 2210   0.711   1.192   6.439
  437SOL    HW2 2211   0.821   1.236   6.328
  438SOL     OW 2212   1.230   3.731   4.209
  438SOL    HW1 2213   1.230   3.827   4.179
  438SOL    HW2 2214   1.233   3.728   4.309
  439SOL     OW 2215   5.745   6.305   2.581
  439SOL    HW1 2216   5.686   6.230   2.611
  439SOL    HW2 2217   5.781   6.353   2.661
  440SOL     OW 2218   2.834   1.631   5.573
  440SOL    HW1 2219   2.750   1.619   5.626
  440SOL    HW2 2220   2.896   1.692   5.623
  441SOL     OW 2221   6.783   3.346   3.714
  441SOL    HW1 2222   6.704   3.297   3.750
  441SOL    HW2 2223   6.754   3.408   3.641
  442SOL     OW 2224   4.746   5.907   5.515
  442SOL    HW1 2225   4.648   5.924   5.516
  442SOL    HW2 2226   4.776   5.874   5.605
  443SOL     OW 2227   5.789   3.871   4.415
  443SOL    HW1 2228   5.841   3.847   4.497
  443SOL    HW2 2229   5.851   3.875   4.336
  444SOL     OW 2230   4.610   6.890   5.898
  444SOL    HW1 2231   4.668   6.932   5.968
  444SOL    HW2 2232   4.578   6.800   5.931
  445SOL     OW 2233   2.339   6.285   3.052
  445SOL    HW1 2234   2.355   6.293   2.953
  445SOL    HW2 2235   2.410   6.335   3.101
  446SOL     OW 2236   4.601   5.689   2.464
  446SOL    HW1 2237   4.565   5.781   2.452
  446SOL    HW2 2238   4.606   5.643   2.375
  447SOL     OW 2239   6.023   4.060   5.338
  447SOL    HW1 2240   5.953   4.131   5.350
  447SOL    HW2 2241   6.114   4.101   5.343
  448SOL     OW 2242   2.688   0.897   3.048
  448SOL    HW1 2243   2.700   0.831   2.974
  448SOL    HW2 2244   2.594   0.931   3.049
  449SOL     OW 2245   2.834   1.150   4.251
  449SOL    HW1 2246   2.767   1.095   4.201
  449SOL    HW2 2247   2.915   1.096   4.270
  450SOL     OW 2248   1.706   4.684   3.345
  450SOL    HW1 2249   1.730   4.677   3.248
  450SOL    HW2 2250   1.768   4.628   3.399
  451SOL     OW 2251   1.944   2.360   4.466
  451SOL    HW1 2252   2.027   2.402   4.502
  451SOL    HW2 2253   1.866   2.389   4.521
  452SOL     OW 2254   4.640   6.425   1.578
  452SOL    HW1 2255   4.614   6.401   1.484
  452SOL    HW2 2256   4.578   6.496   1.612
  453SOL     OW 2257   3.704   6.865   6.614
  453SOL    HW1 2258   3.768   6.900   6.545
  453SOL    HW2 2259   3.647   6.794   6.573
  454SOL     OW 2260   0.024   3.149   6.671
  454SOL    HW1 2261   0.096   3.086   6.699
  454SOL    HW2 2262   6.965   3.136   6.729
  455SOL     OW 2263   5.135   2.236   5.049
  455SOL    HW1 2264   5.043   2.240   5.009
  455SOL    HW2 2265   5.165   2.141   5.053
  456SOL     OW 2266   0.977   0.487   4.785
  456SOL    HW1 2267   0.964   0.483   4.884
  456SOL    HW2 2268   1.024   0.404   4.754
  457SOL     OW 2269   2.207   4.328   4.333
  457SOL    HW1 2270   2.232   4.239   4.293
  457SOL    HW2 2271   2.181   4.390   4.260
  458SOL     OW 2272   3.020   0.178   2.851
  458SOL    HW1 2273   3.065   0.131   2.775
  458SOL    HW2 2274   3.036   0.277   2.842
  459SOL     OW 2275   1.407   0.319   5.742
  459SOL    HW1 2276   1.454   0.386   5.684
  459SOL    HW2 2277   1.308   0.332   5.734
  460SOL     OW 2278   1.633   0.285   4.723
  460SOL    HW1 2279   1.696   0.310   4.796
  460SOL    HW2 2280   1.606   0.190   4.733
  461SOL     OW 2281   6.370   4.527   6.068
  461SOL    HW1 2282   6.307   4.450   6.063
  461SOL    HW2 2283   6.448   4.502   6.126
  462SOL     OW 2284   3.894   3.546   5.894
  462SOL    HW1 2285   3.830   3.532   5.969
  462SOL    HW2 2286   3.958   3.469   5.890
  463SOL     OW 2287   7.014   0.280   3.886
  463SOL    HW1 2288   7.000   0.338   3.966
  463SOL    HW2 2289   6.926   0.261   3.842
  464SOL     OW 2290   2.182   0.813   5.602
  464SOL    HW1 2291   2.243   0.830   5.680
  464SOL    HW2 2292   2.193   0.718   5.572
  465SOL     OW 2293   0.447   2.338   0.006
  465SOL    HW1 2294   0.392   2.313   6.948
  465SOL    HW2 2295   0.540   2.304   7.015
  466SOL     OW 2296   2.802   6.496   4.014
  466SOL    HW1 2297   2.718   6.487   3.961
  466SOL    HW2 2298   2.868   6.426   3.985
  467SOL     OW 2299   1.714   1.112   2.373
  467SOL    HW1 2300   1.639   1.162   2.417
  467SOL    HW2 2301   1.693   1.015   2.373
  468SOL     OW 2302   3.905   5.316   4.901
  468SOL    HW1 2303   3.818   5.367   4.899
  468SOL    HW2 2304   3.910   5.263   4.985
  469SOL     OW 2305   3.008   3.722   6.090
  469SOL    HW1 2306   3.076   3.771   6.144
  469SOL    HW2 2307   3.054   3.670   6.018
  470SOL     OW 2308   4.033   6.300   1.481
  470SOL    HW1 2309   3.954   6.237   1.482
  470SOL    HW2 2310   4.116   6.248   1.500
  471SOL     OW 2311   2.707   2.392   4.205
  471SOL    HW1 2312   2.725   2.399   4.303
  471SOL    HW2 2313   2.671   2.479   4.172
  472SOL     OW 2314   5.867   4.428   0.304
  472SOL    HW1 2315   5.887   4.500   0.238
  472SOL    HW2 2316   5.895   4.457   0.395
  473SOL     OW 2317   1.039   1.674   1.884
  473SOL    HW1 2318   1.026   1.579   1.914
  473SOL    HW2 2319   1.020   1.736   1.959
  474SOL     OW 2320   5.641   5.474   4.986
  474SOL    HW1 2321   5.594   5.551   5.029
  474SOL    HW2 2322   5.706   5.508   4.918
  475SOL     OW 2323   6.341   2.795   0.715
  475SOL    HW1 2324   6.331   2.891   0.689
  475SOL    HW2 2325   6.354   2.740   0.633
  476SOL     OW 2326   7.005   3.726   1.884
  476SOL    HW1 2327   6.986   3.774   1.799
  476SOL    HW2 2328   6.992   3.787   1.961
  477SOL     OW 2329   2.757   5.738   3.631
  477SOL    HW1 2330   2.720   5.696   3.714
  477SOL    HW2 2331   2.856   5.746   3.640
  478SOL     OW 2332   3.910   6.195   3.304
  478SOL    HW1 2333   3.906   6.104   3.261
  478SOL    HW2 2334   3.853   6.259   3.252
  479SOL     OW 2335   3.829   2.951   4.734
  479SOL    HW1 2336   3.924   2.923   4.726
  479SOL    HW2 2337   3.816   3.040   4.689
  480SOL     OW 2338   3.242   0.487   1.183
  480SOL    HW1 2339   3.305   0.532   1.247
  480SOL    HW2 2340   3.167   0.549   1.161
  481SOL     OW 2341   0.585   6.595   1.521
  481SOL    HW1 2342   0.591   6.526   1.449
  481SOL    HW2 2343   0.639   6.675   1.496
  482SOL     OW 2344   4.709   5.336   2.431
  482SOL    HW1 2345   4.638   5.280   2.389
  482SOL    HW2 2346   4.673   5.383   2.511
  483SOL     OW 2347   0.004   2.412   2.649
  483SOL    HW1 2348   6.994   2.441   2.559
  483SOL    HW2 2349   0.061   2.484   2.689
  484SOL     OW 2350   1.733   4.215   4.696
  484SOL    HW1 2351   1.823   4.187   4.731
  484SOL    HW2 2352   1.717   4.172   4.607
  485SOL     OW 2353   4.653   5.007   2.533
  485SOL    HW1 2354   4.647   5.085   2.471
  485SOL    HW2 2355   4.704   4.934   2.489
  486SOL     OW 2356   5.817   1.466   6.921
  486SOL    HW1 2357   5.853   1.501   6.835
  486SOL    HW2 2358   5.882   1.488   6.995
  487SOL     OW 2359   0.994   0.666   3.228
  487SOL    HW1 2360   1.069   0.600   3.233
  487SOL    HW2 2361   0.934   0.642   3.152
  488SOL     OW 2362   0.721   6.634   2.091
  488SOL    HW1 2363   0.623   6.632   2.073
  488SOL    HW2 2364   0.749   6.549   2.136
  489SOL     OW 2365   5.921   6.068   5.226
  489SOL    HW1 2366   5.925   6.167   5.239
  489SOL    HW2 2367   6.010   6.028   5.251
  490SOL     OW 2368   1.720   6.139   3.616
  490SOL    HW1 2369   1.632   6.131   3.663
  490SOL    HW2 2370   1.706   6.128   3.517
  491SOL     OW 2371   1.252   3.213   1.135
  491SOL    HW1 2372   1.338   3.262   1.143
  491SOL    HW2 2373   1.248   3.140   1.204
  492SOL     OW 2374   1.456   1.124   5.860
  492SOL    HW1 2375   1.364   1.105   5.895
  492SOL    HW2 2376   1.502   1.038   5.839
  493SOL     OW 2377   2.861   6.875   5.433
  493SOL    HW1 2378   2.868   6.968   5.470
  493SOL    HW2 2379   2.766   6.854   5.413
  494SOL     OW 2380   1.619   0.347   6.377
  494SOL    HW1 2381   1.650   0.311   6.465
  494SOL    HW2 2382   1.648   0.285   6.303
  495SOL     OW 2383   3.358   6.271   3.848
  495SOL    HW1 2384   3.454   6.282   3.822
  495SOL    HW2 2385   3.311   6.216   3.778
  496SOL     OW 2386   6.778   2.537   2.063
  496SOL    HW1 2387   6.683   2.560   2.084
  496SOL    HW2 2388   6.816   2.482   2.138
  497SOL     OW 2389   3.404   1.400   4.783
  497SOL    HW1 2390   3.381   1.497   4.796
  497SOL    HW2 2391   3.320   1.347   4.771
  498SOL     OW 2392   0.641   4.772   2.186
  498SOL    HW1 2393   0.685   4.797   2.099
  498SOL    HW2 2394   0.687   4.693   2.225
  499SOL     OW 2395   1.624   5.450   4.771
  499SOL    HW1 2396   1.568   5.370   4.793
  499SOL    HW2 2397   1.686   5.427   4.696
  500SOL     OW 2398   5.694   2.714   6.952
  500SOL    HW1 2399   5.784   2.692   6.915
  500SOL    HW2 2400   5.705   2.768   0.014
  501SOL     OW 2401   4.211   6.963   0.929
  501SOL    HW1 2402   4.221   0.036   0.900
  501SOL    HW2 2403   4.297   6.914   0.917
  502SOL     OW 2404   0.895   4.638   6.015
  502SOL    HW1 2405   0.849   4.550   6.026
  502SOL    HW2 2406   0.865   4.700   6.087
  503SOL     OW 2407   1.732   5.006   6.042
  503SOL    HW1 2408   1.697   4.945   5.970
  503SOL    HW2 2409   1.827   5.029   6.023
  504SOL     OW 2410   1.265   5.494   2.154
  504SOL    HW1 2411   1.354   5.524   2.188
  504SOL    HW2 2412   1.199   5.569   2.162
  505SOL     OW 2413   3.899   6.417   4.563
  505SOL    HW1 2414   3.938   6.336   4.607
  505SOL    HW2 2415   3.925   6.419   4.467
  506SOL     OW 2416   3.202   6.263   2.458
  506SOL    HW1 2417   3.247   6.338   2.506
  506SOL    HW2 2418   3.105   6.285   2.446
  507SOL     OW 2419   3.433   6.330   2.798
  507SOL    HW1 2420   3.525   6.352   2.765
  507SOL    HW2 2421   3.365   6.362   2.733
  508SOL     OW 2422   0.181   2.970   2.220
  508SOL    HW1 2423   0.117   2.982   2.296
  508SOL    HW2 2424   0.138   2.913   2.150
  509SOL     OW 2425   3.674   1.156   0.883
  509SOL    HW1 2426   3.594   1.211   0.906
  509SOL    HW2 2427   3.647   1.059   0.878
  510SOL     OW 2428   6.903   4.234   6.264
  510SOL    HW1 2429   6.936   4.173   6.336
  510SOL    HW2 2430   6.952   4.215   6.179
  511SOL     OW 2431   1.147   2.536   6.720
  511SOL    HW1 2432   1.121   2.442   6.702
  511SOL    HW2 2433   1.077   2.598   6.685
  512SOL     OW 2434   6.325   2.329   6.750
  512SOL    HW1 2435   6.263   2.312   6.827
  512SOL    HW2 2436   6.417   2.343   6.785
  513SOL     OW 2437   5.231   6.829   3.222
  513SOL    HW1 2438   5.188   6.919   3.233
  513SOL    HW2 2439   5.194   6.784   3.140
  514SOL     OW 2440   6.850   0.998   4.542
  514SOL    HW1 2441   6.834   0.948   4.456
  514SOL    HW2 2442   6.781   1.070   4.552
  515SOL     OW 2443   1.955   0.704   0.553
  515SOL    HW1 2444   1.880   0.649   0.591
  515SOL    HW2 2445   1.940   0.800   0.574
  516SOL     OW 2446   2.946   4.788   2.096
  516SOL    HW1 2447   2.891   4.714   2.057
  516SOL    HW2 2448   2.887   4.861   2.129
  517SOL     OW 2449   3.359   4.705   1.656
  517SOL    HW1 2450   3.438   4.671   1.708
  517SOL    HW2 2451   3.276   4.661   1.689
  518SOL     OW 2452   2.288   2.040   3.340
  518SOL    HW1 2453   2.298   2.140   3.340
  518SOL    HW2 2454   2.205   2.015   3.390
  519SOL     OW 2455   0.244   6.645   3.283
  519SOL    HW1 2456   0.265   6.623   3.378
  519SOL    HW2 2457   0.146   6.638   3.268
  520SOL     OW 2458   6.516   3.637   6.798
  520SOL    HW1 2459   6.452   3.713   6.804
  520SOL    HW2 2460   6.476   3.564   6.742
  521SOL     OW 2461   5.665   5.440   5.282
  521SOL    HW1 2462   5.677   5.449   5.183
  521SOL    HW2 2463   5.751   5.463   5.328
  522SOL     OW 2464   4.080   3.606   2.940
  522SOL    HW1 2465   4.180   3.597   2.934
  522SOL    HW2 2466   4.051   3.605   3.035
  523SOL     OW 2467   7.001   5.879   1.432
  523SOL    HW1 2468   6.936   5.842   1.364
  523SOL    HW2 2469   0.072   5.855   1.405
  524SOL     OW 2470   1.618   2.593   2.781
  524SOL    HW1 2471   1.715   2.617   2.776
  524SOL    HW2 2472   1.587   2.559   2.692
  525SOL     OW 2473   2.004   3.955   5.548
  525SOL    HW1 2474   2.095   3.967   5.587
  525SOL    HW2 2475   2.006   3.982   5.451
  526SOL     OW 2476   3.226   6.514   3.562
  526SOL    HW1 2477   3.284   6.547   3.636
  526SOL    HW2 2478   3.192   6.422   3.583
  527SOL     OW 2479   0.117   2.183   0.546
  527SOL    HW1 2480   0.201   2.235   0.531
  527SOL    HW2 2481   0.138   2.086   0.553
  528SOL     OW 2482   1.732   2.748   3.892
  528SOL    HW1 2483   1.824   2.726   3.925
  528SOL    HW2 2484   1.718   2.704   3.803
  529SOL     OW 2485   1.555   6.691   5.101
  529SOL    HW1 2486   1.587   6.615   5.044
  529SOL    HW2 2487   1.597   6.685   5.192
  530SOL     OW 2488   4.092   3.706   2.680
  530SOL    HW1 2489   4.041   3.792   2.675
  530SOL    HW2 2490   4.074   3.663   2.769
  531SOL     OW 2491   1.369   1.170   2.821
  531SOL    HW1 2492   1.315   1.181   2.905
  531SOL    HW2 2493   1.382   1.259   2.778
  532SOL     OW 2494   1.409   3.315   0.357
  532SOL    HW1 2495   1.444   3.242   0.416
  532SOL    HW2 2496   1.486   3.357   0.308
  533SOL     OW 2497   4.401   6.888   3.415
  533SOL    HW1 2498   4.394   6.877   3.316
  533SOL    HW2 2499   4.343   6.965   3.444
  534SOL     OW 2500   5.588   5.788   2.731
  534SOL    HW1 2501   5.620   5.725   2.802
  534SOL    HW2 2502   5.497   5.760   2.701
  535SOL     OW 2503   6.900   4.189   2.969
  535SOL    HW1 2504   6.845   4.145   2.897
  535SOL    HW2 2505   6.842   4.250   3.023
  536SOL     OW 2506   6.559   4.698   2.509
  536SOL    HW1 2507   6.513   4.609   2.503
  536SOL    HW2 2508   6.511   4.764   2.452
  537SOL     OW 2509   3.274   6.861   4.598
  537SOL    HW1 2510   3.184   6.894   4.626
  537SOL    HW2 2511   3.297   6.902   4.509
  538SOL     OW 2512   0.386   4.572   4.126
  538SOL    HW1 2513   0.454   4.537   4.062
  538SOL    HW2 2514   0.431   4.599   4.211
  539SOL     OW 2515   2.193   4.903   1.868
  539SOL    HW1 2516   2.240   4.915   1.780
  539SOL    HW2 2517   2.138   4.984   1.887
  540SOL     OW 2518   1.522   1.473   2.692
  540SOL    HW1 2519   1.518   1.493   2.790
  540SOL    HW2 2520   1.439   1.507   2.647
  541SOL     OW 2521   5.216   5.597   3.646
  541SOL    HW1 2522   5.182   5.527   3.583
  541SOL    HW2 2523   5.156   5.677   3.643
  542SOL     OW 2524   4.592   6.414   6.917
  542SOL    HW1 2525   4.685   6.386   6.896
  542SOL    HW2 2526   4.557   6.472   6.844
  543SOL     OW 2527   6.318   3.686   3.989
  543SOL    HW1 2528   6.261   3.693   4.071
  543SOL    HW2 2529   6.348   3.592   3.976
  544SOL     OW 2530   1.144   4.881   6.947
  544SOL    HW1 2531   1.178   4.877   0.019
  544SOL    HW2 2532   1.160   4.972   6.909
  545SOL     OW 2533   3.636   0.713   1.468
  545SOL    HW1 2534   3.667   0.657   1.545
  545SOL    HW2 2535   3.552   0.674   1.430
  546SOL     OW 2536   1.074   3.996   1.482
  546SOL    HW1 2537   1.153   3.939   1.505
  546SOL    HW2 2538   1.029   3.959   1.400
  547SOL     OW 2539   3.365   2.455   0.934
  547SOL    HW1 2540   3.357   2.403   1.020
  547SOL    HW2 2541   3.404   2.396   0.864
  548SOL     OW 2542   3.331   3.263   1.415
  548SOL    HW1 2543   3.291   3.268   1.507
  548SOL    HW2 2544   3.323   3.169   1.381
  549SOL     OW 2545   5.273   2.482   1.846
  549SOL    HW1 2546   5.316   2.561   1.890
  549SOL    HW2 2547   5.340   2.408   1.839
  550SOL     OW 2548   1.010   5.635   3.504
  550SOL    HW1 2549   0.993   5.716   3.560
  550SOL    HW2 2550   0.958   5.558   3.540
  551SOL     OW 2551   0.297   6.858   1.670
  551SOL    HW1 2552   0.348   6.895   1.747
  551SOL    HW2 2553   0.357   6.849   1.590
  552SOL     OW 2554   5.824   4.092   6.852
  552SOL    HW1 2555   5.740   4.040   6.839
  552SOL    HW2 2556   5.804   4.190   6.844
  553SOL     OW 2557   2.562   6.621   4.273
  553SOL    HW1 2558   2.583   6.527   4.246
  553SOL    HW2 2559   2.636   6.656   4.330
  554SOL     OW 2560   5.949   0.138   0.374
  554SOL    HW1 2561   6.037   0.110   0.335
  554SOL    HW2 2562   5.916   0.067   0.436
  555SOL     OW 2563   3.333   5.163   4.680
  555SOL    HW1 2564   3.261   5.192   4.743
  555SOL    HW2 2565   3.336   5.063   4.679
  556SOL     OW 2566   5.083   2.087   3.901
  556SOL    HW1 2567   5.062   2.001   3.855
  556SOL    HW2 2568   5.166   2.127   3.861
  557SOL     OW 2569   6.584   5.649   0.293
  557SOL    HW1 2570   6.630   5.737   0.299
  557SOL    HW2 2571   6.596   5.599   0.379
  558SOL     OW 2572   3.499   3.223   3.590
  558SOL    HW1 2573   3.560   3.292   3.628
  558SOL    HW2 2574   3.514   3.136   3.636
  559SOL     OW 2575   6.969   5.516   6.049
  559SOL    HW1 2576   6.935   5.531   5.956
  559SOL    HW2 2577   0.019   5.583   6.069
  560SOL     OW 2578   6.359   3.420   4.028
  560SOL    HW1 2579   6.449   3.382   4.049
  560SOL    HW2 2580   6.290   3.348   4.034
  561SOL     OW 2581   0.506   2.055   0.799
  561SOL    HW1 2582   0.574   2.102   0.855
  561SOL    HW2 2583   0.518   2.082   0.703
  562SOL     OW 2584   4.315   0.183   6.077
  562SOL    HW1 2585   4.368   0.268   6.070
  562SOL    HW2 2586   4.218   0.206   6.083
  563SOL     OW 2587   2.894   0.649   3.571
  563SOL    HW1 2588   2.855   0.719   3.630
  563SOL    HW2 2589   2.972   0.606   3.617
  564SOL     OW 2590   0.843   3.217   6.975
  564SOL    HW1 2591   0.867   3.281   6.902
  564SOL    HW2 2592   0.785   3.262   0.020
  565SOL     OW 2593   3.420   3.975   4.452
  565SOL    HW1 2594   3.432   3.886   4.408
  565SOL    HW2 2595   3.343   3.970   4.516
  566SOL     OW 2596   0.696   3.906   3.259
  566SOL    HW1 2597   0.708   3.865   3.350
  566SOL    HW2 2598   0.613   3.962   3.259
  567SOL     OW 2599   3.037   3.055   1.629
  567SOL    HW1 2600   3.097   2.996   1.684
  567SOL    HW2 2601   3.014   3.010   1.543
  568SOL     OW 2602   4.708   6.923   6.921
  568SOL    HW1 2603   4.626   6.890   6.969
  568SOL    HW2 2604   4.788   6.876   6.957
  569SOL     OW 2605   1.213   3.190   0.195
  569SOL    HW1 2606   1.262   3.221   0.276
  569SOL    HW2 2607   1.116   3.211   0.205
  570SOL     OW 2608   3.635   0.352   6.211
  570SOL    HW1 2609   3.601   0.387   6.298
  570SOL    HW2 2610   3.631   0.424   6.142
  571SOL     OW 2611   3.114   4.885   3.096
  571SOL    HW1 2612   3.192   4.920   3.045
  571SOL    HW2 2613   3.057   4.830   3.035
  572SOL     OW 2614   2.632   4.863   5.498
  572SOL    HW1 2615   2.716   4.910   5.526
  572SOL    HW2 2616   2.556   4.892   5.557
  573SOL     OW 2617   5.666   0.796   5.504
  573SOL    HW1 2618   5.634   0.815   5.411
  573SOL    HW2 2619   5.724   0.714   5.503
  574SOL     OW 2620   3.322   1.453   4.487
  574SOL    HW1 2621   3.235   1.436   4.533
  574SOL    HW2 2622   3.374   1.368   4.482
  575SOL     OW 2623   5.071   3.574   1.621
  575SOL    HW1 2624   5.162   3.560   1.659
  575SOL    HW2 2625   5.030   3.486   1.599
  576SOL     OW 2626   1.373   2.690   2.918
  576SOL    HW1 2627   1.397   2.674   3.014
  576SOL    HW2 2628   1.454   2.678   2.861
  577SOL     OW 2629   1.544   1.239   2.541
  577SOL    HW1 2630   1.533   1.309   2.611
  577SOL    HW2 2631   1.459   1.187   2.531
  578SOL     OW 2632   6.669   5.223   4.882
  578SOL    HW1 2633   6.586   5.193   4.834
  578SOL    HW2 2634   6.719   5.288   4.825
  579SOL     OW 2635   2.003   3.414   4.117
  579SOL    HW1 2636   2.050   3.419   4.028
  579SOL    HW2 2637   2.015   3.501   4.166
  580SOL     OW 2638   4.687   5.066   5.148
  580SOL    HW1 2639   4.728   5.103   5.065
  580SOL    HW2 2640   4.758   5.058   5.219
  581SOL     OW 2641   1.950   2.421   1.869
  581SOL    HW1 2642   1.929   2.364   1.790
  581SOL    HW2 2643   1.966   2.515   1.839
  582SOL     OW 2644   5.142   6.080   2.929
  582SOL    HW1 2645   5.150   6.003   2.993
  582SOL    HW2 2646   5.234   6.105   2.897
  583SOL     OW 2647   2.637   6.467   4.881
  583SOL    HW1 2648   2.715   6.473   4.819
  583SOL    HW2 2649   2.643   6.540   4.950
  584SOL     OW 2650   2.836   5.777   6.840
  584SOL    HW1 2651   2.871   5.859   6.794
  584SOL    HW2 2652   2.753   5.801   6.892
  585SOL     OW 2653   4.516   1.662   6.612
  585SOL    HW1 2654   4.453   1.739   6.621
  585SOL    HW2 2655   4.540   1.628   6.702
  586SOL     OW 2656   3.055   0.439   6.322
  586SOL    HW1 2657   3.146   0.442   6.280
  586SOL    HW2 2658   3.064   0.427   6.420
  587SOL     OW 2659   4.771   2.395   4.212
  587SOL    HW1 2660   4.769   2.302   4.247
  587SOL    HW2 2661   4.852   2.409   4.155
  588SOL     OW 2662   2.434   5.458   1.401
  588SOL    HW1 2663   2.424   5.365   1.435
  588SOL    HW2 2664   2.389   5.521   1.464
  589SOL     OW 2665   3.738   5.015   1.490
  589SOL    HW1 2666   3.660   4.953   1.479
  589SOL    HW2 2667   3.771   5.010   1.585
  590SOL     OW 2668   5.341   2.911   2.118
  590SOL    HW1 2669   5.254   2.896   2.166
  590SOL    HW2 2670   5.373   3.004   2.135
  591SOL     OW 2671   3.391   5.574   3.449
  591SOL    HW1 2672   3.342   5.508   3.392
  591SOL    HW2 2673   3.450   5.630   3.391
  592SOL     OW 2674   4.190   1.497   1.053
  592SOL    HW1 2675   4.271   1.465   1.005
  592SOL    HW2 2676   4.114   1.434   1.037
  593SOL     OW 2677   4.219   2.258   4.213
  593SOL    HW1 2678   4.272   2.333   4.175
  593SOL    HW2 2679   4.210   2.270   4.312
  594SOL     OW 2680   6.024   0.876   0.551
  594SOL    HW1 2681   5.938   0.881   0.602
  594SOL    HW2 2682   6.080   0.801   0.587
  595SOL     OW 2683   5.625   0.579   3.554
  595SOL    HW1 2684   5.587   0.636   3.482
  595SOL    HW2 2685   5.718   0.551   3.529
  596SOL     OW 2686   0.553   5.459   3.708
  596SOL    HW1 2687   0.468   5.414   3.678
  596SOL    HW2 2688   0.530   5.538   3.765
  597SOL     OW 2689   2.150   0.237   0.189
  597SOL    HW1 2690   2.224   0.298   0.218
  597SOL    HW2 2691   2.180   0.183   0.110
  598SOL     OW 2692   3.635   3.666   5.068
  598SOL    HW1 2693   3.722   3.618   5.064
  598SOL    HW2 2694   3.647   3.751   5.121
  599SOL     OW 2695   2.673   6.444   2.484
  599SOL    HW1 2696   2.638   6.352   2.465
  599SOL    HW2 2697   2.630   6.479   2.567
  600SOL     OW 2698   6.276   1.880   6.724
  600SOL    HW1 2699   6.219   1.901   6.644
  600SOL    HW2 2700   6.346   1.814   6.698
  601SOL     OW 2701   1.102   0.786   4.092
  601SOL    HW1 2702   1.159   0.756   4.168
  601SOL    HW2 2703   1.159   0.837   4.027
  602SOL     OW 2704   1.208   1.134   6.368
  602SOL    HW1 2705   1.224   1.229   6.397
  602SOL    HW2 2706   1.238   1.072   6.440
  603SOL     OW 2707   3.027   2.708   5.429
  603SOL    HW1 2708   3.014   2.714   5.331
  603SOL    HW2 2709   2.939   2.691   5.474
  604SOL     OW 2710   1.124   1.944   1.382
  604SOL    HW1 2711   1.040   1.910   1.340
  604SOL    HW2 2712   1.114   1.946   1.481
  605SOL     OW 2713   6.536   5.263   0.042
  605SOL    HW1 2714   6.518   5.346   7.010
  605SOL    HW2 2715   6.615   5.278   0.101
  606SOL     OW 2716   5.047   6.309   5.981
  606SOL    HW1 2717   5.146   6.306   5.978
  606SOL    HW2 2718   5.009   6.262   5.901
  607SOL     OW 2719   6.131   5.107   5.132
  607SOL    HW1 2720   6.093   5.129   5.222
  607SOL    HW2 2721   6.230   5.102   5.137
  608SOL     OW 2722   3.842   6.192   6.724
  608SOL    HW1 2723   3.900   6.120   6.687
  608SOL    HW2 2724   3.879   6.224   6.811
  609SOL     OW 2725   3.878   3.074   2.645
  609SOL    HW1 2726   3.946   3.135   2.686
  609SOL    HW2 2727   3.863   2.996   2.705
  610SOL     OW 2728   6.101   3.903   1.761
  610SOL    HW1 2729   6.159   3.929   1.838
  610SOL    HW2 2730   6.030   3.971   1.748
  611SOL     OW 2731   4.453   6.916   1.742
  611SOL    HW1 2732   4.520   6.851   1.703
  611SOL    HW2 2733   4.499   6.975   1.808
  612SOL     OW 2734   3.819   6.128   4.435
  612SOL    HW1 2735   3.892   6.130   4.366
  612SOL    HW2 2736   3.860   6.142   4.525
  613SOL     OW 2737   4.904   5.422   5.388
  613SOL    HW1 2738   4.951   5.443   5.302
  613SOL    HW2 2739   4.904   5.323   5.403
  614SOL     OW 2740   5.027   5.592   6.476
  614SOL    HW1 2741   5.109   5.541   6.450
  614SOL    HW2 2742   4.980   5.544   6.550
  615SOL     OW 2743   6.868   2.221   2.124
  615SOL    HW1 2744   6.855   2.126   2.095
  615SOL    HW2 2745   6.966   2.240   2.131
  616SOL     OW 2746   0.383   3.110   3.169
  616SOL    HW1 2747   0.472   3.069   3.150
  616SOL    HW2 2748   0.367   3.113   3.267
  617SOL     OW 2749   0.501   4.411   6.099
  617SOL    HW1 2750   0.505   4.415   6.199
  617SOL    HW2 2751   0.426   4.352   6.071
  618SOL     OW 2752   6.889   2.306   0.524
  618SOL    HW1 2753   6.981   2.270   0.511
  618SOL    HW2 2754   6.889   2.405   0.509
  619SOL     OW 2755   4.224   1.294   6.931
  619SOL    HW1 2756   4.206   1.392   6.942
  619SOL    HW2 2757   4.211   1.268   6.835
  620SOL     OW 2758   4.110   2.368   1.646
  620SOL    HW1 2759   4.189   2.307   1.656
  620SOL    HW2 2760   4.031   2.329   1.693
  621SOL     OW 2761   2.544   6.712   6.817
  621SOL    HW1 2762   2.471   6.780   6.823
  621SOL    HW2 2763   2.503   6.621   6.805
  622SOL     OW 2764   0.949   0.769   6.601
  622SOL    HW1 2765   0.994   0.854   6.627
  622SOL    HW2 2766   0.881   0.787   6.530
  623SOL     OW 2767   0.670   5.269   5.568
  623SOL    HW1 2768   0.620   5.223   5.494
  623SOL    HW2 2769   0.712   5.353   5.533
  624SOL     OW 2770   0.363   2.483   0.660
  624SOL    HW1 2771   0.369   2.427   0.743
  624SOL    HW2 2772   0.268   2.507   0.642
  625SOL     OW 2773   2.012   1.484   1.693
  625SOL    HW1 2774   2.052   1.499   1.784
  625SOL    HW2 2775   1.967   1.394   1.691
  626SOL     OW 2776   2.215   6.125   3.192
  626SOL    HW1 2777   2.265   6.190   3.134
  626SOL    HW2 2778   2.160   6.175   3.259
  627SOL     OW 2779   5.244   6.577   0.354
  627SOL    HW1 2780   5.236   6.558   0.452
  627SOL    HW2 2781   5.222   6.494   0.302
  628SOL     OW 2782   6.493   5.511   6.284
  628SOL    HW1 2783   6.491   5.412   6.298
  628SOL    HW2 2784   6.493   5.531   6.186
  629SOL     OW 2785   6.790   6.561   0.231
  629SOL    HW1 2786   6.852   6.570   0.153
  629SOL    HW2 2787   6.830   6.499   0.298
  630SOL     OW 2788   6.618   1.764   2.567
  630SOL    HW1 2789   6.589   1.672   2.541
  630SOL    HW2 2790   6.549   1.804   2.628
  631SOL     OW 2791   3.022   6.569   5.205
  631SOL    HW1 2792   3.078   6.492   5.174
  631SOL    HW2 2793   3.059   6.605   5.291
  632SOL     OW 2794   2.248   1.124   0.727
  632SOL    HW1 2795   2.293   1.094   0.643
  632SOL    HW2 2796   2.182   1.196   0.706
  633SOL     OW 2797   4.831   4.260   0.206
  633SOL    HW1 2798   4.760   4.274   0.137
  633SOL    HW2 2799   4.809   4.314   0.287
  634SOL     OW 2800   4.615   4.416   1.444
  634SOL    HW1 2801   4.642   4.366   1.527
  634SOL    HW2 2802   4.556   4.493   1.470
  635SOL     OW 2803   4.753   4.988   0.755
  635SOL    HW1 2804   4.798   5.076   0.764
  635SOL    HW2 2805   4.659   4.995   0.786
  636SOL     OW 2806   4.257   5.676   6.406
  636SOL    HW1 2807   4.353   5.689   6.431
  636SOL    HW2 2808   4.249   5.668   6.306
  637SOL     OW 2809   6.487   3.919   2.818
  637SOL    HW1 2810   6.512   3.873   2.733
  637SOL    HW2 2811   6.426   3.996   2.798
  638SOL     OW 2812   5.542   2.261   3.007
  638SOL    HW1 2813   5.517   2.349   2.966
  638SOL    HW2 2814   5.622   2.273   3.065
  639SOL     OW 2815   5.345   4.313   2.759
  639SOL    HW1 2816   5.438   4.342   2.736
  639SOL    HW2 2817   5.321   4.348   2.850
  640SOL     OW 2818   0.335   5.148   4.151
  640SOL    HW1 2819   0.408   5.100   4.104
  640SOL    HW2 2820   0.296   5.218   4.090
  641SOL     OW 2821   6.781   6.232   4.883
  641SOL    HW1 2822   6.695   6.202   4.843
  641SOL    HW2 2823   6.801   6.176   4.964
  642SOL     OW 2824   0.202   3.393   4.700
  642SOL    HW1 2825   0.203   3.293   4.701
  642SOL    HW2 2826   0.124   3.425   4.647
  643SOL     OW 2827   4.791   5.408   4.966
  643SOL    HW1 2828   4.804   5.312   4.942
  643SOL    HW2 2829   4.871   5.460   4.935
  644SOL     OW 2830   1.001   5.994   4.343
  644SOL    HW1 2831   0.956   6.000   4.432
  644SOL    HW2 2832   1.075   6.062   4.339
  645SOL     OW 2833   4.883   1.427   4.839
  645SOL    HW1 2834   4.950   1.421   4.913
  645SOL    HW2 2835   4.881   1.341   4.788
  646SOL     OW 2836   3.176   1.311   4.174
  646SOL    HW1 2837   3.266   1.268   4.163
  646SOL    HW2 2838   3.176   1.401   4.131
  647SOL     OW 2839   5.325   1.711   4.945
  647SOL    HW1 2840   5.364   1.632   4.898
  647SOL    HW2 2841   5.291   1.683   5.034
  648SOL     OW 2842   6.750   4.144   3.989
  648SOL    HW1 2843   6.795   4.229   3.963
  648SOL    HW2 2844   6.677   4.163   4.055
  649SOL     OW 2845   3.496   3.814   0.541
  649SOL    HW1 2846   3.524   3.865   0.623
  649SOL    HW2 2847   3.401   3.784   0.551
  650SOL     OW 2848   6.405   4.515   0.876
  650SOL    HW1 2849   6.331   4.527   0.942
  650SOL    HW2 2850   6.493   4.528   0.922
  651SOL     OW 2851   6.756   6.820   6.315
  651SOL    HW1 2852   6.713   6.910   6.327
  651SOL    HW2 2853   6.721   6.757   6.384
  652SOL     OW 2854   5.354   6.326   3.744
  652SOL    HW1 2855   5.288   6.389   3.785
  652SOL    HW2 2856   5.324   6.301   3.652
  653SOL     OW 2857   2.840   6.140   4.623
  653SOL    HW1 2858   2.916   6.116   4.564
  653SOL    HW2 2859   2.782   6.208   4.577
  654SOL     OW 2860   0.154   4.019   5.751
  654SOL    HW1 2861   0.099   3.965   5.688
  654SOL    HW2 2862   0.094   4.074   5.810
  655SOL     OW 2863   0.823   6.283   1.870
  655SOL    HW1 2864   0.771   6.220   1.813
  655SOL    HW2 2865   0.762   6.330   1.933
  656SOL     OW 2866   1.675   6.334   2.037
  656SOL    HW1 2867   1.591   6.288   2.064
  656SOL    HW2 2868   1.754   6.284   2.073
  657SOL     OW 2869   1.477   2.425   1.608
  657SOL    HW1 2870   1.434   2.353   1.661
  657SOL    HW2 2871   1.536   2.384   1.538
  658SOL     OW 2872   2.765   3.624   5.968
  658SOL    HW1 2873   2.864   3.615   5.980
  658SOL    HW2 2874   2.721   3.638   6.057
  659SOL     OW 2875   2.354   5.666   5.998
  659SOL    HW1 2876   2.409   5.714   6.067
  659SOL    HW2 2877   2.372   5.706   5.908
  660SOL     OW 2878   4.855   4.605   2.400
  660SOL    HW1 2879   4.913   4.529   2.431
  660SOL    HW2 2880   4.799   4.637   2.477
  661SOL     OW 2881   4.013   5.695   3.411
  661SOL    HW1 2882   4.031   5.673   3.315
  661SOL    HW2 2883   4.069   5.774   3.438
  662SOL     OW 2884   3.834   0.718   5.722
  662SOL    HW1 2885   3.842   0.712   5.821
  662SOL    HW2 2886   3.919   0.753   5.683
  663SOL     OW 2887   2.357   4.326   6.269
  663SOL    HW1 2888   2.421   4.259   6.232
  663SOL    HW2 2889   2.392   4.418   6.253
  664SOL     OW 2890   6.845   5.419   6.273
  664SOL    HW1 2891   6.874   5.466   6.191
  664SOL    HW2 2892   6.821   5.486   6.344
  665SOL     OW 2893   5.174   5.616   2.188
  665SOL    HW1 2894   5.204   5.566   2.107
  665SOL    HW2 2895   5.110   5.687   2.161
  666SOL     OW 2896   5.315   2.154   2.302
  666SOL    HW1 2897   5.336   2.207   2.385
  666SOL    HW2 2898   5.401   2.121   2.262
  667SOL     OW 2899   1.205   4.954   3.159
  667SOL    HW1 2900   1.297   4.958   3.121
  667SOL    HW2 2901   1.138   4.948   3.085
  668SOL     OW 2902   5.212   6.652   5.738
  668SOL    HW1 2903   5.179   6.645   5.833
  668SOL    HW2 2904   5.272   6.731   5.730
  669SOL     OW 2905   4.264   0.522   2.785
  669SOL    HW1 2906   4.247   0.574   2.702
  669SOL    HW2 2907   4.307   0.582   2.853
  670SOL     OW 2908   3.368   2.670   1.405
  670SOL    HW1 2909   3.296   2.649   1.339
  670SOL    HW2 2910   3.361   2.607   1.483
  671SOL     OW 2911   1.664   6.472   0.207
  671SOL    HW1 2912   1.610   6.458   0.290
  671SOL    HW2 2913   1.708   6.386   0.181
  672SOL     OW 2914   0.286   5.328   2.330
  672SOL    HW1 2915   0.283   5.315   2.231
  672SOL    HW2 2916   0.332   5.250   2.372
  673SOL     OW 2917   6.937   6.858   1.397
  673SOL    HW1 2918   6.977   6.863   1.489
  673SOL    HW2 2919   6.861   6.923   1.390
  674SOL     OW 2920   1.284   1.278   5.131
  674SOL    HW1 2921   1.227   1.344   5.083
  674SOL    HW2 2922   1.331   1.322   5.207
  675SOL     OW 2923   0.779   0.754   2.851
  675SOL    HW1 2924   0.845   0.739   2.777
  675SOL    HW2 2925   0.770   0.852   2.868
  676SOL     OW 2926   3.201   6.039   2.235
  676SOL    HW1 2927   3.238   6.008   2.322
  676SOL    HW2 2928   3.199   6.139   2.234
  677SOL     OW 2929   5.596   1.863   0.738
  677SOL    HW1 2930   5.541   1.939   0.772
  677SOL    HW2 2931   5.545   1.815   0.667
  678SOL     OW 2932   1.961   0.373   5.390
  678SOL    HW1 2933   1.925   0.306   5.325
  678SOL    HW2 2934   1.921   0.462   5.372
  679SOL     OW 2935   4.704   2.181   3.331
  679SOL    HW1 2936   4.677   2.138   3.245
  679SOL    HW2 2937   4.627   2.178   3.395
  680SOL     OW 2938   5.764   5.565   5.774
  680SOL    HW1 2939   5.728   5.647   5.728
  680SOL    HW2 2940   5.689   5.517   5.819
  681SOL     OW 2941   5.080   4.681   1.773
  681SOL    HW1 2942   5.076   4.753   1.843
  681SOL    HW2 2943   5.174   4.649   1.763
  682SOL     OW 2944   6.999   1.450   1.406
  682SOL    HW1 2945   6.924   1.511   1.378
  682SOL    HW2 2946   0.036   1.431   1.327
  683SOL     OW 2947   4.788   3.611   0.703
  683SOL    HW1 2948   4.710   3.550   0.719
  683SOL    HW2 2949   4.850   3.569   0.637
  684SOL     OW 2950   6.494   1.208   0.132
  684SOL    HW1 2951   6.474   1.232   0.037
  684SOL    HW2 2952   6.584   1.164   0.137
  685SOL     OW 2953   3.913   1.421   3.539
  685SOL    HW1 2954   3.880   1.454   3.451
  685SOL    HW2 2955   4.006   1.454   3.554
  686SOL     OW 2956   4.892   2.972   3.744
  686SOL    HW1 2957   4.939   2.891   3.709
  686SOL    HW2 2958   4.852   3.023   3.668
  687SOL     OW 2959   0.561   2.129   4.290
  687SOL    HW1 2960   0.650   2.084   4.297
  687SOL    HW2 2961   0.488   2.062   4.305
  688SOL     OW 2962   0.294   1.612   0.033
  688SOL    HW1 2963   0.357   1.607   0.110
  688SOL    HW2 2964   0.210   1.561   0.055
  689SOL     OW 2965   0.462   5.136   6.316
  689SOL    HW1 2966   0.413   5.167   6.398
  689SOL    HW2 2967   0.523   5.061   6.340
  690SOL     OW 2968   0.776   4.219   2.636
  690SOL    HW1 2969   0.796   4.315   2.657
  690SOL    HW2 2970   0.732   4.214   2.546
  691SOL     OW 2971   2.665   0.348   0.490
  691SOL    HW1 2972   2.700   0.265   0.447
  691SOL    HW2 2973   2.687   0.427   0.433
  692SOL     OW 2974   3.576   0.746   3.751
  692SOL    HW1 2975   3.590   0.726   3.654
  692SOL    HW2 2976   3.482   0.776   3.766
  693SOL     OW 2977   5.562   0.814   3.723
  693SOL    HW1 2978   5.622   0.851   3.793
  693SOL    HW2 2979   5.600   0.730   3.686
  694SOL     OW 2980   4.344   6.480   3.706
  694SOL    HW1 2981   4.316   6.481   3.802
  694SOL    HW2 2982   4.394   6.563   3.685
  695SOL     OW 2983   4.568   6.653   4.311
  695SOL    HW1 2984   4.631   6.687   4.240
  695SOL    HW2 2985   4.596   6.561   4.339
  696SOL     OW 2986   4.786   5.029   2.983
  696SOL    HW1 2987   4.700   5.009   2.936
  696SOL    HW2 2988   4.767   5.078   3.068
  697SOL     OW 2989   1.427   3.836   3.695
  697SOL    HW1 2990   1.405   3.753   3.644
  697SOL    HW2 2991   1.525   3.857   3.686
  698SOL     OW 2992   4.456   6.874   0.863
  698SOL    HW1 2993   4.507   6.948   0.906
  698SOL    HW2 2994   4.502   6.787   0.880
  699SOL     OW 2995   2.052   3.637   6.503
  699SOL    HW1 2996   2.044   3.540   6.483
  699SOL    HW2 2997   1.966   3.683   6.481
  700SOL     OW 2998   2.861   0.865   2.308
  700SOL    HW1 2999   2.789   0.914   2.259
  700SOL    HW2 3000   2.950   0.902   2.283
  701SOL     OW 3001   6.520   3.882   6.018
  701SOL    HW1 3002   6.492   3.947   6.089
  701SOL    HW2 3003   6.593   3.823   6.054
  702SOL     OW 3004   1.406   5.937   4.855
  702SOL    HW1 3005   1.458   5.858   4.887
  702SOL    HW2 3006   1.372   5.919   4.762
  703SOL     OW 3007   3.473   3.377   6.744
  703SOL    HW1 3008   3.534   3.416   6.675
  703SOL    HW2 3009   3.438   3.451   6.802
  704SOL     OW 3010   1.497   2.820   0.245
  704SOL    HW1 3011   1.478   2.822   0.147
  704SOL    HW2 3012   1.418   2.853   0.296
  705SOL     OW 3013   6.295   5.280   2.941
  705SOL    HW1 3014   6.329   5.249   3.030
  705SOL    HW2 3015   6.277   5.378   2.944
  706SOL     OW 3016   4.498   2.181   4.822
  706SOL    HW1 3017   4.566   2.157   4.892
  706SOL    HW2 3018   4.450   2.264   4.850
  707SOL     OW 3019   4.335   5.070   3.067
  707SOL    HW1 3020   4.402   5.102   3.134
  707SOL    HW2 3021   4.261   5.137   3.059
  708SOL     OW 3022   3.702   0.309   2.113
  708SOL    HW1 3023   3.677   0.215   2.133
  708SOL    HW2 3024   3.740   0.352   2.195
  709SOL     OW 3025   0.570   5.821   0.863
  709SOL    HW1 3026   0.557   5.808   0.764
  709SOL    HW2 3027   0.502   5.768   0.913
  710SOL     OW 3028   3.863   2.659   1.103
  710SOL    HW1 3029   3.947   2.604   1.095
  710SOL    HW2 3030   3.808   2.623   1.178
  711SOL     OW 3031   0.023   3.318   5.835
  711SOL    HW1 3032   6.989   3.310   5.752
  711SOL    HW2 3033   0.072   3.233   5.851
  712SOL     OW 3034   3.871   2.274   1.371
  712SOL    HW1 3035   3.876   2.197   1.435
  712SOL    HW2 3036   3.943   2.340   1.392
  713SOL     OW 3037   4.335   2.504   5.883
  713SOL    HW1 3038   4.267   2.447   5.930
  713SOL    HW2 3039   4.291   2.584   5.844
  714SOL     OW 3040   0.058   4.634   3.320
  714SOL    HW1 3041   6.997   4.631   3.264
  714SOL    HW2 3042   0.117   4.709   3.289
  715SOL     OW 3043   5.215   6.451   6.981
  715SOL    HW1 3044   5.195   6.401   6.896
  715SOL    HW2 3045   5.169   6.407   0.036
  716SOL     OW 3046   0.523   0.846   2.165
  716SOL    HW1 3047   0.501   0.944   2.165
  716SOL    HW2 3048   0.465   0.799   2.232
  717SOL     OW 3049   6.787   4.582   4.008
  717SOL    HW1 3050   6.824   4.492   3.985
  717SOL    HW2 3051   6.813   4.648   3.937
  718SOL     OW 3052   4.270   3.404   6.132
  718SOL    HW1 3053   4.259   3.312   6.093
  718SOL    HW2 3054   4.185   3.432   6.176
  719SOL     OW 3055   6.540   0.637   2.631
  719SOL    HW1 3056   6.464   0.577   2.657
  719SOL    HW2 3057   6.616   0.624   2.695
  720SOL     OW 3058   2.017   0.364   6.189
  720SOL    HW1 3059   1.968   0.359   6.102
  720SOL    HW2 3060   1.969   0.310   6.258
  721SOL     OW 3061   2.670   1.799   2.720
  721SOL    HW1 3062   2.572   1.791   2.699
  721SOL    HW2 3063   2.690   1.748   2.804
  722SOL     OW 3064   2.516   0.632   5.482
  722SOL    HW1 3065   2.468   0.683   5.410
  722SOL    HW2 3066   2.580   0.692   5.528
  723SOL     OW 3067   1.537   4.497   3.566
  723SOL    HW1 3068   1.495   4.578   3.523
  723SOL    HW2 3069   1.497   4.482   3.656
  724SOL     OW 3070   1.372   2.031   4.142
  724SOL    HW1 3071   1.401   2.014   4.237
  724SOL    HW2 3072   1.342   2.126   4.133
  725SOL     OW 3073   2.063   5.566   1.709
  725SOL    HW1 3074   2.104   5.477   1.732
  725SOL    HW2 3075   2.017   5.603   1.790
  726SOL     OW 3076   3.688   4.701   1.071
  726SOL    HW1 3077   3.648   4.773   1.128
  726SOL    HW2 3078   3.786   4.698   1.086
  727SOL     OW 3079   6.378   4.627   5.793
  727SOL    HW1 3080   6.353   4.724   5.800
  727SOL    HW2 3081   6.390   4.590   5.885
  728SOL     OW 3082   6.260   2.991   3.854
  728SOL    HW1 3083   6.320   2.992   3.934
  728SOL    HW2 3084   6.216   2.902   3.846
  729SOL     OW 3085   0.779   2.040   1.465
  729SOL    HW1 3086   0.818   2.055   1.556
  729SOL    HW2 3087   0.838   1.977   1.414
  730SOL     OW 3088   5.988   0.263   4.329
  730SOL    HW1 3089   5.932   0.303   4.257
  730SOL    HW2 3090   5.932   0.203   4.386
  731SOL     OW 3091   4.758   5.047   6.592
  731SOL    HW1 3092   4.830   5.115   6.581
  731SOL    HW2 3093   4.720   5.053   6.684
  732SOL     OW 3094   5.315   3.012   1.324
  732SOL    HW1 3095   5.393   3.072   1.340
  732SOL    HW2 3096   5.288   2.968   1.409
  733SOL     OW 3097   5.323   0.265   4.327
  733SOL    HW1 3098   5.318   0.360   4.356
  733SOL    HW2 3099   5.383   0.215   4.390
  734SOL     OW 3100   6.063   4.529   3.171
  734SOL    HW1 3101   6.069   4.520   3.271
  734SOL    HW2 3102   5.986   4.589   3.148
  735SOL     OW 3103   4.233   1.649   0.214
  735SOL    HW1 3104   4.284   1.567   0.239
  735SOL    HW2 3105   4.165   1.668   0.284
  736SOL     OW 3106   0.265   2.003   3.394
  736SOL    HW1 3107   0.210   2.024   3.475
  736SOL    HW2 3108   0.262   1.905   3.376
  737SOL     OW 3109   5.089   1.801   5.182
  737SOL    HW1 3110   5.111   1.706   5.159
  737SOL    HW2 3111   4.990   1.809   5.200
  738SOL     OW 3112   2.946   3.908   1.039
  738SOL    HW1 3113   2.968   3.812   1.056
  738SOL    HW2 3114   2.923   3.953   1.126
  739SOL     OW 3115   4.772   1.295   4.201
  739SOL    HW1 3116   4.828   1.314   4.281
  739SOL    HW2 3117   4.675   1.311   4.222
  740SOL     OW 3118   6.406   1.480   1.406
  740SOL    HW1 3119   6.405   1.562   1.463
  740SOL    HW2 3120   6.499   1.445   1.399
  741SOL     OW 3121   1.770   0.216   3.392
  741SOL    HW1 3122   1.791   0.272   3.472
  741SOL    HW2 3123   1.709   0.141   3.419
  742SOL     OW 3124   2.626   6.741   1.814
  742SOL    HW1 3125   2.603   6.836   1.838
  742SOL    HW2 3126   2.543   6.693   1.785
  743SOL     OW 3127   1.233   5.158   3.364
  743SOL    HW1 3128   1.241   5.091   3.291
  743SOL    HW2 3129   1.177   5.235   3.333
  744SOL     OW 3130   5.736   0.750   1.417
  744SOL    HW1 3131   5.676   0.796   1.482
  744SOL    HW2 3132   5.808   0.813   1.388
  745SOL     OW 3133   1.484   5.648   4.913
  745SOL    HW1 3134   1.418   5.636   4.840
  745SOL    HW2 3135   1.574   5.614   4.884
  746SOL     OW 3136   6.208   3.783   6.784
  746SOL    HW1 3137   6.191   3.875   6.819
  746SOL    HW2 3138   6.153   3.768   6.702
  747SOL     OW 3139   3.735   6.408   3.909
  747SOL    HW1 3140   3.728   6.507   3.915
  747SOL    HW2 3141   3.757   6.371   3.999
  748SOL     OW 3142   4.081   4.914   2.032
  748SOL    HW1 3143   4.055   4.958   1.946
  748SOL    HW2 3144   4.137   4.833   2.013
  749SOL     OW 3145   5.685   3.630   4.299
  749SOL    HW1 3146   5.724   3.721   4.312
  749SOL    HW2 3147   5.730   3.585   4.222
  750SOL     OW 3148   2.559   1.251   1.520
  750SOL    HW1 3149   2.528   1.214   1.433
  750SOL    HW2 3150   2.606   1.180   1.572
  751SOL     OW 3151   4.204   1.795   6.817
  751SOL    HW1 3152   4.234   1.789   6.722
  751SOL    HW2 3153   4.144   1.874   6.828
  752SOL     OW 3154   3.122   1.408   1.570
  752SOL    HW1 3155   3.072   1.359   1.499
  752SOL    HW2 3156   3.088   1.502   1.576
  753SOL     OW 3157   0.703   3.577   5.675
  753SOL    HW1 3158   0.669   3.671   5.675
  753SOL    HW2 3159   0.776   3.568   5.607
  754SOL     OW 3160   4.667   2.027   5.832
  754SOL    HW1 3161   4.741   2.094   5.838
  754SOL    HW2 3162   4.670   1.968   5.912
  755SOL     OW 3163   1.676   4.851   4.942
  755SOL    HW1 3164   1.701   4.905   4.861
  755SOL    HW2 3165   1.688   4.754   4.921
  756SOL     OW 3166   3.029   6.221   6.747
  756SOL    HW1 3167   2.997   6.285   6.677
  756SOL    HW2 3168   3.080   6.271   6.817
  757SOL     OW 3169   0.427   0.566   4.393
  757SOL    HW1 3170   0.337   0.558   4.351
  757SOL    HW2 3171   0.416   0.573   4.493
  758SOL     OW 3172   3.456   0.684   3.180
  758SOL    HW1 3173   3.450   0.592   3.219
  758SOL    HW2 3174   3.395   0.690   3.101
  759SOL     OW 3175   0.677   2.545   1.800
  759SOL    HW1 3176   0.594   2.538   1.744
  759SOL    HW2 3177   0.670   2.624   1.860
  760SOL     OW 3178   6.432   6.447   4.000
  760SOL    HW1 3179   6.433   6.369   3.937
  760SOL    HW2 3180   6.359   6.510   3.973
  761SOL     OW 3181   5.450   3.725   6.189
  761SOL    HW1 3182   5.518   3.653   6.175
  761SOL    HW2 3183   5.442   3.745   6.286
  762SOL     OW 3184   2.402   6.921   4.867
  762SOL    HW1 3185   2.385   7.006   4.817
  762SOL    HW2 3186   2.465   6.863   4.815
  763SOL     OW 3187   4.085   5.467   6.193
  763SOL    HW1 3188   4.024   5.539   6.229
  763SOL    HW2 3189   4.029   5.396   6.150
  764SOL     OW 3190   5.595   0.846   5.228
  764SOL    HW1 3191   5.541   0.865   5.146
  764SOL    HW2 3192   5.682   0.894   5.222
  765SOL     OW 3193   1.228   6.110   1.370
  765SOL    HW1 3194   1.326   6.091   1.373
  765SOL    HW2 3195   1.196   6.102   1.276
  766SOL     OW 3196   2.613   2.301   6.113
  766SOL    HW1 3197   2.584   2.207   6.129
  766SOL    HW2 3198   2.586   2.358   6.191
  767SOL     OW 3199   6.327   5.846   3.511
  767SOL    HW1 3200   6.365   5.845   3.603
  767SOL    HW2 3201   6.384   5.903   3.452
  768SOL     OW 3202   2.239   5.699   2.690
  768SOL    HW1 3203   2.150   5.715   2.734
  768SOL    HW2 3204   2.311   5.742   2.744
  769SOL     OW 3205   2.381   1.163   5.220
  769SOL    HW1 3206   2.355   1.102   5.146
  769SOL    HW2 3207   2.351   1.126   5.307
  770SOL     OW 3208   1.518   5.009   3.478
  770SOL    HW1 3209   1.480   4.920   3.452
  770SOL    HW2 3210   1.497   5.028   3.574
  771SOL     OW 3211   0.965   5.180   2.565
  771SOL    HW1 3212   0.951   5.085   2.595
  771SOL    HW2 3213   0.887   5.235   2.593
  772SOL     OW 3214   5.352   4.637   6.599
  772SOL    HW1 3215   5.325   4.550   6.559
  772SOL    HW2 3216   5.275   4.702   6.594
  773SOL     OW 3217   6.944   4.357   3.891
  773SOL    HW1 3218   7.004   4.424   3.849
  773SOL    HW2 3219   6.925   4.283   3.825
  774SOL     OW 3220   1.819   1.294   1.117
  774SOL    HW1 3221   1.830   1.305   1.216
  774SOL    HW2 3222   1.788   1.381   1.077
  775SOL     OW 3223   1.960   2.155   4.287
  775SOL    HW1 3224   2.023   2.079   4.304
  775SOL    HW2 3225   1.950   2.209   4.370
  776SOL     OW 3226   0.493   0.458   5.137
  776SOL    HW1 3227   0.500   0.431   5.041
  776SOL    HW2 3228   0.474   0.378   5.193
  777SOL     OW 3229   1.650   4.926   1.432
  777SOL    HW1 3230   1.703   4.949   1.351
  777SOL    HW2 3231   1.674   4.834   1.463
  778SOL     OW 3232   2.667   0.853   1.996
  778SOL    HW1 3233   2.642   0.927   2.058
  778SOL    HW2 3234   2.765   0.834   2.004
  779SOL     OW 3235   6.917   2.929   2.730
  779SOL    HW1 3236   6.906   3.008   2.789
  779SOL    HW2 3237   6.839   2.867   2.742
  780SOL     OW 3238   0.623   3.084   4.239
  780SOL    HW1 3239   0.708   3.063   4.191
  780SOL    HW2 3240   0.578   2.999   4.266
  781SOL     OW 3241   6.281   6.847   0.504
  781SOL    HW1 3242   6.367   6.797   0.499
  781SOL    HW2 3243   6.205   6.786   0.482
  782SOL     OW 3244   1.342   3.549   5.904
  782SOL    HW1 3245   1.291   3.550   5.990
  782SOL    HW2 3246   1.404   3.471   5.902
  783SOL     OW 3247   5.119   4.841   1.988
  783SOL    HW1 3248   5.175   4.896   1.926
  783SOL    HW2 3249   5.178   4.792   2.052
  784SOL     OW 3250   4.688   4.775   0.310
  784SOL    HW1 3251   4.619   4.709   0.282
  784SOL    HW2 3252   4.665   4.865   0.273
  785SOL     OW 3253   0.567   1.949   3.332
  785SOL    HW1 3254   0.497   1.963   3.262
  785SOL    HW2 3255   0.570   1.852   3.357
  786SOL     OW 3256   0.586   7.007   3.207
  786SOL    HW1 3257   0.600   0.072   3.159
  786SOL    HW2 3258   0.489   6.993   3.223
  787SOL     OW 3259   1.396   0.453   0.027
  787SOL    HW1 3260   1.385   0.537   0.079
  787SOL    HW2 3261   1.476   0.403   0.060
  788SOL     OW 3262   3.929   1.357   0.282
  788SOL    HW1 3263   3.986   1.382   0.361
  788SOL    HW2 3264   3.843   1.407   0.287
  789SOL     OW 3265   4.101   4.423   1.569
  789SOL    HW1 3266   4.013   4.407   1.615
  789SOL    HW2 3267   4.084   4.469   1.482
  790SOL     OW 3268   1.735   1.688   2.971
  790SOL    HW1 3269   1.717   1.713   3.066
  790SOL    HW2 3270   1.722   1.768   2.913
  791SOL     OW 3271   1.231   5.869   4.517
  791SOL    HW1 3272   1.164   5.941   4.530
  791SOL    HW2 3273   1.194   5.782   4.549
  792SOL     OW 3274   0.627   0.668   1.629
  792SOL    HW1 3275   0.596   0.592   1.686
  792SOL    HW2 3276   0.707   0.639   1.576
  793SOL     OW 3277   5.505   4.950   4.340
  793SOL    HW1 3278   5.599   4.921   4.354
  793SOL    HW2 3279   5.504   5.034   4.285
  794SOL     OW 3280   2.495   3.862   5.896
  794SOL    HW1 3281   2.573   3.847   5.835
  794SOL    HW2 3282   2.490   3.959   5.920
  795SOL     OW 3283   3.942   6.924   4.488
  795SOL    HW1 3284   4.003   6.933   4.567
  795SOL    HW2 3285   3.858   6.974   4.505
  796SOL     OW 3286   1.258   2.476   5.913
  796SOL    HW1 3287   1.298   2.564   5.940
  796SOL    HW2 3288   1.271   2.410   5.986
  797SOL     OW 3289   5.703   1.897   1.067
  797SOL    HW1 3290   5.636   1.971   1.066
  797SOL    HW2 3291   5.660   1.813   1.101
  798SOL     OW 3292   3.209   6.565   1.885
  798SOL    HW1 3293   3.290   6.518   1.849
  798SOL    HW2 3294   3.219   6.578   1.983
  799SOL     OW 3295   0.165   6.803   6.457
  799SOL    HW1 3296   0.109   6.859   6.518
  799SOL    HW2 3297   0.258   6.841   6.454
  800SOL     OW 3298   5.750   1.350   2.377
  800SOL    HW1 3299   5.808   1.410   2.322
  800SOL    HW2 3300   5.781   1.352   2.472
  801SOL     OW 3301   2.353   4.416   4.596
  801SOL    HW1 3302   2.296   4.421   4.513
  801SOL    HW2 3303   2.342   4.326   4.638
  802SOL     OW 3304   2.939   1.410   0.841
  802SOL    HW1 3305   2.961   1.327   0.790
  802SOL    HW2 3306   2.941   1.489   0.779
  803SOL     OW 3307   1.312   0.153   6.050
  803SOL    HW1 3308   1.372   0.074   6.063
  803SOL    HW2 3309   1.274   0.152   5.958
  804SOL     OW 3310   6.049   6.687   0.477
  804SOL    HW1 3311   6.020   6.598   0.443
  804SOL    HW2 3312   6.052   6.686   0.576
  805SOL     OW 3313   2.736   1.040   3.985
  805SOL    HW1 3314   2.764   1.097   3.908
  805SOL    HW2 3315   2.637   1.038   3.992
  806SOL     OW 3316   5.157   0.751   4.666
  806SOL    HW1 3317   5.101   0.834   4.667
  806SOL    HW2 3318   5.246   0.772   4.626
  807SOL     OW 3319   0.591   0.847   5.224
  807SOL    HW1 3320   0.553   0.794   5.300
  807SOL    HW2 3321   0.687   0.821   5.210
  808SOL     OW 3322   3.781   4.331   6.203
  808SOL    HW1 3323   3.723   4.309   6.124
  808SOL    HW2 3324   3.874   4.349   6.172
  809SOL     OW 3325   0.504   5.149   1.344
  809SOL    HW1 3326   0.536   5.244   1.342
  809SOL    HW2 3327   0.458   5.128   1.258
  810SOL     OW 3328   3.440   4.268   0.779
  810SOL    HW1 3329   3.406   4.297   0.869
  810SOL    HW2 3330   3.363   4.236   0.723
  811SOL     OW 3331   5.365   5.945   5.352
  811SOL    HW1 3332   5.402   5.853   5.361
  811SOL    HW2 3333   5.364   5.990   5.442
  812SOL     OW 3334   6.906   0.495   3.005
  812SOL    HW1 3335   7.000   0.485   2.974
  812SOL    HW2 3336   6.893   0.588   3.041
  813SOL     OW 3337   3.979   6.312   4.305
  813SOL    HW1 3338   4.062   6.257   4.295
  813SOL    HW2 3339   4.001   6.408   4.285
  814SOL     OW 3340   6.080   5.863   2.832
  814SOL    HW1 3341   6.035   5.799   2.769
  814SOL    HW2 3342   6.012   5.924   2.871
  815SOL     OW 3343   6.748   3.572   3.517
  815SOL    HW1 3344   6.722   3.636   3.446
  815SOL    HW2 3345   6.826   3.607   3.569
  816SOL     OW 3346   5.853   6.035   0.539
  816SOL    HW1 3347   5.872   6.047   0.441
  816SOL    HW2 3348   5.939   6.030   0.589
  817SOL     OW 3349   1.281   5.780   1.432
  817SOL    HW1 3350   1.252   5.855   1.492
  817SOL    HW2 3351   1.348   5.723   1.480
  818SOL     OW 3352   6.081   2.570   3.628
  818SOL    HW1 3353   6.036   2.484   3.605
  818SOL    HW2 3354   6.082   2.629   3.547
  819SOL     OW 3355   5.846   2.960   2.088
  819SOL    HW1 3356   5.754   2.985   2.058
  819SOL    HW2 3357   5.878   2.881   2.036
  820SOL     OW 3358   3.236   2.175   4.780
  820SOL    HW1 3359   3.184   2.220   4.852
  820SOL    HW2 3360   3.246   2.078   4.801
  821SOL     OW 3361   6.611   3.986   6.946
  821SOL    HW1 3362   6.570   4.077   6.934
  821SOL    HW2 3363   6.615   3.939   6.857
  822SOL     OW 3364   0.412   3.810   3.794
  822SOL    HW1 3365   0.406   3.818   3.694
  822SOL    HW2 3366   0.381   3.719   3.822
  823SOL     OW 3367   5.769   3.895   6.503
  823SOL    HW1 3368   5.750   3.993   6.514
  823SOL    HW2 3369   5.814   3.880   6.415
  824SOL     OW 3370   4.509   1.244   6.238
  824SOL    HW1 3371   4.582   1.202   6.184
  824SOL    HW2 3372   4.439   1.176   6.259
  825SOL     OW 3373   0.209   5.648   1.154
  825SOL    HW1 3374   0.249   5.615   1.068
  825SOL    HW2 3375   0.166   5.572   1.202
  826SOL     OW 3376   3.889   2.102   5.820
  826SOL    HW1 3377   3.880   2.032   5.749
  826SOL    HW2 3378   3.802   2.110   5.870
  827SOL     OW 3379   2.709   4.351   5.342
  827SOL    HW1 3380   2.719   4.401   5.428
  827SOL    HW2 3381   2.789   4.367   5.284
  828SOL     OW 3382   5.231   6.427   6.566
  828SOL    HW1 3383   5.315   6.481   6.562
  828SOL    HW2 3384   5.245   6.340   6.520
  829SOL     OW 3385   4.054   3.699   2.040
  829SOL    HW1 3386   4.066   3.752   2.124
  829SOL    HW2 3387   4.119   3.730   1.971
  830SOL     OW 3388   5.901   4.546   6.546
  830SOL    HW1 3389   5.835   4.602   6.497
  830SOL    HW2 3390   5.981   4.601   6.569
  831SOL     OW 3391   5.848   7.004   6.955
  831SOL    HW1 3392   5.944   7.006   6.928
  831SOL    HW2 3393   5.828   6.918   7.000
  832SOL     OW 3394   4.124   1.205   3.041
  832SOL    HW1 3395   4.162   1.224   2.951
  832SOL    HW2 3396   4.088   1.112   3.044
  833SOL     OW 3397   1.707   3.584   6.651
  833SOL    HW1 3398   1.704   3.662   6.588
  833SOL    HW2 3399   1.700   3.618   6.745
  834SOL     OW 3400   4.302   3.943   0.835
  834SOL    HW1 3401   4.208   3.917   0.815
  834SOL    HW2 3402   4.309   3.973   0.930
  835SOL     OW 3403   3.242   0.354   5.476
  835SOL    HW1 3404   3.211   0.318   5.564
  835SOL    HW2 3405   3.337   0.386   5.485
  836SOL     OW 3406   3.482   6.856   4.977
  836SOL    HW1 3407   3.527   6.894   5.058
  836SOL    HW2 3408   3.430   6.927   4.930
  837SOL     OW 3409   6.808   6.985   1.061
  837SOL    HW1 3410   6.842   6.901   1.020
  837SOL    HW2 3411   6.829   0.041   1.001
  838SOL     OW 3412   2.184   0.501   4.657
  838SOL    HW1 3413   2.202   0.434   4.585
  838SOL    HW2 3414   2.096   0.545   4.640
  839SOL     OW 3415   1.767   1.635   1.900
  839SOL    HW1 3416   1.790   1.694   1.978
  839SOL    HW2 3417   1.806   1.544   1.915
  840SOL     OW 3418   6.055   6.040   7.016
  840SOL    HW1 3419   6.111   6.056   6.934
  840SOL    HW2 3420   6.103   6.075   0.074
  841SOL     OW 3421   3.001   5.279   6.079
  841SOL    HW1 3422   3.030   5.363   6.124
  841SOL    HW2 3423   2.919   5.297   6.024
  842SOL     OW 3424   3.497   0.231   5.238
  842SOL    HW1 3425   3.441   0.245   5.156
  842SOL    HW2 3426   3.470   0.298   5.308
  843SOL     OW 3427   1.063   1.436   1.456
  843SOL    HW1 3428   1.095   1.454   1.363
  843SOL    HW2 3429   0.985   1.496   1.477
  844SOL     OW 3430   6.256   0.097   0.565
  844SOL    HW1 3431   6.208   0.116   0.651
  844SOL    HW2 3432   6.245   0.001   0.541
  845SOL     OW 3433   4.841   4.020   3.703
  845SOL    HW1 3434   4.814   4.030   3.799
  845SOL    HW2 3435   4.834   3.924   3.677
  846SOL     OW 3436   2.213   1.114   5.729
  846SOL    HW1 3437   2.197   1.124   5.827
  846SOL    HW2 3438   2.126   1.095   5.683
  847SOL     OW 3439   1.720   3.920   1.249
  847SOL    HW1 3440   1.723   3.962   1.158
  847SOL    HW2 3441   1.789   3.962   1.307
  848SOL     OW 3442   6.853   6.863   6.009
  848SOL    HW1 3443   6.768   6.832   5.967
  848SOL    HW2 3444   6.836   6.887   6.105
  849SOL     OW 3445   6.267   3.770   6.088
  849SOL    HW1 3446   6.358   3.794   6.054
  849SOL    HW2 3447   6.233   3.691   6.037
  850SOL     OW 3448   4.939   1.338   4.404
  850SOL    HW1 3449   4.965   1.314   4.498
  850SOL    HW2 3450   4.952   1.436   4.390
  851SOL     OW 3451   0.201   3.018   1.444
  851SOL    HW1 3452   0.252   3.070   1.375
  851SOL    HW2 3453   0.144   2.949   1.399
  852SOL     OW 3454   1.370   4.213   0.163
  852SOL    HW1 3455   1.366   4.268   0.246
  852SOL    HW2 3456   1.359   4.116   0.187
  853SOL     OW 3457   0.689   4.605   0.868
  853SOL    HW1 3458   0.772   4.641   0.910
  853SOL    HW2 3459   0.711   4.522   0.816
  854SOL     OW 3460   5.243   5.136   0.635
  854SOL    HW1 3461   5.315   5.081   0.594
  854SOL    HW2 3462   5.270   5.232   0.634
  855SOL     OW 3463   6.827   0.494   1.544
  855SOL    HW1 3464   6.760   0.421   1.560
  855SOL    HW2 3465   6.863   0.487   1.451
  856SOL     OW 3466   1.333   2.145   6.719
  856SOL    HW1 3467   1.272   2.214   6.757
  856SOL    HW2 3468   1.339   2.156   6.620
  857SOL     OW 3469   6.226   4.955   1.938
  857SOL    HW1 3470   6.315   4.995   1.919
  857SOL    HW2 3471   6.237   4.870   1.990
  858SOL     OW 3472   3.254   3.995   1.268
  858SOL    HW1 3473   3.321   4.068   1.254
  858SOL    HW2 3474   3.162   4.032   1.259
  859SOL     OW 3475   5.888   0.100   4.926
  859SOL    HW1 3476   5.847   0.035   4.862
  859SOL    HW2 3477   5.987   0.092   4.924
  860SOL     OW 3478   6.384   2.234   0.472
  860SOL    HW1 3479   6.460   2.298   0.481
  860SOL    HW2 3480   6.343   2.217   0.562
  861SOL     OW 3481   2.589   5.258   3.961
  861SOL    HW1 3482   2.687   5.272   3.978
  861SOL    HW2 3483   2.536   5.314   4.025
  862SOL     OW 3484   1.097   3.672   3.943
  862SOL    HW1 3485   1.091   3.755   3.886
  862SOL    HW2 3486   1.140   3.695   4.030
  863SOL     OW 3487   5.864   1.063   6.861
  863SOL    HW1 3488   5.923   1.002   6.915
  863SOL    HW2 3489   5.852   1.149   6.910
  864SOL     OW 3490   4.092   5.554   4.155
  864SOL    HW1 3491   4.005   5.515   4.125
  864SOL    HW2 3492   4.075   5.637   4.207
  865SOL     OW 3493   1.412   6.553   5.979
  865SOL    HW1 3494   1.428   6.621   5.908
  865SOL    HW2 3495   1.373   6.598   6.059
  866SOL     OW 3496   2.160   1.204   1.644
  866SOL    HW1 3497   2.177   1.179   1.549
  866SOL    HW2 3498   2.205   1.291   1.664
  867SOL     OW 3499   5.283   3.639   0.220
  867SOL    HW1 3500   5.300   3.544   0.246
  867SOL    HW2 3501   5.297   3.650   0.121
  868SOL     OW 3502   6.477   1.473   0.763
  868SOL    HW1 3503   6.409   1.540   0.734
  868SOL    HW2 3504   6.481   1.471   0.863
  869SOL     OW 3505   0.588   4.363   3.031
  869SOL    HW1 3506   0.531   4.331   2.955
  869SOL    HW2 3507   0.529   4.394   3.106
  870SOL     OW 3508   3.913   3.657   0.020
  870SOL    HW1 3509   3.999   3.640   6.993
  870SOL    HW2 3510   3.931   3.675   0.116
  871SOL     OW 3511   4.787   2.208   2.527
  871SOL    HW1 3512   4.794   2.123   2.580
  871SOL    HW2 3513   4.711   2.199   2.462
  872SOL     OW 3514   5.606   3.042   3.698
  872SOL    HW1 3515   5.615   3.019   3.795
  872SOL    HW2 3516   5.586   2.959   3.646
  873SOL     OW 3517   5.957   6.345   5.299
  873SOL    HW1 3518   6.036   6.350   5.238
  873SOL    HW2 3519   5.925   6.438   5.318
  874SOL     OW 3520   0.537   3.709   6.109
  874SOL    HW1 3521   0.587   3.767   6.173
  874SOL    HW2 3522   0.451   3.753   6.085
  875SOL     OW 3523   5.302   4.370   0.718
  875SOL    HW1 3524   5.298   4.357   0.619
  875SOL    HW2 3525   5.396   4.365   0.749
  876SOL     OW 3526   1.239   4.736   2.438
  876SOL    HW1 3527   1.188   4.707   2.357
  876SOL    HW2 3528   1.175   4.751   2.514
  877SOL     OW 3529   3.847   4.694   5.521
  877SOL    HW1 3530   3.922   4.630   5.536
  877SOL    HW2 3531   3.765   4.661   5.568
  878SOL     OW 3532   3.860   5.838   4.786
  878SOL    HW1 3533   3.897   5.803   4.700
  878SOL    HW2 3534   3.781   5.896   4.768
  879SOL     OW 3535   3.617   1.668   0.920
  879SOL    HW1 3536   3.674   1.737   0.966
  879SOL    HW2 3537   3.640   1.578   0.956
  880SOL     OW 3538   2.875   3.576   4.646
  880SOL    HW1 3539   2.827   3.533   4.570
  880SOL    HW2 3540   2.906   3.666   4.619
  881SOL     OW 3541   5.785   3.459   5.735
  881SOL    HW1 3542   5.881   3.484   5.746
  881SOL    HW2 3543   5.729   3.543   5.735
  882SOL     OW 3544   1.156   2.748   4.464
  882SOL    HW1 3545   1.065   2.785   4.447
  882SOL    HW2 3546   1.213   2.762   4.383
  883SOL     OW 3547   3.920   0.698   0.320
  883SOL    HW1 3548   3.978   0.730   0.245
  883SOL    HW2 3549   3.977   0.660   0.392
  884SOL     OW 3550   6.887   4.565   0.007
  884SOL    HW1 3551   6.913   4.661   7.019
  884SOL    HW2 3552   6.938   4.524   0.082
  885SOL     OW 3553   4.133   6.484   5.190
  885SOL    HW1 3554   4.074   6.406   5.210
  885SOL    HW2 3555   4.095   6.535   5.113
  886SOL     OW 3556   4.640   0.368   0.699
  886SOL    HW1 3557   4.619   0.411   0.787
  886SOL    HW2 3558   4.565   0.307   0.673
  887SOL     OW 3559   4.071   5.652   3.743
  887SOL    HW1 3560   3.978   5.639   3.710
  887SOL    HW2 3561   4.127   5.573   3.718
  888SOL     OW 3562   6.861   6.291   3.096
  888SOL    HW1 3563   6.948   6.260   3.058
  888SOL    HW2 3564   6.804   6.329   3.023
  889SOL     OW 3565   6.838   1.132   6.203
  889SOL    HW1 3566   6.870   1.104   6.293
  889SOL    HW2 3567   6.909   1.187   6.158
  890SOL     OW 3568   2.373   5.027   2.424
  890SOL    HW1 3569   2.373   4.954   2.491
  890SOL    HW2 3570   2.401   4.990   2.335
  891SOL     OW 3571   6.879   3.751   0.321
  891SOL    HW1 3572   6.922   3.680   0.377
  891SOL    HW2 3573   6.789   3.720   0.292
  892SOL     OW 3574   3.483   3.477   5.218
  892SOL    HW1 3575   3.383   3.489   5.223
  892SOL    HW2 3576   3.524   3.557   5.176
  893SOL     OW 3577   1.733   7.002   2.507
  893SOL    HW1 3578   1.825   6.962   2.501
  893SOL    HW2 3579   1.718   0.016   2.599
  894SOL     OW 3580   1.124   2.504   2.894
  894SOL    HW1 3581   1.201   2.568   2.898
  894SOL    HW2 3582   1.060   2.533   2.823
  895SOL     OW 3583   1.298   5.004   3.891
  895SOL    HW1 3584   1.290   4.908   3.917
  895SOL    HW2 3585   1.293   5.012   3.792
  896SOL     OW 3586   6.061   5.574   1.490
  896SOL    HW1 3587   6.030   5.580   1.585
  896SOL    HW2 3588   5.986   5.599   1.429
  897SOL     OW 3589   4.249   0.260   6.503
  897SOL    HW1 3590   4.340   0.222   6.490
  897SOL    HW2 3591   4.187   0.188   6.534
  898SOL     OW 3592   4.076   5.802   2.017
  898SOL    HW1 3593   4.091   5.874   1.949
  898SOL    HW2 3594   4.164   5.778   2.060
  899SOL     OW 3595   0.041   5.580   0.426
  899SOL    HW1 3596   7.019   5.626   0.348
  899SOL    HW2 3597   0.135   5.556   0.401
  900SOL     OW 3598   5.000   6.434   6.414
  900SOL    HW1 3599   4.999   6.513   6.353
  900SOL    HW2 3600   5.087   6.430   6.463
  901SOL     OW 3601   1.131   1.122   4.397
  901SOL    HW1 3602   1.143   1.120   4.297
  901SOL    HW2 3603   1.197   1.060   4.439
  902SOL     OW 3604   1.588   2.489   0.750
  902SOL    HW1 3605   1.587   2.417   0.680
  902SOL    HW2 3606   1.676   2.490   0.797
  903SOL     OW 3607   0.557   3.170   6.825
  903SOL    HW1 3608   0.578   3.212   6.914
  903SOL    HW2 3609   0.585   3.074   6.826
  904SOL     OW 3610   2.240   2.965   2.463
  904SOL    HW1 3611   2.227   3.063   2.448
  904SOL    HW2 3612   2.316   2.932   2.408
  905SOL     OW 3613   5.195   4.511   6.033
  905SOL    HW1 3614   5.170   4.604   6.005
  905SOL    HW2 3615   5.294   4.499   6.026
  906SOL     OW 3616   0.869   2.433   6.306
  906SOL    HW1 3617   0.855   2.464   6.212
  906SOL    HW2 3618   0.783   2.441   6.356
  907SOL     OW 3619   5.071   2.596   1.702
  907SOL    HW1 3620   4.997   2.583   1.768
  907SOL    HW2 3621   5.151   2.543   1.731
  908SOL     OW 3622   2.275   4.921   3.096
  908SOL    HW1 3623   2.359   4.900   3.147
  908SOL    HW2 3624   2.208   4.963   3.157
  909SOL     OW 3625   3.705   5.906   2.192
  909SOL    HW1 3626   3.633   5.857   2.242
  909SOL    HW2 3627   3.757   5.841   2.136
  910SOL     OW 3628   3.325   1.107   0.943
  910SOL    HW1 3629   3.280   1.125   0.855
  910SOL    HW2 3630   3.357   1.013   0.945
  911SOL     OW 3631   0.739   5.859   6.703
  911SOL    HW1 3632   0.708   5.808   6.622
  911SOL    HW2 3633   0.815   5.811   6.745
  912SOL     OW 3634   4.561   0.659   3.679
  912SOL    HW1 3635   4.501   0.592   3.723
  912SOL    HW2 3636   4.648   0.662   3.728
  913SOL     OW 3637   2.456   1.098   4.034
  913SOL    HW1 3638   2.392   1.114   4.109
  913SOL    HW2 3639   2.411   1.047   3.961
  914SOL     OW 3640   2.564   6.242   5.186
  914SOL    HW1 3641   2.551   6.229   5.088
  914SOL    HW2 3642   2.617   6.166   5.223
  915SOL     OW 3643   6.971   3.219   0.916
  915SOL    HW1 3644   7.001   3.176   1.001
  915SOL    HW2 3645   6.977   3.152   0.842
  916SOL     OW 3646   2.102   2.978   2.699
  916SOL    HW1 3647   2.029   3.023   2.647
  916SOL    HW2 3648   2.172   2.945   2.636
  917SOL     OW 3649   6.653   0.431   2.333
  917SOL    HW1 3650   6.722   0.496   2.301
  917SOL    HW2 3651   6.562   0.468   2.316
  918SOL     OW 3652   3.424   0.129   1.143
  918SOL    HW1 3653   3.468   0.150   1.230
  918SOL    HW2 3654   3.332   0.168   1.142
  919SOL     OW 3655   6.369   6.766   3.529
  919SOL    HW1 3656   6.369   6.676   3.574
  919SOL    HW2 3657   6.453   6.814   3.553
  920SOL     OW 3658   2.684   4.856   2.486
  920SOL    HW1 3659   2.598   4.894   2.521
  920SOL    HW2 3660   2.668   4.819   2.394
  921SOL     OW 3661   3.950   5.244   3.294
  921SOL    HW1 3662   3.868   5.299   3.277
  921SOL    HW2 3663   3.958   5.226   3.392
  922SOL     OW 3664   2.938   3.325   4.709
  922SOL    HW1 3665   2.900   3.417   4.712
  922SOL    HW2 3666   2.863   3.258   4.706
  923SOL     OW 3667   2.305   3.927   5.524
  923SOL    HW1 3668   2.393   3.950   5.566
  923SOL    HW2 3669   2.299   3.970   5.434
  924SOL     OW 3670   6.396   3.059   3.394
  924SOL    HW1 3671   6.429   2.967   3.415
  924SOL    HW2 3672   6.376   3.107   3.480
  925SOL     OW 3673   7.002   2.162   6.515
  925SOL    HW1 3674   0.078   2.154   6.492
  925SOL    HW2 3675   6.951   2.189   6.434
  926SOL     OW 3676   6.743   1.352   1.051
  926SOL    HW1 3677   6.661   1.300   1.028
  926SOL    HW2 3678   6.780   1.319   1.138
  927SOL     OW 3679   5.452   4.306   3.057
  927SOL    HW1 3680   5.494   4.285   3.146
  927SOL    HW2 3681   5.476   4.234   2.992
  928SOL     OW 3682   1.481   6.718   0.085
  928SOL    HW1 3683   1.441   6.786   0.146
  928SOL    HW2 3684   1.504   6.636   0.136
  929SOL     OW 3685   0.633   0.134   0.587
  929SOL    HW1 3686   0.671   0.142   0.494
  929SOL    HW2 3687   0.600   0.223   0.617
  930SOL     OW 3688   5.122   5.945   4.501
  930SOL    HW1 3689   5.152   5.853   4.474
  930SOL    HW2 3690   5.051   5.938   4.571
  931SOL     OW 3691   5.654   1.200   4.497
  931SOL    HW1 3692   5.588   1.243   4.558
  931SOL    HW2 3693   5.676   1.108   4.529
  932SOL     OW 3694   2.974   0.108   3.468
  932SOL    HW1 3695   3.006   0.128   3.561
  932SOL    HW2 3696   3.014   0.172   3.404
  933SOL     OW 3697   1.816   5.760   3.560
  933SOL    HW1 3698   1.835   5.761   3.658
  933SOL    HW2 3699   1.903   5.755   3.510
  934SOL     OW 3700   1.604   0.090   6.846
  934SOL    HW1 3701   1.679   0.037   6.807
  934SOL    HW2 3702   1.598   0.073   6.944
  935SOL     OW 3703   4.976   4.469   3.538
  935SOL    HW1 3704   4.970   4.406   3.461
  935SOL    HW2 3705   4.913   4.440   3.610
  936SOL     OW 3706   0.582   0.548   6.348
  936SOL    HW1 3707   0.494   0.544   6.300
  936SOL    HW2 3708   0.582   0.482   6.423
  937SOL     OW 3709   5.187   1.284   5.625
  937SOL    HW1 3710   5.094   1.256   5.603
  937SOL    HW2 3711   5.196   1.297   5.723
  938SOL     OW 3712   6.341   5.090   5.977
  938SOL    HW1 3713   6.384   5.014   6.026
  938SOL    HW2 3714   6.254   5.112   6.021
  939SOL     OW 3715   6.667   6.625   4.975
  939SOL    HW1 3716   6.723   6.606   5.056
  939SOL    HW2 3717   6.702   6.707   4.929
  940SOL     OW 3718   1.383   3.834   1.590
  940SOL    HW1 3719   1.385   3.913   1.528
  940SOL    HW2 3720   1.389   3.866   1.684
  941SOL     OW 3721   5.304   1.109   6.223
  941SOL    HW1 3722   5.342   1.043   6.288
  941SOL    HW2 3723   5.298   1.199   6.266
  942SOL     OW 3724   5.594   6.872   3.027
  942SOL    HW1 3725   5.563   6.839   3.116
  942SOL    HW2 3726   5.634   6.797   2.975
  943SOL     OW 3727   2.156   3.745   3.992
  943SOL    HW1 3728   2.245   3.790   3.981
  943SOL    HW2 3729   2.083   3.810   3.973
  944SOL     OW 3730   0.438   4.696   6.214
  944SOL    HW1 3731   0.431   4.630   6.140
  944SOL    HW2 3732   0.416   4.787   6.180
  945SOL     OW 3733   6.572   3.474   5.913
  945SOL    HW1 3734   6.504   3.532   5.868
  945SOL    HW2 3735   6.536   3.381   5.921
  946SOL     OW 3736   5.185   3.539   5.493
  946SOL    HW1 3737   5.169   3.547   5.395
  946SOL    HW2 3738   5.170   3.444   5.522
  947SOL     OW 3739   3.904   3.034   3.377
  947SOL    HW1 3740   3.955   3.100   3.433
  947SOL    HW2 3741   3.929   3.047   3.281
  948SOL     OW 3742   4.401   0.703   2.950
  948SOL    HW1 3743   4.474   0.706   2.883
  948SOL    HW2 3744   4.439   0.720   3.041
  949SOL     OW 3745   1.180   5.890   0.314
  949SOL    HW1 3746   1.268   5.908   0.269
  949SOL    HW2 3747   1.146   5.801   0.286
  950SOL     OW 3748   4.908   5.567   1.743
  950SOL    HW1 3749   4.904   5.483   1.797
  950SOL    HW2 3750   4.980   5.559   1.674
  951SOL     OW 3751   1.864   0.710   4.058
  951SOL    HW1 3752   1.959   0.690   4.033
  951SOL    HW2 3753   1.859   0.730   4.156
  952SOL     OW 3754   4.473   2.097   3.460
  952SOL    HW1 3755   4.482   2.017   3.519
  952SOL    HW2 3756   4.388   2.145   3.481
  953SOL     OW 3757   5.322   4.854   4.186
  953SOL    HW1 3758   5.396   4.900   4.235
  953SOL    HW2 3759   5.249   4.830   4.250
  954SOL     OW 3760   4.160   5.671   1.149
  954SOL    HW1 3761   4.149   5.571   1.151
  954SOL    HW2 3762   4.223   5.696   1.076
  955SOL     OW 3763   0.561   3.650   1.879
  955SOL    HW1 3764   0.562   3.693   1.789
  955SOL    HW2 3765   0.524   3.557   1.871
  956SOL     OW 3766   6.517   0.179   2.377
  956SOL    HW1 3767   6.491   0.141   2.289
  956SOL    HW2 3768   6.587   0.249   2.365
  957SOL     OW 3769   5.772   3.521   4.039
  957SOL    HW1 3770   5.863   3.524   3.999
  957SOL    HW2 3771   5.734   3.429   4.029
  958SOL     OW 3772   3.908   1.773   1.500
  958SOL    HW1 3773   3.846   1.800   1.573
  958SOL    HW2 3774   3.892   1.678   1.475
  959SOL     OW 3775   3.832   5.972   3.137
  959SOL    HW1 3776   3.865   6.016   3.054
  959SOL    HW2 3777   3.734   5.986   3.146
  960SOL     OW 3778   0.257   6.418   2.506
  960SOL    HW1 3779   0.301   6.465   2.583
  960SOL    HW2 3780   0.296   6.327   2.497
  961SOL     OW 3781   4.170   6.311   3.123
  961SOL    HW1 3782   4.221   6.235   3.081
  961SOL    HW2 3783   4.115   6.276   3.199
  962SOL     OW 3784   0.448   1.605   5.154
  962SOL    HW1 3785   0.375   1.551   5.113
  962SOL    HW2 3786   0.409   1.669   5.221
  963SOL     OW 3787   5.799   1.475   6.528
  963SOL    HW1 3788   5.835   1.546   6.589
  963SOL    HW2 3789   5.858   1.394   6.532
  964SOL     OW 3790   5.465   4.586   6.879
  964SOL    HW1 3791   5.398   4.516   6.905
  964SOL    HW2 3792   5.455   4.607   6.782
  965SOL     OW 3793   5.574   2.074   1.678
  965SOL    HW1 3794   5.649   2.134   1.705
  965SOL    HW2 3795   5.501   2.079   1.746
  966SOL     OW 3796   5.942   2.610   2.662
  966SOL    HW1 3797   5.958   2.621   2.563
  966SOL    HW2 3798   5.848   2.635   2.684
  967SOL     OW 3799   2.837   4.347   1.221
  967SOL    HW1 3800   2.851   4.443   1.243
  967SOL    HW2 3801   2.771   4.307   1.285
  968SOL     OW 3802   3.632   0.030   2.059
  968SOL    HW1 3803   3.580   6.994   2.122
  968SOL    HW2 3804   3.706   6.998   2.019
  969SOL     OW 3805   2.274   5.347   5.718
  969SOL    HW1 3806   2.228   5.397   5.645
  969SOL    HW2 3807   2.342   5.286   5.679
  970SOL     OW 3808   5.814   1.044   6.279
  970SOL    HW1 3809   5.744   1.022   6.347
  970SOL    HW2 3810   5.783   1.012   6.189
  971SOL     OW 3811   0.165   2.604   2.719
  971SOL    HW1 3812   0.263   2.584   2.720
  971SOL    HW2 3813   0.149   2.688   2.667
  972SOL     OW 3814   5.686   2.453   1.612
  972SOL    HW1 3815   5.762   2.491   1.560
  972SOL    HW2 3816   5.637   2.386   1.556
  973SOL     OW 3817   0.113   5.214   6.867
  973SOL    HW1 3818   0.164   5.264   6.797
  973SOL    HW2 3819   0.176   5.153   6.916
  974SOL     OW 3820   5.270   6.339   2.465
  974SOL    HW1 3821   5.338   6.391   2.517
  974SOL    HW2 3822   5.205   6.402   2.424
  975SOL     OW 3823   1.930   0.492   6.468
  975SOL    HW1 3824   1.924   0.461   6.373
  975SOL    HW2 3825   1.874   0.432   6.526
  976SOL     OW 3826   0.233   3.641   2.695
  976SOL    HW1 3827   0.293   3.653   2.615
  976SOL    HW2 3828   0.285   3.598   2.769
  977SOL     OW 3829   0.435   6.553   1.733
  977SOL    HW1 3830   0.468   6.613   1.807
  977SOL    HW2 3831   0.483   6.576   1.648
  978SOL     OW 3832   5.334   3.022   5.420
  978SOL    HW1 3833   5.402   2.948   5.421
  978SOL    HW2 3834   5.352   3.084   5.497
  979SOL     OW 3835   0.564   2.378   0.249
  979SOL    HW1 3836   0.660   2.397   0.268
  979SOL    HW2 3837   0.556   2.323   0.166
  980SOL     OW 3838   4.309   2.217   3.875
  980SOL    HW1 3839   4.337   2.311   3.894
  980SOL    HW2 3840   4.366   2.154   3.927
  981SOL     OW 3841   0.477   1.807   4.733
  981SOL    HW1 3842   0.386   1.793   4.695
  981SOL    HW2 3843   0.536   1.730   4.708
  982SOL     OW 3844   1.709   1.675   4.899
  982SOL    HW1 3845   1.777   1.632   4.958
  982SOL    HW2 3846   1.712   1.633   4.809
  983SOL     OW 3847   5.848   3.125   3.826
  983SOL    HW1 3848   5.808   3.164   3.743
  983SOL    HW2 3849   5.848   3.025   3.819
  984SOL     OW 3850   2.535   2.333   4.855
  984SOL    HW1 3851   2.467   2.263   4.836
  984SOL    HW2 3852   2.542   2.348   4.954
  985SOL     OW 3853   6.266   3.016   5.010
  985SOL    HW1 3854   6.290   3.073   5.088
  985SOL    HW2 3855   6.171   2.985   5.019
  986SOL     OW 3856   4.721   4.788   1.218
  986SOL    HW1 3857   4.762   4.722   1.281
  986SOL    HW2 3858   4.628   4.809   1.246
  987SOL     OW 3859   4.765   0.045   2.643
  987SOL    HW1 3860   4.847   0.096   2.670
  987SOL    HW2 3861   4.789   6.970   2.629
  988SOL     OW 3862   3.581   3.852   2.201
  988SOL    HW1 3863   3.614   3.937   2.241
  988SOL    HW2 3864   3.659   3.793   2.178
  989SOL     OW 3865   6.811   1.567   6.028
  989SOL    HW1 3866   6.895   1.594   5.981
  989SOL    HW2 3867   6.812   1.601   6.122
  990SOL     OW 3868   4.094   1.235   2.477
  990SOL    HW1 3869   4.080   1.138   2.457
  990SOL    HW2 3870   4.024   1.289   2.430
  991SOL     OW 3871   0.736   4.095   4.800
  991SOL    HW1 3872   0.824   4.143   4.789
  991SOL    HW2 3873   0.750   4.011   4.851
  992SOL     OW 3874   0.330   3.438   1.035
  992SOL    HW1 3875   0.370   3.353   1.002
  992SOL    HW2 3876   0.231   3.428   1.045
  993SOL     OW 3877   6.796   4.929   0.496
  993SOL    HW1 3878   6.784   4.864   0.421
  993SOL    HW2 3879   6.882   4.911   0.544
  994SOL     OW 3880   4.348   5.064   1.649
  994SOL    HW1 3881   4.303   5.069   1.559
  994SOL    HW2 3882   4.325   5.145   1.702
  995SOL     OW 3883   3.780   2.745   5.580
  995SOL    HW1 3884   3.837   2.668   5.608
  995SOL    HW2 3885   3.689   2.712   5.555
  996SOL     OW 3886   3.239   5.273   4.450
  996SOL    HW1 3887   3.308   5.274   4.378
  996SOL    HW2 3888   3.274   5.222   4.529
  997SOL     OW 3889   1.012   0.156   3.336
  997SOL    HW1 3890   0.979   0.081   3.394
  997SOL    HW2 3891   0.943   0.229   3.334
  998SOL     OW 3892   5.225   0.459   5.040
  998SOL    HW1 3893   5.133   0.493   5.018
  998SOL    HW2 3894   5.218   0.363   5.067
  999SOL     OW 3895   5.187   4.589   2.923
  999SOL    HW1 3896   5.119   4.660   2.941
  999SOL    HW2 3897   5.221   4.599   2.829
 1000SOL     OW 3898   3.149   1.634   1.310
 1000SOL    HW1 3899   3.105   1.615   1.222
 1000SOL    HW2 3900   3.167   1.548   1.357
 1001SOL     OW 3901   5.160   5.961   1.027
 1001SOL    HW1 3902   5.060   5.959   1.036
 1001SOL    HW2 3903   5.201   5.986   1.114
 1002SOL     OW 3904   5.858   2.381   1.333
 1002SOL    HW1 3905   5.868   2.290   1.374
 1002SOL    HW2 3906   5.769   2.388   1.289
 1003SOL     OW 3907   1.651   6.120   2.734
 1003SOL    HW1 3908   1.655   6.220   2.731
 1003SOL    HW2 3909   1.591   6.092   2.809
 1004SOL     OW 3910   0.271   0.382   1.870
 1004SOL    HW1 3911   0.258   0.470   1.823
 1004SOL    HW2 3912   0.316   0.398   1.957
 1005SOL     OW 3913   2.130   2.762   4.269
 1005SOL    HW1 3914   2.094   2.771   4.362
 1005SOL    HW2 3915   2.230   2.761   4.272
 1006SOL     OW 3916   1.418   4.549   0.644
 1006SOL    HW1 3917   1.476   4.563   0.725
 1006SOL    HW2 3918   1.439   4.618   0.576
 1007SOL     OW 3919   4.186   0.427   5.077
 1007SOL    HW1 3920   4.233   0.392   4.997
 1007SOL    HW2 3921   4.124   0.501   5.050
 1008SOL     OW 3922   0.745   3.166   5.952
 1008SOL    HW1 3923   0.711   3.252   5.990
 1008SOL    HW2 3924   0.755   3.175   5.853
 1009SOL     OW 3925   0.267   4.935   5.127
 1009SOL    HW1 3926   0.316   4.891   5.202
 1009SOL    HW2 3927   0.324   4.933   5.045
 1010SOL     OW 3928   3.496   1.957   0.025
 1010SOL    HW1 3929   3.418   2.010   0.058
 1010SOL    HW2 3930   3.573   2.017   0.008
 1011SOL     OW 3931   1.654   5.511   2.514
 1011SOL    HW1 3932   1.633   5.417   2.486
 1011SOL    HW2 3933   1.750   5.530   2.495
 1012SOL     OW 3934   0.040   6.909   2.437
 1012SOL    HW1 3935   7.014   6.977   2.492
 1012SOL    HW2 3936   6.995   6.849   2.393
 1013SOL     OW 3937   1.282   1.791   6.566
 1013SOL    HW1 3938   1.326   1.711   6.605
 1013SOL    HW2 3939   1.231   1.839   6.638
 1014SOL     OW 3940   6.732   4.392   5.853
 1014SOL    HW1 3941   6.714   4.487   5.829
 1014SOL    HW2 3942   6.646   4.341   5.858
 1015SOL     OW 3943   2.729   6.435   6.061
 1015SOL    HW1 3944   2.684   6.360   6.012
 1015SOL    HW2 3945   2.742   6.512   5.999
 1016SOL     OW 3946   4.258   3.896   6.972
 1016SOL    HW1 3947   4.322   3.957   6.926
 1016SOL    HW2 3948   4.175   3.947   6.997
 1017SOL     OW 3949   4.410   2.837   1.261
 1017SOL    HW1 3950   4.432   2.773   1.335
 1017SOL    HW2 3951   4.359   2.915   1.298
 1018SOL     OW 3952   0.551   4.510   3.940
 1018SOL    HW1 3953   0.633   4.453   3.936
 1018SOL    HW2 3954   0.563   4.590   3.882
 1019SOL     OW 3955   6.909   6.369   0.880
 1019SOL    HW1 3956   6.986   6.411   0.928
 1019SOL    HW2 3957   6.944   6.312   0.805
 1020SOL     OW 3958   6.447   1.487   1.086
 1020SOL    HW1 3959   6.466   1.499   1.184
 1020SOL    HW2 3960   6.350   1.506   1.068
 1021SOL     OW 3961   5.898   0.092   1.510
 1021SOL    HW1 3962   5.824   0.109   1.576
 1021SOL    HW2 3963   5.862   0.039   1.433
 1022SOL     OW 3964   3.051   4.231   5.282
 1022SOL    HW1 3965   2.984   4.157   5.290
 1022SOL    HW2 3966   3.006   4.313   5.246
 1023SOL     OW 3967   0.422   0.605   2.922
 1023SOL    HW1 3968   0.472   0.537   2.869
 1023SOL    HW2 3969   0.486   0.655   2.981
 1024SOL     OW 3970   0.475   2.841   4.286
 1024SOL    HW1 3971   0.488   2.742   4.296
 1024SOL    HW2 3972   0.378   2.862   4.278
 1025SOL     OW 3973   3.879   3.671   1.474
 1025SOL    HW1 3974   3.807   3.630   1.529
 1025SOL    HW2 3975   3.955   3.607   1.465
 1026SOL     OW 3976   2.711   2.729   1.603
 1026SOL    HW1 3977   2.700   2.629   1.607
 1026SOL    HW2 3978   2.805   2.753   1.625
 1027SOL     OW 3979   3.565   6.651   2.183
 1027SOL    HW1 3980   3.569   6.585   2.257
 1027SOL    HW2 3981   3.632   6.627   2.112
 1028SOL     OW 3982   2.198   0.162   1.925
 1028SOL    HW1 3983   2.133   0.194   1.857
 1028SOL    HW2 3984   2.225   0.238   1.984
 1029SOL     OW 3985   1.458   0.554   6.292
 1029SOL    HW1 3986   1.502   0.497   6.360
 1029SOL    HW2 3987   1.469   0.513   6.201
 1030SOL     OW 3988   3.466   3.062   1.969
 1030SOL    HW1 3989   3.540   3.120   2.002
 1030SOL    HW2 3990   3.497   2.967   1.965
 1031SOL     OW 3991   4.347   4.011   1.123
 1031SOL    HW1 3992   4.422   3.983   1.183
 1031SOL    HW2 3993   4.278   4.059   1.176
 1032SOL     OW 3994   2.291   1.810   6.044
 1032SOL    HW1 3995   2.335   1.727   6.010
 1032SOL    HW2 3996   2.209   1.785   6.096
 1033SOL     OW 3997   1.325   6.167   1.739
 1033SOL    HW1 3998   1.402   6.150   1.801
 1033SOL    HW2 3999   1.351   6.236   1.671
 1034SOL     OW 4000   0.347   5.255   4.420
 1034SOL    HW1 4001   0.350   5.222   4.325
 1034SOL    HW2 4002   0.391   5.344   4.425
 1035SOL     OW 4003   0.290   1.216   5.055
 1035SOL    HW1 4004   0.251   1.141   5.002
 1035SOL    HW2 4005   0.357   1.266   5.000
 1036SOL     OW 4006   3.967   0.293   1.778
 1036SOL    HW1 4007   4.054   0.293   1.826
 1036SOL    HW2 4008   3.936   0.199   1.764
 1037SOL     OW 4009   1.508   1.153   2.115
 1037SOL    HW1 4010   1.421   1.154   2.164
 1037SOL    HW2 4011   1.578   1.198   2.171
 1038SOL     OW 4012   1.728   0.802   5.547
 1038SOL    HW1 4013   1.758   0.873   5.483
 1038SOL    HW2 4014   1.806   0.767   5.598
 1039SOL     OW 4015   3.270   3.701   4.574
 1039SOL    HW1 4016   3.293   3.687   4.670
 1039SOL    HW2 4017   3.177   3.667   4.557
 1040SOL     OW 4018   5.147   1.529   2.515
 1040SOL    HW1 4019   5.048   1.520   2.517
 1040SOL    HW2 4020   5.189   1.438   2.521
 1041SOL     OW 4021   0.366   6.484   3.827
 1041SOL    HW1 4022   0.347   6.582   3.829
 1041SOL    HW2 4023   0.465   6.470   3.825
 1042SOL     OW 4024   4.275   5.502   2.474
 1042SOL    HW1 4025   4.371   5.477   2.463
 1042SOL    HW2 4026   4.229   5.496   2.385
 1043SOL     OW 4027   2.942   2.265   4.171
 1043SOL    HW1 4028   2.878   2.301   4.239
 1043SOL    HW2 4029   2.947   2.329   4.094
 1044SOL     OW 4030   6.011   5.265   2.656
 1044SOL    HW1 4031   5.956   5.243   2.575
 1044SOL    HW2 4032   5.955   5.316   2.721
 1045SOL     OW 4033   3.994   0.382   2.914
 1045SOL    HW1 4034   4.092   0.400   2.919
 1045SOL    HW2 4035   3.966   0.373   2.819
 1046SOL     OW 4036   1.563   0.791   0.651
 1046SOL    HW1 4037   1.628   0.716   0.666
 1046SOL    HW2 4038   1.599   0.853   0.582
 1047SOL     OW 4039   2.046   0.295   4.129
 1047SOL    HW1 4040   1.947   0.284   4.124
 1047SOL    HW2 4041   2.086   0.276   4.039
 1048SOL     OW 4042   4.325   6.120   2.973
 1048SOL    HW1 4043   4.399   6.160   2.920
 1048SOL    HW2 4044   4.262   6.072   2.912
 1049SOL     OW 4045   6.683   6.551   4.016
 1049SOL    HW1 4046   6.589   6.529   4.042
 1049SOL    HW2 4047   6.684   6.586   3.922
 1050SOL     OW 4048   3.581   4.964   1.175
 1050SOL    HW1 4049   3.523   4.979   1.255
 1050SOL    HW2 4050   3.525   4.935   1.098
 1051SOL     OW 4051   0.741   5.500   0.474
 1051SOL    HW1 4052   0.660   5.493   0.534
 1051SOL    HW2 4053   0.775   5.408   0.454
 1052SOL     OW 4054   3.960   0.576   5.028
 1052SOL    HW1 4055   3.903   0.602   4.951
 1052SOL    HW2 4056   3.903   0.556   5.107
 1053SOL     OW 4057   5.976   4.836   2.853
 1053SOL    HW1 4058   6.021   4.770   2.913
 1053SOL    HW2 4059   6.027   4.922   2.854
 1054SOL     OW 4060   3.099   3.463   0.497
 1054SOL    HW1 4061   3.077   3.430   0.589
 1054SOL    HW2 4062   3.148   3.392   0.447
 1055SOL     OW 4063   3.774   6.179   4.936
 1055SOL    HW1 4064   3.701   6.215   4.878
 1055SOL    HW2 4065   3.741   6.099   4.986
 1056SOL     OW 4066   2.528   3.830   0.187
 1056SOL    HW1 4067   2.466   3.759   0.154
 1056SOL    HW2 4068   2.477   3.896   0.241
 1057SOL     OW 4069   3.135   3.505   1.389
 1057SOL    HW1 4070   3.206   3.437   1.370
 1057SOL    HW2 4071   3.173   3.597   1.377
 1058SOL     OW 4072   4.955   2.224   3.364
 1058SOL    HW1 4073   4.861   2.190   3.371
 1058SOL    HW2 4074   4.987   2.249   3.456
 1059SOL     OW 4075   3.146   0.567   2.285
 1059SOL    HW1 4076   3.129   0.661   2.254
 1059SOL    HW2 4077   3.237   0.539   2.258
 1060SOL     OW 4078   0.118   4.957   4.166
 1060SOL    HW1 4079   0.179   5.020   4.216
 1060SOL    HW2 4080   0.044   5.010   4.123
 1061SOL     OW 4081   6.868   3.171   0.463
 1061SOL    HW1 4082   6.782   3.146   0.419
 1061SOL    HW2 4083   6.873   3.270   0.475
 1062SOL     OW 4084   5.316   4.897   5.916
 1062SOL    HW1 4085   5.259   4.894   5.998
 1062SOL    HW2 4086   5.342   4.803   5.892
 1063SOL     OW 4087   1.045   5.408   1.178
 1063SOL    HW1 4088   1.009   5.498   1.153
 1063SOL    HW2 4089   1.138   5.398   1.142
 1064SOL     OW 4090   1.781   4.528   2.601
 1064SOL    HW1 4091   1.812   4.533   2.506
 1064SOL    HW2 4092   1.756   4.620   2.633
 1065SOL     OW 4093   4.173   1.091   3.859
 1065SOL    HW1 4094   4.226   1.044   3.929
 1065SOL    HW2 4095   4.079   1.057   3.860
 1066SOL     OW 4096   5.295   6.683   2.810
 1066SOL    HW1 4097   5.236   6.755   2.773
 1066SOL    HW2 4098   5.390   6.702   2.785
 1067SOL     OW 4099   0.855   3.134   0.703
 1067SOL    HW1 4100   0.794   3.058   0.683
 1067SOL    HW2 4101   0.913   3.111   0.781
 1068SOL     OW 4102   6.118   4.685   2.441
 1068SOL    HW1 4103   6.056   4.755   2.478
 1068SOL    HW2 4104   6.087   4.658   2.350
 1069SOL     OW 4105   4.927   5.621   0.683
 1069SOL    HW1 4106   4.906   5.706   0.732
 1069SOL    HW2 4107   4.877   5.620   0.597
 1070SOL     OW 4108   0.110   0.845   1.494
 1070SOL    HW1 4109   0.190   0.839   1.435
 1070SOL    HW2 4110   0.135   0.885   1.582
 1071SOL     OW 4111   1.397   0.859   4.253
 1071SOL    HW1 4112   1.484   0.852   4.302
 1071SOL    HW2 4113   1.397   0.939   4.195
 1072SOL     OW 4114   1.629   1.086   1.097
 1072SOL    HW1 4115   1.699   1.157   1.105
 1072SOL    HW2 4116   1.634   1.045   1.007
 1073SOL     OW 4117   4.641   0.399   2.948
 1073SOL    HW1 4118   4.671   0.465   3.017
 1073SOL    HW2 4119   4.711   0.328   2.937
 1074SOL     OW 4120   2.140   5.212   1.720
 1074SOL    HW1 4121   2.235   5.218   1.751
 1074SOL    HW2 4122   2.081   5.188   1.796
 1075SOL     OW 4123   5.352   0.456   3.499
 1075SOL    HW1 4124   5.359   0.359   3.479
 1075SOL    HW2 4125   5.438   0.488   3.540
 1076SOL     OW 4126   0.447   2.565   5.490
 1076SOL    HW1 4127   0.371   2.618   5.527
 1076SOL    HW2 4128   0.484   2.612   5.410
 1077SOL     OW 4129   5.800   0.507   0.876
 1077SOL    HW1 4130   5.791   0.420   0.827
 1077SOL    HW2 4131   5.732   0.511   0.949
 1078SOL     OW 4132   0.624   0.499   2.283
 1078SOL    HW1 4133   0.694   0.489   2.212
 1078SOL    HW2 4134   0.535   0.513   2.240
 1079SOL     OW 4135   1.601   6.851   2.216
 1079SOL    HW1 4136   1.642   6.788   2.150
 1079SOL    HW2 4137   1.671   6.914   2.249
 1080SOL     OW 4138   1.524   5.548   3.148
 1080SOL    HW1 4139   1.486   5.552   3.055
 1080SOL    HW2 4140   1.498   5.631   3.197
 1081SOL     OW 4141   6.824   4.830   6.106
 1081SOL    HW1 4142   6.900   4.769   6.088
 1081SOL    HW2 4143   6.808   4.889   6.027
 1082SOL     OW 4144   5.211   1.977   4.961
 1082SOL    HW1 4145   5.135   1.955   5.022
 1082SOL    HW2 4146   5.285   1.910   4.974
 1083SOL     OW 4147   4.858   4.284   0.554
 1083SOL    HW1 4148   4.802   4.234   0.487
 1083SOL    HW2 4149   4.879   4.375   0.517
 1084SOL     OW 4150   5.953   6.104   6.718
 1084SOL    HW1 4151   5.928   6.016   6.759
 1084SOL    HW2 4152   5.871   6.161   6.710
 1085SOL     OW 4153   1.859   3.651   4.801
 1085SOL    HW1 4154   1.956   3.630   4.812
 1085SOL    HW2 4155   1.810   3.623   4.884
 1086SOL     OW 4156   0.749   5.221   0.326
 1086SOL    HW1 4157   0.756   5.166   0.409
 1086SOL    HW2 4158   0.814   5.186   0.257
 1087SOL     OW 4159   6.228   2.190   5.126
 1087SOL    HW1 4160   6.183   2.100   5.128
 1087SOL    HW2 4161   6.220   2.229   5.034
 1088SOL     OW 4162   0.635   4.087   2.870
 1088SOL    HW1 4163   0.591   4.094   2.780
 1088SOL    HW2 4164   0.581   4.027   2.929
 1089SOL     OW 4165   0.703   6.067   4.910
 1089SOL    HW1 4166   0.703   5.968   4.921
 1089SOL    HW2 4167   0.703   6.090   4.813
 1090SOL     OW 4168   2.612   2.372   2.984
 1090SOL    HW1 4169   2.707   2.342   2.971
 1090SOL    HW2 4170   2.553   2.292   2.995
 1091SOL     OW 4171   2.834   2.127   4.600
 1091SOL    HW1 4172   2.933   2.126   4.587
 1091SOL    HW2 4173   2.809   2.199   4.666
 1092SOL     OW 4174   0.986   4.374   1.038
 1092SOL    HW1 4175   1.006   4.468   1.067
 1092SOL    HW2 4176   1.068   4.334   0.997
 1093SOL     OW 4177   2.074   0.911   1.807
 1093SOL    HW1 4178   2.074   0.838   1.875
 1093SOL    HW2 4179   2.152   0.972   1.823
 1094SOL     OW 4180   0.517   6.832   2.520
 1094SOL    HW1 4181   0.429   6.868   2.551
 1094SOL    HW2 4182   0.522   6.734   2.539
 1095SOL     OW 4183   1.252   3.072   6.270
 1095SOL    HW1 4184   1.332   3.022   6.302
 1095SOL    HW2 4185   1.224   3.037   6.181
 1096SOL     OW 4186   3.501   4.413   1.696
 1096SOL    HW1 4187   3.535   4.479   1.762
 1096SOL    HW2 4188   3.469   4.331   1.744
 1097SOL     OW 4189   2.397   4.397   4.105
 1097SOL    HW1 4190   2.303   4.408   4.071
 1097SOL    HW2 4191   2.432   4.308   4.077
 1098SOL     OW 4192   4.716   3.780   6.617
 1098SOL    HW1 4193   4.778   3.737   6.682
 1098SOL    HW2 4194   4.622   3.755   6.638
 1099SOL     OW 4195   3.344   0.975   6.099
 1099SOL    HW1 4196   3.398   1.057   6.114
 1099SOL    HW2 4197   3.265   0.975   6.160
 1100SOL     OW 4198   4.242   1.523   4.231
 1100SOL    HW1 4199   4.217   1.471   4.313
 1100SOL    HW2 4200   4.162   1.532   4.172
 1101SOL     OW 4201   5.641   3.241   5.832
 1101SOL    HW1 4202   5.706   3.310   5.800
 1101SOL    HW2 4203   5.596   3.274   5.915
 1102SOL     OW 4204   0.709   0.118   4.823
 1102SOL    HW1 4205   0.725   0.060   4.743
 1102SOL    HW2 4206   0.612   0.117   4.847
 1103SOL     OW 4207   4.464   1.959   6.835
 1103SOL    HW1 4208   4.423   1.870   6.857
 1103SOL    HW2 4209   4.562   1.955   6.851
 1104SOL     OW 4210   2.013   3.262   5.624
 1104SOL    HW1 4211   2.111   3.264   5.640
 1104SOL    HW2 4212   1.995   3.221   5.534
 1105SOL     OW 4213   6.083   4.063   5.047
 1105SOL    HW1 4214   6.049   4.143   5.097
 1105SOL    HW2 4215   6.022   3.986   5.063
 1106SOL     OW 4216   0.177   2.520   1.079
 1106SOL    HW1 4217   0.266   2.481   1.104
 1106SOL    HW2 4218   0.167   2.609   1.123
 1107SOL     OW 4219   0.847   0.710   0.158
 1107SOL    HW1 4220   0.895   0.716   0.245
 1107SOL    HW2 4221   0.789   0.790   0.146
 1108SOL     OW 4222   3.270   6.948   5.343
 1108SOL    HW1 4223   3.364   6.933   5.311
 1108SOL    HW2 4224   3.218   6.998   5.274
 1109SOL     OW 4225   5.009   1.125   3.887
 1109SOL    HW1 4226   4.929   1.182   3.870
 1109SOL    HW2 4227   5.065   1.121   3.804
 1110SOL     OW 4228   3.619   2.031   3.114
 1110SOL    HW1 4229   3.531   2.076   3.130
 1110SOL    HW2 4230   3.604   1.948   3.060
 1111SOL     OW 4231   4.512   5.344   6.267
 1111SOL    HW1 4232   4.582   5.363   6.335
 1111SOL    HW2 4233   4.518   5.411   6.193
 1112SOL     OW 4234   5.674   0.959   2.440
 1112SOL    HW1 4235   5.591   1.014   2.431
 1112SOL    HW2 4236   5.649   0.863   2.455
 1113SOL     OW 4237   5.885   4.432   1.642
 1113SOL    HW1 4238   5.811   4.478   1.593
 1113SOL    HW2 4239   5.846   4.357   1.695
 1114SOL     OW 4240   3.543   1.683   6.146
 1114SOL    HW1 4241   3.534   1.588   6.113
 1114SOL    HW2 4242   3.622   1.725   6.103
 1115SOL     OW 4243   3.920   3.119   6.112
 1115SOL    HW1 4244   3.955   3.158   6.027
 1115SOL    HW2 4245   3.824   3.146   6.124
 1116SOL     OW 4246   4.882   6.601   5.763
 1116SOL    HW1 4247   4.972   6.619   5.724
 1116SOL    HW2 4248   4.892   6.562   5.854
 1117SOL     OW 4249   2.034   2.682   2.141
 1117SOL    HW1 4250   1.970   2.674   2.218
 1117SOL    HW2 4251   2.103   2.610   2.148
 1118SOL     OW 4252   3.328   4.613   0.488
 1118SOL    HW1 4253   3.278   4.661   0.415
 1118SOL    HW2 4254   3.405   4.563   0.448
 1119SOL     OW 4255   4.186   4.690   1.925
 1119SOL    HW1 4256   4.238   4.744   1.859
 1119SOL    HW2 4257   4.206   4.593   1.913
 1120SOL     OW 4258   5.946   6.444   0.381
 1120SOL    HW1 4259   6.008   6.369   0.357
 1120SOL    HW2 4260   5.876   6.454   0.310
 1121SOL     OW 4261   6.221   4.201   4.536
 1121SOL    HW1 4262   6.225   4.130   4.466
 1121SOL    HW2 4263   6.129   4.240   4.539
 1122SOL     OW 4264   4.918   2.156   1.422
 1122SOL    HW1 4265   4.932   2.103   1.339
 1122SOL    HW2 4266   4.853   2.231   1.404
 1123SOL     OW 4267   5.410   1.887   2.992
 1123SOL    HW1 4268   5.349   1.894   3.071
 1123SOL    HW2 4269   5.503   1.871   3.023
 1124SOL     OW 4270   0.129   3.824   5.415
 1124SOL    HW1 4271   0.055   3.838   5.349
 1124SOL    HW2 4272   0.090   3.790   5.501
 1125SOL     OW 4273   2.514   2.447   3.700
 1125SOL    HW1 4274   2.480   2.359   3.668
 1125SOL    HW2 4275   2.544   2.439   3.795
 1126SOL     OW 4276   5.290   5.262   0.270
 1126SOL    HW1 4277   5.271   5.223   0.359
 1126SOL    HW2 4278   5.216   5.238   0.206
 1127SOL     OW 4279   5.351   5.207   4.524
 1127SOL    HW1 4280   5.370   5.290   4.576
 1127SOL    HW2 4281   5.320   5.232   4.432
 1128SOL     OW 4282   6.055   1.252   4.922
 1128SOL    HW1 4283   6.038   1.349   4.935
 1128SOL    HW2 4284   6.131   1.239   4.857
 1129SOL     OW 4285   1.430   6.989   0.895
 1129SOL    HW1 4286   1.446   0.030   0.972
 1129SOL    HW2 4287   1.401   0.021   0.815
 1130SOL     OW 4288   2.760   5.216   0.684
 1130SOL    HW1 4289   2.806   5.147   0.629
 1130SOL    HW2 4290   2.688   5.260   0.630
 1131SOL     OW 4291   1.376   5.958   5.790
 1131SOL    HW1 4292   1.313   5.999   5.724
 1131SOL    HW2 4293   1.466   6.000   5.781
 1132SOL     OW 4294   5.265   0.235   2.417
 1132SOL    HW1 4295   5.342   0.171   2.419
 1132SOL    HW2 4296   5.260   0.279   2.327
 1133SOL     OW 4297   0.590   1.137   0.607
 1133SOL    HW1 4298   0.537   1.073   0.663
 1133SOL    HW2 4299   0.688   1.120   0.621
 1134SOL     OW 4300   5.030   0.154   2.731
 1134SOL    HW1 4301   5.073   0.215   2.665
 1134SOL    HW2 4302   5.101   0.106   2.784
 1135SOL     OW 4303   2.537   6.924   3.300
 1135SOL    HW1 4304   2.525   6.907   3.398
 1135SOL    HW2 4305   2.448   6.947   3.259
 1136SOL     OW 4306   4.349   4.595   3.356
 1136SOL    HW1 4307   4.304   4.666   3.301
 1136SOL    HW2 4308   4.380   4.521   3.296
 1137SOL     OW 4309   1.167   6.414   6.984
 1137SOL    HW1 4310   1.201   6.481   6.918
 1137SOL    HW2 4311   1.206   6.433   0.052
 1138SOL     OW 4312   0.305   0.880   6.052
 1138SOL    HW1 4313   0.238   0.829   6.106
 1138SOL    HW2 4314   0.305   0.976   6.080
 1139SOL     OW 4315   3.023   4.843   2.712
 1139SOL    HW1 4316   3.013   4.805   2.620
 1139SOL    HW2 4317   3.093   4.915   2.711
 1140SOL     OW 4318   2.899   1.184   2.385
 1140SOL    HW1 4319   2.815   1.131   2.399
 1140SOL    HW2 4320   2.876   1.278   2.362
 1141SOL     OW 4321   0.649   6.262   6.923
 1141SOL    HW1 4322   0.669   6.240   7.018
 1141SOL    HW2 4323   0.713   6.332   6.891
 1142SOL     OW 4324   3.344   7.017   4.369
 1142SOL    HW1 4325   3.436   7.006   4.331
 1142SOL    HW2 4326   3.340   0.079   4.423
 1143SOL     OW 4327   2.172   2.951   3.322
 1143SOL    HW1 4328   2.074   2.940   3.306
 1143SOL    HW2 4329   2.198   2.903   3.406
 1144SOL     OW 4330   6.221   4.326   4.217
 1144SOL    HW1 4331   6.283   4.383   4.272
 1144SOL    HW2 4332   6.214   4.236   4.258
 1145SOL     OW 4333   6.257   3.975   1.971
 1145SOL    HW1 4334   6.286   3.882   1.990
 1145SOL    HW2 4335   6.335   4.037   1.981
 1146SOL     OW 4336   6.695   0.756   2.945
 1146SOL    HW1 4337   6.728   0.836   2.895
 1146SOL    HW2 4338   6.684   0.679   2.882
 1147SOL     OW 4339   2.640   5.875   1.710
 1147SOL    HW1 4340   2.645   5.970   1.678
 1147SOL    HW2 4341   2.672   5.814   1.638
 1148SOL     OW 4342   4.253   6.104   0.202
 1148SOL    HW1 4343   4.277   6.174   0.134
 1148SOL    HW2 4344   4.332   6.086   0.260
 1149SOL     OW 4345   5.981   3.242   2.738
 1149SOL    HW1 4346   6.015   3.165   2.685
 1149SOL    HW2 4347   6.004   3.327   2.691
 1150SOL     OW 4348   0.780   3.723   0.325
 1150SOL    HW1 4349   0.827   3.731   0.237
 1150SOL    HW2 4350   0.843   3.687   0.394
 1151SOL     OW 4351   5.182   4.249   6.431
 1151SOL    HW1 4352   5.230   4.163   6.416
 1151SOL    HW2 4353   5.107   4.258   6.366
 1152SOL     OW 4354   5.094   5.208   0.094
 1152SOL    HW1 4355   5.092   5.228   7.017
 1152SOL    HW2 4356   5.015   5.151   0.118
 1153SOL     OW 4357   0.815   0.080   1.785
 1153SOL    HW1 4358   0.802   0.107   1.690
 1153SOL    HW2 4359   0.771   7.013   1.802
 1154SOL     OW 4360   6.866   4.368   1.769
 1154SOL    HW1 4361   6.956   4.329   1.751
 1154SOL    HW2 4362   6.796   4.298   1.758
 1155SOL     OW 4363   2.306   4.618   5.981
 1155SOL    HW1 4364   2.343   4.603   5.890
 1155SOL    HW2 4365   2.285   4.530   6.023
 1156SOL     OW 4366   4.519   1.863   4.988
 1156SOL    HW1 4367   4.497   1.862   4.891
 1156SOL    HW2 4368   4.488   1.778   5.030
 1157SOL     OW 4369   5.338   1.252   5.977
 1157SOL    HW1 4370   5.427   1.270   6.018
 1157SOL    HW2 4371   5.293   1.178   6.026
 1158SOL     OW 4372   6.910   4.991   5.455
 1158SOL    HW1 4373   6.935   4.964   5.362
 1158SOL    HW2 4374   6.856   4.918   5.497
 1159SOL     OW 4375   6.628   6.934   3.547
 1159SOL    HW1 4376   6.604   7.019   3.594
 1159SOL    HW2 4377   6.716   6.901   3.580
 1160SOL     OW 4378   5.270   4.402   1.108
 1160SOL    HW1 4379   5.199   4.396   1.179
 1160SOL    HW2 4380   5.230   4.441   1.025
 1161SOL     OW 4381   5.980   5.953   5.911
 1161SOL    HW1 4382   6.020   5.867   5.878
 1161SOL    HW2 4383   6.038   6.030   5.882
 1162SOL     OW 4384   2.955   2.917   6.972
 1162SOL    HW1 4385   2.999   2.971   0.022
 1162SOL    HW2 4386   2.952   2.970   6.887
 1163SOL     OW 4387   6.702   3.857   2.082
 1163SOL    HW1 4388   6.793   3.878   2.118
 1163SOL    HW2 4389   6.681   3.761   2.097
 1164SOL     OW 4390   5.555   2.882   3.935
 1164SOL    HW1 4391   5.526   2.858   4.027
 1164SOL    HW2 4392   5.608   2.806   3.896
 1165SOL     OW 4393   3.668   5.191   3.915
 1165SOL    HW1 4394   3.601   5.118   3.899
 1165SOL    HW2 4395   3.729   5.199   3.837
 1166SOL     OW 4396   3.895   6.713   6.767
 1166SOL    HW1 4397   3.828   6.659   6.819
 1166SOL    HW2 4398   3.848   6.766   6.697
 1167SOL     OW 4399   4.207   6.541   0.067
 1167SOL    HW1 4400   4.201   6.636   0.034
 1167SOL    HW2 4401   4.214   6.479   7.010
 1168SOL     OW 4402   5.692   2.621   2.779
 1168SOL    HW1 4403   5.635   2.540   2.786
 1168SOL    HW2 4404   5.725   2.647   2.870
 1169SOL     OW 4405   4.743   2.697   5.851
 1169SOL    HW1 4406   4.723   2.779   5.798
 1169SOL    HW2 4407   4.749   2.721   5.948
 1170SOL     OW 4408   5.392   6.999   2.864
 1170SOL    HW1 4409   5.308   6.945   2.874
 1170SOL    HW2 4410   5.470   6.947   2.900
 1171SOL     OW 4411   2.208   6.282   6.923
 1171SOL    HW1 4412   2.269   6.237   6.859
 1171SOL    HW2 4413   2.250   6.367   6.956
 1172SOL     OW 4414   3.620   4.139   1.476
 1172SOL    HW1 4415   3.652   4.074   1.546
 1172SOL    HW2 4416   3.648   4.107   1.386
 1173SOL     OW 4417   3.093   1.079   0.472
 1173SOL    HW1 4418   3.091   0.982   0.448
 1173SOL    HW2 4419   3.162   1.095   0.542
 1174SOL     OW 4420   2.627   5.103   1.937
 1174SOL    HW1 4421   2.604   5.006   1.932
 1174SOL    HW2 4422   2.725   5.113   1.953
 1175SOL     OW 4423   4.354   4.720   6.573
 1175SOL    HW1 4424   4.367   4.819   6.562
 1175SOL    HW2 4425   4.257   4.700   6.582
 1176SOL     OW 4426   5.865   3.655   6.492
 1176SOL    HW1 4427   5.912   3.673   6.406
 1176SOL    HW2 4428   5.824   3.740   6.525
 1177SOL     OW 4429   6.977   3.483   4.532
 1177SOL    HW1 4430   6.936   3.518   4.616
 1177SOL    HW2 4431   6.950   3.539   4.454
 1178SOL     OW 4432   3.994   3.903   0.549
 1178SOL    HW1 4433   4.061   3.954   0.495
 1178SOL    HW2 4434   4.038   3.825   0.593
 1179SOL     OW 4435   2.136   6.320   1.013
 1179SOL    HW1 4436   2.107   6.407   0.972
 1179SOL    HW2 4437   2.150   6.252   0.941
 1180SOL     OW 4438   2.713   5.863   4.567
 1180SOL    HW1 4439   2.680   5.774   4.597
 1180SOL    HW2 4440   2.750   5.856   4.474
 1181SOL     OW 4441   7.019   4.380   5.421
 1181SOL    HW1 4442   6.976   4.290   5.431
 1181SOL    HW2 4443   0.039   4.407   5.508
 1182SOL     OW 4444   4.209   5.064   3.725
 1182SOL    HW1 4445   4.258   5.026   3.803
 1182SOL    HW2 4446   4.236   5.015   3.642
 1183SOL     OW 4447   3.128   4.536   1.486
 1183SOL    HW1 4448   3.106   4.584   1.571
 1183SOL    HW2 4449   3.048   4.534   1.427
 1184SOL     OW 4450   0.188   1.382   5.454
 1184SOL    HW1 4451   0.124   1.386   5.377
 1184SOL    HW2 4452   0.274   1.341   5.424
 1185SOL     OW 4453   1.217   0.906   0.416
 1185SOL    HW1 4454   1.119   0.888   0.425
 1185SOL    HW2 4455   1.231   0.983   0.354
 1186SOL     OW 4456   4.768   6.306   5.031
 1186SOL    HW1 4457   4.764   6.231   5.097
 1186SOL    HW2 4458   4.814   6.385   5.073
 1187SOL     OW 4459   5.037   0.322   4.781
 1187SOL    HW1 4460   5.082   0.381   4.713
 1187SOL    HW2 4461   5.055   0.227   4.759
 1188SOL     OW 4462   2.521   5.146   6.314
 1188SOL    HW1 4463   2.599   5.128   6.374
 1188SOL    HW2 4464   2.438   5.111   6.357
 1189SOL     OW 4465   6.350   2.019   1.910
 1189SOL    HW1 4466   6.386   2.058   1.995
 1189SOL    HW2 4467   6.304   2.091   1.858
 1190SOL     OW 4468   2.905   5.690   2.945
 1190SOL    HW1 4469   2.822   5.665   2.996
 1190SOL    HW2 4470   2.944   5.773   2.984
 1191SOL     OW 4471   4.278   5.725   4.459
 1191SOL    HW1 4472   4.269   5.632   4.496
 1191SOL    HW2 4473   4.301   5.788   4.533
 1192SOL     OW 4474   5.238   5.214   3.130
 1192SOL    HW1 4475   5.282   5.129   3.160
 1192SOL    HW2 4476   5.167   5.240   3.195
 1193SOL     OW 4477   0.090   2.246   5.753
 1193SOL    HW1 4478   0.094   2.261   5.654
 1193SOL    HW2 4479   7.020   2.268   5.786
 1194SOL     OW 4480   6.350   1.193   1.468
 1194SOL    HW1 4481   6.430   1.164   1.521
 1194SOL    HW2 4482   6.342   1.293   1.471
 1195SOL     OW 4483   0.031   3.863   0.143
 1195SOL    HW1 4484   0.094   3.785   0.153
 1195SOL    HW2 4485   6.967   3.843   0.190
 1196SOL     OW 4486   6.896   4.869   3.527
 1196SOL    HW1 4487   6.892   4.770   3.517
 1196SOL    HW2 4488   6.820   4.911   3.477
 1197SOL     OW 4489   4.498   6.544   4.859
 1197SOL    HW1 4490   4.465   6.533   4.765
 1197SOL    HW2 4491   4.571   6.479   4.877
 1198SOL     OW 4492   1.932   3.570   2.379
 1198SOL    HW1 4493   1.871   3.494   2.406
 1198SOL    HW2 4494   2.016   3.533   2.341
 1199SOL     OW 4495   3.552   3.706   2.509
 1199SOL    HW1 4496   3.517   3.669   2.595
 1199SOL    HW2 4497   3.493   3.782   2.479
 1200SOL     OW 4498   2.973   3.882   5.042
 1200SOL    HW1 4499   2.908   3.855   4.971
 1200SOL    HW2 4500   2.923   3.918   5.121
 1201SOL     OW 4501   0.915   1.195   3.998
 1201SOL    HW1 4502   0.844   1.126   3.995
 1201SOL    HW2 4503   0.878   1.280   4.036
 1202SOL     OW 4504   0.034   5.777   5.641
 1202SOL    HW1 4505   0.079   5.706   5.695
 1202SOL    HW2 4506   6.972   5.806   5.688
 1203SOL     OW 4507   0.405   5.209   0.584
 1203SOL    HW1 4508   0.479   5.153   0.622
 1203SOL    HW2 4509   0.435   5.304   0.578
 1204SOL     OW 4510   4.684   1.620   1.064
 1204SOL    HW1 4511   4.602   1.617   1.120
 1204SOL    HW2 4512   4.762   1.587   1.118
 1205SOL     OW 4513   3.947   3.485   0.589
 1205SOL    HW1 4514   3.933   3.522   0.681
 1205SOL    HW2 4515   4.045   3.487   0.567
 1206SOL     OW 4516   2.743   2.749   5.409
 1206SOL    HW1 4517   2.708   2.756   5.502
 1206SOL    HW2 4518   2.671   2.719   5.348
 1207SOL     OW 4519   1.003   7.011   1.131
 1207SOL    HW1 4520   1.081   0.021   1.185
 1207SOL    HW2 4521   1.033   6.987   1.039
 1208SOL     OW 4522   3.456   3.758   1.548
 1208SOL    HW1 4523   3.537   3.817   1.547
 1208SOL    HW2 4524   3.464   3.693   1.624
 1209SOL     OW 4525   4.664   0.278   3.876
 1209SOL    HW1 4526   4.671   0.244   3.782
 1209SOL    HW2 4527   4.603   0.219   3.928
 1210SOL     OW 4528   4.077   6.910   3.558
 1210SOL    HW1 4529   4.139   6.834   3.575
 1210SOL    HW2 4530   4.130   6.993   3.541
 1211SOL     OW 4531   1.389   3.202   3.221
 1211SOL    HW1 4532   1.355   3.127   3.163
 1211SOL    HW2 4533   1.356   3.190   3.314
 1212SOL     OW 4534   6.595   0.406   6.114
 1212SOL    HW1 4535   6.511   0.434   6.067
 1212SOL    HW2 4536   6.600   0.450   6.204
 1213SOL     OW 4537   6.295   2.874   1.259
 1213SOL    HW1 4538   6.222   2.817   1.222
 1213SOL    HW2 4539   6.383   2.843   1.224
 1214SOL     OW 4540   1.139   3.522   0.272
 1214SOL    HW1 4541   1.133   3.552   0.177
 1214SOL    HW2 4542   1.232   3.491   0.291
 1215SOL     OW 4543   0.334   4.873   3.331
 1215SOL    HW1 4544   0.245   4.917   3.317
 1215SOL    HW2 4545   0.358   4.821   3.249
 1216SOL     OW 4546   5.305   0.837   0.688
 1216SOL    HW1 4547   5.256   0.853   0.774
 1216SOL    HW2 4548   5.395   0.797   0.709
 1217SOL     OW 4549   2.830   4.285   0.967
 1217SOL    HW1 4550   2.923   4.248   0.961
 1217SOL    HW2 4551   2.812   4.315   1.061
 1218SOL     OW 4552   1.352   3.089   5.038
 1218SOL    HW1 4553   1.365   3.011   4.977
 1218SOL    HW2 4554   1.436   3.142   5.044
 1219SOL     OW 4555   5.802   6.072   1.858
 1219SOL    HW1 4556   5.787   6.130   1.938
 1219SOL    HW2 4557   5.877   6.008   1.877
 1220SOL     OW 4558   1.097   4.661   2.787
 1220SOL    HW1 4559   1.026   4.691   2.723
 1220SOL    HW2 4560   1.111   4.731   2.857
 1221SOL     OW 4561   4.181   4.126   6.348
 1221SOL    HW1 4562   4.197   4.173   6.262
 1221SOL    HW2 4563   4.093   4.078   6.345
 1222SOL     OW 4564   6.516   1.279   6.598
 1222SOL    HW1 4565   6.445   1.275   6.527
 1222SOL    HW2 4566   6.601   1.240   6.563
 1223SOL     OW 4567   4.046   1.638   0.428
 1223SOL    HW1 4568   4.038   1.726   0.475
 1223SOL    HW2 4569   4.046   1.564   0.495
 1224SOL     OW 4570   3.716   5.987   0.457
 1224SOL    HW1 4571   3.706   6.083   0.482
 1224SOL    HW2 4572   3.634   5.937   0.485
 1225SOL     OW 4573   3.220   3.126   6.747
 1225SOL    HW1 4574   3.188   3.070   6.670
 1225SOL    HW2 4575   3.304   3.086   6.784
 1226SOL     OW 4576   2.742   6.795   1.239
 1226SOL    HW1 4577   2.770   6.841   1.324
 1226SOL    HW2 4578   2.684   6.717   1.260
 1227SOL     OW 4579   5.528   4.683   6.202
 1227SOL    HW1 4580   5.447   4.673   6.260
 1227SOL    HW2 4581   5.525   4.614   6.130
 1228SOL     OW 4582   2.875   2.110   6.000
 1228SOL    HW1 4583   2.895   2.120   5.903
 1228SOL    HW2 4584   2.802   2.173   6.026
 1229SOL     OW 4585   3.045   5.576   5.893
 1229SOL    HW1 4586   3.090   5.517   5.961
 1229SOL    HW2 4587   3.105   5.654   5.874
 1230SOL     OW 4588   4.833   6.839   2.242
 1230SOL    HW1 4589   4.832   6.921   2.300
 1230SOL    HW2 4590   4.895   6.854   2.164
 1231SOL     OW 4591   1.710   2.209   5.160
 1231SOL    HW1 4592   1.652   2.128   5.166
 1231SOL    HW2 4593   1.798   2.190   5.205
 1232SOL     OW 4594   0.385   2.036   5.349
 1232SOL    HW1 4595   0.452   2.109   5.361
 1232SOL    HW2 4596   0.301   2.059   5.397
 1233SOL     OW 4597   0.832   4.935   5.111
 1233SOL    HW1 4598   0.840   4.980   5.200
 1233SOL    HW2 4599   0.846   5.003   5.039
 1234SOL     OW 4600   6.390   2.814   5.575
 1234SOL    HW1 4601   6.359   2.723   5.547
 1234SOL    HW2 4602   6.329   2.883   5.537
 1235SOL     OW 4603   6.201   5.526   3.006
 1235SOL    HW1 4604   6.153   5.566   3.084
 1235SOL    HW2 4605   6.134   5.490   2.941
 1236SOL     OW 4606   4.738   0.943   6.861
 1236SOL    HW1 4607   4.771   0.997   6.939
 1236SOL    HW2 4608   4.665   0.993   6.815
 1237SOL     OW 4609   2.484   4.588   6.265
 1237SOL    HW1 4610   2.436   4.639   6.194
 1237SOL    HW2 4611   2.582   4.588   6.247
 1238SOL     OW 4612   1.074   1.043   0.772
 1238SOL    HW1 4613   1.153   0.994   0.733
 1238SOL    HW2 4614   1.095   1.072   0.865
 1239SOL     OW 4615   6.881   6.300   6.557
 1239SOL    HW1 4616   6.953   6.313   6.489
 1239SOL    HW2 4617   6.911   6.338   6.645
 1240SOL     OW 4618   5.311   6.333   1.001
 1240SOL    HW1 4619   5.374   6.264   0.966
 1240SOL    HW2 4620   5.229   6.336   0.944
 1241SOL     OW 4621   5.390   3.257   3.973
 1241SOL    HW1 4622   5.454   3.300   4.035
 1241SOL    HW2 4623   5.390   3.158   3.988
 1242SOL     OW 4624   0.838   3.548   1.543
 1242SOL    HW1 4625   0.911   3.526   1.477
 1242SOL    HW2 4626   0.878   3.593   1.622
 1243SOL     OW 4627   0.085   6.978   5.043
 1243SOL    HW1 4628   0.155   6.991   5.113
 1243SOL    HW2 4629   0.088   0.031   4.977
 1244SOL     OW 4630   5.842   6.916   4.753
 1244SOL    HW1 4631   5.828   6.818   4.746
 1244SOL    HW2 4632   5.920   6.943   4.696
 1245SOL     OW 4633   5.579   4.384   0.786
 1245SOL    HW1 4634   5.545   4.461   0.840
 1245SOL    HW2 4635   5.672   4.362   0.816
 1246SOL     OW 4636   2.861   0.433   1.110
 1246SOL    HW1 4637   2.828   0.421   1.204
 1246SOL    HW2 4638   2.810   0.372   1.050
 1247SOL     OW 4639   1.017   6.665   6.222
 1247SOL    HW1 4640   1.116   6.680   6.220
 1247SOL    HW2 4641   0.973   6.720   6.151
 1248SOL     OW 4642   2.041   0.307   4.851
 1248SOL    HW1 4643   2.009   0.285   4.759
 1248SOL    HW2 4644   2.101   0.388   4.846
 1249SOL     OW 4645   6.202   1.965   2.660
 1249SOL    HW1 4646   6.272   2.029   2.692
 1249SOL    HW2 4647   6.137   2.014   2.603
 1250SOL     OW 4648   5.980   5.111   4.055
 1250SOL    HW1 4649   5.982   5.189   4.118
 1250SOL    HW2 4650   6.063   5.057   4.066
 1251SOL     OW 4651   2.543   0.501   3.657
 1251SOL    HW1 4652   2.623   0.490   3.717
 1251SOL    HW2 4653   2.495   0.586   3.680
 1252SOL     OW 4654   4.684   3.362   6.243
 1252SOL    HW1 4655   4.650   3.283   6.192
 1252SOL    HW2 4656   4.715   3.332   6.333
 1253SOL     OW 4657   2.873   5.974   2.607
 1253SOL    HW1 4658   2.927   6.048   2.565
 1253SOL    HW2 4659   2.876   5.893   2.548
 1254SOL     OW 4660   1.024   3.094   2.431
 1254SOL    HW1 4661   0.985   3.017   2.480
 1254SOL    HW2 4662   0.964   3.173   2.439
 1255SOL     OW 4663   5.923   1.596   5.330
 1255SOL    HW1 4664   5.962   1.551   5.410
 1255SOL    HW2 4665   5.827   1.570   5.319
 1256SOL     OW 4666   7.005   6.578   3.275
 1256SOL    HW1 4667   6.946   6.631   3.215
 1256SOL    HW2 4668   6.956   6.498   3.309
 1257SOL     OW 4669   6.785   6.300   5.482
 1257SOL    HW1 4670   6.808   6.393   5.510
 1257SOL    HW2 4671   6.688   6.295   5.461
 1258SOL     OW 4672   1.791   5.234   2.682
 1258SOL    HW1 4673   1.720   5.262   2.617
 1258SOL    HW2 4674   1.811   5.137   2.669
 1259SOL     OW 4675   4.230   0.706   3.938
 1259SOL    HW1 4676   4.288   0.776   3.979
 1259SOL    HW2 4677   4.154   0.685   4.000
 1260SOL     OW 4678   1.953   1.555   0.575
 1260SOL    HW1 4679   1.933   1.628   0.641
 1260SOL    HW2 4680   2.049   1.561   0.547
 1261SOL     OW 4681   6.842   5.768   6.782
 1261SOL    HW1 4682   6.819   5.671   6.783
 1261SOL    HW2 4683   6.877   5.793   6.691
 1262SOL     OW 4684   5.631   4.346   1.264
 1262SOL    HW1 4685   5.582   4.264   1.233
 1262SOL    HW2 4686   5.592   4.427   1.220
 1263SOL     OW 4687   0.188   2.509   1.812
 1263SOL    HW1 4688   0.133   2.430   1.839
 1263SOL    HW2 4689   0.138   2.593   1.831
 1264SOL     OW 4690   6.639   4.629   0.825
 1264SOL    HW1 4691   6.637   4.720   0.785
 1264SOL    HW2 4692   6.625   4.560   0.754
 1265SOL     OW 4693   5.817   5.576   4.760
 1265SOL    HW1 4694   5.816   5.649   4.692
 1265SOL    HW2 4695   5.894   5.515   4.741
 1266SOL     OW 4696   0.678   1.560   4.216
 1266SOL    HW1 4697   0.718   1.577   4.126
 1266SOL    HW2 4698   0.607   1.490   4.209
 1267SOL     OW 4699   4.717   0.191   1.269
 1267SOL    HW1 4700   4.619   0.198   1.288
 1267SOL    HW2 4701   4.746   0.096   1.279
 1268SOL     OW 4702   2.519   2.527   0.729
 1268SOL    HW1 4703   2.536   2.520   0.631
 1268SOL    HW2 4704   2.541   2.439   0.773
 1269SOL     OW 4705   5.886   4.195   4.746
 1269SOL    HW1 4706   5.882   4.097   4.725
 1269SOL    HW2 4707   5.846   4.211   4.836
 1270SOL     OW 4708   1.502   3.288   3.840
 1270SOL    HW1 4709   1.450   3.372   3.852
 1270SOL    HW2 4710   1.553   3.293   3.754
 1271SOL     OW 4711   2.463   2.158   3.044
 1271SOL    HW1 4712   2.389   2.189   3.104
 1271SOL    HW2 4713   2.548   2.153   3.097
 1272SOL     OW 4714   5.593   4.215   0.244
 1272SOL    HW1 4715   5.583   4.146   0.316
 1272SOL    HW2 4716   5.533   4.292   0.265
 1273SOL     OW 4717   0.626   2.931   6.948
 1273SOL    HW1 4718   0.597   2.849   6.899
 1273SOL    HW2 4719   0.578   2.937   0.014
 1274SOL     OW 4720   0.107   4.580   1.523
 1274SOL    HW1 4721   0.088   4.586   1.621
 1274SOL    HW2 4722   0.191   4.529   1.509
 1275SOL     OW 4723   3.575   1.345   4.380
 1275SOL    HW1 4724   3.601   1.308   4.469
 1275SOL    HW2 4725   3.657   1.371   4.329
 1276SOL     OW 4726   6.503   5.115   5.330
 1276SOL    HW1 4727   6.555   5.041   5.287
 1276SOL    HW2 4728   6.474   5.086   5.421
 1277SOL     OW 4729   1.471   5.446   5.910
 1277SOL    HW1 4730   1.533   5.368   5.900
 1277SOL    HW2 4731   1.525   5.529   5.929
 1278SOL     OW 4732   0.839   6.593   5.346
 1278SOL    HW1 4733   0.863   6.498   5.329
 1278SOL    HW2 4734   0.764   6.620   5.284
 1279SOL     OW 4735   2.415   4.813   0.245
 1279SOL    HW1 4736   2.483   4.822   0.173
 1279SOL    HW2 4737   2.461   4.811   0.334
 1280SOL     OW 4738   4.543   6.224   4.018
 1280SOL    HW1 4739   4.623   6.179   4.058
 1280SOL    HW2 4740   4.486   6.262   4.091
 1281SOL     OW 4741   2.349   6.701   3.234
 1281SOL    HW1 4742   2.427   6.720   3.294
 1281SOL    HW2 4743   2.368   6.619   3.180
 1282SOL     OW 4744   6.580   2.411   0.250
 1282SOL    HW1 4745   6.646   2.344   0.215
 1282SOL    HW2 4746   6.598   2.428   0.347
 1283SOL     OW 4747   6.601   3.603   5.440
 1283SOL    HW1 4748   6.594   3.519   5.494
 1283SOL    HW2 4749   6.516   3.619   5.391
 1284SOL     OW 4750   4.686   1.531   1.792
 1284SOL    HW1 4751   4.709   1.471   1.716
 1284SOL    HW2 4752   4.769   1.573   1.829
 1285SOL     OW 4753   4.314   2.035   6.070
 1285SOL    HW1 4754   4.220   2.066   6.066
 1285SOL    HW2 4755   4.369   2.082   6.001
 1286SOL     OW 4756   4.315   4.020   1.486
 1286SOL    HW1 4757   4.395   3.998   1.429
 1286SOL    HW2 4758   4.326   3.978   1.576
 1287SOL     OW 4759   5.667   4.873   5.058
 1287SOL    HW1 4760   5.672   4.967   5.026
 1287SOL    HW2 4761   5.716   4.863   5.145
 1288SOL     OW 4762   3.784   3.440   6.875
 1288SOL    HW1 4763   3.686   3.439   6.854
 1288SOL    HW2 4764   3.799   3.490   6.960
 1289SOL     OW 4765   6.842   6.655   0.715
 1289SOL    HW1 4766   6.768   6.674   0.780
 1289SOL    HW2 4767   6.887   6.570   0.741
 1290SOL     OW 4768   0.795   6.487   0.084
 1290SOL    HW1 4769   0.789   6.520   0.179
 1290SOL    HW2 4770   0.846   6.401   0.082
 1291SOL     OW 4771   0.715   4.285   3.889
 1291SOL    HW1 4772   0.631   4.233   3.874
 1291SOL    HW2 4773   0.782   4.229   3.938
 1292SOL     OW 4774   0.217   6.145   2.282
 1292SOL    HW1 4775   0.249   6.240   2.274
 1292SOL    HW2 4776   0.228   6.098   2.195
 1293SOL     OW 4777   1.658   2.328   0.460
 1293SOL    HW1 4778   1.570   2.311   0.416
 1293SOL    HW2 4779   1.707   2.241   0.471
 1294SOL     OW 4780   0.796   3.434   6.081
 1294SOL    HW1 4781   0.727   3.466   6.016
 1294SOL    HW2 4782   0.766   3.455   6.174
 1295SOL     OW 4783   0.444   3.577   1.387
 1295SOL    HW1 4784   0.507   3.508   1.423
 1295SOL    HW2 4785   0.350   3.546   1.398
 1296SOL     OW 4786   3.514   6.350   5.087
 1296SOL    HW1 4787   3.562   6.291   5.152
 1296SOL    HW2 4788   3.552   6.442   5.091
 1297SOL     OW 4789   6.929   0.198   1.675
 1297SOL    HW1 4790   6.989   0.123   1.647
 1297SOL    HW2 4791   6.979   0.284   1.673
 1298SOL     OW 4792   5.470   5.651   3.829
 1298SOL    HW1 4793   5.421   5.647   3.742
 1298SOL    HW2 4794   5.530   5.571   3.837
 1299SOL     OW 4795   2.213   2.885   3.646
 1299SOL    HW1 4796   2.228   2.982   3.664
 1299SOL    HW2 4797   2.301   2.839   3.637
 1300SOL     OW 4798   1.456   3.040   0.609
 1300SOL    HW1 4799   1.518   3.046   0.530
 1300SOL    HW2 4800   1.510   3.039   0.693
 1301SOL     OW 4801   0.281   6.395   0.925
 1301SOL    HW1 4802   0.354   6.393   0.857
 1301SOL    HW2 4803   0.270   6.304   0.965
 1302SOL     OW 4804   4.405   6.722   5.589
 1302SOL    HW1 4805   4.449   6.664   5.658
 1302SOL    HW2 4806   4.365   6.664   5.519
 1303SOL     OW 4807   3.614   2.016   1.903
 1303SOL    HW1 4808   3.658   2.088   1.958
 1303SOL    HW2 4809   3.516   2.032   1.899
 1304SOL     OW 4810   1.669   0.559   0.095
 1304SOL    HW1 4811   1.759   0.591   0.124
 1304SOL    HW2 4812   1.627   0.628   0.035
 1305SOL     OW 4813   5.527   3.520   0.607
 1305SOL    HW1 4814   5.590   3.565   0.544
 1305SOL    HW2 4815   5.521   3.422   0.584
 1306SOL     OW 4816   1.113   5.476   3.909
 1306SOL    HW1 4817   1.040   5.495   3.974
 1306SOL    HW2 4818   1.108   5.380   3.881
 1307SOL     OW 4819   1.736   4.570   3.839
 1307SOL    HW1 4820   1.752   4.668   3.829
 1307SOL    HW2 4821   1.670   4.540   3.769
 1308SOL     OW 4822   6.530   0.152   5.585
 1308SOL    HW1 4823   6.507   0.111   5.497
 1308SOL    HW2 4824   6.515   0.251   5.581
 1309SOL     OW 4825   5.830   4.819   5.298
 1309SOL    HW1 4826   5.875   4.833   5.386
 1309SOL    HW2 4827   5.890   4.854   5.225
 1310SOL     OW 4828   6.387   4.074   4.024
 1310SOL    HW1 4829   6.425   3.984   4.045
 1310SOL    HW2 4830   6.453   4.145   4.050
 1311SOL     OW 4831   6.913   5.495   5.724
 1311SOL    HW1 4832   6.892   5.399   5.710
 1311SOL    HW2 4833   6.887   5.547   5.643
 1312SOL     OW 4834   1.170   6.646   6.491
 1312SOL    HW1 4835   1.192   6.685   6.402
 1312SOL    HW2 4836   1.079   6.604   6.488
 1313SOL     OW 4837   0.416   4.756   2.639
 1313SOL    HW1 4838   0.500   4.810   2.633
 1313SOL    HW2 4839   0.369   4.757   2.551
 1314SOL     OW 4840   4.232   1.551   4.935
 1314SOL    HW1 4841   4.147   1.499   4.947
 1314SOL    HW2 4842   4.210   1.648   4.925
 1315SOL     OW 4843   0.233   1.885   2.845
 1315SOL    HW1 4844   0.208   1.899   2.940
 1315SOL    HW2 4845   0.313   1.942   2.823
 1316SOL     OW 4846   2.910   6.679   6.103
 1316SOL    HW1 4847   2.944   6.628   6.024
 1316SOL    HW2 4848   2.819   6.716   6.082
 1317SOL     OW 4849   2.129   4.405   5.695
 1317SOL    HW1 4850   2.050   4.388   5.753
 1317SOL    HW2 4851   2.101   4.402   5.599
 1318SOL     OW 4852   0.923   2.695   0.869
 1318SOL    HW1 4853   0.944   2.649   0.955
 1318SOL    HW2 4854   0.989   2.769   0.854
 1319SOL     OW 4855   6.685   5.937   0.277
 1319SOL    HW1 4856   6.726   6.007   0.335
 1319SOL    HW2 4857   6.733   5.933   0.189
 1320SOL     OW 4858   3.677   4.754   6.625
 1320SOL    HW1 4859   3.715   4.818   6.691
 1320SOL    HW2 4860   3.703   4.661   6.650
 1321SOL     OW 4861   5.765   2.495   6.659
 1321SOL    HW1 4862   5.803   2.410   6.695
 1321SOL    HW2 4863   5.678   2.475   6.613
 1322SOL     OW 4864   4.049   1.600   3.750
 1322SOL    HW1 4865   4.102   1.525   3.788
 1322SOL    HW2 4866   4.098   1.639   3.672
 1323SOL     OW 4867   4.033   0.191   6.120
 1323SOL    HW1 4868   3.973   0.116   6.147
 1323SOL    HW2 4869   4.009   0.222   6.028
 1324SOL     OW 4870   0.930   3.731   0.090
 1324SOL    HW1 4871   0.948   3.645   0.042
 1324SOL    HW2 4872   0.879   3.793   0.030
 1325SOL     OW 4873   2.658   6.352   4.218
 1325SOL    HW1 4874   2.628   6.261   4.188
 1325SOL    HW2 4875   2.674   6.410   4.138
 1326SOL     OW 4876   4.843   3.320   5.449
 1326SOL    HW1 4877   4.821   3.278   5.537
 1326SOL    HW2 4878   4.806   3.412   5.445
 1327SOL     OW 4879   1.187   6.430   1.079
 1327SOL    HW1 4880   1.097   6.409   1.117
 1327SOL    HW2 4881   1.249   6.455   1.153
 1328SOL     OW 4882   2.500   3.353   1.447
 1328SOL    HW1 4883   2.425   3.375   1.511
 1328SOL    HW2 4884   2.481   3.264   1.404
 1329SOL     OW 4885   0.775   2.320   2.040
 1329SOL    HW1 4886   0.703   2.258   2.071
 1329SOL    HW2 4887   0.744   2.369   1.958
 1330SOL     OW 4888   1.009   1.152   2.280
 1330SOL    HW1 4889   0.970   1.243   2.292
 1330SOL    HW2 4890   1.035   1.140   2.184
 1331SOL     OW 4891   4.942   3.410   2.614
 1331SOL    HW1 4892   4.885   3.474   2.561
 1331SOL    HW2 4893   4.911   3.316   2.596
 1332SOL     OW 4894   2.817   6.985   6.614
 1332SOL    HW1 4895   2.915   6.996   6.632
 1332SOL    HW2 4896   2.794   6.888   6.614
 1333SOL     OW 4897   3.374   3.641   3.888
 1333SOL    HW1 4898   3.437   3.590   3.946
 1333SOL    HW2 4899   3.359   3.732   3.928
 1334SOL     OW 4900   6.227   1.691   4.119
 1334SOL    HW1 4901   6.210   1.758   4.047
 1334SOL    HW2 4902   6.265   1.608   4.079
 1335SOL     OW 4903   2.270   1.926   2.166
 1335SOL    HW1 4904   2.213   2.005   2.187
 1335SOL    HW2 4905   2.359   1.936   2.211
 1336SOL     OW 4906   2.516   2.329   5.134
 1336SOL    HW1 4907   2.587   2.304   5.200
 1336SOL    HW2 4908   2.446   2.384   5.179
 1337SOL     OW 4909   1.557   1.293   3.368
 1337SOL    HW1 4910   1.649   1.296   3.407
 1337SOL    HW2 4911   1.563   1.300   3.268
 1338SOL     OW 4912   6.378   2.210   4.715
 1338SOL    HW1 4913   6.292   2.228   4.762
 1338SOL    HW2 4914   6.454   2.231   4.777
 1339SOL     OW 4915   6.015   2.034   6.452
 1339SOL    HW1 4916   5.982   2.055   6.360
 1339SOL    HW2 4917   5.960   2.084   6.520
 1340SOL     OW 4918   6.154   2.087   3.039
 1340SOL    HW1 4919   6.106   2.128   2.960
 1340SOL    HW2 4920   6.213   2.156   3.081
 1341SOL     OW 4921   5.090   6.692   6.550
 1341SOL    HW1 4922   5.112   6.595   6.563
 1341SOL    HW2 4923   5.038   6.726   6.629
 1342SOL     OW 4924   2.842   5.746   5.859
 1342SOL    HW1 4925   2.916   5.681   5.873
 1342SOL    HW2 4926   2.881   5.835   5.832
 1343SOL     OW 4927   5.406   5.697   2.306
 1343SOL    HW1 4928   5.309   5.684   2.285
 1343SOL    HW2 4929   5.443   5.612   2.344
 1344SOL     OW 4930   0.716   6.160   4.650
 1344SOL    HW1 4931   0.637   6.202   4.608
 1344SOL    HW2 4932   0.791   6.226   4.656
 1345SOL     OW 4933   0.755   6.303   3.142
 1345SOL    HW1 4934   0.730   6.209   3.117
 1345SOL    HW2 4935   0.836   6.331   3.091
 1346SOL     OW 4936   1.053   5.616   4.557
 1346SOL    HW1 4937   0.977   5.552   4.568
 1346SOL    HW2 4938   1.124   5.574   4.499
 1347SOL     OW 4939   6.996   6.450   6.165
 1347SOL    HW1 4940   0.047   6.408   6.110
 1347SOL    HW2 4941   7.017   6.547   6.179
 1348SOL     OW 4942   5.912   6.346   4.108
 1348SOL    HW1 4943   5.816   6.319   4.094
 1348SOL    HW2 4944   5.964   6.268   4.144
 1349SOL     OW 4945   4.782   2.996   5.491
 1349SOL    HW1 4946   4.763   2.993   5.589
 1349SOL    HW2 4947   4.881   3.002   5.478
 1350SOL     OW 4948   5.581   4.931   6.070
 1350SOL    HW1 4949   5.491   4.956   6.032
 1350SOL    HW2 4950   5.573   4.846   6.121
 1351SOL     OW 4951   5.667   1.842   3.066
 1351SOL    HW1 4952   5.645   1.747   3.084
 1351SOL    HW2 4953   5.662   1.894   3.152
 1352SOL     OW 4954   6.868   6.077   3.415
 1352SOL    HW1 4955   6.818   6.049   3.497
 1352SOL    HW2 4956   6.877   5.999   3.353
 1353SOL     OW 4957   0.392   2.579   0.155
 1353SOL    HW1 4958   0.457   2.520   0.203
 1353SOL    HW2 4959   0.427   2.599   0.063
 1354SOL     OW 4960   1.027   4.255   1.549
 1354SOL    HW1 4961   1.114   4.304   1.550
 1354SOL    HW2 4962   1.043   4.157   1.533
 1355SOL     OW 4963   5.462   2.527   4.316
 1355SOL    HW1 4964   5.444   2.463   4.391
 1355SOL    HW2 4965   5.416   2.614   4.335
 1356SOL     OW 4966   3.642   3.370   2.425
 1356SOL    HW1 4967   3.653   3.309   2.503
 1356SOL    HW2 4968   3.732   3.394   2.388
 1357SOL     OW 4969   0.656   3.872   6.328
 1357SOL    HW1 4970   0.643   3.885   6.426
 1357SOL    HW2 4971   0.658   3.961   6.283
 1358SOL     OW 4972   4.188   6.668   6.053
 1358SOL    HW1 4973   4.209   6.634   6.145
 1358SOL    HW2 4974   4.231   6.757   6.039
 1359SOL     OW 4975   5.873   4.954   2.381
 1359SOL    HW1 4976   5.965   4.990   2.396
 1359SOL    HW2 4977   5.837   4.919   2.467
 1360SOL     OW 4978   2.729   3.385   0.427
 1360SOL    HW1 4979   2.765   3.322   0.496
 1360SOL    HW2 4980   2.801   3.447   0.398
 1361SOL     OW 4981   6.132   4.724   6.127
 1361SOL    HW1 4982   6.224   4.695   6.102
 1361SOL    HW2 4983   6.083   4.648   6.170
 1362SOL     OW 4984   3.348   4.068   4.007
 1362SOL    HW1 4985   3.387   4.089   3.917
 1362SOL    HW2 4986   3.334   4.153   4.057
 1363SOL     OW 4987   6.701   5.113   2.619
 1363SOL    HW1 4988   6.758   5.176   2.566
 1363SOL    HW2 4989   6.637   5.165   2.676
 1364SOL     OW 4990   6.293   4.207   0.977
 1364SOL    HW1 4991   6.247   4.118   0.973
 1364SOL    HW2 4992   6.233   4.273   1.022
 1365SOL     OW 4993   0.762   4.405   6.032
 1365SOL    HW1 4994   0.760   4.417   5.932
 1365SOL    HW2 4995   0.669   4.410   6.068
 1366SOL     OW 4996   1.480   4.868   6.921
 1366SOL    HW1 4997   1.495   4.814   6.838
 1366SOL    HW2 4998   1.458   4.962   6.896
 1367SOL     OW 4999   1.424   0.178   3.469
 1367SOL    HW1 5000   1.366   0.105   3.433
 1367SOL    HW2 5001   1.489   0.140   3.535
 1368SOL     OW 5002   5.927   0.290   3.447
 1368SOL    HW1 5003   5.969   0.229   3.381
 1368SOL    HW2 5004   5.927   0.247   3.537
 1369SOL     OW 5005   2.500   6.878   1.443
 1369SOL    HW1 5006   2.490   6.961   1.388
 1369SOL    HW2 5007   2.564   6.895   1.518
 1370SOL     OW 5008   3.978   0.588   0.993
 1370SOL    HW1 5009   3.968   0.541   1.081
 1370SOL    HW2 5010   3.964   0.686   1.006
 1371SOL     OW 5011   6.053   1.999   4.299
 1371SOL    HW1 5012   6.061   2.091   4.337
 1371SOL    HW2 5013   5.957   1.973   4.293
 1372SOL     OW 5014   1.617   3.038   0.011
 1372SOL    HW1 5015   1.601   3.099   6.955
 1372SOL    HW2 5016   1.538   2.978   0.022
 1373SOL     OW 5017   5.586   3.338   0.264
 1373SOL    HW1 5018   5.571   3.367   0.170
 1373SOL    HW2 5019   5.603   3.239   0.267
 1374SOL     OW 5020   4.567   2.622   6.987
 1374SOL    HW1 5021   4.514   2.586   6.910
 1374SOL    HW2 5022   4.524   2.595   0.052
 1375SOL     OW 5023   0.157   3.872   6.446
 1375SOL    HW1 5024   0.167   3.801   6.376
 1375SOL    HW2 5025   0.138   3.830   6.534
 1376SOL     OW 5026   4.770   4.171   4.248
 1376SOL    HW1 5027   4.691   4.210   4.295
 1376SOL    HW2 5028   4.824   4.244   4.207
 1377SOL     OW 5029   6.893   3.714   5.922
 1377SOL    HW1 5030   6.851   3.654   5.853
 1377SOL    HW2 5031   6.839   3.710   6.006
 1378SOL     OW 5032   6.337   1.058   4.539
 1378SOL    HW1 5033   6.381   1.037   4.627
 1378SOL    HW2 5034   6.385   1.010   4.466
 1379SOL     OW 5035   3.249   6.972   2.467
 1379SOL    HW1 5036   3.211   0.012   2.536
 1379SOL    HW2 5037   3.349   6.972   2.474
 1380SOL     OW 5038   0.281   0.281   2.767
 1380SOL    HW1 5039   0.360   0.332   2.734
 1380SOL    HW2 5040   0.219   0.343   2.816
 1381SOL     OW 5041   5.624   2.272   6.961
 1381SOL    HW1 5042   5.722   2.287   6.953
 1381SOL    HW2 5043   5.576   2.359   6.948
 1382SOL     OW 5044   4.562   4.485   0.589
 1382SOL    HW1 5045   4.624   4.451   0.518
 1382SOL    HW2 5046   4.613   4.542   0.653
 1383SOL     OW 5047   0.630   7.001   0.799
 1383SOL    HW1 5048   0.617   0.027   0.712
 1383SOL    HW2 5049   0.704   6.935   0.790
 1384SOL     OW 5050   4.013   0.638   2.531
 1384SOL    HW1 5051   3.956   0.717   2.508
 1384SOL    HW2 5052   4.100   0.645   2.484
 1385SOL     OW 5053   1.197   3.094   2.789
 1385SOL    HW1 5054   1.113   3.115   2.739
 1385SOL    HW2 5055   1.206   2.995   2.799
 1386SOL     OW 5056   2.206   1.021   4.700
 1386SOL    HW1 5057   2.177   0.925   4.707
 1386SOL    HW2 5058   2.303   1.028   4.721
 1387SOL     OW 5059   3.949   6.135   2.924
 1387SOL    HW1 5060   4.010   6.140   2.845
 1387SOL    HW2 5061   3.880   6.207   2.918
 1388SOL     OW 5062   0.269   6.304   3.321
 1388SOL    HW1 5063   0.268   6.382   3.384
 1388SOL    HW2 5064   0.310   6.332   3.234
 1389SOL     OW 5065   0.557   1.148   3.674
 1389SOL    HW1 5066   0.653   1.135   3.649
 1389SOL    HW2 5067   0.509   1.194   3.599
 1390SOL     OW 5068   4.688   2.180   6.210
 1390SOL    HW1 5069   4.766   2.242   6.222
 1390SOL    HW2 5070   4.610   2.231   6.173
 1391SOL     OW 5071   6.312   0.526   5.434
 1391SOL    HW1 5072   6.386   0.495   5.492
 1391SOL    HW2 5073   6.257   0.594   5.483
 1392SOL     OW 5074   5.560   5.671   6.158
 1392SOL    HW1 5075   5.623   5.737   6.117
 1392SOL    HW2 5076   5.526   5.609   6.088
 1393SOL     OW 5077   5.668   3.151   6.540
 1393SOL    HW1 5078   5.612   3.091   6.483
 1393SOL    HW2 5079   5.760   3.113   6.548
 1394SOL     OW 5080   3.835   6.723   3.624
 1394SOL    HW1 5081   3.929   6.757   3.620
 1394SOL    HW2 5082   3.835   6.624   3.616
 1395SOL     OW 5083   1.335   4.072   3.504
 1395SOL    HW1 5084   1.299   4.095   3.594
 1395SOL    HW2 5085   1.429   4.039   3.512
 1396SOL     OW 5086   1.441   6.797   3.624
 1396SOL    HW1 5087   1.356   6.794   3.677
 1396SOL    HW2 5088   1.485   6.886   3.638
 1397SOL     OW 5089   0.622   6.389   4.452
 1397SOL    HW1 5090   0.584   6.367   4.542
 1397SOL    HW2 5091   0.577   6.332   4.382
 1398SOL     OW 5092   1.062   1.683   6.872
 1398SOL    HW1 5093   0.996   1.701   6.945
 1398SOL    HW2 5094   1.108   1.768   6.846
 1399SOL     OW 5095   4.555   0.093   0.108
 1399SOL    HW1 5096   4.496   0.024   0.150
 1399SOL    HW2 5097   4.648   0.083   0.143
 1400SOL     OW 5098   6.288   1.168   4.039
 1400SOL    HW1 5099   6.376   1.187   3.996
 1400SOL    HW2 5100   6.299   1.166   4.138
 1401SOL     OW 5101   6.113   6.798   4.430
 1401SOL    HW1 5102   6.184   6.792   4.359
 1401SOL    HW2 5103   6.084   6.706   4.455
 1402SOL     OW 5104   5.310   4.027   0.195
 1402SOL    HW1 5105   5.359   4.088   0.256
 1402SOL    HW2 5106   5.329   4.051   0.100
 1403SOL     OW 5107   2.247   1.948   0.782
 1403SOL    HW1 5108   2.238   2.022   0.716
 1403SOL    HW2 5109   2.317   1.972   0.850
 1404SOL     OW 5110   4.991   6.980   0.202
 1404SOL    HW1 5111   4.962   6.964   0.107
 1404SOL    HW2 5112   5.038   0.046   0.208
 1405SOL     OW 5113   2.408   3.564   0.135
 1405SOL    HW1 5114   2.473   3.487   0.136
 1405SOL    HW2 5115   2.358   3.565   0.221
 1406SOL     OW 5116   2.592   5.510   0.765
 1406SOL    HW1 5117   2.602   5.539   0.861
 1406SOL    HW2 5118   2.642   5.425   0.750
 1407SOL     OW 5119   1.695   3.835   3.647
 1407SOL    HW1 5120   1.743   3.839   3.559
 1407SOL    HW2 5121   1.722   3.752   3.696
 1408SOL     OW 5122   5.467   6.581   6.960
 1408SOL    HW1 5123   5.370   6.578   6.936
 1408SOL    HW2 5124   5.485   6.657   0.000
 1409SOL     OW 5125   6.977   1.145   5.128
 1409SOL    HW1 5126   6.899   1.082   5.130
 1409SOL    HW2 5127   0.011   1.127   5.047
 1410SOL     OW 5128   3.308   3.932   0.057
 1410SOL    HW1 5129   3.376   3.877   0.106
 1410SOL    HW2 5130   3.258   3.873   7.015
 1411SOL     OW 5131   3.550   6.134   6.216
 1411SOL    HW1 5132   3.550   6.222   6.263
 1411SOL    HW2 5133   3.644   6.101   6.208
 1412SOL     OW 5134   0.946   4.623   1.922
 1412SOL    HW1 5135   0.894   4.708   1.928
 1412SOL    HW2 5136   0.883   4.547   1.908
 1413SOL     OW 5137   1.851   1.708   4.512
 1413SOL    HW1 5138   1.837   1.779   4.581
 1413SOL    HW2 5139   1.811   1.622   4.543
 1414SOL     OW 5140   1.604   2.583   1.786
 1414SOL    HW1 5141   1.585   2.518   1.712
 1414SOL    HW2 5142   1.623   2.534   1.870
 1415SOL     OW 5143   2.934   1.983   4.075
 1415SOL    HW1 5144   2.866   1.956   4.007
 1415SOL    HW2 5145   2.914   2.076   4.107
 1416SOL     OW 5146   4.126   0.244   4.317
 1416SOL    HW1 5147   4.146   0.342   4.323
 1416SOL    HW2 5148   4.201   0.192   4.356
 1417SOL     OW 5149   3.223   3.090   6.171
 1417SOL    HW1 5150   3.278   3.124   6.095
 1417SOL    HW2 5151   3.127   3.087   6.145
 1418SOL     OW 5152   2.976   3.395   0.180
 1418SOL    HW1 5153   2.968   3.465   0.109
 1418SOL    HW2 5154   3.015   3.436   0.262
 1419SOL     OW 5155   1.906   5.671   4.565
 1419SOL    HW1 5156   1.932   5.576   4.583
 1419SOL    HW2 5157   1.977   5.715   4.509
 1420SOL     OW 5158   3.887   5.345   2.576
 1420SOL    HW1 5159   3.847   5.436   2.566
 1420SOL    HW2 5160   3.855   5.305   2.662
 1421SOL     OW 5161   1.584   4.818   4.260
 1421SOL    HW1 5162   1.541   4.881   4.195
 1421SOL    HW2 5163   1.681   4.807   4.236
 1422SOL     OW 5164   2.911   4.525   5.457
 1422SOL    HW1 5165   2.905   4.625   5.455
 1422SOL    HW2 5166   2.959   4.493   5.375
 1423SOL     OW 5167   4.138   1.816   4.915
 1423SOL    HW1 5168   4.195   1.894   4.889
 1423SOL    HW2 5169   4.057   1.849   4.965
 1424SOL     OW 5170   6.252   3.470   0.392
 1424SOL    HW1 5171   6.186   3.514   0.330
 1424SOL    HW2 5172   6.311   3.540   0.433
 1425SOL     OW 5173   2.402   5.942   5.093
 1425SOL    HW1 5174   2.393   5.981   5.002
 1425SOL    HW2 5175   2.499   5.930   5.115
 1426SOL     OW 5176   1.929   2.138   6.258
 1426SOL    HW1 5177   1.942   2.143   6.159
 1426SOL    HW2 5178   2.011   2.102   6.302
 1427SOL     OW 5179   0.218   0.648   3.575
 1427SOL    HW1 5180   0.187   0.629   3.669
 1427SOL    HW2 5181   0.318   0.651   3.573
 1428SOL     OW 5182   7.009   2.339   1.868
 1428SOL    HW1 5183   6.968   2.277   1.936
 1428SOL    HW2 5184   6.939   2.365   1.801
 1429SOL     OW 5185   5.622   1.993   6.857
 1429SOL    HW1 5186   5.593   2.083   6.888
 1429SOL    HW2 5187   5.580   1.922   6.913
 1430SOL     OW 5188   1.976   3.905   4.462
 1430SOL    HW1 5189   2.002   3.843   4.388
 1430SOL    HW2 5190   1.922   3.981   4.425
 1431SOL     OW 5191   2.278   2.265   6.589
 1431SOL    HW1 5192   2.279   2.316   6.503
 1431SOL    HW2 5193   2.190   2.218   6.599
 1432SOL     OW 5194   2.251   0.692   1.492
 1432SOL    HW1 5195   2.170   0.751   1.501
 1432SOL    HW2 5196   2.246   0.619   1.561
 1433SOL     OW 5197   3.413   6.551   3.803
 1433SOL    HW1 5198   3.492   6.572   3.861
 1433SOL    HW2 5199   3.378   6.460   3.826
 1434SOL     OW 5200   6.880   1.720   6.273
 1434SOL    HW1 5201   6.960   1.664   6.295
 1434SOL    HW2 5202   6.810   1.707   6.343
 1435SOL     OW 5203   7.000   0.888   4.021
 1435SOL    HW1 5204   0.073   0.917   4.006
 1435SOL    HW2 5205   6.949   0.892   3.935
 1436SOL     OW 5206   6.045   3.565   0.845
 1436SOL    HW1 5207   6.144   3.558   0.853
 1436SOL    HW2 5208   6.022   3.598   0.753
 1437SOL     OW 5209   3.300   0.675   5.477
 1437SOL    HW1 5210   3.360   0.745   5.515
 1437SOL    HW2 5211   3.294   0.687   5.378
 1438SOL     OW 5212   3.174   0.971   1.651
 1438SOL    HW1 5213   3.208   0.883   1.685
 1438SOL    HW2 5214   3.176   1.038   1.726
 1439SOL     OW 5215   0.621   5.071   0.687
 1439SOL    HW1 5216   0.700   5.090   0.629
 1439SOL    HW2 5217   0.602   4.973   0.686
 1440SOL     OW 5218   3.793   3.439   4.924
 1440SOL    HW1 5219   3.870   3.375   4.919
 1440SOL    HW2 5220   3.707   3.388   4.927
 1441SOL     OW 5221   6.410   3.401   3.761
 1441SOL    HW1 5222   6.380   3.403   3.856
 1441SOL    HW2 5223   6.433   3.307   3.734
 1442SOL     OW 5224   6.503   4.809   0.165
 1442SOL    HW1 5225   6.482   4.767   0.077
 1442SOL    HW2 5226   6.520   4.739   0.233
 1443SOL     OW 5227   1.459   1.968   4.389
 1443SOL    HW1 5228   1.545   1.999   4.430
 1443SOL    HW2 5229   1.384   1.981   4.455
 1444SOL     OW 5230   4.587   5.920   1.524
 1444SOL    HW1 5231   4.669   5.879   1.564
 1444SOL    HW2 5232   4.610   6.010   1.487
 1445SOL     OW 5233   0.845   2.843   2.511
 1445SOL    HW1 5234   0.859   2.796   2.424
 1445SOL    HW2 5235   0.771   2.910   2.501
 1446SOL     OW 5236   5.372   2.845   6.590
 1446SOL    HW1 5237   5.448   2.823   6.652
 1446SOL    HW2 5238   5.290   2.863   6.643
 1447SOL     OW 5239   6.682   6.953   4.872
 1447SOL    HW1 5240   6.635   6.910   4.795
 1447SOL    HW2 5241   6.766   6.902   4.892
 1448SOL     OW 5242   5.772   1.984   0.234
 1448SOL    HW1 5243   5.790   1.913   0.166
 1448SOL    HW2 5244   5.832   1.970   0.313
 1449SOL     OW 5245   6.135   6.988   6.844
 1449SOL    HW1 5246   6.169   6.933   6.768
 1449SOL    HW2 5247   6.201   0.038   6.867
 1450SOL     OW 5248   0.521   2.711   2.440
 1450SOL    HW1 5249   0.488   2.711   2.535
 1450SOL    HW2 5250   0.568   2.797   2.421
 1451SOL     OW 5251   3.408   0.677   2.723
 1451SOL    HW1 5252   3.505   0.682   2.745
 1451SOL    HW2 5253   3.387   0.742   2.650
 1452SOL     OW 5254   5.228   1.998   4.518
 1452SOL    HW1 5255   5.233   1.904   4.552
 1452SOL    HW2 5256   5.184   2.056   4.586
 1453SOL     OW 5257   6.128   3.801   5.253
 1453SOL    HW1 5258   6.099   3.879   5.308
 1453SOL    HW2 5259   6.049   3.764   5.203
 1454SOL     OW 5260   6.204   2.705   2.087
 1454SOL    HW1 5261   6.210   2.619   2.139
 1454SOL    HW2 5262   6.291   2.753   2.092
 1455SOL     OW 5263   1.663   0.408   1.830
 1455SOL    HW1 5264   1.580   0.429   1.778
 1455SOL    HW2 5265   1.741   0.457   1.791
 1456SOL     OW 5266   6.506   6.772   5.399
 1456SOL    HW1 5267   6.553   6.794   5.485
 1456SOL    HW2 5268   6.439   6.700   5.415
 1457SOL     OW 5269   1.424   0.240   1.773
 1457SOL    HW1 5270   1.376   0.185   1.704
 1457SOL    HW2 5271   1.458   0.180   1.846
 1458SOL     OW 5272   4.930   6.309   3.960
 1458SOL    HW1 5273   4.994   6.327   4.035
 1458SOL    HW2 5274   4.910   6.394   3.912
 1459SOL     OW 5275   2.963   4.130   6.286
 1459SOL    HW1 5276   3.035   4.157   6.351
 1459SOL    HW2 5277   2.878   4.178   6.309
 1460SOL     OW 5278   0.391   5.341   6.134
 1460SOL    HW1 5279   0.417   5.270   6.200
 1460SOL    HW2 5280   0.355   5.420   6.183
 1461SOL     OW 5281   0.119   5.007   3.264
 1461SOL    HW1 5282   0.120   5.049   3.355
 1461SOL    HW2 5283   0.027   4.975   3.244
 1462SOL     OW 5284   6.332   1.132   6.063
 1462SOL    HW1 5285   6.261   1.188   6.106
 1462SOL    HW2 5286   6.421   1.175   6.076
 1463SOL     OW 5287   0.210   5.702   6.478
 1463SOL    HW1 5288   0.184   5.795   6.454
 1463SOL    HW2 5289   0.132   5.657   6.524
 1464SOL     OW 5290   6.582   6.388   0.841
 1464SOL    HW1 5291   6.563   6.351   0.932
 1464SOL    HW2 5292   6.553   6.483   0.837
 1465SOL     OW 5293   1.532   1.762   2.516
 1465SOL    HW1 5294   1.453   1.723   2.564
 1465SOL    HW2 5295   1.547   1.713   2.430
 1466SOL     OW 5296   1.196   0.298   2.831
 1466SOL    HW1 5297   1.242   0.213   2.806
 1466SOL    HW2 5298   1.220   0.370   2.765
 1467SOL     OW 5299   2.285   0.509   2.009
 1467SOL    HW1 5300   2.251   0.503   2.102
 1467SOL    HW2 5301   2.369   0.564   2.008
 1468SOL     OW 5302   5.258   5.813   2.821
 1468SOL    HW1 5303   5.320   5.871   2.874
 1468SOL    HW2 5304   5.169   5.810   2.866
 1469SOL     OW 5305   0.903   0.338   2.860
 1469SOL    HW1 5306   1.002   0.327   2.851
 1469SOL    HW2 5307   0.865   0.366   2.772
 1470SOL     OW 5308   1.713   0.795   2.742
 1470SOL    HW1 5309   1.730   0.800   2.644
 1470SOL    HW2 5310   1.633   0.851   2.765
 1471SOL     OW 5311   0.745   0.954   0.430
 1471SOL    HW1 5312   0.673   0.901   0.385
 1471SOL    HW2 5313   0.755   1.043   0.384
 1472SOL     OW 5314   4.393   5.688   4.807
 1472SOL    HW1 5315   4.300   5.655   4.826
 1472SOL    HW2 5316   4.457   5.612   4.816
 1473SOL     OW 5317   5.654   6.278   4.067
 1473SOL    HW1 5318   5.606   6.253   3.984
 1473SOL    HW2 5319   5.602   6.248   4.147
 1474SOL     OW 5320   6.617   6.138   4.116
 1474SOL    HW1 5321   6.675   6.204   4.069
 1474SOL    HW2 5322   6.555   6.186   4.177
 1475SOL     OW 5323   6.893   0.440   1.271
 1475SOL    HW1 5324   6.942   0.353   1.277
 1475SOL    HW2 5325   6.812   0.429   1.213
 1476SOL     OW 5326   1.072   1.167   1.279
 1476SOL    HW1 5327   1.104   1.142   1.371
 1476SOL    HW2 5328   1.115   1.252   1.250
 1477SOL     OW 5329   2.448   0.429   6.620
 1477SOL    HW1 5330   2.358   0.415   6.579
 1477SOL    HW2 5331   2.513   0.365   6.579
 1478SOL     OW 5332   5.259   4.343   0.445
 1478SOL    HW1 5333   5.303   4.362   0.357
 1478SOL    HW2 5334   5.229   4.247   0.446
 1479SOL     OW 5335   1.429   3.682   0.024
 1479SOL    HW1 5336   1.509   3.733   0.054
 1479SOL    HW2 5337   1.350   3.709   0.080
 1480SOL     OW 5338   2.533   0.164   0.077
 1480SOL    HW1 5339   2.495   0.138   0.165
 1480SOL    HW2 5340   2.633   0.167   0.084
 1481SOL     OW 5341   6.582   1.631   4.663
 1481SOL    HW1 5342   6.488   1.657   4.640
 1481SOL    HW2 5343   6.646   1.688   4.611
 1482SOL     OW 5344   5.433   2.027   1.068
 1482SOL    HW1 5345   5.351   1.971   1.073
 1482SOL    HW2 5346   5.428   2.087   0.989
 1483SOL     OW 5347   0.016   2.704   6.238
 1483SOL    HW1 5348   0.024   2.633   6.168
 1483SOL    HW2 5349   0.064   2.786   6.206
 1484SOL     OW 5350   6.154   4.380   3.951
 1484SOL    HW1 5351   6.191   4.467   3.920
 1484SOL    HW2 5352   6.170   4.370   4.049
 1485SOL     OW 5353   4.333   1.764   2.966
 1485SOL    HW1 5354   4.391   1.732   2.891
 1485SOL    HW2 5355   4.271   1.834   2.932
 1486SOL     OW 5356   4.721   2.713   2.724
 1486SOL    HW1 5357   4.727   2.745   2.629
 1486SOL    HW2 5358   4.697   2.616   2.724
 1487SOL     OW 5359   6.273   3.003   6.841
 1487SOL    HW1 5360   6.238   2.966   6.755
 1487SOL    HW2 5361   6.369   2.980   6.850
 1488SOL     OW 5362   6.200   1.800   3.103
 1488SOL    HW1 5363   6.143   1.764   3.177
 1488SOL    HW2 5364   6.166   1.890   3.076
 1489SOL     OW 5365   3.990   5.206   4.381
 1489SOL    HW1 5366   4.064   5.214   4.447
 1489SOL    HW2 5367   3.961   5.297   4.352
 1490SOL     OW 5368   1.641   2.889   1.359
 1490SOL    HW1 5369   1.718   2.869   1.419
 1490SOL    HW2 5370   1.557   2.896   1.413
 1491SOL     OW 5371   6.496   3.607   3.623
 1491SOL    HW1 5372   6.480   3.528   3.683
 1491SOL    HW2 5373   6.592   3.606   3.593
 1492SOL     OW 5374   6.172   1.833   1.790
 1492SOL    HW1 5375   6.125   1.757   1.835
 1492SOL    HW2 5376   6.209   1.895   1.859
 1493SOL     OW 5377   5.184   0.473   4.571
 1493SOL    HW1 5378   5.283   0.459   4.566
 1493SOL    HW2 5379   5.165   0.564   4.607
 1494SOL     OW 5380   4.515   2.354   6.117
 1494SOL    HW1 5381   4.418   2.347   6.093
 1494SOL    HW2 5382   4.566   2.386   6.038
 1495SOL     OW 5383   0.680   2.806   4.082
 1495SOL    HW1 5384   0.599   2.825   4.137
 1495SOL    HW2 5385   0.654   2.751   4.002
 1496SOL     OW 5386   1.334   0.808   2.637
 1496SOL    HW1 5387   1.354   0.779   2.544
 1496SOL    HW2 5388   1.251   0.865   2.638
 1497SOL     OW 5389   0.580   3.728   2.618
 1497SOL    HW1 5390   0.624   3.674   2.690
 1497SOL    HW2 5391   0.504   3.780   2.657
 1498SOL     OW 5392   1.644   4.583   6.220
 1498SOL    HW1 5393   1.571   4.518   6.236
 1498SOL    HW2 5394   1.619   4.672   6.258
 1499SOL     OW 5395   1.319   3.358   5.484
 1499SOL    HW1 5396   1.265   3.416   5.545
 1499SOL    HW2 5397   1.308   3.390   5.390
 1500SOL     OW 5398   5.661   6.472   6.838
 1500SOL    HW1 5399   5.579   6.502   6.887
 1500SOL    HW2 5400   5.677   6.532   6.759
 1501SOL     OW 5401   4.231   1.346   6.512
 1501SOL    HW1 5402   4.161   1.338   6.441
 1501SOL    HW2 5403   4.307   1.402   6.478
 1502SOL     OW 5404   5.835   6.751   1.483
 1502SOL    HW1 5405   5.826   6.828   1.420
 1502SOL    HW2 5406   5.754   6.745   1.541
 1503SOL     OW 5407   2.693   1.646   1.609
 1503SOL    HW1 5408   2.607   1.596   1.602
 1503SOL    HW2 5409   2.691   1.704   1.690
 1504SOL     OW 5410   1.629   0.763   5.004
 1504SOL    HW1 5411   1.610   0.821   5.084
 1504SOL    HW2 5412   1.576   0.678   5.012
 1505SOL     OW 5413   5.845   0.949   6.592
 1505SOL    HW1 5414   5.766   0.997   6.554
 1505SOL    HW2 5415   5.862   0.980   6.685
 1506SOL     OW 5416   2.168   5.799   2.023
 1506SOL    HW1 5417   2.121   5.839   2.102
 1506SOL    HW2 5418   2.145   5.851   1.941
 1507SOL     OW 5419   1.503   1.978   5.532
 1507SOL    HW1 5420   1.461   1.889   5.547
 1507SOL    HW2 5421   1.450   2.029   5.464
 1508SOL     OW 5422   5.827   0.918   0.760
 1508SOL    HW1 5423   5.857   1.012   0.780
 1508SOL    HW2 5424   5.731   0.909   0.783
 1509SOL     OW 5425   4.039   2.374   6.380
 1509SOL    HW1 5426   4.036   2.276   6.360
 1509SOL    HW2 5427   3.981   2.394   6.459
 1510SOL     OW 5428   5.731   2.103   3.917
 1510SOL    HW1 5429   5.762   2.010   3.904
 1510SOL    HW2 5430   5.805   2.158   3.956
 1511SOL     OW 5431   2.534   2.760   0.872
 1511SOL    HW1 5432   2.488   2.741   0.959
 1511SOL    HW2 5433   2.518   2.684   0.809
 1512SOL     OW 5434   0.022   6.905   1.643
 1512SOL    HW1 5435   7.007   6.886   1.734
 1512SOL    HW2 5436   0.122   6.896   1.644
 1513SOL     OW 5437   4.500   0.175   4.076
 1513SOL    HW1 5438   4.522   0.213   4.166
 1513SOL    HW2 5439   4.401   0.169   4.065
 1514SOL     OW 5440   5.489   2.629   4.993
 1514SOL    HW1 5441   5.402   2.580   4.999
 1514SOL    HW2 5442   5.495   2.677   4.905
 1515SOL     OW 5443   6.475   3.360   5.586
 1515SOL    HW1 5444   6.420   3.294   5.636
 1515SOL    HW2 5445   6.545   3.311   5.534
 1516SOL     OW 5446   0.833   0.195   1.031
 1516SOL    HW1 5447   0.894   0.141   1.090
 1516SOL    HW2 5448   0.849   0.292   1.046
 1517SOL     OW 5449   4.634   5.772   3.605
 1517SOL    HW1 5450   4.684   5.780   3.519
 1517SOL    HW2 5451   4.632   5.860   3.651
 1518SOL     OW 5452   0.575   3.332   0.057
 1518SOL    HW1 5453   0.588   3.288   0.146
 1518SOL    HW2 5454   0.490   3.386   0.059
 1519SOL     OW 5455   0.115   4.543   1.796
 1519SOL    HW1 5456   0.054   4.518   1.870
 1519SOL    HW2 5457   0.190   4.600   1.832
 1520SOL     OW 5458   1.393   3.335   2.429
 1520SOL    HW1 5459   1.434   3.333   2.520
 1520SOL    HW2 5460   1.461   3.366   2.363
 1521SOL     OW 5461   2.410   3.632   6.878
 1521SOL    HW1 5462   2.360   3.555   6.838
 1521SOL    HW2 5463   2.395   3.632   6.977
 1522SOL     OW 5464   6.738   1.535   5.291
 1522SOL    HW1 5465   6.742   1.525   5.191
 1522SOL    HW2 5466   6.791   1.615   5.319
 1523SOL     OW 5467   4.968   4.112   0.001
 1523SOL    HW1 5468   4.945   4.150   0.091
 1523SOL    HW2 5469   4.940   4.175   6.951
 1524SOL     OW 5470   1.092   1.994   1.652
 1524SOL    HW1 5471   1.170   1.934   1.671
 1524SOL    HW2 5472   1.024   1.983   1.724
 1525SOL     OW 5473   5.537   2.433   6.564
 1525SOL    HW1 5474   5.536   2.498   6.487
 1525SOL    HW2 5475   5.444   2.404   6.585
 1526SOL     OW 5476   1.674   1.719   0.152
 1526SOL    HW1 5477   1.677   1.809   0.196
 1526SOL    HW2 5478   1.729   1.655   0.204
 1527SOL     OW 5479   3.708   0.945   5.563
 1527SOL    HW1 5480   3.744   0.893   5.640
 1527SOL    HW2 5481   3.653   0.884   5.505
 1528SOL     OW 5482   5.250   6.431   2.887
 1528SOL    HW1 5483   5.268   6.520   2.845
 1528SOL    HW2 5484   5.290   6.428   2.979
 1529SOL     OW 5485   3.675   1.398   0.448
 1529SOL    HW1 5486   3.637   1.307   0.435
 1529SOL    HW2 5487   3.641   1.437   0.533
 1530SOL     OW 5488   3.119   0.665   1.532
 1530SOL    HW1 5489   3.158   0.721   1.460
 1530SOL    HW2 5490   3.155   0.695   1.621
 1531SOL     OW 5491   5.567   1.202   5.080
 1531SOL    HW1 5492   5.653   1.165   5.045
 1531SOL    HW2 5493   5.553   1.172   5.174
 1532SOL     OW 5494   2.676   2.785   5.693
 1532SOL    HW1 5495   2.706   2.761   5.785
 1532SOL    HW2 5496   2.592   2.735   5.671
 1533SOL     OW 5497   0.179   3.309   6.148
 1533SOL    HW1 5498   0.266   3.281   6.107
 1533SOL    HW2 5499   0.109   3.317   6.077
 1534SOL     OW 5500   1.797   5.204   6.765
 1534SOL    HW1 5501   1.859   5.232   6.692
 1534SOL    HW2 5502   1.845   5.208   6.853
 1535SOL     OW 5503   5.531   6.169   3.848
 1535SOL    HW1 5504   5.459   6.226   3.807
 1535SOL    HW2 5505   5.579   6.119   3.776
 1536SOL     OW 5506   3.992   4.866   5.264
 1536SOL    HW1 5507   4.029   4.775   5.283
 1536SOL    HW2 5508   3.978   4.875   5.165
 1537SOL     OW 5509   4.194   5.889   2.826
 1537SOL    HW1 5510   4.169   5.893   2.730
 1537SOL    HW2 5511   4.112   5.870   2.881
 1538SOL     OW 5512   3.253   5.287   5.349
 1538SOL    HW1 5513   3.178   5.351   5.365
 1538SOL    HW2 5514   3.340   5.336   5.355
 1539SOL     OW 5515   4.096   4.184   1.220
 1539SOL    HW1 5516   3.999   4.160   1.224
 1539SOL    HW2 5517   4.112   4.246   1.142
 1540SOL     OW 5518   0.855   0.284   5.441
 1540SOL    HW1 5519   0.816   0.192   5.451
 1540SOL    HW2 5520   0.839   0.336   5.525
 1541SOL     OW 5521   3.393   2.904   1.618
 1541SOL    HW1 5522   3.345   2.879   1.702
 1541SOL    HW2 5523   3.396   2.824   1.557
 1542SOL     OW 5524   6.981   5.537   1.305
 1542SOL    HW1 5525   6.889   5.500   1.296
 1542SOL    HW2 5526   6.981   5.613   1.370
 1543SOL     OW 5527   3.013   3.236   4.056
 1543SOL    HW1 5528   3.085   3.168   4.067
 1543SOL    HW2 5529   2.962   3.245   4.141
 1544SOL     OW 5530   3.179   3.743   2.533
 1544SOL    HW1 5531   3.164   3.647   2.509
 1544SOL    HW2 5532   3.232   3.788   2.461
 1545SOL     OW 5533   5.314   0.676   4.887
 1545SOL    HW1 5534   5.243   0.710   4.825
 1545SOL    HW2 5535   5.285   0.590   4.928
 1546SOL     OW 5536   5.197   6.714   6.003
 1546SOL    HW1 5537   5.252   6.672   6.075
 1546SOL    HW2 5538   5.140   6.786   6.042
 1547SOL     OW 5539   2.161   4.252   2.840
 1547SOL    HW1 5540   2.205   4.279   2.925
 1547SOL    HW2 5541   2.090   4.318   2.817
 1548SOL     OW 5542   4.749   3.988   5.670
 1548SOL    HW1 5543   4.771   3.917   5.603
 1548SOL    HW2 5544   4.698   4.062   5.626
 1549SOL     OW 5545   5.551   1.161   2.123
 1549SOL    HW1 5546   5.539   1.256   2.150
 1549SOL    HW2 5547   5.644   1.132   2.147
 1550SOL     OW 5548   3.185   6.618   5.694
 1550SOL    HW1 5549   3.104   6.671   5.666
 1550SOL    HW2 5550   3.245   6.675   5.750
 1551SOL     OW 5551   1.863   3.317   0.885
 1551SOL    HW1 5552   1.938   3.377   0.859
 1551SOL    HW2 5553   1.832   3.341   0.977
 1552SOL     OW 5554   0.450   0.083   1.280
 1552SOL    HW1 5555   0.495   0.102   1.192
 1552SOL    HW2 5556   0.457   0.163   1.339
 1553SOL     OW 5557   6.430   2.014   6.146
 1553SOL    HW1 5558   6.401   2.020   6.051
 1553SOL    HW2 5559   6.406   1.923   6.182
 1554SOL     OW 5560   3.744   1.946   2.359
 1554SOL    HW1 5561   3.757   1.869   2.297
 1554SOL    HW2 5562   3.665   2.000   2.329
 1555SOL     OW 5563   4.615   2.428   5.838
 1555SOL    HW1 5564   4.672   2.510   5.831
 1555SOL    HW2 5565   4.519   2.453   5.838
 1556SOL     OW 5566   3.826   0.971   0.095
 1556SOL    HW1 5567   3.804   0.893   0.036
 1556SOL    HW2 5568   3.895   0.944   0.162
 1557SOL     OW 5569   2.927   1.659   0.488
 1557SOL    HW1 5570   2.971   1.583   0.440
 1557SOL    HW2 5571   2.929   1.642   0.586
 1558SOL     OW 5572   5.837   1.800   4.568
 1558SOL    HW1 5573   5.865   1.705   4.554
 1558SOL    HW2 5574   5.737   1.805   4.571
 1559SOL     OW 5575   0.608   3.091   0.958
 1559SOL    HW1 5576   0.672   3.144   1.014
 1559SOL    HW2 5577   0.627   2.993   0.970
 1560SOL     OW 5578   2.477   0.967   6.618
 1560SOL    HW1 5579   2.488   1.054   6.569
 1560SOL    HW2 5580   2.431   0.984   6.705
 1561SOL     OW 5581   5.155   5.383   3.477
 1561SOL    HW1 5582   5.216   5.335   3.540
 1561SOL    HW2 5583   5.067   5.335   3.474
 1562SOL     OW 5584   3.988   6.532   1.619
 1562SOL    HW1 5585   4.022   6.598   1.553
 1562SOL    HW2 5586   3.992   6.440   1.580
 1563SOL     OW 5587   2.278   1.808   5.744
 1563SOL    HW1 5588   2.352   1.830   5.680
 1563SOL    HW2 5589   2.262   1.886   5.805
 1564SOL     OW 5590   1.568   2.335   2.581
 1564SOL    HW1 5591   1.525   2.335   2.671
 1564SOL    HW2 5592   1.565   2.427   2.542
 1565SOL     OW 5593   3.861   4.965   4.441
 1565SOL    HW1 5594   3.877   4.923   4.352
 1565SOL    HW2 5595   3.866   5.064   4.433
 1566SOL     OW 5596   6.145   5.416   4.982
 1566SOL    HW1 5597   6.080   5.483   5.019
 1566SOL    HW2 5598   6.145   5.421   4.882
 1567SOL     OW 5599   6.325   5.606   0.241
 1567SOL    HW1 5600   6.277   5.694   0.236
 1567SOL    HW2 5601   6.422   5.620   0.218
 1568SOL     OW 5602   2.355   6.611   2.650
 1568SOL    HW1 5603   2.258   6.614   2.677
 1568SOL    HW2 5604   2.383   6.702   2.619
 1569SOL     OW 5605   3.731   6.675   3.011
 1569SOL    HW1 5606   3.713   6.608   3.083
 1569SOL    HW2 5607   3.664   6.665   2.937
 1570SOL     OW 5608   1.601   6.769   6.862
 1570SOL    HW1 5609   1.559   6.773   6.952
 1570SOL    HW2 5610   1.701   6.777   6.871
 1571SOL     OW 5611   0.191   2.175   3.218
 1571SOL    HW1 5612   0.215   2.124   3.300
 1571SOL    HW2 5613   0.226   2.268   3.225
 1572SOL     OW 5614   2.101   5.534   2.178
 1572SOL    HW1 5615   2.144   5.612   2.134
 1572SOL    HW2 5616   2.164   5.457   2.179
 1573SOL     OW 5617   5.679   5.133   2.254
 1573SOL    HW1 5618   5.717   5.062   2.314
 1573SOL    HW2 5619   5.704   5.114   2.160
 1574SOL     OW 5620   6.764   2.437   3.250
 1574SOL    HW1 5621   6.758   2.463   3.346
 1574SOL    HW2 5622   6.772   2.520   3.194
 1575SOL     OW 5623   2.898   1.127   2.022
 1575SOL    HW1 5624   2.926   1.215   1.983
 1575SOL    HW2 5625   2.976   1.085   2.069
 1576SOL     OW 5626   0.870   6.767   3.417
 1576SOL    HW1 5627   0.824   6.750   3.330
 1576SOL    HW2 5628   0.823   6.839   3.467
 1577SOL     OW 5629   1.937   0.748   5.767
 1577SOL    HW1 5630   2.008   0.760   5.697
 1577SOL    HW2 5631   1.890   0.662   5.751
 1578SOL     OW 5632   4.891   1.282   5.987
 1578SOL    HW1 5633   4.875   1.355   6.054
 1578SOL    HW2 5634   4.805   1.232   5.972
 1579SOL     OW 5635   0.239   1.686   1.870
 1579SOL    HW1 5636   0.221   1.768   1.925
 1579SOL    HW2 5637   0.181   1.611   1.901
 1580SOL     OW 5638   3.520   4.142   3.450
 1580SOL    HW1 5639   3.478   4.101   3.370
 1580SOL    HW2 5640   3.618   4.155   3.434
 1581SOL     OW 5641   6.716   4.302   5.578
 1581SOL    HW1 5642   6.645   4.235   5.600
 1581SOL    HW2 5643   6.775   4.316   5.658
 1582SOL     OW 5644   3.150   6.248   4.585
 1582SOL    HW1 5645   3.146   6.344   4.557
 1582SOL    HW2 5646   3.130   6.190   4.506
 1583SOL     OW 5647   0.894   5.664   3.828
 1583SOL    HW1 5648   0.857   5.605   3.757
 1583SOL    HW2 5649   0.896   5.615   3.915
 1584SOL     OW 5650   0.657   5.286   6.027
 1584SOL    HW1 5651   0.681   5.369   5.976
 1584SOL    HW2 5652   0.572   5.301   6.077
 1585SOL     OW 5653   4.168   1.958   2.582
 1585SOL    HW1 5654   4.093   1.908   2.540
 1585SOL    HW2 5655   4.132   2.037   2.632
 1586SOL     OW 5656   3.157   5.073   2.704
 1586SOL    HW1 5657   3.172   5.082   2.605
 1586SOL    HW2 5658   3.181   5.158   2.749
 1587SOL     OW 5659   2.403   5.400   5.197
 1587SOL    HW1 5660   2.373   5.484   5.152
 1587SOL    HW2 5661   2.341   5.379   5.273
 1588SOL     OW 5662   4.931   1.016   2.153
 1588SOL    HW1 5663   4.834   1.022   2.175
 1588SOL    HW2 5664   4.949   1.064   2.067
 1589SOL     OW 5665   0.189   3.353   2.407
 1589SOL    HW1 5666   0.240   3.436   2.387
 1589SOL    HW2 5667   0.248   3.288   2.456
 1590SOL     OW 5668   5.401   1.030   3.609
 1590SOL    HW1 5669   5.339   1.004   3.535
 1590SOL    HW2 5670   5.454   0.950   3.637
 1591SOL     OW 5671   6.672   6.002   0.906
 1591SOL    HW1 5672   6.765   5.966   0.892
 1591SOL    HW2 5673   6.666   6.046   0.995
 1592SOL     OW 5674   2.185   3.771   6.757
 1592SOL    HW1 5675   2.155   3.747   6.664
 1592SOL    HW2 5676   2.267   3.718   6.780
 1593SOL     OW 5677   0.555   6.973   5.662
 1593SOL    HW1 5678   0.569   6.938   5.755
 1593SOL    HW2 5679   0.554   6.896   5.598
 1594SOL     OW 5680   0.340   6.033   1.997
 1594SOL    HW1 5681   0.286   6.117   1.992
 1594SOL    HW2 5682   0.419   6.047   2.057
 1595SOL     OW 5683   0.928   4.730   0.945
 1595SOL    HW1 5684   0.928   4.814   0.891
 1595SOL    HW2 5685   0.991   4.740   1.022
 1596SOL     OW 5686   6.769   3.250   3.197
 1596SOL    HW1 5687   6.715   3.268   3.279
 1596SOL    HW2 5688   6.798   3.154   3.196
 1597SOL     OW 5689   1.450   6.056   1.073
 1597SOL    HW1 5690   1.353   6.062   1.100
 1597SOL    HW2 5691   1.456   6.027   0.978
 1598SOL     OW 5692   1.250   4.520   6.199
 1598SOL    HW1 5693   1.279   4.616   6.203
 1598SOL    HW2 5694   1.179   4.509   6.130
 1599SOL     OW 5695   5.416   5.085   5.459
 1599SOL    HW1 5696   5.403   5.088   5.360
 1599SOL    HW2 5697   5.452   5.173   5.490
 1600SOL     OW 5698   2.621   1.788   3.093
 1600SOL    HW1 5699   2.635   1.708   3.035
 1600SOL    HW2 5700   2.531   1.828   3.073
 1601SOL     OW 5701   6.805   0.289   4.251
 1601SOL    HW1 5702   6.895   0.327   4.232
 1601SOL    HW2 5703   6.742   0.363   4.273
 1602SOL     OW 5704   4.338   4.803   3.755
 1602SOL    HW1 5705   4.370   4.716   3.717
 1602SOL    HW2 5706   4.340   4.799   3.855
 1603SOL     OW 5707   2.935   5.105   3.143
 1603SOL    HW1 5708   2.854   5.129   3.090
 1603SOL    HW2 5709   2.974   5.021   3.106
 1604SOL     OW 5710   4.399   4.592   1.550
 1604SOL    HW1 5711   4.357   4.557   1.634
 1604SOL    HW2 5712   4.348   4.559   1.471
 1605SOL     OW 5713   6.699   5.404   1.890
 1605SOL    HW1 5714   6.611   5.420   1.845
 1605SOL    HW2 5715   6.751   5.489   1.895
 1606SOL     OW 5716   3.796   5.905   5.688
 1606SOL    HW1 5717   3.777   5.964   5.767
 1606SOL    HW2 5718   3.818   5.813   5.720
 1607SOL     OW 5719   4.296   0.022   0.550
 1607SOL    HW1 5720   4.358   0.096   0.578
 1607SOL    HW2 5721   4.202   0.052   0.557
 1608SOL     OW 5722   6.484   0.947   2.611
 1608SOL    HW1 5723   6.582   0.951   2.630
 1608SOL    HW2 5724   6.452   0.852   2.614
 1609SOL     OW 5725   3.690   6.927   0.282
 1609SOL    HW1 5726   3.678   6.855   0.213
 1609SOL    HW2 5727   3.618   6.995   0.273
 1610SOL     OW 5728   5.193   5.963   0.499
 1610SOL    HW1 5729   5.213   5.997   0.591
 1610SOL    HW2 5730   5.227   5.869   0.491
 1611SOL     OW 5731   2.454   3.471   0.479
 1611SOL    HW1 5732   2.475   3.548   0.540
 1611SOL    HW2 5733   2.537   3.418   0.463
 1612SOL     OW 5734   3.642   6.804   1.266
 1612SOL    HW1 5735   3.653   6.863   1.186
 1612SOL    HW2 5736   3.662   6.855   1.349
 1613SOL     OW 5737   1.496   6.007   1.963
 1613SOL    HW1 5738   1.450   5.923   1.993
 1613SOL    HW2 5739   1.456   6.085   2.011
 1614SOL     OW 5740   6.017   1.564   5.995
 1614SOL    HW1 5741   5.978   1.652   6.020
 1614SOL    HW2 5742   5.943   1.497   5.984
 1615SOL     OW 5743   5.845   6.030   0.242
 1615SOL    HW1 5744   5.870   5.944   0.197
 1615SOL    HW2 5745   5.797   6.089   0.177
 1616SOL     OW 5746   3.828   0.817   4.416
 1616SOL    HW1 5747   3.765   0.850   4.487
 1616SOL    HW2 5748   3.776   0.764   4.348
 1617SOL     OW 5749   5.511   6.116   3.406
 1617SOL    HW1 5750   5.542   6.211   3.398
 1617SOL    HW2 5751   5.522   6.070   3.318
 1618SOL     OW 5752   1.806   6.696   3.052
 1618SOL    HW1 5753   1.788   6.778   3.105
 1618SOL    HW2 5754   1.819   6.618   3.114
 1619SOL     OW 5755   0.092   4.671   0.388
 1619SOL    HW1 5756   0.110   4.769   0.385
 1619SOL    HW2 5757   0.014   4.653   0.449
 1620SOL     OW 5758   3.468   4.851   1.441
 1620SOL    HW1 5759   3.499   4.779   1.378
 1620SOL    HW2 5760   3.440   4.809   1.528
 1621SOL     OW 5761   6.261   0.336   1.247
 1621SOL    HW1 5762   6.222   0.295   1.164
 1621SOL    HW2 5763   6.190   0.349   1.315
 1622SOL     OW 5764   0.913   3.484   5.501
 1622SOL    HW1 5765   0.941   3.388   5.490
 1622SOL    HW2 5766   0.906   3.527   5.411
 1623SOL     OW 5767   0.674   2.625   4.924
 1623SOL    HW1 5768   0.664   2.525   4.916
 1623SOL    HW2 5769   0.744   2.646   4.991
 1624SOL     OW 5770   4.186   1.155   5.316
 1624SOL    HW1 5771   4.115   1.156   5.386
 1624SOL    HW2 5772   4.212   1.249   5.295
 1625SOL     OW 5773   1.496   4.743   6.679
 1625SOL    HW1 5774   1.476   4.649   6.649
 1625SOL    HW2 5775   1.594   4.761   6.672
 1626SOL     OW 5776   3.304   0.828   0.834
 1626SOL    HW1 5777   3.222   0.812   0.889
 1626SOL    HW2 5778   3.304   0.767   0.755
 1627SOL     OW 5779   5.301   2.917   3.678
 1627SOL    HW1 5780   5.311   2.936   3.776
 1627SOL    HW2 5781   5.206   2.935   3.651
 1628SOL     OW 5782   4.366   5.692   0.368
 1628SOL    HW1 5783   4.305   5.678   0.290
 1628SOL    HW2 5784   4.323   5.754   0.433
 1629SOL     OW 5785   2.171   1.154   3.729
 1629SOL    HW1 5786   2.082   1.116   3.755
 1629SOL    HW2 5787   2.172   1.252   3.746
 1630SOL     OW 5788   0.590   4.741   5.540
 1630SOL    HW1 5789   0.637   4.797   5.471
 1630SOL    HW2 5790   0.532   4.799   5.596
 1631SOL     OW 5791   0.683   3.196   0.265
 1631SOL    HW1 5792   0.781   3.180   0.256
 1631SOL    HW2 5793   0.667   3.287   0.303
 1632SOL     OW 5794   4.965   2.630   2.416
 1632SOL    HW1 5795   5.009   2.545   2.443
 1632SOL    HW2 5796   5.017   2.674   2.343
 1633SOL     OW 5797   4.834   3.722   4.526
 1633SOL    HW1 5798   4.860   3.684   4.438
 1633SOL    HW2 5799   4.832   3.650   4.595
 1634SOL     OW 5800   4.517   5.964   4.381
 1634SOL    HW1 5801   4.418   5.981   4.390
 1634SOL    HW2 5802   4.567   6.037   4.428
 1635SOL     OW 5803   0.240   5.175   0.256
 1635SOL    HW1 5804   0.313   5.228   0.298
 1635SOL    HW2 5805   0.257   5.168   0.157
 1636SOL     OW 5806   2.942   5.113   1.546
 1636SOL    HW1 5807   2.905   5.083   1.458
 1636SOL    HW2 5808   2.925   5.043   1.615
 1637SOL     OW 5809   0.160   6.978   3.647
 1637SOL    HW1 5810   0.200   6.928   3.571
 1637SOL    HW2 5811   0.061   6.964   3.648
 1638SOL     OW 5812   1.179   3.425   2.574
 1638SOL    HW1 5813   1.234   3.390   2.497
 1638SOL    HW2 5814   1.088   3.385   2.570
 1639SOL     OW 5815   5.399   5.107   1.555
 1639SOL    HW1 5816   5.302   5.129   1.545
 1639SOL    HW2 5817   5.453   5.191   1.548
 1640SOL     OW 5818   5.972   0.763   0.248
 1640SOL    HW1 5819   5.974   0.858   0.279
 1640SOL    HW2 5820   5.938   0.760   0.154
 1641SOL     OW 5821   6.186   1.829   3.877
 1641SOL    HW1 5822   6.115   1.832   3.806
 1641SOL    HW2 5823   6.264   1.884   3.849
 1642SOL     OW 5824   6.502   3.304   0.022
 1642SOL    HW1 5825   6.557   3.245   6.986
 1642SOL    HW2 5826   6.406   3.277   0.015
 1643SOL     OW 5827   2.692   4.684   3.597
 1643SOL    HW1 5828   2.641   4.634   3.667
 1643SOL    HW2 5829   2.751   4.751   3.641
 1644SOL     OW 5830   5.796   3.663   0.023
 1644SOL    HW1 5831   5.715   3.687   0.076
 1644SOL    HW2 5832   5.843   3.746   7.016
 1645SOL     OW 5833   2.649   5.509   6.422
 1645SOL    HW1 5834   2.698   5.424   6.406
 1645SOL    HW2 5835   2.660   5.537   6.518
 1646SOL     OW 5836   2.816   6.861   0.889
 1646SOL    HW1 5837   2.834   6.910   0.975
 1646SOL    HW2 5838   2.791   6.927   0.818
 1647SOL     OW 5839   5.773   2.323   4.261
 1647SOL    HW1 5840   5.859   2.294   4.218
 1647SOL    HW2 5841   5.729   2.244   4.303
 1648SOL     OW 5842   5.036   5.807   6.939
 1648SOL    HW1 5843   4.969   5.735   6.921
 1648SOL    HW2 5844   5.076   5.838   6.853
 1649SOL     OW 5845   3.510   1.502   4.060
 1649SOL    HW1 5846   3.476   1.515   4.153
 1649SOL    HW2 5847   3.466   1.567   3.998
 1650SOL     OW 5848   0.354   5.689   5.146
 1650SOL    HW1 5849   0.438   5.736   5.117
 1650SOL    HW2 5850   0.278   5.719   5.089
 1651SOL     OW 5851   0.552   2.163   1.805
 1651SOL    HW1 5852   0.461   2.122   1.804
 1651SOL    HW2 5853   0.544   2.262   1.802
 1652SOL     OW 5854   1.626   3.103   2.661
 1652SOL    HW1 5855   1.530   3.130   2.662
 1652SOL    HW2 5856   1.669   3.130   2.747
 1653SOL     OW 5857   1.023   6.446   0.326
 1653SOL    HW1 5858   1.030   6.366   0.267
 1653SOL    HW2 5859   1.019   6.418   0.421
 1654SOL     OW 5860   6.833   3.317   1.549
 1654SOL    HW1 5861   6.763   3.335   1.618
 1654SOL    HW2 5862   6.886   3.400   1.532
 1655SOL     OW 5863   0.018   2.085   4.309
 1655SOL    HW1 5864   0.045   2.148   4.381
 1655SOL    HW2 5865   0.039   1.991   4.337
 1656SOL     OW 5866   1.666   5.122   2.922
 1656SOL    HW1 5867   1.643   5.175   2.840
 1656SOL    HW2 5868   1.666   5.183   3.001
 1657SOL     OW 5869   5.787   0.841   4.080
 1657SOL    HW1 5870   5.815   0.867   4.172
 1657SOL    HW2 5871   5.688   0.827   4.078
 1658SOL     OW 5872   5.981   1.221   1.001
 1658SOL    HW1 5873   5.903   1.210   0.939
 1658SOL    HW2 5874   6.064   1.233   0.946
 1659SOL     OW 5875   3.276   0.466   0.151
 1659SOL    HW1 5876   3.284   0.380   0.100
 1659SOL    HW2 5877   3.218   0.452   0.231
 1660SOL     OW 5878   1.789   6.081   2.304
 1660SOL    HW1 5879   1.809   5.995   2.351
 1660SOL    HW2 5880   1.814   6.073   2.208
 1661SOL     OW 5881   1.721   6.665   1.739
 1661SOL    HW1 5882   1.751   6.570   1.727
 1661SOL    HW2 5883   1.636   6.680   1.688
 1662SOL     OW 5884   0.199   1.189   4.311
 1662SOL    HW1 5885   0.200   1.229   4.402
 1662SOL    HW2 5886   0.270   1.118   4.304
 1663SOL     OW 5887   4.400   5.179   3.537
 1663SOL    HW1 5888   4.408   5.168   3.438
 1663SOL    HW2 5889   4.420   5.274   3.562
 1664SOL     OW 5890   2.152   6.214   4.778
 1664SOL    HW1 5891   2.221   6.148   4.806
 1664SOL    HW2 5892   2.100   6.246   4.857
 1665SOL     OW 5893   6.545   3.332   2.533
 1665SOL    HW1 5894   6.563   3.276   2.614
 1665SOL    HW2 5895   6.465   3.390   2.550
 1666SOL     OW 5896   5.539   1.051   6.821
 1666SOL    HW1 5897   5.441   1.031   6.827
 1666SOL    HW2 5898   5.580   1.044   6.912
 1667SOL     OW 5899   7.008   6.136   1.340
 1667SOL    HW1 5900   6.996   6.043   1.376
 1667SOL    HW2 5901   0.032   6.193   1.409
 1668SOL     OW 5902   4.876   5.326   4.014
 1668SOL    HW1 5903   4.953   5.318   3.951
 1668SOL    HW2 5904   4.889   5.405   4.073
 1669SOL     OW 5905   0.007   4.181   6.038
 1669SOL    HW1 5906   0.018   4.256   5.972
 1669SOL    HW2 5907   6.952   4.123   6.010
 1670SOL     OW 5908   6.717   4.348   5.293
 1670SOL    HW1 5909   6.798   4.371   5.239
 1670SOL    HW2 5910   6.744   4.337   5.389
 1671SOL     OW 5911   5.730   1.775   3.576
 1671SOL    HW1 5912   5.650   1.814   3.621
 1671SOL    HW2 5913   5.730   1.676   3.590
 1672SOL     OW 5914   2.355   3.543   0.851
 1672SOL    HW1 5915   2.298   3.545   0.933
 1672SOL    HW2 5916   2.414   3.463   0.853
 1673SOL     OW 5917   1.305   1.830   4.912
 1673SOL    HW1 5918   1.381   1.893   4.932
 1673SOL    HW2 5919   1.311   1.801   4.816
 1674SOL     OW 5920   0.588   3.274   2.467
 1674SOL    HW1 5921   0.566   3.366   2.434
 1674SOL    HW2 5922   0.613   3.279   2.564
 1675SOL     OW 5923   4.447   0.213   6.903
 1675SOL    HW1 5924   4.454   0.311   6.920
 1675SOL    HW2 5925   4.487   0.163   6.980
 1676SOL     OW 5926   2.426   2.554   1.908
 1676SOL    HW1 5927   2.407   2.534   1.812
 1676SOL    HW2 5928   2.511   2.509   1.936
 1677SOL     OW 5929   3.689   3.750   3.852
 1677SOL    HW1 5930   3.621   3.748   3.926
 1677SOL    HW2 5931   3.673   3.830   3.794
 1678SOL     OW 5932   6.827   4.687   2.486
 1678SOL    HW1 5933   6.849   4.730   2.399
 1678SOL    HW2 5934   6.729   4.671   2.492
 1679SOL     OW 5935   2.039   1.210   4.815
 1679SOL    HW1 5936   1.962   1.229   4.754
 1679SOL    HW2 5937   2.093   1.134   4.777
 1680SOL     OW 5938   0.544   3.589   5.331
 1680SOL    HW1 5939   0.529   3.504   5.382
 1680SOL    HW2 5940   0.632   3.628   5.357
 1681SOL     OW 5941   0.288   5.204   6.514
 1681SOL    HW1 5942   0.271   5.116   6.558
 1681SOL    HW2 5943   0.201   5.248   6.493
 1682SOL     OW 5944   0.940   0.474   5.903
 1682SOL    HW1 5945   0.879   0.478   5.981
 1682SOL    HW2 5946   0.991   0.388   5.905
 1683SOL     OW 5947   5.729   5.365   2.810
 1683SOL    HW1 5948   5.742   5.283   2.866
 1683SOL    HW2 5949   5.651   5.351   2.749
 1684SOL     OW 5950   0.563   6.041   2.167
 1684SOL    HW1 5951   0.505   5.972   2.210
 1684SOL    HW2 5952   0.650   6.000   2.140
 1685SOL     OW 5953   1.657   1.302   5.458
 1685SOL    HW1 5954   1.752   1.322   5.482
 1685SOL    HW2 5955   1.601   1.304   5.540
 1686SOL     OW 5956   2.066   6.245   3.938
 1686SOL    HW1 5957   2.055   6.145   3.942
 1686SOL    HW2 5958   2.077   6.280   4.031
 1687SOL     OW 5959   1.566   2.863   1.800
 1687SOL    HW1 5960   1.560   2.911   1.887
 1687SOL    HW2 5961   1.576   2.765   1.816
 1688SOL     OW 5962   2.325   1.674   3.788
 1688SOL    HW1 5963   2.311   1.693   3.886
 1688SOL    HW2 5964   2.396   1.605   3.778
 1689SOL     OW 5965   6.393   0.852   3.095
 1689SOL    HW1 5966   6.408   0.941   3.052
 1689SOL    HW2 5967   6.327   0.799   3.040
 1690SOL     OW 5968   1.458   2.510   4.664
 1690SOL    HW1 5969   1.469   2.584   4.597
 1690SOL    HW2 5970   1.450   2.423   4.616
 1691SOL     OW 5971   5.521   2.917   4.224
 1691SOL    HW1 5972   5.516   3.017   4.224
 1691SOL    HW2 5973   5.589   2.887   4.290
 1692SOL     OW 5974   4.455   6.055   1.208
 1692SOL    HW1 5975   4.552   6.078   1.219
 1692SOL    HW2 5976   4.424   6.084   1.118
 1693SOL     OW 5977   6.877   2.203   3.256
 1693SOL    HW1 5978   6.839   2.294   3.241
 1693SOL    HW2 5979   6.912   2.197   3.349
 1694SOL     OW 5980   6.303   1.932   3.605
 1694SOL    HW1 5981   6.218   1.891   3.571
 1694SOL    HW2 5982   6.378   1.909   3.543
 1695SOL     OW 5983   3.928   0.886   6.477
 1695SOL    HW1 5984   3.860   0.943   6.431
 1695SOL    HW2 5985   3.882   0.820   6.535
 1696SOL     OW 5986   3.703   5.848   1.240
 1696SOL    HW1 5987   3.767   5.776   1.212
 1696SOL    HW2 5988   3.632   5.808   1.298
 1697SOL     OW 5989   6.661   1.746   0.256
 1697SOL    HW1 5990   6.728   1.680   0.225
 1697SOL    HW2 5991   6.657   1.745   0.356
 1698SOL     OW 5992   3.551   6.925   1.007
 1698SOL    HW1 5993   3.522   7.009   1.052
 1698SOL    HW2 5994   3.578   6.944   0.913
 1699SOL     OW 5995   2.197   1.376   6.852
 1699SOL    HW1 5996   2.201   1.434   6.771
 1699SOL    HW2 5997   2.281   1.321   6.857
 1700SOL     OW 5998   6.354   4.233   3.783
 1700SOL    HW1 5999   6.366   4.148   3.835
 1700SOL    HW2 6000   6.286   4.290   3.829
 1701SOL     OW 6001   5.524   5.446   5.880
 1701SOL    HW1 6002   5.490   5.353   5.864
 1701SOL    HW2 6003   5.455   5.512   5.848
 1702SOL     OW 6004   6.315   1.774   1.016
 1702SOL    HW1 6005   6.284   1.695   0.964
 1702SOL    HW2 6006   6.266   1.856   0.985
 1703SOL     OW 6007   3.530   1.618   0.208
 1703SOL    HW1 6008   3.580   1.705   0.209
 1703SOL    HW2 6009   3.580   1.552   0.151
 1704SOL     OW 6010   1.014   2.492   0.361
 1704SOL    HW1 6011   1.051   2.579   0.393
 1704SOL    HW2 6012   1.079   2.419   0.378
 1705SOL     OW 6013   3.345   2.123   1.904
 1705SOL    HW1 6014   3.280   2.133   1.979
 1705SOL    HW2 6015   3.334   2.200   1.841
 1706SOL     OW 6016   5.065   1.423   1.744
 1706SOL    HW1 6017   5.149   1.374   1.770
 1706SOL    HW2 6018   4.987   1.378   1.787
 1707SOL     OW 6019   4.138   1.978   2.924
 1707SOL    HW1 6020   4.149   2.071   2.960
 1707SOL    HW2 6021   4.123   1.982   2.825
 1708SOL     OW 6022   4.857   6.076   1.933
 1708SOL    HW1 6023   4.821   6.169   1.927
 1708SOL    HW2 6024   4.956   6.079   1.944
 1709SOL     OW 6025   3.490   6.649   2.863
 1709SOL    HW1 6026   3.461   6.743   2.882
 1709SOL    HW2 6027   3.413   6.587   2.872
 1710SOL     OW 6028   3.892   4.977   3.207
 1710SOL    HW1 6029   3.979   4.945   3.168
 1710SOL    HW2 6030   3.906   5.066   3.250
 1711SOL     OW 6031   1.748   5.339   4.546
 1711SOL    HW1 6032   1.761   5.386   4.459
 1711SOL    HW2 6033   1.836   5.304   4.579
 1712SOL     OW 6034   6.885   2.113   4.848
 1712SOL    HW1 6035   6.825   2.138   4.772
 1712SOL    HW2 6036   6.843   2.040   4.902
 1713SOL     OW 6037   4.780   2.349   2.270
 1713SOL    HW1 6038   4.850   2.413   2.239
 1713SOL    HW2 6039   4.734   2.386   2.351
 1714SOL     OW 6040   3.915   1.642   6.150
 1714SOL    HW1 6041   3.993   1.650   6.212
 1714SOL    HW2 6042   3.915   1.719   6.086
 1715SOL     OW 6043   2.143   6.205   3.457
 1715SOL    HW1 6044   2.086   6.200   3.540
 1715SOL    HW2 6045   2.239   6.211   3.484
 1716SOL     OW 6046   4.087   6.817   3.991
 1716SOL    HW1 6047   4.042   6.882   4.053
 1716SOL    HW2 6048   4.185   6.835   3.988
 1717SOL     OW 6049   3.543   5.832   4.930
 1717SOL    HW1 6050   3.607   5.756   4.932
 1717SOL    HW2 6051   3.585   5.910   4.882
 1718SOL     OW 6052   3.194   1.714   2.116
 1718SOL    HW1 6053   3.136   1.785   2.157
 1718SOL    HW2 6054   3.274   1.757   2.075
 1719SOL     OW 6055   1.859   3.092   0.746
 1719SOL    HW1 6056   1.880   3.185   0.776
 1719SOL    HW2 6057   1.875   3.028   0.821
 1720SOL     OW 6058   6.775   2.771   6.371
 1720SOL    HW1 6059   6.796   2.843   6.437
 1720SOL    HW2 6060   6.860   2.737   6.330
 1721SOL     OW 6061   1.922   6.996   1.016
 1721SOL    HW1 6062   1.872   6.989   1.102
 1721SOL    HW2 6063   2.019   7.012   1.036
 1722SOL     OW 6064   3.555   1.666   3.570
 1722SOL    HW1 6065   3.595   1.709   3.488
 1722SOL    HW2 6066   3.469   1.711   3.592
 1723SOL     OW 6067   5.537   2.514   6.868
 1723SOL    HW1 6068   5.450   2.544   6.828
 1723SOL    HW2 6069   5.594   2.593   6.889
 1724SOL     OW 6070   0.586   2.986   2.464
 1724SOL    HW1 6071   0.536   2.974   2.378
 1724SOL    HW2 6072   0.585   3.083   2.489
 1725SOL     OW 6073   1.612   4.861   6.252
 1725SOL    HW1 6074   1.545   4.920   6.297
 1725SOL    HW2 6075   1.661   4.913   6.183
 1726SOL     OW 6076   5.362   4.137   4.312
 1726SOL    HW1 6077   5.274   4.116   4.354
 1726SOL    HW2 6078   5.436   4.095   4.365
 1727SOL     OW 6079   4.122   3.325   3.776
 1727SOL    HW1 6080   4.217   3.335   3.803
 1727SOL    HW2 6081   4.083   3.414   3.754
 1728SOL     OW 6082   6.049   5.199   5.380
 1728SOL    HW1 6083   6.062   5.152   5.467
 1728SOL    HW2 6084   5.955   5.233   5.375
 1729SOL     OW 6085   1.886   3.843   3.145
 1729SOL    HW1 6086   1.913   3.874   3.054
 1729SOL    HW2 6087   1.875   3.743   3.144
 1730SOL     OW 6088   2.229   0.389   5.488
 1730SOL    HW1 6089   2.135   0.361   5.470
 1730SOL    HW2 6090   2.288   0.309   5.487
 1731SOL     OW 6091   0.235   4.434   3.366
 1731SOL    HW1 6092   0.164   4.503   3.375
 1731SOL    HW2 6093   0.193   4.345   3.349
 1732SOL     OW 6094   2.200   4.860   6.047
 1732SOL    HW1 6095   2.240   4.775   6.012
 1732SOL    HW2 6096   2.126   4.838   6.111
 1733SOL     OW 6097   1.679   4.071   1.492
 1733SOL    HW1 6098   1.662   4.107   1.584
 1733SOL    HW2 6099   1.725   3.982   1.499
 1734SOL     OW 6100   4.834   2.835   1.290
 1734SOL    HW1 6101   4.873   2.926   1.276
 1734SOL    HW2 6102   4.826   2.788   1.202
 1735SOL     OW 6103   4.514   5.705   6.496
 1735SOL    HW1 6104   4.520   5.635   6.567
 1735SOL    HW2 6105   4.599   5.759   6.495
 1736SOL     OW 6106   3.628   3.803   1.039
 1736SOL    HW1 6107   3.721   3.772   1.058
 1736SOL    HW2 6108   3.565   3.761   1.105
 1737SOL     OW 6109   4.811   7.007   4.719
 1737SOL    HW1 6110   4.750   0.065   4.713
 1737SOL    HW2 6111   4.833   6.990   4.815
 1738SOL     OW 6112   2.559   2.501   4.651
 1738SOL    HW1 6113   2.567   2.459   4.741
 1738SOL    HW2 6114   2.488   2.572   4.653
 1739SOL     OW 6115   6.532   1.444   4.400
 1739SOL    HW1 6116   6.580   1.466   4.485
 1739SOL    HW2 6117   6.581   1.483   4.323
 1740SOL     OW 6118   0.243   2.534   5.228
 1740SOL    HW1 6119   0.288   2.560   5.314
 1740SOL    HW2 6120   0.259   2.605   5.159
 1741SOL     OW 6121   2.451   0.817   4.372
 1741SOL    HW1 6122   2.352   0.831   4.375
 1741SOL    HW2 6123   2.497   0.904   4.359
 1742SOL     OW 6124   5.842   0.632   5.081
 1742SOL    HW1 6125   5.744   0.617   5.089
 1742SOL    HW2 6126   5.875   0.597   4.994
 1743SOL     OW 6127   0.603   1.508   2.463
 1743SOL    HW1 6128   0.681   1.478   2.517
 1743SOL    HW2 6129   0.544   1.429   2.443
 1744SOL     OW 6130   6.440   3.533   3.348
 1744SOL    HW1 6131   6.460   3.616   3.401
 1744SOL    HW2 6132   6.347   3.503   3.367
 1745SOL     OW 6133   5.452   5.995   2.868
 1745SOL    HW1 6134   5.412   6.064   2.808
 1745SOL    HW2 6135   5.537   5.961   2.828
 1746SOL     OW 6136   1.714   4.520   4.132
 1746SOL    HW1 6137   1.737   4.514   4.035
 1746SOL    HW2 6138   1.763   4.449   4.183
 1747SOL     OW 6139   4.163   1.281   2.767
 1747SOL    HW1 6140   4.155   1.378   2.788
 1747SOL    HW2 6141   4.160   1.268   2.668
 1748SOL     OW 6142   6.745   1.859   4.556
 1748SOL    HW1 6143   6.718   1.938   4.612
 1748SOL    HW2 6144   6.768   1.890   4.464
 1749SOL     OW 6145   2.103   6.696   5.718
 1749SOL    HW1 6146   2.114   6.793   5.742
 1749SOL    HW2 6147   2.193   6.656   5.700
 1750SOL     OW 6148   5.240   0.121   3.871
 1750SOL    HW1 6149   5.178   0.051   3.907
 1750SOL    HW2 6150   5.271   0.179   3.946
 1751SOL     OW 6151   4.854   1.677   4.628
 1751SOL    HW1 6152   4.869   1.607   4.699
 1751SOL    HW2 6153   4.765   1.662   4.585
 1752SOL     OW 6154   6.303   0.880   2.080
 1752SOL    HW1 6155   6.262   0.878   1.988
 1752SOL    HW2 6156   6.401   0.865   2.073
 1753SOL     OW 6157   6.861   0.788   1.557
 1753SOL    HW1 6158   6.827   0.695   1.541
 1753SOL    HW2 6159   6.958   0.793   1.532
 1754SOL     OW 6160   2.145   5.078   6.785
 1754SOL    HW1 6161   2.083   5.148   6.749
 1754SOL    HW2 6162   2.163   5.010   6.714
 1755SOL     OW 6163   6.916   5.268   7.018
 1755SOL    HW1 6164   7.003   5.243   6.975
 1755SOL    HW2 6165   6.842   5.254   6.953
 1756SOL     OW 6166   4.109   5.606   5.508
 1756SOL    HW1 6167   4.015   5.575   5.524
 1756SOL    HW2 6168   4.114   5.656   5.422
 1757SOL     OW 6169   3.372   5.591   4.770
 1757SOL    HW1 6170   3.408   5.549   4.853
 1757SOL    HW2 6171   3.446   5.637   4.721
 1758SOL     OW 6172   1.893   1.143   4.219
 1758SOL    HW1 6173   1.806   1.144   4.170
 1758SOL    HW2 6174   1.888   1.201   4.300
 1759SOL     OW 6175   2.362   6.343   5.507
 1759SOL    HW1 6176   2.410   6.416   5.458
 1759SOL    HW2 6177   2.355   6.263   5.448
 1760SOL     OW 6178   5.909   0.951   3.631
 1760SOL    HW1 6179   5.934   0.974   3.725
 1760SOL    HW2 6180   5.895   1.035   3.579
 1761SOL     OW 6181   0.637   1.272   1.966
 1761SOL    HW1 6182   0.541   1.292   1.947
 1761SOL    HW2 6183   0.694   1.313   1.894
 1762SOL     OW 6184   0.242   1.223   4.576
 1762SOL    HW1 6185   0.313   1.292   4.564
 1762SOL    HW2 6186   0.283   1.140   4.614
 1763SOL     OW 6187   0.869   4.742   4.266
 1763SOL    HW1 6188   0.867   4.840   4.281
 1763SOL    HW2 6189   0.822   4.720   4.180
 1764SOL     OW 6190   1.690   3.088   1.743
 1764SOL    HW1 6191   1.770   3.100   1.684
 1764SOL    HW2 6192   1.671   2.990   1.753
 1765SOL     OW 6193   3.687   0.574   1.712
 1765SOL    HW1 6194   3.752   0.638   1.754
 1765SOL    HW2 6195   3.643   0.520   1.783
 1766SOL     OW 6196   5.615   4.277   3.788
 1766SOL    HW1 6197   5.543   4.300   3.723
 1766SOL    HW2 6198   5.700   4.258   3.739
 1767SOL     OW 6199   0.908   4.628   3.603
 1767SOL    HW1 6200   0.915   4.597   3.698
 1767SOL    HW2 6201   0.917   4.728   3.599
 1768SOL     OW 6202   3.398   1.098   6.922
 1768SOL    HW1 6203   3.345   1.115   7.005
 1768SOL    HW2 6204   3.403   0.999   6.906
 1769SOL     OW 6205   5.598   1.355   6.798
 1769SOL    HW1 6206   5.687   1.374   6.841
 1769SOL    HW2 6207   5.585   1.256   6.792
 1770SOL     OW 6208   0.229   4.602   5.043
 1770SOL    HW1 6209   0.274   4.519   5.076
 1770SOL    HW2 6210   0.266   4.681   5.092
 1771SOL     OW 6211   1.561   5.277   0.511
 1771SOL    HW1 6212   1.588   5.233   0.597
 1771SOL    HW2 6213   1.530   5.207   0.447
 1772SOL     OW 6214   3.362   5.588   3.714
 1772SOL    HW1 6215   3.361   5.578   3.615
 1772SOL    HW2 6216   3.296   5.524   3.754
 1773SOL     OW 6217   2.219   2.269   6.041
 1773SOL    HW1 6218   2.192   2.208   6.115
 1773SOL    HW2 6219   2.278   2.341   6.077
 1774SOL     OW 6220   5.586   6.677   1.608
 1774SOL    HW1 6221   5.603   6.601   1.671
 1774SOL    HW2 6222   5.555   6.641   1.520
 1775SOL     OW 6223   1.757   5.379   6.139
 1775SOL    HW1 6224   1.739   5.440   6.062
 1775SOL    HW2 6225   1.671   5.348   6.179
 1776SOL     OW 6226   5.173   0.167   6.249
 1776SOL    HW1 6227   5.145   0.251   6.295
 1776SOL    HW2 6228   5.199   0.099   6.317
 1777SOL     OW 6229   3.081   0.011   6.663
 1777SOL    HW1 6230   3.162   0.061   6.635
 1777SOL    HW2 6231   3.100   6.980   6.746
 1778SOL     OW 6232   4.989   2.307   4.489
 1778SOL    HW1 6233   4.963   2.402   4.508
 1778SOL    HW2 6234   5.073   2.285   4.539
 1779SOL     OW 6235   5.195   0.723   5.819
 1779SOL    HW1 6236   5.187   0.719   5.919
 1779SOL    HW2 6237   5.246   0.644   5.787
 1780SOL     OW 6238   1.874   3.444   5.886
 1780SOL    HW1 6239   1.828   3.525   5.850
 1780SOL    HW2 6240   1.959   3.429   5.836
 1781SOL     OW 6241   5.495   6.425   5.065
 1781SOL    HW1 6242   5.442   6.460   5.142
 1781SOL    HW2 6243   5.470   6.330   5.048
 1782SOL     OW 6244   2.410   1.000   3.053
 1782SOL    HW1 6245   2.338   0.937   3.022
 1782SOL    HW2 6246   2.421   1.073   2.985
 1783SOL     OW 6247   3.153   3.732   6.589
 1783SOL    HW1 6248   3.126   3.646   6.632
 1783SOL    HW2 6249   3.253   3.739   6.586
 1784SOL     OW 6250   2.132   1.440   1.298
 1784SOL    HW1 6251   2.045   1.396   1.317
 1784SOL    HW2 6252   2.149   1.512   1.365
 1785SOL     OW 6253   6.303   6.757   4.257
 1785SOL    HW1 6254   6.319   6.818   4.179
 1785SOL    HW2 6255   6.246   6.680   4.228
 1786SOL     OW 6256   2.161   4.979   0.017
 1786SOL    HW1 6257   2.138   5.050   0.083
 1786SOL    HW2 6258   2.136   5.010   6.947
 1787SOL     OW 6259   2.445   2.015   6.183
 1787SOL    HW1 6260   2.405   1.944   6.125
 1787SOL    HW2 6261   2.488   1.971   6.262
 1788SOL     OW 6262   4.639   4.059   6.674
 1788SOL    HW1 6263   4.633   4.095   6.581
 1788SOL    HW2 6264   4.634   3.959   6.672
 1789SOL     OW 6265   5.770   3.203   1.649
 1789SOL    HW1 6266   5.824   3.125   1.680
 1789SOL    HW2 6267   5.802   3.286   1.694
 1790SOL     OW 6268   2.691   1.387   4.476
 1790SOL    HW1 6269   2.707   1.485   4.466
 1790SOL    HW2 6270   2.648   1.352   4.393
 1791SOL     OW 6271   6.978   1.424   3.482
 1791SOL    HW1 6272   6.967   1.442   3.384
 1791SOL    HW2 6273   6.890   1.398   3.522
 1792SOL     OW 6274   6.993   1.330   4.683
 1792SOL    HW1 6275   7.002   1.285   4.594
 1792SOL    HW2 6276   7.002   1.429   4.671
 1793SOL     OW 6277   6.769   1.939   4.303
 1793SOL    HW1 6278   6.865   1.941   4.277
 1793SOL    HW2 6279   6.714   1.985   4.233
 1794SOL     OW 6280   5.352   6.535   5.274
 1794SOL    HW1 6281   5.262   6.497   5.297
 1794SOL    HW2 6282   5.411   6.530   5.355
 1795SOL     OW 6283   6.485   5.057   1.900
 1795SOL    HW1 6284   6.490   5.095   1.808
 1795SOL    HW2 6285   6.507   5.128   1.967
 1796SOL     OW 6286   2.322   1.575   5.909
 1796SOL    HW1 6287   2.371   1.499   5.867
 1796SOL    HW2 6288   2.300   1.643   5.839
 1797SOL     OW 6289   1.191   6.812   5.796
 1797SOL    HW1 6290   1.261   6.883   5.809
 1797SOL    HW2 6291   1.220   6.750   5.723
 1798SOL     OW 6292   3.282   2.958   4.717
 1798SOL    HW1 6293   3.198   2.918   4.754
 1798SOL    HW2 6294   3.361   2.920   4.764
 1799SOL     OW 6295   4.887   2.920   6.341
 1799SOL    HW1 6296   4.915   2.842   6.285
 1799SOL    HW2 6297   4.874   2.891   6.435
 1800SOL     OW 6298   4.939   4.882   3.740
 1800SOL    HW1 6299   4.965   4.976   3.765
 1800SOL    HW2 6300   4.842   4.868   3.760
 1801SOL     OW 6301   0.926   1.653   2.243
 1801SOL    HW1 6302   0.858   1.619   2.178
 1801SOL    HW2 6303   0.975   1.730   2.203
 1802SOL     OW 6304   6.084   6.004   3.394
 1802SOL    HW1 6305   6.098   6.061   3.312
 1802SOL    HW2 6306   6.164   5.947   3.409
 1803SOL     OW 6307   0.266   7.014   2.026
 1803SOL    HW1 6308   0.298   0.073   2.077
 1803SOL    HW2 6309   0.338   6.985   1.964
 1804SOL     OW 6310   3.944   3.238   4.691
 1804SOL    HW1 6311   3.978   3.229   4.598
 1804SOL    HW2 6312   4.000   3.305   4.740
 1805SOL     OW 6313   0.774   5.470   5.861
 1805SOL    HW1 6314   0.705   5.501   5.796
 1805SOL    HW2 6315   0.857   5.444   5.812
 1806SOL     OW 6316   0.764   2.817   1.786
 1806SOL    HW1 6317   0.813   2.899   1.814
 1806SOL    HW2 6318   0.688   2.842   1.727
 1807SOL     OW 6319   5.656   2.792   6.673
 1807SOL    HW1 6320   5.662   2.699   6.709
 1807SOL    HW2 6321   5.718   2.851   6.724
 1808SOL     OW 6322   5.946   3.827   4.659
 1808SOL    HW1 6323   5.936   3.733   4.690
 1808SOL    HW2 6324   6.040   3.843   4.631
 1809SOL     OW 6325   3.036   1.796   5.654
 1809SOL    HW1 6326   3.031   1.868   5.724
 1809SOL    HW2 6327   3.115   1.812   5.595
 1810SOL     OW 6328   0.855   0.798   5.167
 1810SOL    HW1 6329   0.845   0.811   5.069
 1810SOL    HW2 6330   0.951   0.810   5.193
 1811SOL     OW 6331   5.296   4.650   2.148
 1811SOL    HW1 6332   5.217   4.591   2.163
 1811SOL    HW2 6333   5.373   4.595   2.116
 1812SOL     OW 6334   4.056   6.849   6.325
 1812SOL    HW1 6335   4.126   6.793   6.369
 1812SOL    HW2 6336   4.010   6.796   6.254
 1813SOL     OW 6337   5.304   4.845   2.400
 1813SOL    HW1 6338   5.207   4.831   2.423
 1813SOL    HW2 6339   5.322   4.809   2.309
 1814SOL     OW 6340   6.117   0.371   0.732
 1814SOL    HW1 6341   6.163   0.359   0.644
 1814SOL    HW2 6342   6.089   0.466   0.742
 1815SOL     OW 6343   6.471   6.957   2.808
 1815SOL    HW1 6344   6.380   6.925   2.782
 1815SOL    HW2 6345   6.526   6.972   2.726
 1816SOL     OW 6346   3.551   5.021   6.212
 1816SOL    HW1 6347   3.483   4.949   6.200
 1816SOL    HW2 6348   3.637   4.980   6.245
 1817SOL     OW 6349   3.180   1.266   2.931
 1817SOL    HW1 6350   3.201   1.246   3.026
 1817SOL    HW2 6351   3.128   1.351   2.926
 1818SOL     OW 6352   1.686   6.990   0.126
 1818SOL    HW1 6353   1.645   6.927   0.192
 1818SOL    HW2 6354   1.658   0.062   0.148
 1819SOL     OW 6355   1.741   5.236   2.185
 1819SOL    HW1 6356   1.676   5.237   2.109
 1819SOL    HW2 6357   1.799   5.155   2.178
 1820SOL     OW 6358   3.537   0.014   2.830
 1820SOL    HW1 6359   3.562   0.110   2.820
 1820SOL    HW2 6360   3.621   6.980   2.837
 1821SOL     OW 6361   3.160   0.772   2.117
 1821SOL    HW1 6362   3.260   0.768   2.111
 1821SOL    HW2 6363   3.132   0.862   2.150
 1822SOL     OW 6364   1.288   3.451   1.434
 1822SOL    HW1 6365   1.316   3.439   1.529
 1822SOL    HW2 6366   1.293   3.364   1.386
 1823SOL     OW 6367   2.972   6.016   3.002
 1823SOL    HW1 6368   2.913   6.095   2.985
 1823SOL    HW2 6369   3.011   5.985   2.915
 1824SOL     OW 6370   4.196   4.051   0.446
 1824SOL    HW1 6371   4.266   4.035   0.515
 1824SOL    HW2 6372   4.207   4.142   0.408
 1825SOL     OW 6373   0.492   2.995   4.696
 1825SOL    HW1 6374   0.502   3.075   4.637
 1825SOL    HW2 6375   0.576   2.982   4.749
 1826SOL     OW 6376   3.095   1.110   1.129
 1826SOL    HW1 6377   3.172   1.148   1.076
 1826SOL    HW2 6378   3.016   1.170   1.120
 1827SOL     OW 6379   5.370   5.387   1.006
 1827SOL    HW1 6380   5.329   5.473   1.038
 1827SOL    HW2 6381   5.349   5.314   1.070
 1828SOL     OW 6382   1.669   3.096   6.288
 1828SOL    HW1 6383   1.688   3.040   6.207
 1828SOL    HW2 6384   1.628   3.183   6.260
 1829SOL     OW 6385   3.950   6.970   3.780
 1829SOL    HW1 6386   3.990   6.920   3.857
 1829SOL    HW2 6387   3.997   6.944   3.696
 1830SOL     OW 6388   5.887   6.580   4.928
 1830SOL    HW1 6389   5.872   6.602   5.024
 1830SOL    HW2 6390   5.810   6.612   4.873
 1831SOL     OW 6391   5.185   5.968   3.199
 1831SOL    HW1 6392   5.115   6.034   3.226
 1831SOL    HW2 6393   5.202   5.904   3.274
 1832SOL     OW 6394   3.345   2.843   0.191
 1832SOL    HW1 6395   3.275   2.772   0.199
 1832SOL    HW2 6396   3.369   2.854   0.094
 1833SOL     OW 6397   5.260   0.410   1.316
 1833SOL    HW1 6398   5.311   0.480   1.266
 1833SOL    HW2 6399   5.168   0.444   1.335
 1834SOL     OW 6400   2.452   3.524   1.252
 1834SOL    HW1 6401   2.522   3.531   1.181
 1834SOL    HW2 6402   2.495   3.496   1.338
 1835SOL     OW 6403   0.981   5.015   1.664
 1835SOL    HW1 6404   0.893   4.977   1.693
 1835SOL    HW2 6405   1.015   4.963   1.585
 1836SOL     OW 6406   5.475   2.682   1.952
 1836SOL    HW1 6407   5.492   2.663   1.855
 1836SOL    HW2 6408   5.435   2.773   1.962
 1837SOL     OW 6409   1.660   0.211   5.822
 1837SOL    HW1 6410   1.577   0.245   5.777
 1837SOL    HW2 6411   1.669   0.113   5.803
 1838SOL     OW 6412   5.833   0.666   6.346
 1838SOL    HW1 6413   5.737   0.675   6.319
 1838SOL    HW2 6414   5.864   0.573   6.324
 1839SOL     OW 6415   6.108   0.754   6.289
 1839SOL    HW1 6416   6.118   0.852   6.308
 1839SOL    HW2 6417   6.011   0.730   6.288
 1840SOL     OW 6418   3.909   0.396   2.639
 1840SOL    HW1 6419   3.957   0.479   2.611
 1840SOL    HW2 6420   3.965   0.316   2.618
 1841SOL     OW 6421   2.114   0.279   3.067
 1841SOL    HW1 6422   2.114   0.183   3.038
 1841SOL    HW2 6423   2.023   0.304   3.099
 1842SOL     OW 6424   1.001   5.349   0.828
 1842SOL    HW1 6425   1.098   5.356   0.852
 1842SOL    HW2 6426   0.953   5.431   0.858
 1843SOL     OW 6427   5.255   0.532   4.300
 1843SOL    HW1 6428   5.193   0.583   4.360
 1843SOL    HW2 6429   5.209   0.516   4.213
 1844SOL     OW 6430   4.421   1.257   5.534
 1844SOL    HW1 6431   4.468   1.182   5.580
 1844SOL    HW2 6432   4.444   1.257   5.437
 1845SOL     OW 6433   3.111   6.888   3.956
 1845SOL    HW1 6434   3.089   6.984   3.974
 1845SOL    HW2 6435   3.141   6.844   4.040
 1846SOL     OW 6436   4.917   1.187   3.451
 1846SOL    HW1 6437   4.891   1.280   3.427
 1846SOL    HW2 6438   4.902   1.126   3.373
 1847SOL     OW 6439   1.296   0.049   5.509
 1847SOL    HW1 6440   1.250   0.120   5.457
 1847SOL    HW2 6441   1.336   7.004   5.445
 1848SOL     OW 6442   1.529   6.271   4.372
 1848SOL    HW1 6443   1.587   6.282   4.291
 1848SOL    HW2 6444   1.513   6.360   4.414
 1849SOL     OW 6445   4.453   2.654   1.489
 1849SOL    HW1 6446   4.456   2.570   1.542
 1849SOL    HW2 6447   4.406   2.725   1.542
 1850SOL     OW 6448   5.769   1.839   2.810
 1850SOL    HW1 6449   5.723   1.844   2.898
 1850SOL    HW2 6450   5.718   1.891   2.742
 1851SOL     OW 6451   1.146   3.465   0.004
 1851SOL    HW1 6452   1.069   3.459   6.962
 1851SOL    HW2 6453   1.196   3.378   0.003
 1852SOL     OW 6454   0.403   4.881   2.038
 1852SOL    HW1 6455   0.453   4.914   1.959
 1852SOL    HW2 6456   0.467   4.841   2.104
 1853SOL     OW 6457   0.135   2.492   3.223
 1853SOL    HW1 6458   0.086   2.534   3.146
 1853SOL    HW2 6459   0.230   2.523   3.223
 1854SOL     OW 6460   1.320   5.328   3.094
 1854SOL    HW1 6461   1.313   5.363   3.187
 1854SOL    HW2 6462   1.363   5.398   3.036
 1855SOL     OW 6463   5.097   3.223   5.398
 1855SOL    HW1 6464   5.090   3.123   5.390
 1855SOL    HW2 6465   5.006   3.261   5.417
 1856SOL     OW 6466   3.637   3.214   6.169
 1856SOL    HW1 6467   3.656   3.167   6.255
 1856SOL    HW2 6468   3.657   3.311   6.178
 1857SOL     OW 6469   4.777   1.493   0.211
 1857SOL    HW1 6470   4.816   1.478   0.120
 1857SOL    HW2 6471   4.759   1.405   0.255
 1858SOL     OW 6472   5.753   2.682   3.359
 1858SOL    HW1 6473   5.752   2.597   3.306
 1858SOL    HW2 6474   5.714   2.756   3.304
 1859SOL     OW 6475   4.935   1.653   3.525
 1859SOL    HW1 6476   4.989   1.582   3.571
 1859SOL    HW2 6477   4.862   1.610   3.471
 1860SOL     OW 6478   0.598   1.659   5.799
 1860SOL    HW1 6479   0.568   1.577   5.849
 1860SOL    HW2 6480   0.523   1.693   5.743
 1861SOL     OW 6481   4.645   0.529   3.444
 1861SOL    HW1 6482   4.615   0.587   3.520
 1861SOL    HW2 6483   4.565   0.483   3.404
 1862SOL     OW 6484   1.483   6.687   6.596
 1862SOL    HW1 6485   1.556   6.713   6.660
 1862SOL    HW2 6486   1.458   6.592   6.612
 1863SOL     OW 6487   6.862   2.840   1.634
 1863SOL    HW1 6488   6.850   2.775   1.709
 1863SOL    HW2 6489   6.889   2.929   1.670
 1864SOL     OW 6490   3.709   5.894   3.921
 1864SOL    HW1 6491   3.785   5.940   3.876
 1864SOL    HW2 6492   3.743   5.819   3.976
 1865SOL     OW 6493   3.615   0.992   1.505
 1865SOL    HW1 6494   3.615   0.893   1.514
 1865SOL    HW2 6495   3.666   1.018   1.424
 1866SOL     OW 6496   6.511   4.684   3.679
 1866SOL    HW1 6497   6.432   4.744   3.688
 1866SOL    HW2 6498   6.587   4.735   3.638
 1867SOL     OW 6499   2.280   3.311   1.182
 1867SOL    HW1 6500   2.337   3.388   1.209
 1867SOL    HW2 6501   2.190   3.345   1.152
 1868SOL     OW 6502   4.998   3.328   5.709
 1868SOL    HW1 6503   4.918   3.299   5.761
 1868SOL    HW2 6504   4.985   3.423   5.680
 1869SOL     OW 6505   5.948   3.248   4.291
 1869SOL    HW1 6506   6.004   3.262   4.210
 1869SOL    HW2 6507   5.951   3.152   4.319
 1870SOL     OW 6508   1.125   3.243   4.955
 1870SOL    HW1 6509   1.195   3.186   4.997
 1870SOL    HW2 6510   1.079   3.192   4.882
 1871SOL     OW 6511   6.486   6.636   0.410
 1871SOL    HW1 6512   6.543   6.644   0.328
 1871SOL    HW2 6513   6.434   6.551   0.406
 1872SOL     OW 6514   4.255   2.273   0.720
 1872SOL    HW1 6515   4.244   2.335   0.643
 1872SOL    HW2 6516   4.242   2.178   0.689
 1873SOL     OW 6517   6.088   0.953   5.110
 1873SOL    HW1 6518   6.160   1.020   5.124
 1873SOL    HW2 6519   6.000   0.992   5.136
 1874SOL     OW 6520   0.672   0.853   6.736
 1874SOL    HW1 6521   0.702   0.886   6.826
 1874SOL    HW2 6522   0.752   0.824   6.683
 1875SOL     OW 6523   6.308   6.440   0.424
 1875SOL    HW1 6524   6.269   6.432   0.516
 1875SOL    HW2 6525   6.351   6.353   0.399
 1876SOL     OW 6526   4.851   6.503   6.012
 1876SOL    HW1 6527   4.760   6.462   6.007
 1876SOL    HW2 6528   4.920   6.436   5.984
 1877SOL     OW 6529   0.507   1.667   3.101
 1877SOL    HW1 6530   0.568   1.655   3.023
 1877SOL    HW2 6531   0.554   1.639   3.185
 1878SOL     OW 6532   0.115   4.203   3.309
 1878SOL    HW1 6533   0.151   4.131   3.369
 1878SOL    HW2 6534   0.109   4.168   3.216
 1879SOL     OW 6535   2.434   5.506   3.784
 1879SOL    HW1 6536   2.521   5.523   3.831
 1879SOL    HW2 6537   2.439   5.418   3.736
 1880SOL     OW 6538   1.144   2.606   3.248
 1880SOL    HW1 6539   1.243   2.601   3.265
 1880SOL    HW2 6540   1.111   2.517   3.218
 1881SOL     OW 6541   1.069   1.670   3.060
 1881SOL    HW1 6542   1.090   1.643   3.154
 1881SOL    HW2 6543   0.996   1.738   3.060
 1882SOL     OW 6544   0.958   5.338   6.809
 1882SOL    HW1 6545   1.017   5.417   6.791
 1882SOL    HW2 6546   0.937   5.293   6.722
 1883SOL     OW 6547   0.672   3.364   3.586
 1883SOL    HW1 6548   0.577   3.334   3.574
 1883SOL    HW2 6549   0.717   3.308   3.655
 1884SOL     OW 6550   5.557   1.666   1.219
 1884SOL    HW1 6551   5.488   1.695   1.286
 1884SOL    HW2 6552   5.529   1.579   1.179
 1885SOL     OW 6553   0.164   1.895   0.634
 1885SOL    HW1 6554   0.071   1.861   0.649
 1885SOL    HW2 6555   0.197   1.940   0.717
 1886SOL     OW 6556   1.985   1.784   0.363
 1886SOL    HW1 6557   1.959   1.706   0.306
 1886SOL    HW2 6558   2.084   1.799   0.355
 1887SOL     OW 6559   0.571   3.924   5.536
 1887SOL    HW1 6560   0.620   3.860   5.477
 1887SOL    HW2 6561   0.613   4.014   5.531
 1888SOL     OW 6562   2.335   1.470   6.600
 1888SOL    HW1 6563   2.333   1.561   6.640
 1888SOL    HW2 6564   2.419   1.459   6.546
 1889SOL     OW 6565   4.216   3.776   6.345
 1889SOL    HW1 6566   4.241   3.685   6.379
 1889SOL    HW2 6567   4.298   3.824   6.315
 1890SOL     OW 6568   1.334   5.629   6.153
 1890SOL    HW1 6569   1.299   5.718   6.122
 1890SOL    HW2 6570   1.374   5.580   6.076
 1891SOL     OW 6571   5.148   3.081   3.828
 1891SOL    HW1 6572   5.147   3.019   3.906
 1891SOL    HW2 6573   5.054   3.094   3.795
 1892SOL     OW 6574   3.481   6.435   1.184
 1892SOL    HW1 6575   3.465   6.520   1.235
 1892SOL    HW2 6576   3.423   6.363   1.220
 1893SOL     OW 6577   3.723   2.050   4.954
 1893SOL    HW1 6578   3.641   2.107   4.945
 1893SOL    HW2 6579   3.778   2.058   4.871
 1894SOL     OW 6580   4.600   3.204   1.338
 1894SOL    HW1 6581   4.693   3.191   1.305
 1894SOL    HW2 6582   4.535   3.165   1.273
 1895SOL     OW 6583   6.265   0.502   2.662
 1895SOL    HW1 6584   6.285   0.480   2.758
 1895SOL    HW2 6585   6.301   0.431   2.603
 1896SOL     OW 6586   0.013   0.900   2.932
 1896SOL    HW1 6587   0.094   0.875   2.985
 1896SOL    HW2 6588   6.983   0.970   2.982
 1897SOL     OW 6589   6.806   5.087   2.937
 1897SOL    HW1 6590   6.857   5.172   2.945
 1897SOL    HW2 6591   6.826   5.045   2.848
 1898SOL     OW 6592   3.766   6.242   1.915
 1898SOL    HW1 6593   3.739   6.328   1.871
 1898SOL    HW2 6594   3.779   6.171   1.845
 1899SOL     OW 6595   1.395   2.921   2.497
 1899SOL    HW1 6596   1.369   3.001   2.443
 1899SOL    HW2 6597   1.352   2.926   2.587
 1900SOL     OW 6598   1.021   0.186   5.925
 1900SOL    HW1 6599   1.073   0.144   5.850
 1900SOL    HW2 6600   1.047   0.144   6.011
 1901SOL     OW 6601   2.230   1.112   1.395
 1901SOL    HW1 6602   2.159   1.075   1.334
 1901SOL    HW2 6603   2.305   1.149   1.339
 1902SOL     OW 6604   2.091   2.348   5.091
 1902SOL    HW1 6605   2.186   2.380   5.090
 1902SOL    HW2 6606   2.090   2.250   5.112
 1903SOL     OW 6607   6.901   3.852   3.972
 1903SOL    HW1 6608   6.896   3.932   4.030
 1903SOL    HW2 6609   6.887   3.769   4.027
 1904SOL     OW 6610   6.651   0.536   4.148
 1904SOL    HW1 6611   6.567   0.509   4.196
 1904SOL    HW2 6612   6.718   0.568   4.215
 1905SOL     OW 6613   0.450   2.064   3.991
 1905SOL    HW1 6614   0.524   2.003   4.020
 1905SOL    HW2 6615   0.363   2.016   3.997
 1906SOL     OW 6616   2.525   6.687   5.736
 1906SOL    HW1 6617   2.602   6.626   5.720
 1906SOL    HW2 6618   2.490   6.722   5.649
 1907SOL     OW 6619   3.423   6.759   3.260
 1907SOL    HW1 6620   3.486   6.811   3.318
 1907SOL    HW2 6621   3.432   6.791   3.166
 1908SOL     OW 6622   4.457   0.873   5.065
 1908SOL    HW1 6623   4.359   0.863   5.079
 1908SOL    HW2 6624   4.487   0.817   4.988
 1909SOL     OW 6625   1.684   4.406   3.357
 1909SOL    HW1 6626   1.774   4.442   3.382
 1909SOL    HW2 6627   1.619   4.425   3.431
 1910SOL     OW 6628   5.874   2.207   6.646
 1910SOL    HW1 6629   5.820   2.124   6.631
 1910SOL    HW2 6630   5.894   2.216   6.744
 1911SOL     OW 6631   5.773   1.584   5.665
 1911SOL    HW1 6632   5.847   1.652   5.668
 1911SOL    HW2 6633   5.808   1.499   5.624
 1912SOL     OW 6634   4.138   6.498   2.103
 1912SOL    HW1 6635   4.133   6.529   2.008
 1912SOL    HW2 6636   4.088   6.412   2.112
 1913SOL     OW 6637   1.779   6.255   5.345
 1913SOL    HW1 6638   1.829   6.325   5.295
 1913SOL    HW2 6639   1.797   6.264   5.443
 1914SOL     OW 6640   2.739   2.833   0.138
 1914SOL    HW1 6641   2.804   2.854   0.065
 1914SOL    HW2 6642   2.787   2.829   0.226
 1915SOL     OW 6643   3.454   1.455   5.392
 1915SOL    HW1 6644   3.382   1.408   5.341
 1915SOL    HW2 6645   3.533   1.471   5.333
 1916SOL     OW 6646   3.482   5.819   0.540
 1916SOL    HW1 6647   3.437   5.846   0.625
 1916SOL    HW2 6648   3.534   5.735   0.555
 1917SOL     OW 6649   4.060   3.228   4.446
 1917SOL    HW1 6650   4.027   3.205   4.355
 1917SOL    HW2 6651   4.060   3.328   4.457
 1918SOL     OW 6652   6.651   6.889   6.867
 1918SOL    HW1 6653   6.691   6.798   6.874
 1918SOL    HW2 6654   6.672   6.929   6.778
 1919SOL     OW 6655   1.604   6.527   2.415
 1919SOL    HW1 6656   1.580   6.432   2.400
 1919SOL    HW2 6657   1.550   6.585   2.355
 1920SOL     OW 6658   0.718   5.008   3.773
 1920SOL    HW1 6659   0.730   5.102   3.803
 1920SOL    HW2 6660   0.624   4.978   3.793
 1921SOL     OW 6661   0.983   4.231   0.437
 1921SOL    HW1 6662   1.042   4.283   0.498
 1921SOL    HW2 6663   0.952   4.290   0.362
 1922SOL     OW 6664   3.651   4.057   1.189
 1922SOL    HW1 6665   3.617   3.967   1.161
 1922SOL    HW2 6666   3.696   4.101   1.111
 1923SOL     OW 6667   2.998   0.560   0.143
 1923SOL    HW1 6668   3.010   0.630   0.073
 1923SOL    HW2 6669   3.086   0.513   0.158
 1924SOL     OW 6670   5.549   5.501   2.429
 1924SOL    HW1 6671   5.526   5.477   2.523
 1924SOL    HW2 6672   5.520   5.427   2.368
 1925SOL     OW 6673   2.916   3.714   2.053
 1925SOL    HW1 6674   2.999   3.757   2.018
 1925SOL    HW2 6675   2.926   3.614   2.051
 1926SOL     OW 6676   1.209   6.824   4.136
 1926SOL    HW1 6677   1.131   6.765   4.114
 1926SOL    HW2 6678   1.231   6.815   4.233
 1927SOL     OW 6679   3.255   5.178   6.200
 1927SOL    HW1 6680   3.177   5.176   6.137
 1927SOL    HW2 6681   3.322   5.108   6.173
 1928SOL     OW 6682   6.618   3.270   6.214
 1928SOL    HW1 6683   6.700   3.290   6.162
 1928SOL    HW2 6684   6.544   3.332   6.185
 1929SOL     OW 6685   0.652   5.974   1.180
 1929SOL    HW1 6686   0.678   6.026   1.261
 1929SOL    HW2 6687   0.730   5.968   1.117
 1930SOL     OW 6688   4.045   4.295   0.058
 1930SOL    HW1 6689   4.045   4.196   0.062
 1930SOL    HW2 6690   3.992   4.333   0.133
 1931SOL     OW 6691   0.238   3.258   3.932
 1931SOL    HW1 6692   0.201   3.165   3.928
 1931SOL    HW2 6693   0.210   3.302   4.017
 1932SOL     OW 6694   5.005   4.216   2.416
 1932SOL    HW1 6695   5.027   4.235   2.320
 1932SOL    HW2 6696   5.087   4.188   2.465
 1933SOL     OW 6697   2.964   4.415   0.356
 1933SOL    HW1 6698   2.933   4.449   0.445
 1933SOL    HW2 6699   3.034   4.344   0.371
 1934SOL     OW 6700   0.421   0.640   5.338
 1934SOL    HW1 6701   0.461   0.597   5.257
 1934SOL    HW2 6702   0.348   0.583   5.374
 1935SOL     OW 6703   3.355   0.268   5.011
 1935SOL    HW1 6704   3.307   0.204   4.951
 1935SOL    HW2 6705   3.350   0.360   4.973
 1936SOL     OW 6706   6.100   4.006   4.031
 1936SOL    HW1 6707   6.055   4.014   3.942
 1936SOL    HW2 6708   6.195   4.035   4.024
 1937SOL     OW 6709   4.599   6.452   1.019
 1937SOL    HW1 6710   4.599   6.375   0.955
 1937SOL    HW2 6711   4.505   6.474   1.044
 1938SOL     OW 6712   3.849   1.401   2.967
 1938SOL    HW1 6713   3.939   1.443   2.964
 1938SOL    HW2 6714   3.839   1.339   2.889
 1939SOL     OW 6715   0.245   6.454   4.760
 1939SOL    HW1 6716   0.291   6.504   4.834
 1939SOL    HW2 6717   0.160   6.414   4.795
 1940SOL     OW 6718   5.210   4.980   6.176
 1940SOL    HW1 6719   5.255   4.907   6.227
 1940SOL    HW2 6720   5.123   5.003   6.220
 1941SOL     OW 6721   0.128   3.766   3.403
 1941SOL    HW1 6722   0.164   3.680   3.366
 1941SOL    HW2 6723   0.042   3.787   3.359
 1942SOL     OW 6724   6.036   0.565   3.158
 1942SOL    HW1 6725   6.092   0.566   3.241
 1942SOL    HW2 6726   5.996   0.655   3.143
 1943SOL     OW 6727   3.135   6.097   2.700
 1943SOL    HW1 6728   3.221   6.110   2.650
 1943SOL    HW2 6729   3.058   6.123   2.641
 1944SOL     OW 6730   5.261   2.398   6.579
 1944SOL    HW1 6731   5.236   2.365   6.670
 1944SOL    HW2 6732   5.207   2.350   6.510
 1945SOL     OW 6733   4.027   5.873   2.446
 1945SOL    HW1 6734   3.953   5.881   2.512
 1945SOL    HW2 6735   4.106   5.831   2.490
 1946SOL     OW 6736   6.112   0.666   0.715
 1946SOL    HW1 6737   6.047   0.683   0.789
 1946SOL    HW2 6738   6.201   0.706   0.738
 1947SOL     OW 6739   4.913   6.585   3.922
 1947SOL    HW1 6740   4.987   6.584   3.989
 1947SOL    HW2 6741   4.856   6.665   3.936
 1948SOL     OW 6742   6.241   5.932   4.110
 1948SOL    HW1 6743   6.295   5.967   4.034
 1948SOL    HW2 6744   6.246   5.832   4.111
 1949SOL     OW 6745   4.684   4.533   5.847
 1949SOL    HW1 6746   4.779   4.503   5.842
 1949SOL    HW2 6747   4.631   4.488   5.776
 1950SOL     OW 6748   3.331   4.378   1.055
 1950SOL    HW1 6749   3.332   4.477   1.042
 1950SOL    HW2 6750   3.241   4.342   1.030
 1951SOL     OW 6751   6.313   3.843   0.781
 1951SOL    HW1 6752   6.385   3.821   0.846
 1951SOL    HW2 6753   6.304   3.768   0.714
 1952SOL     OW 6754   3.791   2.443   0.347
 1952SOL    HW1 6755   3.803   2.344   0.339
 1952SOL    HW2 6756   3.824   2.488   0.264
 1953SOL     OW 6757   6.534   2.920   0.135
 1953SOL    HW1 6758   6.581   2.832   0.138
 1953SOL    HW2 6759   6.458   2.920   0.200
 1954SOL     OW 6760   5.576   1.004   3.953
 1954SOL    HW1 6761   5.545   1.072   4.018
 1954SOL    HW2 6762   5.508   0.930   3.947
 1955SOL     OW 6763   1.848   1.246   2.679
 1955SOL    HW1 6764   1.892   1.319   2.627
 1955SOL    HW2 6765   1.750   1.245   2.658
 1956SOL     OW 6766   5.707   0.478   2.504
 1956SOL    HW1 6767   5.800   0.443   2.490
 1956SOL    HW2 6768   5.647   0.402   2.531
 1957SOL     OW 6769   6.722   5.714   5.106
 1957SOL    HW1 6770   6.707   5.749   5.199
 1957SOL    HW2 6771   6.646   5.655   5.080
 1958SOL     OW 6772   6.058   2.705   3.398
 1958SOL    HW1 6773   6.028   2.798   3.419
 1958SOL    HW2 6774   5.989   2.660   3.342
 1959SOL     OW 6775   0.247   1.393   6.162
 1959SOL    HW1 6776   0.331   1.395   6.215
 1959SOL    HW2 6777   0.234   1.481   6.116
 1960SOL     OW 6778   6.913   3.931   1.080
 1960SOL    HW1 6779   6.816   3.918   1.101
 1960SOL    HW2 6780   6.944   4.018   1.119
 1961SOL     OW 6781   6.154   4.738   4.315
 1961SOL    HW1 6782   6.148   4.638   4.326
 1961SOL    HW2 6783   6.084   4.782   4.371
 1962SOL     OW 6784   2.612   6.530   3.603
 1962SOL    HW1 6785   2.704   6.522   3.565
 1962SOL    HW2 6786   2.550   6.470   3.554
 1963SOL     OW 6787   0.712   0.941   1.292
 1963SOL    HW1 6788   0.682   0.940   1.388
 1963SOL    HW2 6789   0.767   1.022   1.275
 1964SOL     OW 6790   4.422   3.065   1.694
 1964SOL    HW1 6791   4.491   3.038   1.760
 1964SOL    HW2 6792   4.461   3.132   1.630
 1965SOL     OW 6793   0.819   3.562   3.508
 1965SOL    HW1 6794   0.867   3.557   3.596
 1965SOL    HW2 6795   0.740   3.501   3.511
 1966SOL     OW 6796   6.808   5.814   5.739
 1966SOL    HW1 6797   6.800   5.765   5.826
 1966SOL    HW2 6798   6.753   5.898   5.744
 1967SOL     OW 6799   4.896   2.291   4.935
 1967SOL    HW1 6800   4.896   2.381   4.978
 1967SOL    HW2 6801   4.870   2.301   4.839
 1968SOL     OW 6802   3.306   6.294   0.324
 1968SOL    HW1 6803   3.228   6.286   0.262
 1968SOL    HW2 6804   3.347   6.203   0.338
 1969SOL     OW 6805   0.819   1.951   1.738
 1969SOL    HW1 6806   0.745   1.971   1.802
 1969SOL    HW2 6807   0.811   1.857   1.705
 1970SOL     OW 6808   2.467   0.098   6.044
 1970SOL    HW1 6809   2.473   0.154   6.126
 1970SOL    HW2 6810   2.379   0.051   6.042
 1971SOL     OW 6811   6.741   0.196   6.396
 1971SOL    HW1 6812   6.663   0.179   6.337
 1971SOL    HW2 6813   6.751   0.294   6.412
 1972SOL     OW 6814   5.771   2.687   3.013
 1972SOL    HW1 6815   5.841   2.631   3.058
 1972SOL    HW2 6816   5.723   2.742   3.081
 1973SOL     OW 6817   2.197   3.494   0.307
 1973SOL    HW1 6818   2.254   3.457   0.381
 1973SOL    HW2 6819   2.213   3.442   0.223
 1974SOL     OW 6820   6.288   6.410   4.223
 1974SOL    HW1 6821   6.329   6.407   4.131
 1974SOL    HW2 6822   6.200   6.456   4.218
 1975SOL     OW 6823   2.714   1.554   2.918
 1975SOL    HW1 6824   2.787   1.489   2.896
 1975SOL    HW2 6825   2.634   1.505   2.951
 1976SOL     OW 6826   0.398   5.706   6.986
 1976SOL    HW1 6827   0.327   5.664   0.021
 1976SOL    HW2 6828   0.356   5.763   6.916
 1977SOL     OW 6829   1.208   3.439   3.448
 1977SOL    HW1 6830   1.120   3.414   3.488
 1977SOL    HW2 6831   1.261   3.357   3.430
 1978SOL     OW 6832   0.830   1.133   3.641
 1978SOL    HW1 6833   0.927   1.154   3.658
 1978SOL    HW2 6834   0.815   1.035   3.656
 1979SOL     OW 6835   6.305   4.256   5.507
 1979SOL    HW1 6836   6.349   4.166   5.514
 1979SOL    HW2 6837   6.251   4.259   5.423
 1980SOL     OW 6838   2.739   0.628   6.028
 1980SOL    HW1 6839   2.673   0.661   5.961
 1980SOL    HW2 6840   2.704   0.643   6.120
 1981SOL     OW 6841   6.377   2.335   2.613
 1981SOL    HW1 6842   6.365   2.430   2.641
 1981SOL    HW2 6843   6.337   2.321   2.523
 1982SOL     OW 6844   0.339   3.955   5.331
 1982SOL    HW1 6845   0.260   3.894   5.332
 1982SOL    HW2 6846   0.368   3.974   5.424
 1983SOL     OW 6847   0.671   1.220   3.013
 1983SOL    HW1 6848   0.604   1.225   3.087
 1983SOL    HW2 6849   0.745   1.284   3.030
 1984SOL     OW 6850   5.431   1.422   4.801
 1984SOL    HW1 6851   5.457   1.326   4.791
 1984SOL    HW2 6852   5.444   1.450   4.896
 1985SOL     OW 6853   0.848   6.891   2.525
 1985SOL    HW1 6854   0.760   6.874   2.482
 1985SOL    HW2 6855   0.838   6.887   2.624
 1986SOL     OW 6856   1.511   0.462   6.798
 1986SOL    HW1 6857   1.479   0.555   6.783
 1986SOL    HW2 6858   1.442   0.411   6.849
 1987SOL     OW 6859   1.103   3.043   0.826
 1987SOL    HW1 6860   1.131   2.969   0.765
 1987SOL    HW2 6861   1.117   3.015   0.921
 1988SOL     OW 6862   5.304   4.878   1.117
 1988SOL    HW1 6863   5.232   4.891   1.185
 1988SOL    HW2 6864   5.268   4.899   1.026
 1989SOL     OW 6865   2.133   6.658   4.798
 1989SOL    HW1 6866   2.114   6.724   4.870
 1989SOL    HW2 6867   2.231   6.639   4.795
 1990SOL     OW 6868   2.845   6.340   0.685
 1990SOL    HW1 6869   2.801   6.269   0.739
 1990SOL    HW2 6870   2.944   6.324   0.682
 1991SOL     OW 6871   4.153   5.161   6.340
 1991SOL    HW1 6872   4.238   5.189   6.297
 1991SOL    HW2 6873   4.077   5.214   6.302
 1992SOL     OW 6874   0.525   0.090   6.595
 1992SOL    HW1 6875   0.575   0.169   6.629
 1992SOL    HW2 6876   0.440   0.119   6.551
 1993SOL     OW 6877   3.664   3.490   4.363
 1993SOL    HW1 6878   3.736   3.528   4.422
 1993SOL    HW2 6879   3.678   3.391   4.355
 1994SOL     OW 6880   1.422   1.698   0.456
 1994SOL    HW1 6881   1.335   1.722   0.499
 1994SOL    HW2 6882   1.498   1.720   0.518
 1995SOL     OW 6883   6.470   2.163   2.185
 1995SOL    HW1 6884   6.404   2.091   2.205
 1995SOL    HW2 6885   6.549   2.154   2.246
 1996SOL     OW 6886   2.573   3.886   0.864
 1996SOL    HW1 6887   2.521   3.861   0.782
 1996SOL    HW2 6888   2.559   3.982   0.885
 1997SOL     OW 6889   4.448   0.411   5.218
 1997SOL    HW1 6890   4.422   0.353   5.295
 1997SOL    HW2 6891   4.368   0.427   5.160
 1998SOL     OW 6892   3.181   3.749   6.322
 1998SOL    HW1 6893   3.143   3.708   6.405
 1998SOL    HW2 6894   3.278   3.768   6.335
 1999SOL     OW 6895   3.438   6.513   1.524
 1999SOL    HW1 6896   3.455   6.459   1.607
 1999SOL    HW2 6897   3.377   6.462   1.464
 2000SOL     OW 6898   4.392   2.156   5.115
 2000SOL    HW1 6899   4.410   2.059   5.124
 2000SOL    HW2 6900   4.477   2.207   5.122
 2001SOL     OW 6901   3.517   1.536   1.756
 2001SOL    HW1 6902   3.555   1.560   1.667
 2001SOL    HW2 6903   3.417   1.542   1.752
 2002SOL     OW 6904   0.930   5.051   5.977
 2002SOL    HW1 6905   0.972   5.129   6.024
 2002SOL    HW2 6906   0.830   5.061   5.979
 2003SOL     OW 6907   5.939   6.675   3.517
 2003SOL    HW1 6908   5.902   6.759   3.558
 2003SOL    HW2 6909   5.980   6.697   3.428
 2004SOL     OW 6910   4.233   1.397   5.240
 2004SOL    HW1 6911   4.187   1.476   5.280
 2004SOL    HW2 6912   4.213   1.392   5.143
 2005SOL     OW 6913   0.936   4.429   6.644
 2005SOL    HW1 6914   0.984   4.457   6.561
 2005SOL    HW2 6915   0.983   4.350   6.684
 2006SOL     OW 6916   5.746   4.809   4.376
 2006SOL    HW1 6917   5.766   4.847   4.286
 2006SOL    HW2 6918   5.818   4.834   4.440
 2007SOL     OW 6919   4.332   5.035   0.935
 2007SOL    HW1 6920   4.343   5.081   1.023
 2007SOL    HW2 6921   4.271   4.956   0.946
 2008SOL     OW 6922   1.232   5.684   2.855
 2008SOL    HW1 6923   1.261   5.778   2.834
 2008SOL    HW2 6924   1.171   5.652   2.782
 2009SOL     OW 6925   6.229   0.084   1.511
 2009SOL    HW1 6926   6.197   0.007   1.456
 2009SOL    HW2 6927   6.178   0.166   1.487
 2010SOL     OW 6928   1.843   1.636   1.365
 2010SOL    HW1 6929   1.801   1.624   1.455
 2010SOL    HW2 6930   1.903   1.716   1.367
 2011SOL     OW 6931   6.507   1.334   5.076
 2011SOL    HW1 6932   6.424   1.389   5.071
 2011SOL    HW2 6933   6.587   1.393   5.069
 2012SOL     OW 6934   1.434   2.860   1.544
 2012SOL    HW1 6935   1.452   2.883   1.640
 2012SOL    HW2 6936   1.361   2.791   1.540
 2013SOL     OW 6937   6.206   0.974   3.418
 2013SOL    HW1 6938   6.234   0.905   3.484
 2013SOL    HW2 6939   6.120   0.947   3.375
 2014SOL     OW 6940   1.942   5.279   2.955
 2014SOL    HW1 6941   1.898   5.357   2.999
 2014SOL    HW2 6942   1.884   5.245   2.881
 2015SOL     OW 6943   2.294   2.115   0.549
 2015SOL    HW1 6944   2.221   2.074   0.494
 2015SOL    HW2 6945   2.383   2.083   0.516
 2016SOL     OW 6946   0.970   5.286   5.091
 2016SOL    HW1 6947   0.928   5.232   5.017
 2016SOL    HW2 6948   1.070   5.285   5.079
 2017SOL     OW 6949   2.438   6.914   4.445
 2017SOL    HW1 6950   2.499   6.993   4.441
 2017SOL    HW2 6951   2.466   6.847   4.376
 2018SOL     OW 6952   5.916   0.077   6.142
 2018SOL    HW1 6953   5.834   0.133   6.155
 2018SOL    HW2 6954   5.890   7.011   6.100
 2019SOL     OW 6955   5.016   2.332   2.528
 2019SOL    HW1 6956   5.073   2.300   2.452
 2019SOL    HW2 6957   4.930   2.281   2.529
 2020SOL     OW 6958   0.774   5.532   5.489
 2020SOL    HW1 6959   0.865   5.549   5.526
 2020SOL    HW2 6960   0.758   5.591   5.410
 2021SOL     OW 6961   2.220   5.303   2.922
 2021SOL    HW1 6962   2.275   5.316   2.839
 2021SOL    HW2 6963   2.123   5.296   2.897
 2022SOL     OW 6964   1.854   3.397   3.229
 2022SOL    HW1 6965   1.948   3.364   3.230
 2022SOL    HW2 6966   1.793   3.326   3.263
 2023SOL     OW 6967   6.287   1.240   6.439
 2023SOL    HW1 6968   6.265   1.259   6.343
 2023SOL    HW2 6969   6.282   1.142   6.455
 2024SOL     OW 6970   6.907   6.841   3.207
 2024SOL    HW1 6971   6.943   6.839   3.300
 2024SOL    HW2 6972   6.861   6.928   3.191
 2025SOL     OW 6973   2.361   2.738   2.214
 2025SOL    HW1 6974   2.431   2.798   2.252
 2025SOL    HW2 6975   2.321   2.780   2.133
 2026SOL     OW 6976   0.996   2.714   6.001
 2026SOL    HW1 6977   0.977   2.769   5.919
 2026SOL    HW2 6978   1.025   2.774   6.075
 2027SOL     OW 6979   0.961   1.454   0.364
 2027SOL    HW1 6980   0.941   1.414   0.453
 2027SOL    HW2 6981   0.979   1.381   0.298
 2028SOL     OW 6982   2.909   1.197   6.132
 2028SOL    HW1 6983   2.975   1.133   6.171
 2028SOL    HW2 6984   2.886   1.168   6.039
 2029SOL     OW 6985   6.823   0.631   0.758
 2029SOL    HW1 6986   6.857   0.725   0.751
 2029SOL    HW2 6987   6.739   0.630   0.811
 2030SOL     OW 6988   2.466   0.369   3.427
 2030SOL    HW1 6989   2.516   0.388   3.342
 2030SOL    HW2 6990   2.468   0.449   3.486
 2031SOL     OW 6991   5.647   6.241   2.047
 2031SOL    HW1 6992   5.570   6.286   2.002
 2031SOL    HW2 6993   5.676   6.295   2.126
 2032SOL     OW 6994   4.220   6.803   1.704
 2032SOL    HW1 6995   4.149   6.839   1.644
 2032SOL    HW2 6996   4.299   6.864   1.704
 2033SOL     OW 6997   3.810   4.005   6.867
 2033SOL    HW1 6998   3.798   3.908   6.845
 2033SOL    HW2 6999   3.743   4.059   6.816
 2034SOL     OW 7000   3.172   6.633   4.398
 2034SOL    HW1 7001   3.143   6.658   4.490
 2034SOL    HW2 7002   3.269   6.606   4.400
 2035SOL     OW 7003   0.373   0.516   2.163
 2035SOL    HW1 7004   0.373   0.605   2.116
 2035SOL    HW2 7005   0.300   0.514   2.230
 2036SOL     OW 7006   1.033   5.389   2.808
 2036SOL    HW1 7007   1.100   5.318   2.831
 2036SOL    HW2 7008   0.946   5.346   2.783
 2037SOL     OW 7009   0.687   2.884   6.001
 2037SOL    HW1 7010   0.713   2.977   5.974
 2037SOL    HW2 7011   0.716   2.819   5.930
 2038SOL     OW 7012   1.874   2.026   0.020
 2038SOL    HW1 7013   1.854   2.056   0.114
 2038SOL    HW2 7014   1.968   2.050   7.019
 2039SOL     OW 7015   0.316   5.200   2.833
 2039SOL    HW1 7016   0.291   5.176   2.927
 2039SOL    HW2 7017   0.265   5.142   2.770
 2040SOL     OW 7018   4.022   3.111   5.184
 2040SOL    HW1 7019   4.051   3.026   5.228
 2040SOL    HW2 7020   3.954   3.091   5.113
 2041SOL     OW 7021   6.718   5.670   5.951
 2041SOL    HW1 7022   6.648   5.739   5.970
 2041SOL    HW2 7023   6.678   5.578   5.962
 2042SOL     OW 7024   5.919   4.613   0.101
 2042SOL    HW1 7025   5.833   4.582   0.061
 2042SOL    HW2 7026   5.967   4.672   0.036
 2043SOL     OW 7027   6.562   4.521   3.043
 2043SOL    HW1 7028   6.568   4.501   2.945
 2043SOL    HW2 7029   6.484   4.473   3.083
 2044SOL     OW 7030   5.182   6.947   1.539
 2044SOL    HW1 7031   5.150   6.858   1.507
 2044SOL    HW2 7032   5.255   6.980   1.479
 2045SOL     OW 7033   2.888   4.818   3.993
 2045SOL    HW1 7034   2.867   4.808   3.895
 2045SOL    HW2 7035   2.803   4.811   4.045
 2046SOL     OW 7036   0.338   1.480   3.773
 2046SOL    HW1 7037   0.289   1.515   3.854
 2046SOL    HW2 7038   0.431   1.454   3.799
 2047SOL     OW 7039   5.299   2.207   0.157
 2047SOL    HW1 7040   5.286   2.290   0.210
 2047SOL    HW2 7041   5.395   2.179   0.161
 2048SOL     OW 7042   1.441   5.905   0.590
 2048SOL    HW1 7043   1.515   5.838   0.594
 2048SOL    HW2 7044   1.436   5.956   0.675
 2049SOL     OW 7045   4.880   1.823   6.336
 2049SOL    HW1 7046   4.793   1.848   6.378
 2049SOL    HW2 7047   4.944   1.794   6.407
 2050SOL     OW 7048   0.657   3.052   2.892
 2050SOL    HW1 7049   0.644   3.000   2.808
 2050SOL    HW2 7050   0.621   3.000   2.970
 2051SOL     OW 7051   1.161   6.053   1.126
 2051SOL    HW1 7052   1.158   5.966   1.076
 2051SOL    HW2 7053   1.070   6.095   1.124
 2052SOL     OW 7054   0.781   4.132   0.837
 2052SOL    HW1 7055   0.744   4.068   0.904
 2052SOL    HW2 7056   0.872   4.102   0.808
 2053SOL     OW 7057   5.606   6.838   5.001
 2053SOL    HW1 7058   5.657   6.916   5.036
 2053SOL    HW2 7059   5.513   6.839   5.038
 2054SOL     OW 7060   4.110   3.438   2.025
 2054SOL    HW1 7061   4.136   3.446   2.122
 2054SOL    HW2 7062   4.060   3.519   1.997
 2055SOL     OW 7063   6.231   3.362   3.376
 2055SOL    HW1 7064   6.233   3.326   3.283
 2055SOL    HW2 7065   6.192   3.293   3.437
 2056SOL     OW 7066   2.386   0.315   3.048
 2056SOL    HW1 7067   2.424   0.224   3.036
 2056SOL    HW2 7068   2.299   0.309   3.098
 2057SOL     OW 7069   5.444   3.289   3.711
 2057SOL    HW1 7070   5.488   3.205   3.678
 2057SOL    HW2 7071   5.412   3.276   3.804
 2058SOL     OW 7072   0.885   1.885   3.028
 2058SOL    HW1 7073   0.863   1.951   3.100
 2058SOL    HW2 7074   0.828   1.903   2.948
 2059SOL     OW 7075   2.728   6.042   6.238
 2059SOL    HW1 7076   2.725   5.943   6.256
 2059SOL    HW2 7077   2.812   6.064   6.189
 2060SOL     OW 7078   5.836   4.594   0.877
 2060SOL    HW1 7079   5.839   4.495   0.893
 2060SOL    HW2 7080   5.862   4.613   0.783
 2061SOL     OW 7081   0.488   2.250   3.056
 2061SOL    HW1 7082   0.460   2.245   3.152
 2061SOL    HW2 7083   0.498   2.157   3.020
 2062SOL     OW 7084   6.158   0.087   3.668
 2062SOL    HW1 7085   6.175   0.023   3.743
 2062SOL    HW2 7086   6.072   0.135   3.685
 2063SOL     OW 7087   1.872   0.095   6.139
 2063SOL    HW1 7088   1.919   0.084   6.226
 2063SOL    HW2 7089   1.821   0.181   6.139
 2064SOL     OW 7090   0.782   2.707   5.648
 2064SOL    HW1 7091   0.743   2.697   5.556
 2064SOL    HW2 7092   0.778   2.619   5.695
 2065SOL     OW 7093   6.663   2.714   4.483
 2065SOL    HW1 7094   6.616   2.798   4.456
 2065SOL    HW2 7095   6.726   2.686   4.410
 2066SOL     OW 7096   0.947   5.758   3.273
 2066SOL    HW1 7097   0.984   5.698   3.343
 2066SOL    HW2 7098   0.869   5.808   3.310
 2067SOL     OW 7099   6.693   5.362   0.748
 2067SOL    HW1 7100   6.719   5.451   0.784
 2067SOL    HW2 7101   6.729   5.290   0.807
 2068SOL     OW 7102   1.422   1.407   5.329
 2068SOL    HW1 7103   1.520   1.390   5.327
 2068SOL    HW2 7104   1.391   1.415   5.424
 2069SOL     OW 7105   1.054   3.495   3.041
 2069SOL    HW1 7106   1.100   3.408   3.059
 2069SOL    HW2 7107   1.011   3.528   3.124
 2070SOL     OW 7108   1.244   0.589   1.913
 2070SOL    HW1 7109   1.319   0.563   1.974
 2070SOL    HW2 7110   1.158   0.588   1.965
 2071SOL     OW 7111   5.563   5.731   5.079
 2071SOL    HW1 7112   5.661   5.748   5.070
 2071SOL    HW2 7113   5.543   5.704   5.174
 2072SOL     OW 7114   4.299   0.105   3.061
 2072SOL    HW1 7115   4.213   0.146   3.092
 2072SOL    HW2 7116   4.323   0.142   2.972
 2073SOL     OW 7117   4.136   6.761   4.361
 2073SOL    HW1 7118   4.221   6.805   4.332
 2073SOL    HW2 7119   4.091   6.817   4.431
 2074SOL     OW 7120   1.590   3.072   0.381
 2074SOL    HW1 7121   1.581   3.000   0.312
 2074SOL    HW2 7122   1.687   3.095   0.394
 2075SOL     OW 7123   5.472   3.334   1.377
 2075SOL    HW1 7124   5.501   3.428   1.398
 2075SOL    HW2 7125   5.442   3.330   1.281
 2076SOL     OW 7126   5.284   0.029   6.771
 2076SOL    HW1 7127   5.191   7.013   6.774
 2076SOL    HW2 7128   5.345   6.986   6.726
 2077SOL     OW 7129   5.732   2.939   2.550
 2077SOL    HW1 7130   5.664   2.884   2.599
 2077SOL    HW2 7131   5.707   3.035   2.554
 2078SOL     OW 7132   1.101   5.526   6.192
 2078SOL    HW1 7133   1.081   5.530   6.290
 2078SOL    HW2 7134   1.184   5.579   6.173
 2079SOL     OW 7135   5.247   2.312   3.777
 2079SOL    HW1 7136   5.265   2.340   3.682
 2079SOL    HW2 7137   5.333   2.286   3.820
 2080SOL     OW 7138   1.583   0.811   4.584
 2080SOL    HW1 7139   1.530   0.829   4.667
 2080SOL    HW2 7140   1.567   0.718   4.553
 2081SOL     OW 7141   1.279   5.506   4.123
 2081SOL    HW1 7142   1.342   5.581   4.107
 2081SOL    HW2 7143   1.208   5.506   4.052
 2082SOL     OW 7144   0.286   6.917   3.417
 2082SOL    HW1 7145   0.283   6.978   3.337
 2082SOL    HW2 7146   0.288   6.822   3.386
 2083SOL     OW 7147   6.107   4.720   6.597
 2083SOL    HW1 7148   6.142   4.813   6.615
 2083SOL    HW2 7149   6.171   4.671   6.538
 2084SOL     OW 7150   1.455   3.609   4.122
 2084SOL    HW1 7151   1.474   3.533   4.184
 2084SOL    HW2 7152   1.385   3.668   4.162
 2085SOL     OW 7153   4.407   0.558   6.593
 2085SOL    HW1 7154   4.343   0.516   6.658
 2085SOL    HW2 7155   4.470   0.617   6.643
 2086SOL     OW 7156   3.793   6.810   5.622
 2086SOL    HW1 7157   3.759   6.883   5.682
 2086SOL    HW2 7158   3.736   6.728   5.634
 2087SOL     OW 7159   5.014   0.504   1.436
 2087SOL    HW1 7160   5.059   0.557   1.508
 2087SOL    HW2 7161   4.915   0.505   1.451
 2088SOL     OW 7162   2.506   6.033   0.069
 2088SOL    HW1 7163   2.505   5.954   0.008
 2088SOL    HW2 7164   2.565   6.104   0.032
 2089SOL     OW 7165   5.551   2.282   6.270
 2089SOL    HW1 7166   5.511   2.266   6.360
 2089SOL    HW2 7167   5.631   2.342   6.279
 2090SOL     OW 7168   3.557   3.166   5.787
 2090SOL    HW1 7169   3.629   3.097   5.785
 2090SOL    HW2 7170   3.515   3.174   5.697
 2091SOL     OW 7171   6.932   5.684   0.656
 2091SOL    HW1 7172   6.990   5.632   0.719
 2091SOL    HW2 7173   6.961   5.666   0.562
 2092SOL     OW 7174   5.698   4.435   0.006
 2092SOL    HW1 7175   5.662   4.369   0.072
 2092SOL    HW2 7176   5.625   4.496   6.997
 2093SOL     OW 7177   2.356   2.190   1.300
 2093SOL    HW1 7178   2.424   2.205   1.372
 2093SOL    HW2 7179   2.347   2.273   1.246
 2094SOL     OW 7180   5.718   2.150   1.424
 2094SOL    HW1 7181   5.733   2.148   1.523
 2094SOL    HW2 7182   5.620   2.143   1.405
 2095SOL     OW 7183   5.593   0.004   4.702
 2095SOL    HW1 7184   5.685   6.986   4.701
 2095SOL    HW2 7185   5.572   0.037   4.794
 2096SOL     OW 7186   4.670   4.226   2.649
 2096SOL    HW1 7187   4.706   4.215   2.556
 2096SOL    HW2 7188   4.693   4.144   2.703
 2097SOL     OW 7189   2.822   2.900   6.591
 2097SOL    HW1 7190   2.781   2.904   6.500
 2097SOL    HW2 7191   2.810   2.808   6.628
 2098SOL     OW 7192   4.251   5.779   2.551
 2098SOL    HW1 7193   4.337   5.830   2.550
 2098SOL    HW2 7194   4.267   5.685   2.519
 2099SOL     OW 7195   2.392   3.156   6.105
 2099SOL    HW1 7196   2.383   3.247   6.066
 2099SOL    HW2 7197   2.317   3.098   6.071
 2100SOL     OW 7198   4.579   2.461   6.359
 2100SOL    HW1 7199   4.566   2.408   6.275
 2100SOL    HW2 7200   4.661   2.428   6.406
 2101SOL     OW 7201   1.084   6.301   2.547
 2101SOL    HW1 7202   1.073   6.375   2.613
 2101SOL    HW2 7203   1.067   6.213   2.593
 2102SOL     OW 7204   6.618   4.626   2.167
 2102SOL    HW1 7205   6.598   4.689   2.091
 2102SOL    HW2 7206   6.598   4.670   2.254
 2103SOL     OW 7207   4.038   4.495   5.540
 2103SOL    HW1 7208   4.090   4.509   5.624
 2103SOL    HW2 7209   4.007   4.400   5.536
 2104SOL     OW 7210   2.246   3.625   1.145
 2104SOL    HW1 7211   2.336   3.598   1.179
 2104SOL    HW2 7212   2.227   3.719   1.173
 2105SOL     OW 7213   5.095   5.738   5.577
 2105SOL    HW1 7214   5.001   5.724   5.547
 2105SOL    HW2 7215   5.096   5.791   5.662
 2106SOL     OW 7216   4.621   4.167   1.239
 2106SOL    HW1 7217   4.632   4.086   1.297
 2106SOL    HW2 7218   4.637   4.249   1.294
 2107SOL     OW 7219   4.950   2.322   5.334
 2107SOL    HW1 7220   5.026   2.301   5.395
 2107SOL    HW2 7221   4.928   2.242   5.279
 2108SOL     OW 7222   6.649   5.985   5.310
 2108SOL    HW1 7223   6.666   5.910   5.374
 2108SOL    HW2 7224   6.552   6.010   5.312
 2109SOL     OW 7225   4.307   6.295   2.242
 2109SOL    HW1 7226   4.270   6.351   2.168
 2109SOL    HW2 7227   4.272   6.328   2.330
 2110SOL     OW 7228   2.623   1.776   0.005
 2110SOL    HW1 7229   2.606   1.812   6.935
 2110SOL    HW2 7230   2.591   1.681   0.010
 2111SOL     OW 7231   1.262   2.462   6.967
 2111SOL    HW1 7232   1.207   2.467   6.883
 2111SOL    HW2 7233   1.227   2.388   0.003
 2112SOL     OW 7234   5.305   3.330   0.314
 2112SOL    HW1 7235   5.296   3.269   0.392
 2112SOL    HW2 7236   5.398   3.367   0.311
 2113SOL     OW 7237   1.943   2.183   5.511
 2113SOL    HW1 7238   1.969   2.121   5.437
 2113SOL    HW2 7239   1.891   2.260   5.474
 2114SOL     OW 7240   1.430   2.408   0.314
 2114SOL    HW1 7241   1.407   2.312   0.294
 2114SOL    HW2 7242   1.493   2.442   0.244
 2115SOL     OW 7243   2.084   3.516   2.609
 2115SOL    HW1 7244   2.110   3.420   2.597
 2115SOL    HW2 7245   1.986   3.526   2.591
 2116SOL     OW 7246   6.900   4.913   3.146
 2116SOL    HW1 7247   6.860   4.821   3.141
 2116SOL    HW2 7248   6.881   4.963   3.062
 2117SOL     OW 7249   6.816   5.271   1.629
 2117SOL    HW1 7250   6.794   5.177   1.603
 2117SOL    HW2 7251   6.752   5.302   1.699
 2118SOL     OW 7252   6.232   3.527   2.089
 2118SOL    HW1 7253   6.197   3.511   1.996
 2118SOL    HW2 7254   6.278   3.616   2.093
 2119SOL     OW 7255   1.521   6.336   1.081
 2119SOL    HW1 7256   1.469   6.383   1.151
 2119SOL    HW2 7257   1.517   6.237   1.097
 2120SOL     OW 7258   6.524   5.199   4.226
 2120SOL    HW1 7259   6.544   5.101   4.223
 2120SOL    HW2 7260   6.583   5.247   4.161
 2121SOL     OW 7261   1.339   4.252   5.680
 2121SOL    HW1 7262   1.389   4.293   5.756
 2121SOL    HW2 7263   1.378   4.162   5.660
 2122SOL     OW 7264   5.497   3.826   6.466
 2122SOL    HW1 7265   5.490   3.752   6.532
 2122SOL    HW2 7266   5.590   3.862   6.466
 2123SOL     OW 7267   6.527   6.095   2.117
 2123SOL    HW1 7268   6.623   6.122   2.125
 2123SOL    HW2 7269   6.520   6.017   2.055
 2124SOL     OW 7270   3.080   1.909   1.834
 2124SOL    HW1 7271   3.037   1.995   1.863
 2124SOL    HW2 7272   3.076   1.843   1.909
 2125SOL     OW 7273   1.962   0.722   2.043
 2125SOL    HW1 7274   1.931   0.740   2.136
 2125SOL    HW2 7275   2.000   0.630   2.037
 2126SOL     OW 7276   3.497   1.538   6.454
 2126SOL    HW1 7277   3.414   1.483   6.445
 2126SOL    HW2 7278   3.476   1.622   6.504
 2127SOL     OW 7279   0.404   3.553   4.732
 2127SOL    HW1 7280   0.336   3.480   4.731
 2127SOL    HW2 7281   0.483   3.525   4.678
 2128SOL     OW 7282   7.002   3.423   3.843
 2128SOL    HW1 7283   0.047   3.463   3.778
 2128SOL    HW2 7284   6.920   3.395   3.793
 2129SOL     OW 7285   4.172   3.694   5.400
 2129SOL    HW1 7286   4.125   3.664   5.317
 2129SOL    HW2 7287   4.158   3.627   5.473
 2130SOL     OW 7288   3.428   0.493   2.250
 2130SOL    HW1 7289   3.469   0.528   2.334
 2130SOL    HW2 7290   3.449   0.395   2.241
 2131SOL     OW 7291   5.386   0.814   1.045
 2131SOL    HW1 7292   5.404   0.794   1.142
 2131SOL    HW2 7293   5.407   0.733   0.990
 2132SOL     OW 7294   3.217   0.731   1.776
 2132SOL    HW1 7295   3.190   0.637   1.797
 2132SOL    HW2 7296   3.258   0.772   1.857
 2133SOL     OW 7297   3.233   2.794   0.691
 2133SOL    HW1 7298   3.317   2.775   0.741
 2133SOL    HW2 7299   3.256   2.835   0.603
 2134SOL     OW 7300   0.162   1.755   6.428
 2134SOL    HW1 7301   0.111   1.680   6.386
 2134SOL    HW2 7302   0.123   1.776   6.517
 2135SOL     OW 7303   1.339   3.426   4.642
 2135SOL    HW1 7304   1.294   3.338   4.626
 2135SOL    HW2 7305   1.310   3.491   4.572
 2136SOL     OW 7306   1.869   3.609   3.462
 2136SOL    HW1 7307   1.962   3.640   3.442
 2136SOL    HW2 7308   1.837   3.550   3.388
 2137SOL     OW 7309   2.877   5.226   4.951
 2137SOL    HW1 7310   2.866   5.316   4.993
 2137SOL    HW2 7311   2.886   5.157   5.023
 2138SOL     OW 7312   6.488   0.371   2.909
 2138SOL    HW1 7313   6.570   0.428   2.913
 2138SOL    HW2 7314   6.409   0.424   2.941
 2139SOL     OW 7315   3.800   0.604   3.835
 2139SOL    HW1 7316   3.709   0.644   3.825
 2139SOL    HW2 7317   3.864   0.648   3.772
 2140SOL     OW 7318   3.817   6.446   3.642
 2140SOL    HW1 7319   3.833   6.352   3.613
 2140SOL    HW2 7320   3.826   6.452   3.741
 2141SOL     OW 7321   6.661   3.618   2.419
 2141SOL    HW1 7322   6.729   3.546   2.402
 2141SOL    HW2 7323   6.571   3.576   2.425
 2142SOL     OW 7324   1.989   1.687   3.061
 2142SOL    HW1 7325   1.911   1.667   3.002
 2142SOL    HW2 7326   1.982   1.632   3.145
 2143SOL     OW 7327   3.390   4.530   1.350
 2143SOL    HW1 7328   3.307   4.565   1.394
 2143SOL    HW2 7329   3.395   4.567   1.257
 2144SOL     OW 7330   1.295   5.683   3.826
 2144SOL    HW1 7331   1.371   5.639   3.778
 2144SOL    HW2 7332   1.217   5.620   3.828
 2145SOL     OW 7333   4.712   6.213   3.796
 2145SOL    HW1 7334   4.633   6.181   3.847
 2145SOL    HW2 7335   4.790   6.223   3.858
 2146SOL     OW 7336   2.568   3.828   1.707
 2146SOL    HW1 7337   2.632   3.892   1.665
 2146SOL    HW2 7338   2.498   3.879   1.758
 2147SOL     OW 7339   6.448   1.184   5.686
 2147SOL    HW1 7340   6.464   1.278   5.716
 2147SOL    HW2 7341   6.523   1.155   5.627
 2148SOL     OW 7342   6.266   3.181   5.434
 2148SOL    HW1 7343   6.287   3.086   5.414
 2148SOL    HW2 7344   6.329   3.241   5.384
 2149SOL     OW 7345   3.443   1.868   0.867
 2149SOL    HW1 7346   3.502   1.789   0.849
 2149SOL    HW2 7347   3.399   1.856   0.956
 2150SOL     OW 7348   2.648   2.420   1.951
 2150SOL    HW1 7349   2.732   2.395   2.001
 2150SOL    HW2 7350   2.669   2.432   1.854
 2151SOL     OW 7351   1.141   0.065   5.724
 2151SOL    HW1 7352   1.069   7.018   5.727
 2151SOL    HW2 7353   1.196   0.053   5.641
 2152SOL     OW 7354   2.989   5.979   2.055
 2152SOL    HW1 7355   2.945   6.068   2.069
 2152SOL    HW2 7356   3.059   5.965   2.125
 2153SOL     OW 7357   4.241   1.466   3.094
 2153SOL    HW1 7358   4.169   1.533   3.110
 2153SOL    HW2 7359   4.207   1.395   3.032
 2154SOL     OW 7360   4.947   0.891   5.025
 2154SOL    HW1 7361   4.936   0.987   5.052
 2154SOL    HW2 7362   4.869   0.862   4.969
 2155SOL     OW 7363   3.103   5.902   0.282
 2155SOL    HW1 7364   3.042   5.827   0.308
 2155SOL    HW2 7365   3.050   5.987   0.276
 2156SOL     OW 7366   1.534   1.689   5.161
 2156SOL    HW1 7367   1.569   1.667   5.070
 2156SOL    HW2 7368   1.438   1.661   5.167
 2157SOL     OW 7369   5.833   0.179   3.050
 2157SOL    HW1 7370   5.809   0.275   3.065
 2157SOL    HW2 7371   5.906   0.153   3.113
 2158SOL     OW 7372   3.637   6.094   1.175
 2158SOL    HW1 7373   3.638   5.995   1.192
 2158SOL    HW2 7374   3.729   6.123   1.148
 2159SOL     OW 7375   1.100   6.417   5.408
 2159SOL    HW1 7376   1.086   6.349   5.336
 2159SOL    HW2 7377   1.171   6.385   5.471
 2160SOL     OW 7378   4.372   3.951   0.188
 2160SOL    HW1 7379   4.322   3.922   0.107
 2160SOL    HW2 7380   4.311   4.001   0.249
 2161SOL     OW 7381   5.426   5.044   2.542
 2161SOL    HW1 7382   5.375   5.079   2.621
 2161SOL    HW2 7383   5.362   5.001   2.478
 2162SOL     OW 7384   2.376   0.871   2.101
 2162SOL    HW1 7385   2.286   0.900   2.070
 2162SOL    HW2 7386   2.420   0.816   2.030
 2163SOL     OW 7387   1.362   4.682   5.952
 2163SOL    HW1 7388   1.449   4.633   5.963
 2163SOL    HW2 7389   1.289   4.616   5.932
 2164SOL     OW 7390   1.736   2.504   6.829
 2164SOL    HW1 7391   1.754   2.599   6.805
 2164SOL    HW2 7392   1.648   2.497   6.876
 2165SOL     OW 7393   0.063   2.102   2.718
 2165SOL    HW1 7394   6.987   2.079   2.726
 2165SOL    HW2 7395   0.118   2.026   2.750
 2166SOL     OW 7396   1.368   2.341   5.053
 2166SOL    HW1 7397   1.458   2.297   5.057
 2166SOL    HW2 7398   1.313   2.313   5.132
 2167SOL     OW 7399   1.504   2.098   3.181
 2167SOL    HW1 7400   1.568   2.040   3.231
 2167SOL    HW2 7401   1.435   2.041   3.135
 2168SOL     OW 7402   0.807   2.214   3.651
 2168SOL    HW1 7403   0.886   2.211   3.590
 2168SOL    HW2 7404   0.776   2.121   3.670
 2169SOL     OW 7405   5.361   1.414   0.034
 2169SOL    HW1 7406   5.460   1.398   0.034
 2169SOL    HW2 7407   5.316   1.339   0.082
 2170SOL     OW 7408   6.952   4.099   5.470
 2170SOL    HW1 7409   6.890   4.060   5.538
 2170SOL    HW2 7410   6.942   4.051   5.383
 2171SOL     OW 7411   0.199   5.306   1.101
 2171SOL    HW1 7412   0.144   5.285   1.182
 2171SOL    HW2 7413   0.271   5.238   1.091
 2172SOL     OW 7414   2.106   2.301   7.008
 2172SOL    HW1 7415   2.019   2.336   0.021
 2172SOL    HW2 7416   2.148   2.368   6.947
 2173SOL     OW 7417   3.603   0.807   5.343
 2173SOL    HW1 7418   3.555   0.728   5.306
 2173SOL    HW2 7419   3.678   0.832   5.282
 2174SOL     OW 7420   5.255   5.555   5.346
 2174SOL    HW1 7421   5.331   5.618   5.327
 2174SOL    HW2 7422   5.204   5.588   5.425
 2175SOL     OW 7423   2.159   3.292   4.576
 2175SOL    HW1 7424   2.228   3.226   4.547
 2175SOL    HW2 7425   2.132   3.273   4.671
 2176SOL     OW 7426   6.489   2.195   0.926
 2176SOL    HW1 7427   6.396   2.231   0.923
 2176SOL    HW2 7428   6.524   2.183   0.833
 2177SOL     OW 7429   6.989   1.921   3.537
 2177SOL    HW1 7430   0.046   1.936   3.597
 2177SOL    HW2 7431   6.957   1.827   3.548
 2178SOL     OW 7432   2.293   1.920   1.384
 2178SOL    HW1 7433   2.340   2.005   1.359
 2178SOL    HW2 7434   2.360   1.851   1.409
 2179SOL     OW 7435   2.005   5.342   5.131
 2179SOL    HW1 7436   1.911   5.340   5.167
 2179SOL    HW2 7437   2.064   5.285   5.189
 2180SOL     OW 7438   1.876   2.319   1.611
 2180SOL    HW1 7439   1.869   2.389   1.540
 2180SOL    HW2 7440   1.969   2.281   1.611
 2181SOL     OW 7441   5.063   4.881   4.342
 2181SOL    HW1 7442   4.983   4.875   4.282
 2181SOL    HW2 7443   5.049   4.823   4.422
 2182SOL     OW 7444   1.541   4.015   4.061
 2182SOL    HW1 7445   1.504   4.044   3.973
 2182SOL    HW2 7446   1.604   3.939   4.048
 2183SOL     OW 7447   2.690   4.276   5.756
 2183SOL    HW1 7448   2.771   4.254   5.700
 2183SOL    HW2 7449   2.614   4.301   5.696
 2184SOL     OW 7450   4.084   1.712   6.392
 2184SOL    HW1 7451   4.137   1.634   6.356
 2184SOL    HW2 7452   4.027   1.681   6.467
 2185SOL     OW 7453   0.316   1.020   1.238
 2185SOL    HW1 7454   0.301   1.112   1.274
 2185SOL    HW2 7455   0.404   1.017   1.190
 2186SOL     OW 7456   0.371   6.025   1.705
 2186SOL    HW1 7457   0.374   6.037   1.804
 2186SOL    HW2 7458   0.276   6.021   1.675
 2187SOL     OW 7459   6.519   6.481   3.005
 2187SOL    HW1 7460   6.492   6.577   2.997
 2187SOL    HW2 7461   6.484   6.431   2.926
 2188SOL     OW 7462   0.161   6.080   4.753
 2188SOL    HW1 7463   0.245   6.121   4.717
 2188SOL    HW2 7464   0.111   6.147   4.808
 2189SOL     OW 7465   1.635   6.492   0.657
 2189SOL    HW1 7466   1.706   6.485   0.727
 2189SOL    HW2 7467   1.646   6.578   0.607
 2190SOL     OW 7468   0.251   3.595   2.273
 2190SOL    HW1 7469   0.240   3.569   2.177
 2190SOL    HW2 7470   0.207   3.684   2.289
 2191SOL     OW 7471   3.096   2.198   6.854
 2191SOL    HW1 7472   3.009   2.192   6.902
 2191SOL    HW2 7473   3.092   2.144   6.770
 2192SOL     OW 7474   4.809   1.230   2.426
 2192SOL    HW1 7475   4.882   1.165   2.404
 2192SOL    HW2 7476   4.847   1.322   2.427
 2193SOL     OW 7477   5.377   5.487   0.144
 2193SOL    HW1 7478   5.349   5.407   0.198
 2193SOL    HW2 7479   5.348   5.474   0.049
 2194SOL     OW 7480   2.468   4.263   5.579
 2194SOL    HW1 7481   2.487   4.169   5.605
 2194SOL    HW2 7482   2.393   4.265   5.512
 2195SOL     OW 7483   0.356   0.310   4.594
 2195SOL    HW1 7484   0.267   0.356   4.596
 2195SOL    HW2 7485   0.391   0.300   4.687
 2196SOL     OW 7486   3.038   6.839   5.088
 2196SOL    HW1 7487   3.002   6.912   5.145
 2196SOL    HW2 7488   3.002   6.751   5.118
 2197SOL     OW 7489   3.192   3.862   0.340
 2197SOL    HW1 7490   3.286   3.851   0.309
 2197SOL    HW2 7491   3.176   3.802   0.419
 2198SOL     OW 7492   5.343   0.859   0.409
 2198SOL    HW1 7493   5.419   0.921   0.390
 2198SOL    HW2 7494   5.328   0.854   0.507
 2199SOL     OW 7495   4.494   0.958   3.460
 2199SOL    HW1 7496   4.576   0.920   3.503
 2199SOL    HW2 7497   4.459   1.033   3.517
 2200SOL     OW 7498   2.720   1.652   5.140
 2200SOL    HW1 7499   2.638   1.699   5.106
 2200SOL    HW2 7500   2.741   1.575   5.080
 2201SOL     OW 7501   6.807   2.716   2.880
 2201SOL    HW1 7502   6.805   2.625   2.838
 2201SOL    HW2 7503   6.896   2.730   2.923
 2202SOL     OW 7504   2.539   5.640   2.410
 2202SOL    HW1 7505   2.610   5.610   2.346
 2202SOL    HW2 7506   2.491   5.719   2.371
 2203SOL     OW 7507   1.496   2.199   1.211
 2203SOL    HW1 7508   1.587   2.239   1.205
 2203SOL    HW2 7509   1.427   2.270   1.191
 2204SOL     OW 7510   4.015   1.463   1.800
 2204SOL    HW1 7511   4.021   1.409   1.716
 2204SOL    HW2 7512   4.080   1.539   1.795
 2205SOL     OW 7513   0.421   0.164   5.873
 2205SOL    HW1 7514   0.326   0.148   5.847
 2205SOL    HW2 7515   0.465   0.076   5.895
 2206SOL     OW 7516   3.494   5.008   6.544
 2206SOL    HW1 7517   3.537   5.002   6.454
 2206SOL    HW2 7518   3.431   4.932   6.556
 2207SOL     OW 7519   2.911   4.660   6.508
 2207SOL    HW1 7520   2.888   4.581   6.565
 2207SOL    HW2 7521   3.009   4.679   6.515
 2208SOL     OW 7522   1.526   6.326   3.128
 2208SOL    HW1 7523   1.598   6.271   3.171
 2208SOL    HW2 7524   1.568   6.403   3.079
 2209SOL     OW 7525   1.522   6.174   5.338
 2209SOL    HW1 7526   1.478   6.219   5.415
 2209SOL    HW2 7527   1.621   6.190   5.341
 2210SOL     OW 7528   6.667   5.036   4.533
 2210SOL    HW1 7529   6.763   5.055   4.555
 2210SOL    HW2 7530   6.657   4.940   4.509
 2211SOL     OW 7531   5.939   0.716   0.923
 2211SOL    HW1 7532   5.897   0.798   0.884
 2211SOL    HW2 7533   5.879   0.637   0.907
 2212SOL     OW 7534   2.267   5.849   6.836
 2212SOL    HW1 7535   2.219   5.817   6.917
 2212SOL    HW2 7536   2.265   5.949   6.834
 2213SOL     OW 7537   3.436   2.526   5.767
 2213SOL    HW1 7538   3.461   2.432   5.787
 2213SOL    HW2 7539   3.337   2.532   5.754
 2214SOL     OW 7540   3.805   3.106   5.004
 2214SOL    HW1 7541   3.773   3.041   4.935
 2214SOL    HW2 7542   3.732   3.172   5.024
 2215SOL     OW 7543   6.084   1.000   0.307
 2215SOL    HW1 7544   6.096   0.967   0.401
 2215SOL    HW2 7545   6.148   1.075   0.290
 2216SOL     OW 7546   1.534   0.804   6.238
 2216SOL    HW1 7547   1.572   0.843   6.322
 2216SOL    HW2 7548   1.504   0.710   6.256
 2217SOL     OW 7549   4.018   6.907   1.558
 2217SOL    HW1 7550   4.041   6.929   1.464
 2217SOL    HW2 7551   3.978   6.987   1.602
 2218SOL     OW 7552   6.799   5.881   0.015
 2218SOL    HW1 7553   6.826   5.879   6.940
 2218SOL    HW2 7554   6.765   5.790   0.042
 2219SOL     OW 7555   5.236   2.021   1.458
 2219SOL    HW1 7556   5.172   2.060   1.523
 2219SOL    HW2 7557   5.197   1.938   1.417
 2220SOL     OW 7558   1.778   0.054   5.007
 2220SOL    HW1 7559   1.815   0.010   4.926
 2220SOL    HW2 7560   1.682   0.027   5.018
 2221SOL     OW 7561   6.016   1.080   5.473
 2221SOL    HW1 7562   6.099   1.055   5.423
 2221SOL    HW2 7563   6.031   1.065   5.571
 2222SOL     OW 7564   4.797   0.868   0.247
 2222SOL    HW1 7565   4.857   0.924   0.304
 2222SOL    HW2 7566   4.713   0.919   0.227
 2223SOL     OW 7567   5.720   0.845   4.881
 2223SOL    HW1 7568   5.785   0.848   4.957
 2223SOL    HW2 7569   5.627   0.852   4.916
 2224SOL     OW 7570   0.373   3.466   0.426
 2224SOL    HW1 7571   0.311   3.474   0.503
 2224SOL    HW2 7572   0.332   3.409   0.355
 2225SOL     OW 7573   0.023   6.391   3.526
 2225SOL    HW1 7574   6.952   6.388   3.488
 2225SOL    HW2 7575   0.059   6.298   3.533
 2226SOL     OW 7576   3.680   5.011   0.891
 2226SOL    HW1 7577   3.597   4.955   0.891
 2226SOL    HW2 7578   3.677   5.075   0.969
 2227SOL     OW 7579   5.496   3.450   0.011
 2227SOL    HW1 7580   5.495   3.361   6.987
 2227SOL    HW2 7581   5.432   3.512   6.987
 2228SOL     OW 7582   3.439   4.885   0.907
 2228SOL    HW1 7583   3.361   4.930   0.863
 2228SOL    HW2 7584   3.472   4.811   0.849
 2229SOL     OW 7585   4.724   2.844   4.677
 2229SOL    HW1 7586   4.628   2.871   4.672
 2229SOL    HW2 7587   4.749   2.794   4.594
 2230SOL     OW 7588   5.753   6.240   0.068
 2230SOL    HW1 7589   5.692   6.308   0.108
 2230SOL    HW2 7590   5.710   6.202   7.007
 2231SOL     OW 7591   0.667   0.687   1.972
 2231SOL    HW1 7592   0.629   0.733   2.052
 2231SOL    HW2 7593   0.593   0.657   1.912
 2232SOL     OW 7594   0.845   2.730   5.096
 2232SOL    HW1 7595   0.902   2.812   5.107
 2232SOL    HW2 7596   0.899   2.649   5.119
 2233SOL     OW 7597   2.070   3.942   0.180
 2233SOL    HW1 7598   2.075   3.853   0.227
 2233SOL    HW2 7599   1.982   3.950   0.133
 2234SOL     OW 7600   4.177   1.674   1.528
 2234SOL    HW1 7601   4.221   1.666   1.618
 2234SOL    HW2 7602   4.097   1.733   1.537
 2235SOL     OW 7603   2.877   0.112   1.107
 2235SOL    HW1 7604   2.807   0.119   1.178
 2235SOL    HW2 7605   2.943   0.041   1.132
 2236SOL     OW 7606   1.903   4.544   6.172
 2236SOL    HW1 7607   1.915   4.559   6.074
 2236SOL    HW2 7608   1.807   4.559   6.197
 2237SOL     OW 7609   5.778   4.558   3.877
 2237SOL    HW1 7610   5.690   4.598   3.903
 2237SOL    HW2 7611   5.852   4.608   3.923
 2238SOL     OW 7612   4.826   4.713   1.571
 2238SOL    HW1 7613   4.871   4.677   1.653
 2238SOL    HW2 7614   4.882   4.693   1.491
 2239SOL     OW 7615   4.019   5.243   3.886
 2239SOL    HW1 7616   4.068   5.180   3.826
 2239SOL    HW2 7617   3.957   5.300   3.831
 2240SOL     OW 7618   5.005   5.858   3.929
 2240SOL    HW1 7619   4.995   5.934   3.866
 2240SOL    HW2 7620   4.976   5.773   3.885
 2241SOL     OW 7621   0.374   5.781   3.391
 2241SOL    HW1 7622   0.449   5.726   3.427
 2241SOL    HW2 7623   0.380   5.874   3.427
 2242SOL     OW 7624   5.469   2.806   2.505
 2242SOL    HW1 7625   5.532   2.782   2.432
 2242SOL    HW2 7626   5.387   2.749   2.499
 2243SOL     OW 7627   1.656   6.792   6.093
 2243SOL    HW1 7628   1.657   6.785   6.193
 2243SOL    HW2 7629   1.746   6.769   6.057
 2244SOL     OW 7630   1.530   6.995   1.815
 2244SOL    HW1 7631   1.535   7.018   1.718
 2244SOL    HW2 7632   1.493   6.903   1.826
 2245SOL     OW 7633   0.602   2.546   1.050
 2245SOL    HW1 7634   0.534   2.498   0.995
 2245SOL    HW2 7635   0.683   2.489   1.061
 2246SOL     OW 7636   1.047   1.893   5.050
 2246SOL    HW1 7637   0.960   1.893   5.001
 2246SOL    HW2 7638   1.112   1.834   5.002
 2247SOL     OW 7639   3.527   3.239   4.138
 2247SOL    HW1 7640   3.434   3.244   4.175
 2247SOL    HW2 7641   3.526   3.191   4.051
 2248SOL     OW 7642   5.036   4.019   5.617
 2248SOL    HW1 7643   4.942   4.007   5.648
 2248SOL    HW2 7644   5.063   3.943   5.558
 2249SOL     OW 7645   6.226   6.416   3.108
 2249SOL    HW1 7646   6.305   6.361   3.136
 2249SOL    HW2 7647   6.249   6.513   3.116
 2250SOL     OW 7648   4.302   3.904   6.041
 2250SOL    HW1 7649   4.380   3.897   6.104
 2250SOL    HW2 7650   4.241   3.826   6.056
 2251SOL     OW 7651   5.232   0.472   6.773
 2251SOL    HW1 7652   5.271   0.391   6.815
 2251SOL    HW2 7653   5.171   0.518   6.837
 2252SOL     OW 7654   4.807   2.953   2.326
 2252SOL    HW1 7655   4.749   2.876   2.351
 2252SOL    HW2 7656   4.777   2.990   2.238
 2253SOL     OW 7657   1.022   3.681   6.615
 2253SOL    HW1 7658   1.069   3.665   6.702
 2253SOL    HW2 7659   1.056   3.766   6.574
 2254SOL     OW 7660   3.782   2.981   5.727
 2254SOL    HW1 7661   3.841   3.050   5.685
 2254SOL    HW2 7662   3.766   2.907   5.663
 2255SOL     OW 7663   4.418   2.712   6.097
 2255SOL    HW1 7664   4.390   2.632   6.044
 2255SOL    HW2 7665   4.393   2.795   6.048
 2256SOL     OW 7666   5.223   5.816   1.346
 2256SOL    HW1 7667   5.297   5.872   1.384
 2256SOL    HW2 7668   5.137   5.867   1.349
 2257SOL     OW 7669   0.097   1.823   4.264
 2257SOL    HW1 7670   0.123   1.824   4.168
 2257SOL    HW2 7671   0.131   1.739   4.307
 2258SOL     OW 7672   1.002   5.396   5.764
 2258SOL    HW1 7673   1.085   5.439   5.800
 2258SOL    HW2 7674   1.026   5.331   5.692
 2259SOL     OW 7675   5.556   3.651   6.682
 2259SOL    HW1 7676   5.489   3.584   6.712
 2259SOL    HW2 7677   5.647   3.622   6.710
 2260SOL     OW 7678   6.103   4.218   1.979
 2260SOL    HW1 7679   6.120   4.280   1.902
 2260SOL    HW2 7680   6.105   4.124   1.947
 2261SOL     OW 7681   6.393   6.001   6.982
 2261SOL    HW1 7682   6.352   6.030   6.896
 2261SOL    HW2 7683   6.348   6.048   0.037
 2262SOL     OW 7684   5.881   1.279   2.956
 2262SOL    HW1 7685   5.930   1.194   2.973
 2262SOL    HW2 7686   5.909   1.348   3.022
 2263SOL     OW 7687   3.563   5.510   0.029
 2263SOL    HW1 7688   3.511   5.560   6.981
 2263SOL    HW2 7689   3.606   5.430   7.008
 2264SOL     OW 7690   2.684   4.415   0.273
 2264SOL    HW1 7691   2.693   4.333   0.216
 2264SOL    HW2 7692   2.773   4.439   0.312
 2265SOL     OW 7693   0.715   0.872   4.529
 2265SOL    HW1 7694   0.649   0.839   4.463
 2265SOL    HW2 7695   0.803   0.886   4.484
 2266SOL     OW 7696   5.027   2.011   6.955
 2266SOL    HW1 7697   4.983   2.035   0.020
 2266SOL    HW2 7698   5.075   1.924   6.964
 2267SOL     OW 7699   5.261   2.476   5.005
 2267SOL    HW1 7700   5.201   2.397   5.018
 2267SOL    HW2 7701   5.207   2.554   4.975
 2268SOL     OW 7702   6.485   3.565   0.132
 2268SOL    HW1 7703   6.404   3.620   0.111
 2268SOL    HW2 7704   6.479   3.478   0.084
 2269SOL     OW 7705   6.229   5.475   5.358
 2269SOL    HW1 7706   6.150   5.503   5.411
 2269SOL    HW2 7707   6.221   5.378   5.335
 2270SOL     OW 7708   3.272   2.636   6.082
 2270SOL    HW1 7709   3.296   2.699   6.008
 2270SOL    HW2 7710   3.355   2.591   6.116
 2271SOL     OW 7711   5.666   3.872   0.985
 2271SOL    HW1 7712   5.592   3.811   0.957
 2271SOL    HW2 7713   5.745   3.818   1.014
 2272SOL     OW 7714   6.083   2.543   6.051
 2272SOL    HW1 7715   6.122   2.569   5.962
 2272SOL    HW2 7716   6.080   2.443   6.058
 2273SOL     OW 7717   1.417   0.194   2.308
 2273SOL    HW1 7718   1.402   0.158   2.216
 2273SOL    HW2 7719   1.349   0.266   2.326
 2274SOL     OW 7720   6.840   2.277   6.294
 2274SOL    HW1 7721   6.845   2.375   6.312
 2274SOL    HW2 7722   6.744   2.249   6.288
 2275SOL     OW 7723   6.018   0.583   4.216
 2275SOL    HW1 7724   6.107   0.537   4.206
 2275SOL    HW2 7725   6.004   0.645   4.139
 2276SOL     OW 7726   2.633   5.158   0.919
 2276SOL    HW1 7727   2.553   5.103   0.898
 2276SOL    HW2 7728   2.694   5.159   0.840
 2277SOL     OW 7729   3.863   3.820   4.864
 2277SOL    HW1 7730   3.777   3.844   4.820
 2277SOL    HW2 7731   3.880   3.722   4.852
 2278SOL     OW 7732   6.538   4.892   4.214
 2278SOL    HW1 7733   6.528   4.836   4.296
 2278SOL    HW2 7734   6.623   4.869   4.168
 2279SOL     OW 7735   5.411   6.156   4.864
 2279SOL    HW1 7736   5.458   6.076   4.901
 2279SOL    HW2 7737   5.478   6.216   4.820
 2280SOL     OW 7738   6.634   0.137   4.506
 2280SOL    HW1 7739   6.557   0.102   4.452
 2280SOL    HW2 7740   6.712   0.076   4.497
 2281SOL     OW 7741   3.532   1.546   2.389
 2281SOL    HW1 7742   3.568   1.612   2.323
 2281SOL    HW2 7743   3.606   1.513   2.448
 2282SOL     OW 7744   4.786   0.368   4.487
 2282SOL    HW1 7745   4.873   0.317   4.487
 2282SOL    HW2 7746   4.796   0.452   4.435
 2283SOL     OW 7747   0.485   4.619   1.680
 2283SOL    HW1 7748   0.443   4.544   1.629
 2283SOL    HW2 7749   0.428   4.642   1.759
 2284SOL     OW 7750   1.366   2.537   6.327
 2284SOL    HW1 7751   1.309   2.458   6.303
 2284SOL    HW2 7752   1.380   2.593   6.245
 2285SOL     OW 7753   2.623   2.264   0.530
 2285SOL    HW1 7754   2.712   2.257   0.485
 2285SOL    HW2 7755   2.567   2.332   0.483
 2286SOL     OW 7756   0.066   0.557   4.426
 2286SOL    HW1 7757   6.989   0.564   4.414
 2286SOL    HW2 7758   0.103   0.648   4.449
 2287SOL     OW 7759   1.550   1.282   3.097
 2287SOL    HW1 7760   1.538   1.373   3.058
 2287SOL    HW2 7761   1.637   1.244   3.067
 2288SOL     OW 7762   6.167   5.428   4.717
 2288SOL    HW1 7763   6.246   5.368   4.703
 2288SOL    HW2 7764   6.090   5.395   4.662
 2289SOL     OW 7765   0.801   4.845   1.957
 2289SOL    HW1 7766   0.845   4.934   1.966
 2289SOL    HW2 7767   0.713   4.856   1.910
 2290SOL     OW 7768   1.101   4.887   1.453
 2290SOL    HW1 7769   1.054   4.800   1.469
 2290SOL    HW2 7770   1.198   4.875   1.475
 2291SOL     OW 7771   2.680   2.421   6.488
 2291SOL    HW1 7772   2.656   2.336   6.534
 2291SOL    HW2 7773   2.610   2.443   6.420
 2292SOL     OW 7774   5.828   2.167   5.052
 2292SOL    HW1 7775   5.748   2.212   5.012
 2292SOL    HW2 7776   5.855   2.090   4.994
 2293SOL     OW 7777   5.458   0.014   1.412
 2293SOL    HW1 7778   5.505   7.010   1.497
 2293SOL    HW2 7779   5.471   6.962   1.345
 2294SOL     OW 7780   2.962   1.097   6.478
 2294SOL    HW1 7781   2.916   1.180   6.447
 2294SOL    HW2 7782   2.898   1.043   6.534
 2295SOL     OW 7783   0.333   2.435   2.922
 2295SOL    HW1 7784   0.390   2.381   2.984
 2295SOL    HW2 7785   0.238   2.403   2.928
 2296SOL     OW 7786   4.056   5.646   1.573
 2296SOL    HW1 7787   4.028   5.560   1.615
 2296SOL    HW2 7788   4.155   5.648   1.565
 2297SOL     OW 7789   4.614   5.032   5.970
 2297SOL    HW1 7790   4.713   5.031   5.985
 2297SOL    HW2 7791   4.589   5.111   5.914
 2298SOL     OW 7792   4.255   3.388   1.648
 2298SOL    HW1 7793   4.224   3.324   1.718
 2298SOL    HW2 7794   4.347   3.362   1.617
 2299SOL     OW 7795   4.461   5.311   5.371
 2299SOL    HW1 7796   4.496   5.227   5.331
 2299SOL    HW2 7797   4.383   5.344   5.317
 2300SOL     OW 7798   2.243   6.340   1.724
 2300SOL    HW1 7799   2.328   6.341   1.777
 2300SOL    HW2 7800   2.171   6.385   1.776
 2301SOL     OW 7801   3.321   2.900   2.873
 2301SOL    HW1 7802   3.226   2.883   2.899
 2301SOL    HW2 7803   3.374   2.920   2.955
 2302SOL     OW 7804   3.833   0.283   0.720
 2302SOL    HW1 7805   3.914   0.314   0.671
 2302SOL    HW2 7806   3.788   0.361   0.764
 2303SOL     OW 7807   2.593   3.345   6.517
 2303SOL    HW1 7808   2.572   3.329   6.614
 2303SOL    HW2 7809   2.563   3.436   6.491
 2304SOL     OW 7810   4.757   6.751   3.521
 2304SOL    HW1 7811   4.819   6.784   3.450
 2304SOL    HW2 7812   4.681   6.702   3.479
 2305SOL     OW 7813   2.391   6.869   2.537
 2305SOL    HW1 7814   2.319   6.880   2.469
 2305SOL    HW2 7815   2.384   6.942   2.605
 2306SOL     OW 7816   2.792   5.027   2.211
 2306SOL    HW1 7817   2.720   5.088   2.244
 2306SOL    HW2 7818   2.881   5.057   2.247
 2307SOL     OW 7819   6.695   4.054   3.203
 2307SOL    HW1 7820   6.717   4.149   3.228
 2307SOL    HW2 7821   6.722   3.993   3.278
 2308SOL     OW 7822   1.417   5.413   1.425
 2308SOL    HW1 7823   1.336   5.468   1.447
 2308SOL    HW2 7824   1.442   5.359   1.505
 2309SOL     OW 7825   1.744   0.706   6.759
 2309SOL    HW1 7826   1.763   0.612   6.787
 2309SOL    HW2 7827   1.654   0.733   6.793
 2310SOL     OW 7828   5.142   6.480   0.625
 2310SOL    HW1 7829   5.049   6.450   0.603
 2310SOL    HW2 7830   5.199   6.400   0.645
 2311SOL     OW 7831   1.840   6.744   1.014
 2311SOL    HW1 7832   1.786   6.739   0.929
 2311SOL    HW2 7833   1.894   6.828   1.014
 2312SOL     OW 7834   4.144   6.477   2.622
 2312SOL    HW1 7835   4.232   6.437   2.645
 2312SOL    HW2 7836   4.086   6.407   2.578
 2313SOL     OW 7837   5.937   6.140   1.265
 2313SOL    HW1 7838   6.023   6.191   1.263
 2313SOL    HW2 7839   5.941   6.067   1.196
 2314SOL     OW 7840   6.064   0.085   4.140
 2314SOL    HW1 7841   6.030   7.013   4.137
 2314SOL    HW2 7842   6.008   0.139   4.203
 2315SOL     OW 7843   4.920   3.489   6.413
 2315SOL    HW1 7844   4.856   3.566   6.417
 2315SOL    HW2 7845   4.915   3.446   6.323
 2316SOL     OW 7846   3.460   1.214   4.127
 2316SOL    HW1 7847   3.495   1.277   4.196
 2316SOL    HW2 7848   3.508   1.127   4.133
 2317SOL     OW 7849   0.416   6.075   3.328
 2317SOL    HW1 7850   0.380   6.038   3.242
 2317SOL    HW2 7851   0.415   6.175   3.325
 2318SOL     OW 7852   1.983   3.036   4.470
 2318SOL    HW1 7853   1.923   3.057   4.547
 2318SOL    HW2 7854   1.952   3.085   4.389
 2319SOL     OW 7855   2.129   4.420   4.029
 2319SOL    HW1 7856   2.109   4.468   3.943
 2319SOL    HW2 7857   2.057   4.353   4.047
 2320SOL     OW 7858   1.128   2.209   4.762
 2320SOL    HW1 7859   1.128   2.202   4.662
 2320SOL    HW2 7860   1.167   2.297   4.790
 2321SOL     OW 7861   2.237   0.493   6.828
 2321SOL    HW1 7862   2.332   0.465   6.844
 2321SOL    HW2 7863   2.190   0.502   6.915
 2322SOL     OW 7864   2.598   1.584   3.863
 2322SOL    HW1 7865   2.566   1.660   3.920
 2322SOL    HW2 7866   2.697   1.576   3.871
 2323SOL     OW 7867   2.907   5.113   1.935
 2323SOL    HW1 7868   2.999   5.142   1.906
 2323SOL    HW2 7869   2.896   5.016   1.912
 2324SOL     OW 7870   6.249   6.622   1.232
 2324SOL    HW1 7871   6.292   6.698   1.183
 2324SOL    HW2 7872   6.216   6.555   1.166
 2325SOL     OW 7873   1.639   5.214   1.483
 2325SOL    HW1 7874   1.701   5.288   1.507
 2325SOL    HW2 7875   1.687   5.126   1.491
 2326SOL     OW 7876   2.674   5.506   5.733
 2326SOL    HW1 7877   2.737   5.569   5.779
 2326SOL    HW2 7878   2.584   5.547   5.727
 2327SOL     OW 7879   6.839   2.364   3.931
 2327SOL    HW1 7880   6.897   2.338   4.008
 2327SOL    HW2 7881   6.893   2.363   3.847
 2328SOL     OW 7882   2.966   2.190   2.645
 2328SOL    HW1 7883   2.992   2.236   2.560
 2328SOL    HW2 7884   2.886   2.132   2.629
 2329SOL     OW 7885   1.382   3.904   5.254
 2329SOL    HW1 7886   1.303   3.948   5.297
 2329SOL    HW2 7887   1.451   3.973   5.233
 2330SOL     OW 7888   0.736   4.085   1.324
 2330SOL    HW1 7889   0.726   3.986   1.313
 2330SOL    HW2 7890   0.832   4.108   1.340
 2331SOL     OW 7891   5.485   4.530   0.996
 2331SOL    HW1 7892   5.508   4.620   1.031
 2331SOL    HW2 7893   5.414   4.489   1.053
 2332SOL     OW 7894   4.757   1.972   5.044
 2332SOL    HW1 7895   4.742   2.069   5.065
 2332SOL    HW2 7896   4.669   1.926   5.033
 2333SOL     OW 7897   0.566   5.005   2.888
 2333SOL    HW1 7898   0.589   5.028   2.983
 2333SOL    HW2 7899   0.479   5.047   2.863
 2334SOL     OW 7900   2.429   6.968   6.904
 2334SOL    HW1 7901   2.449   7.005   6.995
 2334SOL    HW2 7902   2.479   7.020   6.835
 2335SOL     OW 7903   5.986   0.816   3.131
 2335SOL    HW1 7904   5.941   0.856   3.211
 2335SOL    HW2 7905   5.992   0.884   3.058
 2336SOL     OW 7906   4.449   2.444   4.872
 2336SOL    HW1 7907   4.370   2.416   4.926
 2336SOL    HW2 7908   4.514   2.494   4.930
 2337SOL     OW 7909   4.576   0.981   3.207
 2337SOL    HW1 7910   4.510   0.962   3.280
 2337SOL    HW2 7911   4.535   1.043   3.141
 2338SOL     OW 7912   1.338   2.026   6.203
 2338SOL    HW1 7913   1.307   1.973   6.124
 2338SOL    HW2 7914   1.342   1.968   6.284
 2339SOL     OW 7915   3.891   4.082   4.948
 2339SOL    HW1 7916   3.956   4.138   4.896
 2339SOL    HW2 7917   3.898   3.987   4.918
 2340SOL     OW 7918   5.386   4.405   0.195
 2340SOL    HW1 7919   5.394   4.372   0.101
 2340SOL    HW2 7920   5.367   4.503   0.194
 2341SOL     OW 7921   5.071   4.333   1.336
 2341SOL    HW1 7922   5.032   4.338   1.428
 2341SOL    HW2 7923   5.135   4.256   1.332
 2342SOL     OW 7924   0.502   6.759   5.290
 2342SOL    HW1 7925   0.576   6.750   5.357
 2342SOL    HW2 7926   0.536   6.806   5.209
 2343SOL     OW 7927   2.616   5.962   2.700
 2343SOL    HW1 7928   2.568   6.048   2.681
 2343SOL    HW2 7929   2.712   5.972   2.677
 2344SOL     OW 7930   1.623   0.744   1.061
 2344SOL    HW1 7931   1.659   0.836   1.050
 2344SOL    HW2 7932   1.643   0.711   1.154
 2345SOL     OW 7933   3.571   5.639   5.449
 2345SOL    HW1 7934   3.537   5.634   5.543
 2345SOL    HW2 7935   3.579   5.546   5.412
 2346SOL     OW 7936   5.132   2.741   5.029
 2346SOL    HW1 7937   5.190   2.790   5.094
 2346SOL    HW2 7938   5.037   2.749   5.057
 2347SOL     OW 7939   2.580   3.322   1.722
 2347SOL    HW1 7940   2.582   3.351   1.626
 2347SOL    HW2 7941   2.524   3.386   1.774
 2348SOL     OW 7942   3.708   6.270   2.940
 2348SOL    HW1 7943   3.703   6.293   3.037
 2348SOL    HW2 7944   3.642   6.198   2.920
 2349SOL     OW 7945   0.603   4.820   5.938
 2349SOL    HW1 7946   0.611   4.918   5.918
 2349SOL    HW2 7947   0.655   4.768   5.870
 2350SOL     OW 7948   5.026   6.913   6.144
 2350SOL    HW1 7949   5.046   6.991   6.203
 2350SOL    HW2 7950   4.977   6.944   6.063
 2351SOL     OW 7951   3.479   5.278   2.626
 2351SOL    HW1 7952   3.491   5.186   2.587
 2351SOL    HW2 7953   3.392   5.282   2.675
 2352SOL     OW 7954   1.328   4.010   2.100
 2352SOL    HW1 7955   1.358   3.916   2.087
 2352SOL    HW2 7956   1.327   4.031   2.198
 2353SOL     OW 7957   2.985   4.792   5.297
 2353SOL    HW1 7958   2.896   4.837   5.307
 2353SOL    HW2 7959   2.978   4.720   5.227
 2354SOL     OW 7960   2.734   1.872   6.183
 2354SOL    HW1 7961   2.719   1.775   6.163
 2354SOL    HW2 7962   2.725   1.925   6.099
 2355SOL     OW 7963   1.200   5.507   6.807
 2355SOL    HW1 7964   1.256   5.562   6.745
 2355SOL    HW2 7965   1.259   5.456   6.869
 2356SOL     OW 7966   2.351   4.321   0.760
 2356SOL    HW1 7967   2.377   4.225   0.751
 2356SOL    HW2 7968   2.388   4.373   0.683
 2357SOL     OW 7969   4.408   5.244   3.857
 2357SOL    HW1 7970   4.363   5.206   3.776
 2357SOL    HW2 7971   4.342   5.298   3.909
 2358SOL     OW 7972   2.861   5.011   5.455
 2358SOL    HW1 7973   2.937   5.037   5.395
 2358SOL    HW2 7974   2.895   4.991   5.546
 2359SOL     OW 7975   6.930   0.897   6.047
 2359SOL    HW1 7976   7.000   0.936   5.987
 2359SOL    HW2 7977   6.858   0.964   6.063
 2360SOL     OW 7978   5.315   5.933   5.842
 2360SOL    HW1 7979   5.327   5.835   5.860
 2360SOL    HW2 7980   5.326   5.983   5.928
 2361SOL     OW 7981   2.717   0.804   5.185
 2361SOL    HW1 7982   2.718   0.898   5.149
 2361SOL    HW2 7983   2.637   0.792   5.244
 2362SOL     OW 7984   2.791   0.628   4.981
 2362SOL    HW1 7985   2.866   0.674   4.935
 2362SOL    HW2 7986   2.764   0.681   5.062
 2363SOL     OW 7987   4.106   2.724   5.603
 2363SOL    HW1 7988   4.059   2.667   5.536
 2363SOL    HW2 7989   4.043   2.795   5.636
 2364SOL     OW 7990   0.579   2.510   3.237
 2364SOL    HW1 7991   0.631   2.481   3.157
 2364SOL    HW2 7992   0.520   2.435   3.266
 2365SOL     OW 7993   6.012   2.255   6.001
 2365SOL    HW1 7994   5.941   2.292   5.941
 2365SOL    HW2 7995   6.073   2.197   5.947
 2366SOL     OW 7996   1.491   4.232   5.959
 2366SOL    HW1 7997   1.539   4.154   6.001
 2366SOL    HW2 7998   1.552   4.311   5.957
 2367SOL     OW 7999   3.794   3.738   6.756
 2367SOL    HW1 8000   3.823   3.688   6.675
 2367SOL    HW2 8001   3.812   3.683   6.838
 2368SOL     OW 8002   5.108   0.057   3.273
 2368SOL    HW1 8003   5.181   0.073   3.339
 2368SOL    HW2 8004   5.091   0.140   3.220
 2369SOL     OW 8005   2.204   2.708   5.423
 2369SOL    HW1 8006   2.141   2.660   5.362
 2369SOL    HW2 8007   2.153   2.773   5.479
 2370SOL     OW 8008   4.850   4.251   6.790
 2370SOL    HW1 8009   4.857   4.351   6.785
 2370SOL    HW2 8010   4.769   4.220   6.740
 2371SOL     OW 8011   0.744   6.126   1.423
 2371SOL    HW1 8012   0.682   6.113   1.500
 2371SOL    HW2 8013   0.827   6.072   1.438
 2372SOL     OW 8014   0.493   1.985   1.493
 2372SOL    HW1 8015   0.485   2.083   1.510
 2372SOL    HW2 8016   0.589   1.961   1.479
 2373SOL     OW 8017   6.975   0.120   0.076
 2373SOL    HW1 8018   6.908   0.098   0.146
 2373SOL    HW2 8019   6.991   0.219   0.075
 2374SOL     OW 8020   6.414   0.605   3.924
 2374SOL    HW1 8021   6.420   0.630   4.021
 2374SOL    HW2 8022   6.425   0.506   3.915
 2375SOL     OW 8023   1.893   6.502   4.486
 2375SOL    HW1 8024   1.887   6.455   4.574
 2375SOL    HW2 8025   1.974   6.561   4.485
 2376SOL     OW 8026   5.550   2.139   4.335
 2376SOL    HW1 8027   5.510   2.206   4.397
 2376SOL    HW2 8028   5.483   2.112   4.266
 2377SOL     OW 8029   3.552   4.102   2.740
 2377SOL    HW1 8030   3.467   4.097   2.792
 2377SOL    HW2 8031   3.630   4.093   2.802
 2378SOL     OW 8032   5.057   2.428   6.790
 2378SOL    HW1 8033   5.095   2.363   6.856
 2378SOL    HW2 8034   4.969   2.462   6.823
 2379SOL     OW 8035   6.664   2.118   6.659
 2379SOL    HW1 8036   6.761   2.137   6.670
 2379SOL    HW2 8037   6.626   2.087   6.746
 2380SOL     OW 8038   6.781   6.565   5.580
 2380SOL    HW1 8039   6.881   6.567   5.577
 2380SOL    HW2 8040   6.745   6.656   5.563
 2381SOL     OW 8041   2.153   4.027   3.923
 2381SOL    HW1 8042   2.191   4.105   3.873
 2381SOL    HW2 8043   2.075   3.990   3.873
 2382SOL     OW 8044   2.120   5.263   3.595
 2382SOL    HW1 8045   2.102   5.264   3.496
 2382SOL    HW2 8046   2.217   5.280   3.611
 2383SOL     OW 8047   5.357   6.186   6.927
 2383SOL    HW1 8048   5.376   6.271   6.976
 2383SOL    HW2 8049   5.272   6.197   6.874
 2384SOL     OW 8050   6.401   6.452   2.183
 2384SOL    HW1 8051   6.392   6.418   2.277
 2384SOL    HW2 8052   6.488   6.422   2.145
 2385SOL     OW 8053   6.105   6.860   1.386
 2385SOL    HW1 8054   6.026   6.817   1.428
 2385SOL    HW2 8055   6.173   6.790   1.363
 2386SOL     OW 8056   5.152   4.448   4.286
 2386SOL    HW1 8057   5.208   4.476   4.208
 2386SOL    HW2 8058   5.162   4.513   4.361
 2387SOL     OW 8059   0.447   2.283   3.326
 2387SOL    HW1 8060   0.524   2.305   3.386
 2387SOL    HW2 8061   0.413   2.192   3.348
 2388SOL     OW 8062   1.057   1.883   3.772
 2388SOL    HW1 8063   1.133   1.916   3.715
 2388SOL    HW2 8064   1.092   1.856   3.862
 2389SOL     OW 8065   5.388   3.415   3.297
 2389SOL    HW1 8066   5.487   3.403   3.283
 2389SOL    HW2 8067   5.340   3.336   3.259
 2390SOL     OW 8068   3.097   3.971   4.343
 2390SOL    HW1 8069   3.123   4.060   4.303
 2390SOL    HW2 8070   3.098   3.901   4.271
 2391SOL     OW 8071   4.346   4.181   5.658
 2391SOL    HW1 8072   4.351   4.087   5.693
 2391SOL    HW2 8073   4.410   4.192   5.583
 2392SOL     OW 8074   3.544   6.630   5.141
 2392SOL    HW1 8075   3.530   6.702   5.073
 2392SOL    HW2 8076   3.642   6.618   5.157
 2393SOL     OW 8077   4.251   4.711   0.266
 2393SOL    HW1 8078   4.273   4.797   0.311
 2393SOL    HW2 8079   4.263   4.721   0.167
 2394SOL     OW 8080   1.704   3.105   4.214
 2394SOL    HW1 8081   1.798   3.138   4.210
 2394SOL    HW2 8082   1.642   3.183   4.229
 2395SOL     OW 8083   6.152   2.446   0.704
 2395SOL    HW1 8084   6.162   2.346   0.702
 2395SOL    HW2 8085   6.172   2.479   0.796
 2396SOL     OW 8086   4.338   5.440   0.755
 2396SOL    HW1 8087   4.277   5.460   0.679
 2396SOL    HW2 8088   4.286   5.434   0.840
 2397SOL     OW 8089   0.184   3.560   6.903
 2397SOL    HW1 8090   0.112   3.536   6.967
 2397SOL    HW2 8091   0.151   3.629   6.839
 2398SOL     OW 8092   3.171   3.989   6.142
 2398SOL    HW1 8093   3.086   4.010   6.191
 2398SOL    HW2 8094   3.222   3.920   6.193
 2399SOL     OW 8095   5.412   1.697   2.670
 2399SOL    HW1 8096   5.366   1.691   2.759
 2399SOL    HW2 8097   5.357   1.651   2.601
 2400SOL     OW 8098   4.204   5.131   0.025
 2400SOL    HW1 8099   4.135   5.100   6.981
 2400SOL    HW2 8100   4.173   5.111   0.118
 2401SOL     OW 8101   4.330   0.704   6.366
 2401SOL    HW1 8102   4.351   0.657   6.451
 2401SOL    HW2 8103   4.232   0.696   6.346
 2402SOL     OW 8104   0.782   1.994   4.401
 2402SOL    HW1 8105   0.788   2.081   4.449
 2402SOL    HW2 8106   0.851   1.990   4.329
 2403SOL     OW 8107   2.582   2.576   0.455
 2403SOL    HW1 8108   2.615   2.568   0.361
 2403SOL    HW2 8109   2.653   2.618   0.511
 2404SOL     OW 8110   6.063   1.131   1.548
 2404SOL    HW1 8111   6.099   1.089   1.631
 2404SOL    HW2 8112   6.134   1.184   1.503
 2405SOL     OW 8113   3.210   3.382   3.302
 2405SOL    HW1 8114   3.238   3.395   3.397
 2405SOL    HW2 8115   3.110   3.380   3.297
 2406SOL     OW 8116   1.687   6.690   3.344
 2406SOL    HW1 8117   1.614   6.653   3.401
 2406SOL    HW2 8118   1.649   6.762   3.285
 2407SOL     OW 8119   5.522   2.721   2.242
 2407SOL    HW1 8120   5.445   2.661   2.265
 2407SOL    HW2 8121   5.493   2.789   2.175
 2408SOL     OW 8122   3.345   4.965   2.922
 2408SOL    HW1 8123   3.311   4.966   2.828
 2408SOL    HW2 8124   3.445   4.957   2.922
 2409SOL     OW 8125   1.884   2.824   1.491
 2409SOL    HW1 8126   1.885   2.788   1.585
 2409SOL    HW2 8127   1.934   2.762   1.431
 2410SOL     OW 8128   4.874   2.334   6.061
 2410SOL    HW1 8129   4.950   2.283   6.101
 2410SOL    HW2 8130   4.848   2.291   5.974
 2411SOL     OW 8131   4.526   5.337   5.659
 2411SOL    HW1 8132   4.461   5.292   5.597
 2411SOL    HW2 8133   4.594   5.387   5.605
 2412SOL     OW 8134   3.508   4.734   0.216
 2412SOL    HW1 8135   3.549   4.673   0.283
 2412SOL    HW2 8136   3.570   4.745   0.138
 2413SOL     OW 8137   6.631   2.145   0.108
 2413SOL    HW1 8138   6.689   2.068   0.079
 2413SOL    HW2 8139   6.539   2.112   0.129
 2414SOL     OW 8140   5.392   4.266   2.118
 2414SOL    HW1 8141   5.472   4.212   2.146
 2414SOL    HW2 8142   5.309   4.221   2.150
 2415SOL     OW 8143   1.158   6.682   0.968
 2415SOL    HW1 8144   1.209   6.597   0.958
 2415SOL    HW2 8145   1.067   6.663   1.004
 2416SOL     OW 8146   3.439   1.939   5.187
 2416SOL    HW1 8147   3.340   1.942   5.173
 2416SOL    HW2 8148   3.476   2.032   5.191
 2417SOL     OW 8149   4.057   3.445   6.302
 2417SOL    HW1 8150   4.018   3.523   6.351
 2417SOL    HW2 8151   4.048   3.363   6.358
 2418SOL     OW 8152   3.169   3.864   3.953
 2418SOL    HW1 8153   3.217   3.949   3.975
 2418SOL    HW2 8154   3.144   3.864   3.856
 2419SOL     OW 8155   0.630   6.472   3.794
 2419SOL    HW1 8156   0.644   6.429   3.705
 2419SOL    HW2 8157   0.619   6.570   3.783
 2420SOL     OW 8158   3.623   1.498   2.006
 2420SOL    HW1 8159   3.649   1.402   2.014
 2420SOL    HW2 8160   3.588   1.516   1.914
 2421SOL     OW 8161   2.678   1.022   5.059
 2421SOL    HW1 8162   2.763   1.062   5.095
 2421SOL    HW2 8163   2.627   1.092   5.009
 2422SOL     OW 8164   6.052   0.549   2.226
 2422SOL    HW1 8165   6.071   0.639   2.265
 2422SOL    HW2 8166   5.967   0.554   2.173
 2423SOL     OW 8167   1.595   6.472   3.768
 2423SOL    HW1 8168   1.669   6.462   3.834
 2423SOL    HW2 8169   1.540   6.552   3.790
 2424SOL     OW 8170   6.075   5.969   6.186
 2424SOL    HW1 8171   6.060   5.991   6.089
 2424SOL    HW2 8172   6.141   5.894   6.193
 2425SOL     OW 8173   6.241   0.351   4.419
 2425SOL    HW1 8174   6.288   0.301   4.492
 2425SOL    HW2 8175   6.151   0.309   4.402
 2426SOL     OW 8176   0.680   4.708   3.824
 2426SOL    HW1 8177   0.745   4.777   3.858
 2426SOL    HW2 8178   0.648   4.735   3.733
 2427SOL     OW 8179   6.040   5.153   6.823
 2427SOL    HW1 8180   6.009   5.189   6.735
 2427SOL    HW2 8181   6.110   5.213   6.861
 2428SOL     OW 8182   0.071   0.203   3.395
 2428SOL    HW1 8183   0.110   0.213   3.486
 2428SOL    HW2 8184   6.992   0.202   3.402
 2429SOL     OW 8185   6.861   5.766   4.680
 2429SOL    HW1 8186   6.853   5.843   4.617
 2429SOL    HW2 8187   6.853   5.680   4.629
 2430SOL     OW 8188   6.475   2.293   1.193
 2430SOL    HW1 8189   6.438   2.384   1.180
 2430SOL    HW2 8190   6.499   2.253   1.105
 2431SOL     OW 8191   3.532   0.425   1.907
 2431SOL    HW1 8192   3.570   0.360   1.973
 2431SOL    HW2 8193   3.446   0.460   1.942
 2432SOL     OW 8194   3.806   6.395   3.156
 2432SOL    HW1 8195   3.852   6.431   3.075
 2432SOL    HW2 8196   3.844   6.438   3.238
 2433SOL     OW 8197   3.419   6.116   0.932
 2433SOL    HW1 8198   3.445   6.106   1.028
 2433SOL    HW2 8199   3.487   6.174   0.886
 2434SOL     OW 8200   4.754   1.409   3.407
 2434SOL    HW1 8201   4.658   1.381   3.400
 2434SOL    HW2 8202   4.769   1.490   3.351
 2435SOL     OW 8203   4.630   5.629   5.853
 2435SOL    HW1 8204   4.726   5.631   5.827
 2435SOL    HW2 8205   4.574   5.652   5.773
 2436SOL     OW 8206   1.760   6.455   1.292
 2436SOL    HW1 8207   1.837   6.518   1.307
 2436SOL    HW2 8208   1.681   6.507   1.260
 2437SOL     OW 8209   4.050   6.160   1.024
 2437SOL    HW1 8210   4.010   6.243   0.986
 2437SOL    HW2 8211   4.018   6.081   0.971
 2438SOL     OW 8212   3.563   1.610   5.735
 2438SOL    HW1 8213   3.620   1.634   5.656
 2438SOL    HW2 8214   3.516   1.524   5.716
 2439SOL     OW 8215   1.360   4.305   6.908
 2439SOL    HW1 8216   1.359   4.258   6.996
 2439SOL    HW2 8217   1.345   4.239   6.834
 2440SOL     OW 8218   3.579   6.521   4.799
 2440SOL    HW1 8219   3.500   6.494   4.855
 2440SOL    HW2 8220   3.643   6.574   4.854
 2441SOL     OW 8221   6.813   0.597   0.154
 2441SOL    HW1 8222   6.876   0.523   0.131
 2441SOL    HW2 8223   6.774   0.581   0.245
 2442SOL     OW 8224   6.673   5.922   4.282
 2442SOL    HW1 8225   6.662   5.987   4.206
 2442SOL    HW2 8226   6.584   5.882   4.305
 2443SOL     OW 8227   3.358   6.756   6.630
 2443SOL    HW1 8228   3.440   6.729   6.579
 2443SOL    HW2 8229   3.377   6.749   6.728
 2444SOL     OW 8230   3.773   4.657   6.191
 2444SOL    HW1 8231   3.772   4.568   6.237
 2444SOL    HW2 8232   3.765   4.729   6.260
 2445SOL     OW 8233   0.080   0.791   2.123
 2445SOL    HW1 8234   0.043   0.703   2.151
 2445SOL    HW2 8235   0.010   0.842   2.072
 2446SOL     OW 8236   0.242   3.155   4.354
 2446SOL    HW1 8237   0.249   3.076   4.293
 2446SOL    HW2 8238   0.205   3.233   4.303
 2447SOL     OW 8239   2.503   1.068   0.858
 2447SOL    HW1 8240   2.410   1.100   0.842
 2447SOL    HW2 8241   2.505   0.968   0.857
 2448SOL     OW 8242   1.098   0.199   5.372
 2448SOL    HW1 8243   1.015   0.236   5.413
 2448SOL    HW2 8244   1.085   0.186   5.274
 2449SOL     OW 8245   0.190   4.316   2.415
 2449SOL    HW1 8246   0.090   4.328   2.412
 2449SOL    HW2 8247   0.212   4.220   2.396
 2450SOL     OW 8248   2.836   4.803   4.441
 2450SOL    HW1 8249   2.791   4.718   4.470
 2450SOL    HW2 8250   2.786   4.842   4.363
 2451SOL     OW 8251   0.561   0.405   4.177
 2451SOL    HW1 8252   0.650   0.371   4.205
 2451SOL    HW2 8253   0.516   0.450   4.254
 2452SOL     OW 8254   2.348   2.322   3.224
 2452SOL    HW1 8255   2.277   2.352   3.161
 2452SOL    HW2 8256   2.407   2.399   3.248
 2453SOL     OW 8257   6.816   3.604   1.106
 2453SOL    HW1 8258   6.851   3.657   1.184
 2453SOL    HW2 8259   6.892   3.557   1.061
 2454SOL     OW 8260   3.350   1.393   0.396
 2454SOL    HW1 8261   3.277   1.448   0.436
 2454SOL    HW2 8262   3.435   1.446   0.396
 2455SOL     OW 8263   5.409   6.986   0.689
 2455SOL    HW1 8264   5.454   6.962   0.603
 2455SOL    HW2 8265   5.318   6.946   0.692
 2456SOL     OW 8266   5.654   1.041   0.057
 2456SOL    HW1 8267   5.700   1.089   0.132
 2456SOL    HW2 8268   5.631   0.948   0.087
 2457SOL     OW 8269   5.814   5.897   6.983
 2457SOL    HW1 8270   5.903   5.937   7.002
 2457SOL    HW2 8271   5.755   5.967   6.941
 2458SOL     OW 8272   2.443   5.335   4.236
 2458SOL    HW1 8273   2.473   5.277   4.312
 2458SOL    HW2 8274   2.422   5.426   4.270
 2459SOL     OW 8275   2.501   6.262   0.770
 2459SOL    HW1 8276   2.478   6.359   0.762
 2459SOL    HW2 8277   2.435   6.208   0.718
 2460SOL     OW 8278   2.301   1.086   1.836
 2460SOL    HW1 8279   2.307   1.149   1.914
 2460SOL    HW2 8280   2.262   1.133   1.758
 2461SOL     OW 8281   4.056   0.177   3.143
 2461SOL    HW1 8282   4.010   0.090   3.157
 2461SOL    HW2 8283   4.011   0.228   3.069
 2462SOL     OW 8284   2.684   5.153   0.244
 2462SOL    HW1 8285   2.737   5.192   0.169
 2462SOL    HW2 8286   2.593   5.128   0.211
 2463SOL     OW 8287   6.367   2.378   3.732
 2463SOL    HW1 8288   6.272   2.398   3.759
 2463SOL    HW2 8289   6.418   2.349   3.813
 2464SOL     OW 8290   1.579   4.628   1.866
 2464SOL    HW1 8291   1.599   4.538   1.905
 2464SOL    HW2 8292   1.665   4.671   1.839
 2465SOL     OW 8293   0.384   6.404   1.373
 2465SOL    HW1 8294   0.370   6.492   1.330
 2465SOL    HW2 8295   0.465   6.360   1.335
 2466SOL     OW 8296   3.667   1.680   2.205
 2466SOL    HW1 8297   3.760   1.716   2.212
 2466SOL    HW2 8298   3.666   1.601   2.144
 2467SOL     OW 8299   5.238   1.573   5.173
 2467SOL    HW1 8300   5.233   1.578   5.273
 2467SOL    HW2 8301   5.288   1.491   5.146
 2468SOL     OW 8302   5.504   6.469   2.539
 2468SOL    HW1 8303   5.584   6.410   2.553
 2468SOL    HW2 8304   5.534   6.561   2.515
 2469SOL     OW 8305   3.534   4.485   5.331
 2469SOL    HW1 8306   3.503   4.572   5.294
 2469SOL    HW2 8307   3.581   4.499   5.418
 2470SOL     OW 8308   3.351   4.272   5.544
 2470SOL    HW1 8309   3.341   4.344   5.475
 2470SOL    HW2 8310   3.350   4.183   5.498
 2471SOL     OW 8311   2.228   6.828   1.111
 2471SOL    HW1 8312   2.327   6.834   1.098
 2471SOL    HW2 8313   2.203   6.734   1.133
 2472SOL     OW 8314   4.606   1.609   3.649
 2472SOL    HW1 8315   4.667   1.558   3.589
 2472SOL    HW2 8316   4.513   1.575   3.639
 2473SOL     OW 8317   1.752   4.102   4.956
 2473SOL    HW1 8318   1.700   4.066   4.878
 2473SOL    HW2 8319   1.833   4.150   4.924
 2474SOL     OW 8320   0.307   5.535   0.398
 2474SOL    HW1 8321   0.367   5.587   0.337
 2474SOL    HW2 8322   0.344   5.442   0.409
 2475SOL     OW 8323   4.648   1.324   0.620
 2475SOL    HW1 8324   4.629   1.391   0.692
 2475SOL    HW2 8325   4.639   1.232   0.659
 2476SOL     OW 8326   1.319   2.918   3.455
 2476SOL    HW1 8327   1.382   2.864   3.399
 2476SOL    HW2 8328   1.290   2.864   3.534
 2477SOL     OW 8329   6.000   0.641   2.730
 2477SOL    HW1 8330   5.947   0.655   2.647
 2477SOL    HW2 8331   6.097   0.633   2.707
 2478SOL     OW 8332   5.528   0.434   2.284
 2478SOL    HW1 8333   5.547   0.392   2.372
 2478SOL    HW2 8334   5.551   0.369   2.211
 2479SOL     OW 8335   1.617   3.659   1.315
 2479SOL    HW1 8336   1.644   3.750   1.285
 2479SOL    HW2 8337   1.521   3.643   1.291
 2480SOL     OW 8338   5.858   4.344   0.990
 2480SOL    HW1 8339   5.863   4.248   0.961
 2480SOL    HW2 8340   5.790   4.354   1.062
 2481SOL     OW 8341   2.514   6.847   0.237
 2481SOL    HW1 8342   2.488   6.788   0.314
 2481SOL    HW2 8343   2.461   6.932   0.240
 2482SOL     OW 8344   5.065   2.955   5.461
 2482SOL    HW1 8345   5.163   2.937   5.449
 2482SOL    HW2 8346   5.012   2.889   5.408
 2483SOL     OW 8347   1.917   1.069   6.610
 2483SOL    HW1 8348   1.838   1.076   6.670
 2483SOL    HW2 8349   1.894   1.012   6.531
 2484SOL     OW 8350   2.170   0.587   0.663
 2484SOL    HW1 8351   2.232   0.663   0.684
 2484SOL    HW2 8352   2.086   0.623   0.622
 2485SOL     OW 8353   4.638   4.529   1.953
 2485SOL    HW1 8354   4.643   4.511   1.854
 2485SOL    HW2 8355   4.617   4.444   2.001
 2486SOL     OW 8356   3.275   5.634   2.709
 2486SOL    HW1 8357   3.305   5.539   2.696
 2486SOL    HW2 8358   3.176   5.638   2.701
 2487SOL     OW 8359   3.570   5.302   6.226
 2487SOL    HW1 8360   3.584   5.320   6.128
 2487SOL    HW2 8361   3.545   5.206   6.239
 2488SOL     OW 8362   2.215   3.966   2.172
 2488SOL    HW1 8363   2.172   3.879   2.196
 2488SOL    HW2 8364   2.289   3.950   2.106
 2489SOL     OW 8365   2.147   5.488   3.775
 2489SOL    HW1 8366   2.246   5.479   3.788
 2489SOL    HW2 8367   2.114   5.415   3.716
 2490SOL     OW 8368   6.750   5.584   0.875
 2490SOL    HW1 8369   6.785   5.645   0.804
 2490SOL    HW2 8370   6.650   5.596   0.881
 2491SOL     OW 8371   2.445   6.399   1.923
 2491SOL    HW1 8372   2.541   6.426   1.923
 2491SOL    HW2 8373   2.403   6.429   2.009
 2492SOL     OW 8374   4.377   3.281   6.844
 2492SOL    HW1 8375   4.339   3.359   6.795
 2492SOL    HW2 8376   4.451   3.312   6.904
 2493SOL     OW 8377   5.563   0.149   3.060
 2493SOL    HW1 8378   5.542   0.052   3.051
 2493SOL    HW2 8379   5.660   0.164   3.042
 2494SOL     OW 8380   5.935   3.411   2.543
 2494SOL    HW1 8381   5.854   3.469   2.553
 2494SOL    HW2 8382   5.961   3.407   2.447
 2495SOL     OW 8383   5.271   0.007   4.850
 2495SOL    HW1 8384   5.236   0.058   4.772
 2495SOL    HW2 8385   5.366   0.033   4.867
 2496SOL     OW 8386   1.027   4.709   6.348
 2496SOL    HW1 8387   0.986   4.729   6.260
 2496SOL    HW2 8388   0.957   4.679   6.412
 2497SOL     OW 8389   6.723   1.487   0.582
 2497SOL    HW1 8390   6.743   1.498   0.679
 2497SOL    HW2 8391   6.669   1.565   0.550
 2498SOL     OW 8392   2.923   2.275   3.377
 2498SOL    HW1 8393   2.854   2.310   3.441
 2498SOL    HW2 8394   2.978   2.205   3.422
 2499SOL     OW 8395   5.228   1.406   4.605
 2499SOL    HW1 8396   5.254   1.453   4.521
 2499SOL    HW2 8397   5.304   1.408   4.669
 2500SOL     OW 8398   4.189   3.212   5.705
 2500SOL    HW1 8399   4.244   3.289   5.672
 2500SOL    HW2 8400   4.245   3.129   5.707
 2501SOL     OW 8401   0.217   5.831   6.813
 2501SOL    HW1 8402   0.194   5.736   6.793
 2501SOL    HW2 8403   0.273   5.868   6.739
 2502SOL     OW 8404   2.430   6.093   3.453
 2502SOL    HW1 8405   2.457   6.005   3.493
 2502SOL    HW2 8406   2.391   6.078   3.362
 2503SOL     OW 8407   3.492   5.913   5.616
 2503SOL    HW1 8408   3.467   5.874   5.528
 2503SOL    HW2 8409   3.527   6.005   5.604
 2504SOL     OW 8410   3.169   6.049   5.244
 2504SOL    HW1 8411   3.245   6.031   5.181
 2504SOL    HW2 8412   3.085   6.009   5.206
 2505SOL     OW 8413   1.627   6.559   4.388
 2505SOL    HW1 8414   1.719   6.520   4.394
 2505SOL    HW2 8415   1.620   6.639   4.447
 2506SOL     OW 8416   6.249   3.124   6.109
 2506SOL    HW1 8417   6.177   3.104   6.042
 2506SOL    HW2 8418   6.295   3.039   6.134
 2507SOL     OW 8419   6.814   4.290   0.054
 2507SOL    HW1 8420   6.817   4.386   0.028
 2507SOL    HW2 8421   6.908   4.255   0.060
 2508SOL     OW 8422   2.647   1.663   2.240
 2508SOL    HW1 8423   2.658   1.760   2.217
 2508SOL    HW2 8424   2.653   1.608   2.157
 2509SOL     OW 8425   5.425   2.755   2.824
 2509SOL    HW1 8426   5.331   2.748   2.790
 2509SOL    HW2 8427   5.482   2.800   2.755
 2510SOL     OW 8428   3.143   4.482   0.781
 2510SOL    HW1 8429   3.068   4.497   0.716
 2510SOL    HW2 8430   3.188   4.395   0.759
 2511SOL     OW 8431   2.007   2.083   4.818
 2511SOL    HW1 8432   2.074   2.156   4.808
 2511SOL    HW2 8433   1.920   2.122   4.849
 2512SOL     OW 8434   5.692   5.097   5.611
 2512SOL    HW1 8435   5.786   5.093   5.577
 2512SOL    HW2 8436   5.628   5.087   5.534
 2513SOL     OW 8437   1.664   2.656   5.921
 2513SOL    HW1 8438   1.602   2.716   5.870
 2513SOL    HW2 8439   1.725   2.711   5.978
 2514SOL     OW 8440   0.202   3.391   4.194
 2514SOL    HW1 8441   0.287   3.441   4.211
 2514SOL    HW2 8442   0.128   3.455   4.175
 2515SOL     OW 8443   1.259   6.527   0.673
 2515SOL    HW1 8444   1.269   6.441   0.624
 2515SOL    HW2 8445   1.304   6.521   0.762
 2516SOL     OW 8446   6.120   6.408   2.848
 2516SOL    HW1 8447   6.173   6.330   2.815
 2516SOL    HW2 8448   6.152   6.434   2.940
 2517SOL     OW 8449   1.827   5.532   5.641
 2517SOL    HW1 8450   1.895   5.576   5.700
 2517SOL    HW2 8451   1.805   5.593   5.564
 2518SOL     OW 8452   2.129   3.197   0.617
 2518SOL    HW1 8453   2.054   3.145   0.576
 2518SOL    HW2 8454   2.114   3.294   0.603
 2519SOL     OW 8455   5.124   5.157   4.321
 2519SOL    HW1 8456   5.113   5.058   4.334
 2519SOL    HW2 8457   5.113   5.204   4.408
 2520SOL     OW 8458   1.009   3.344   1.092
 2520SOL    HW1 8459   0.939   3.280   1.061
 2520SOL    HW2 8460   1.090   3.294   1.122
 2521SOL     OW 8461   1.302   6.457   5.642
 2521SOL    HW1 8462   1.372   6.388   5.624
 2521SOL    HW2 8463   1.239   6.423   5.712
 2522SOL     OW 8464   0.961   2.896   5.783
 2522SOL    HW1 8465   0.899   2.841   5.728
 2522SOL    HW2 8466   1.044   2.917   5.730
 2523SOL     OW 8467   0.636   3.359   1.129
 2523SOL    HW1 8468   0.633   3.367   1.229
 2523SOL    HW2 8469   0.650   3.450   1.089
 2524SOL     OW 8470   0.644   6.150   4.309
 2524SOL    HW1 8471   0.672   6.059   4.339
 2524SOL    HW2 8472   0.708   6.182   4.239
 2525SOL     OW 8473   1.021   2.578   4.630
 2525SOL    HW1 8474   1.074   2.654   4.594
 2525SOL    HW2 8475   1.074   2.531   4.701
 2526SOL     OW 8476   0.919   3.988   5.556
 2526SOL    HW1 8477   1.007   4.020   5.519
 2526SOL    HW2 8478   0.848   4.054   5.534
 2527SOL     OW 8479   4.863   6.942   4.995
 2527SOL    HW1 8480   4.956   6.961   5.028
 2527SOL    HW2 8481   4.801   6.932   5.072
 2528SOL     OW 8482   6.138   4.442   1.018
 2528SOL    HW1 8483   6.039   4.440   1.035
 2528SOL    HW2 8484   6.180   4.513   1.074
 2529SOL     OW 8485   5.969   4.949   6.296
 2529SOL    HW1 8486   5.931   4.932   6.387
 2529SOL    HW2 8487   6.002   4.863   6.257
 2530SOL     OW 8488   1.224   6.019   5.063
 2530SOL    HW1 8489   1.191   5.934   5.103
 2530SOL    HW2 8490   1.305   6.001   5.008
 2531SOL     OW 8491   5.458   5.444   4.643
 2531SOL    HW1 8492   5.462   5.512   4.717
 2531SOL    HW2 8493   5.497   5.483   4.560
 2532SOL     OW 8494   0.475   5.912   0.407
 2532SOL    HW1 8495   0.483   5.838   0.341
 2532SOL    HW2 8496   0.534   5.893   0.485
 2533SOL     OW 8497   5.139   6.329   4.224
 2533SOL    HW1 8498   5.178   6.339   4.316
 2533SOL    HW2 8499   5.197   6.375   4.158
 2534SOL     OW 8500   2.298   0.179   3.479
 2534SOL    HW1 8501   2.312   0.119   3.401
 2534SOL    HW2 8502   2.357   0.260   3.470
 2535SOL     OW 8503   2.548   2.110   6.956
 2535SOL    HW1 8504   2.581   2.089   0.026
 2535SOL    HW2 8505   2.502   2.199   6.957
 2536SOL     OW 8506   0.961   1.869   3.502
 2536SOL    HW1 8507   0.867   1.904   3.496
 2536SOL    HW2 8508   0.999   1.892   3.592
 2537SOL     OW 8509   5.203   6.123   0.267
 2537SOL    HW1 8510   5.205   6.071   0.353
 2537SOL    HW2 8511   5.262   6.077   0.200
 2538SOL     OW 8512   1.683   4.467   5.008
 2538SOL    HW1 8513   1.768   4.513   4.985
 2538SOL    HW2 8514   1.662   4.398   4.939
 2539SOL     OW 8515   3.889   0.338   5.883
 2539SOL    HW1 8516   3.846   0.399   5.816
 2539SOL    HW2 8517   3.938   0.392   5.951
 2540SOL     OW 8518   4.680   0.701   1.002
 2540SOL    HW1 8519   4.636   0.776   0.953
 2540SOL    HW2 8520   4.630   0.616   0.985
 2541SOL     OW 8521   1.751   0.324   6.081
 2541SOL    HW1 8522   1.727   0.287   5.991
 2541SOL    HW2 8523   1.718   0.418   6.089
 2542SOL     OW 8524   3.857   2.054   4.716
 2542SOL    HW1 8525   3.887   1.961   4.694
 2542SOL    HW2 8526   3.788   2.083   4.649
 2543SOL     OW 8527   2.169   0.827   2.983
 2543SOL    HW1 8528   2.077   0.857   3.009
 2543SOL    HW2 8529   2.185   0.848   2.887
 2544SOL     OW 8530   0.062   4.978   2.238
 2544SOL    HW1 8531   6.997   4.938   2.268
 2544SOL    HW2 8532   0.089   4.935   2.151
 2545SOL     OW 8533   1.420   0.632   1.452
 2545SOL    HW1 8534   1.336   0.578   1.464
 2545SOL    HW2 8535   1.460   0.651   1.542
 2546SOL     OW 8536   5.916   3.188   1.360
 2546SOL    HW1 8537   5.988   3.126   1.392
 2546SOL    HW2 8538   5.863   3.222   1.438
 2547SOL     OW 8539   5.283   5.416   6.882
 2547SOL    HW1 8540   5.304   5.481   6.809
 2547SOL    HW2 8541   5.353   5.344   6.884
 2548SOL     OW 8542   2.446   0.791   5.256
 2548SOL    HW1 8543   2.365   0.740   5.286
 2548SOL    HW2 8544   2.416   0.869   5.201
 2549SOL     OW 8545   2.228   2.023   1.716
 2549SOL    HW1 8546   2.262   1.929   1.719
 2549SOL    HW2 8547   2.139   2.028   1.760
 2550SOL     OW 8548   5.950   1.245   6.565
 2550SOL    HW1 8549   5.874   1.193   6.526
 2550SOL    HW2 8550   5.994   1.190   6.636
 2551SOL     OW 8551   3.461   5.522   0.270
 2551SOL    HW1 8552   3.515   5.513   0.186
 2551SOL    HW2 8553   3.368   5.548   0.247
 2552SOL     OW 8554   1.696   5.488   6.573
 2552SOL    HW1 8555   1.638   5.543   6.513
 2552SOL    HW2 8556   1.731   5.409   6.522
 2553SOL     OW 8557   3.028   3.140   6.372
 2553SOL    HW1 8558   2.934   3.138   6.338
 2553SOL    HW2 8559   3.074   3.222   6.337
 2554SOL     OW 8560   1.516   5.665   6.825
 2554SOL    HW1 8561   1.613   5.643   6.833
 2554SOL    HW2 8562   1.463   5.603   6.883
 2555SOL     OW 8563   5.915   6.143   6.421
 2555SOL    HW1 8564   5.983   6.147   6.348
 2555SOL    HW2 8565   5.961   6.153   6.510
 2556SOL     OW 8566   4.327   6.085   0.956
 2556SOL    HW1 8567   4.324   6.109   0.859
 2556SOL    HW2 8568   4.242   6.113   1.000
 2557SOL     OW 8569   2.271   1.226   6.521
 2557SOL    HW1 8570   2.308   1.312   6.556
 2557SOL    HW2 8571   2.172   1.224   6.536
 2558SOL     OW 8572   3.972   3.896   5.153
 2558SOL    HW1 8573   3.969   3.911   5.252
 2558SOL    HW2 8574   3.901   3.951   5.109
 2559SOL     OW 8575   6.044   3.230   4.000
 2559SOL    HW1 8576   6.115   3.165   4.027
 2559SOL    HW2 8577   5.978   3.186   3.940
 2560SOL     OW 8578   4.849   3.721   3.742
 2560SOL    HW1 8579   4.927   3.666   3.710
 2560SOL    HW2 8580   4.812   3.680   3.826
 2561SOL     OW 8581   3.184   0.617   3.641
 2561SOL    HW1 8582   3.246   0.680   3.594
 2561SOL    HW2 8583   3.163   0.540   3.580
 2562SOL     OW 8584   2.388   5.212   3.168
 2562SOL    HW1 8585   2.424   5.306   3.169
 2562SOL    HW2 8586   2.325   5.202   3.091
 2563SOL     OW 8587   3.756   1.423   6.219
 2563SOL    HW1 8588   3.833   1.481   6.192
 2563SOL    HW2 8589   3.691   1.477   6.273
 2564SOL     OW 8590   1.543   6.208   6.948
 2564SOL    HW1 8591   1.601   6.152   6.888
 2564SOL    HW2 8592   1.547   6.303   6.919
 2565SOL     OW 8593   0.422   0.698   0.961
 2565SOL    HW1 8594   0.382   0.615   0.999
 2565SOL    HW2 8595   0.496   0.673   0.898
 2566SOL     OW 8596   1.286   6.953   0.639
 2566SOL    HW1 8597   1.251   7.011   0.566
 2566SOL    HW2 8598   1.330   6.872   0.600
 2567SOL     OW 8599   1.348   1.450   1.844
 2567SOL    HW1 8600   1.329   1.417   1.751
 2567SOL    HW2 8601   1.269   1.430   1.903
 2568SOL     OW 8602   3.540   0.173   0.521
 2568SOL    HW1 8603   3.610   0.242   0.505
 2568SOL    HW2 8604   3.527   0.119   0.437
 2569SOL     OW 8605   2.131   1.370   2.201
 2569SOL    HW1 8606   2.212   1.399   2.251
 2569SOL    HW2 8607   2.098   1.283   2.238
 2570SOL     OW 8608   4.976   6.620   6.226
 2570SOL    HW1 8609   4.912   6.583   6.159
 2570SOL    HW2 8610   5.003   6.713   6.200
 2571SOL     OW 8611   2.981   3.233   4.353
 2571SOL    HW1 8612   2.993   3.163   4.423
 2571SOL    HW2 8613   3.059   3.296   4.354
 2572SOL     OW 8614   1.430   6.530   0.886
 2572SOL    HW1 8615   1.492   6.514   0.809
 2572SOL    HW2 8616   1.453   6.468   0.960
 2573SOL     OW 8617   6.578   0.987   1.950
 2573SOL    HW1 8618   6.496   1.039   1.927
 2573SOL    HW2 8619   6.585   0.976   2.049
 2574SOL     OW 8620   6.428   3.246   0.426
 2574SOL    HW1 8621   6.341   3.292   0.412
 2574SOL    HW2 8622   6.467   3.273   0.514
 2575SOL     OW 8623   4.872   3.763   1.629
 2575SOL    HW1 8624   4.881   3.828   1.553
 2575SOL    HW2 8625   4.940   3.691   1.619
 2576SOL     OW 8626   4.054   6.520   3.917
 2576SOL    HW1 8627   4.095   6.602   3.958
 2576SOL    HW2 8628   3.959   6.511   3.948
 2577SOL     OW 8629   4.712   0.279   3.223
 2577SOL    HW1 8630   4.693   0.221   3.303
 2577SOL    HW2 8631   4.626   0.318   3.189
 2578SOL     OW 8632   4.035   3.005   5.587
 2578SOL    HW1 8633   4.038   2.962   5.497
 2578SOL    HW2 8634   4.064   3.100   5.580
 2579SOL     OW 8635   1.321   1.665   4.661
 2579SOL    HW1 8636   1.403   1.714   4.631
 2579SOL    HW2 8637   1.269   1.636   4.581
 2580SOL     OW 8638   1.593   3.062   6.549
 2580SOL    HW1 8639   1.537   3.139   6.579
 2580SOL    HW2 8640   1.603   3.065   6.449
 2581SOL     OW 8641   5.755   4.575   1.868
 2581SOL    HW1 8642   5.814   4.586   1.948
 2581SOL    HW2 8643   5.781   4.492   1.818
 2582SOL     OW 8644   1.750   4.799   2.728
 2582SOL    HW1 8645   1.794   4.833   2.812
 2582SOL    HW2 8646   1.783   4.852   2.650
 2583SOL     OW 8647   1.533   0.903   1.437
 2583SOL    HW1 8648   1.589   0.825   1.407
 2583SOL    HW2 8649   1.474   0.931   1.362
 2584SOL     OW 8650   3.916   5.634   0.145
 2584SOL    HW1 8651   3.945   5.545   0.109
 2584SOL    HW2 8652   3.828   5.625   0.190
 2585SOL     OW 8653   3.442   0.669   0.085
 2585SOL    HW1 8654   3.460   0.677   7.008
 2585SOL    HW2 8655   3.389   0.587   0.103
 2586SOL     OW 8656   4.905   2.109   4.286
 2586SOL    HW1 8657   4.939   2.159   4.365
 2586SOL    HW2 8658   4.816   2.068   4.307
 2587SOL     OW 8659   6.681   1.214   4.553
 2587SOL    HW1 8660   6.679   1.235   4.456
 2587SOL    HW2 8661   6.618   1.275   4.602
 2588SOL     OW 8662   4.697   0.338   0.040
 2588SOL    HW1 8663   4.727   0.342   0.135
 2588SOL    HW2 8664   4.659   0.248   0.021
 2589SOL     OW 8665   0.394   6.426   5.691
 2589SOL    HW1 8666   0.309   6.395   5.734
 2589SOL    HW2 8667   0.466   6.359   5.708
 2590SOL     OW 8668   3.478   6.175   2.378
 2590SOL    HW1 8669   3.525   6.179   2.289
 2590SOL    HW2 8670   3.454   6.080   2.398
 2591SOL     OW 8671   5.834   6.086   2.452
 2591SOL    HW1 8672   5.813   6.170   2.501
 2591SOL    HW2 8673   5.768   6.071   2.379
 2592SOL     OW 8674   2.754   0.272   0.922
 2592SOL    HW1 8675   2.800   0.285   0.834
 2592SOL    HW2 8676   2.805   0.206   0.977
 2593SOL     OW 8677   3.208   6.603   2.152
 2593SOL    HW1 8678   3.112   6.631   2.151
 2593SOL    HW2 8679   3.251   6.634   2.236
 2594SOL     OW 8680   0.241   6.030   5.984
 2594SOL    HW1 8681   0.308   6.022   5.910
 2594SOL    HW2 8682   0.205   5.939   6.006
 2595SOL     OW 8683   6.310   1.532   5.484
 2595SOL    HW1 8684   6.381   1.602   5.477
 2595SOL    HW2 8685   6.313   1.489   5.574
 2596SOL     OW 8686   3.898   2.194   1.728
 2596SOL    HW1 8687   3.972   2.178   1.794
 2596SOL    HW2 8688   3.815   2.221   1.776
 2597SOL     OW 8689   1.859   4.351   0.567
 2597SOL    HW1 8690   1.913   4.339   0.484
 2597SOL    HW2 8691   1.919   4.376   0.643
 2598SOL     OW 8692   5.937   1.565   4.465
 2598SOL    HW1 8693   5.983   1.478   4.483
 2598SOL    HW2 8694   6.004   1.633   4.433
 2599SOL     OW 8695   3.124   6.343   0.547
 2599SOL    HW1 8696   3.158   6.301   0.631
 2599SOL    HW2 8697   3.188   6.324   0.472
 2600SOL     OW 8698   4.909   3.575   4.739
 2600SOL    HW1 8699   4.912   3.477   4.718
 2600SOL    HW2 8700   4.864   3.588   4.828
 2601SOL     OW 8701   3.467   1.535   6.945
 2601SOL    HW1 8702   3.406   1.597   6.993
 2601SOL    HW2 8703   3.533   1.496   7.009
 2602SOL     OW 8704   6.769   5.017   3.749
 2602SOL    HW1 8705   6.689   5.073   3.728
 2602SOL    HW2 8706   6.812   4.987   3.663
 2603SOL     OW 8707   2.368   2.622   1.484
 2603SOL    HW1 8708   2.414   2.690   1.541
 2603SOL    HW2 8709   2.344   2.663   1.396
 2604SOL     OW 8710   5.081   1.178   2.924
 2604SOL    HW1 8711   5.159   1.237   2.946
 2604SOL    HW2 8712   5.051   1.195   2.831
 2605SOL     OW 8713   3.224   5.179   3.558
 2605SOL    HW1 8714   3.188   5.087   3.540
 2605SOL    HW2 8715   3.301   5.173   3.621
 2606SOL     OW 8716   6.768   4.751   0.287
 2606SOL    HW1 8717   6.748   4.665   0.333
 2606SOL    HW2 8718   6.764   4.738   0.188
 2607SOL     OW 8719   0.650   1.973   6.225
 2607SOL    HW1 8720   0.708   2.038   6.175
 2607SOL    HW2 8721   0.588   1.927   6.161
 2608SOL     OW 8722   3.923   5.628   2.361
 2608SOL    HW1 8723   3.829   5.628   2.393
 2608SOL    HW2 8724   3.968   5.712   2.389
 2609SOL     OW 8725   0.423   2.673   1.446
 2609SOL    HW1 8726   0.509   2.709   1.410
 2609SOL    HW2 8727   0.387   2.736   1.515
 2610SOL     OW 8728   6.988   4.973   4.577
 2610SOL    HW1 8729   6.982   5.072   4.563
 2610SOL    HW2 8730   7.009   4.928   4.491
 2611SOL     OW 8731   5.755   6.959   1.326
 2611SOL    HW1 8732   5.682   6.895   1.301
 2611SOL    HW2 8733   5.743   0.023   1.276
 2612SOL     OW 8734   0.130   6.277   6.009
 2612SOL    HW1 8735   0.188   6.202   5.978
 2612SOL    HW2 8736   0.035   6.257   5.987
 2613SOL     OW 8737   3.147   6.409   1.165
 2613SOL    HW1 8738   3.097   6.393   1.080
 2613SOL    HW2 8739   3.115   6.494   1.208
 2614SOL     OW 8740   6.961   0.031   6.417
 2614SOL    HW1 8741   6.965   6.996   6.499
 2614SOL    HW2 8742   6.875   0.082   6.416
 2615SOL     OW 8743   6.149   4.410   2.830
 2615SOL    HW1 8744   6.151   4.509   2.840
 2615SOL    HW2 8745   6.076   4.372   2.888
 2616SOL     OW 8746   4.003   3.573   3.699
 2616SOL    HW1 8747   3.928   3.621   3.654
 2616SOL    HW2 8748   4.040   3.629   3.773
 2617SOL     OW 8749   3.786   6.360   1.187
 2617SOL    HW1 8750   3.691   6.329   1.179
 2617SOL    HW2 8751   3.820   6.338   1.278
 2618SOL     OW 8752   0.368   6.752   3.918
 2618SOL    HW1 8753   0.337   6.696   3.995
 2618SOL    HW2 8754   0.311   6.833   3.911
 2619SOL     OW 8755   2.818   1.537   3.413
 2619SOL    HW1 8756   2.841   1.451   3.366
 2619SOL    HW2 8757   2.771   1.517   3.499
 2620SOL     OW 8758   0.735   5.933   3.485
 2620SOL    HW1 8759   0.713   5.989   3.566
 2620SOL    HW2 8760   0.698   5.977   3.404
 2621SOL     OW 8761   2.105   5.919   3.068
 2621SOL    HW1 8762   2.060   5.962   2.990
 2621SOL    HW2 8763   2.144   5.989   3.128
 2622SOL     OW 8764   2.875   1.713   0.138
 2622SOL    HW1 8765   2.809   1.742   0.068
 2622SOL    HW2 8766   2.842   1.628   0.181
 2623SOL     OW 8767   3.412   1.829   4.654
 2623SOL    HW1 8768   3.384   1.877   4.737
 2623SOL    HW2 8769   3.333   1.818   4.594
 2624SOL     OW 8770   6.359   3.393   4.905
 2624SOL    HW1 8771   6.280   3.432   4.953
 2624SOL    HW2 8772   6.399   3.463   4.846
 2625SOL     OW 8773   2.413   2.801   6.096
 2625SOL    HW1 8774   2.367   2.850   6.170
 2625SOL    HW2 8775   2.465   2.866   6.041
 2626SOL     OW 8776   0.902   0.448   5.071
 2626SOL    HW1 8777   0.835   0.511   5.112
 2626SOL    HW2 8778   0.877   0.354   5.093
 2627SOL     OW 8779   0.475   0.422   4.884
 2627SOL    HW1 8780   0.567   0.422   4.845
 2627SOL    HW2 8781   0.437   0.330   4.880
 2628SOL     OW 8782   2.718   5.447   6.895
 2628SOL    HW1 8783   2.710   5.505   6.814
 2628SOL    HW2 8784   2.628   5.434   6.936
 2629SOL     OW 8785   3.070   4.155   1.679
 2629SOL    HW1 8786   3.053   4.070   1.629
 2629SOL    HW2 8787   3.091   4.135   1.774
 2630SOL     OW 8788   3.157   1.574   3.466
 2630SOL    HW1 8789   3.119   1.497   3.415
 2630SOL    HW2 8790   3.119   1.659   3.431
 2631SOL     OW 8791   4.621   0.854   4.318
 2631SOL    HW1 8792   4.675   0.928   4.279
 2631SOL    HW2 8793   4.578   0.801   4.244
 2632SOL     OW 8794   2.731   1.892   6.563
 2632SOL    HW1 8795   2.755   1.968   6.503
 2632SOL    HW2 8796   2.801   1.821   6.557
 2633SOL     OW 8797   5.887   1.872   5.638
 2633SOL    HW1 8798   5.789   1.858   5.653
 2633SOL    HW2 8799   5.918   1.952   5.689
 2634SOL     OW 8800   2.039   4.259   2.286
 2634SOL    HW1 8801   2.136   4.256   2.310
 2634SOL    HW2 8802   1.990   4.186   2.333
 2635SOL     OW 8803   5.616   6.299   4.738
 2635SOL    HW1 8804   5.580   6.392   4.747
 2635SOL    HW2 8805   5.631   6.278   4.642
 2636SOL     OW 8806   4.404   0.736   5.472
 2636SOL    HW1 8807   4.420   0.640   5.494
 2636SOL    HW2 8808   4.306   0.751   5.458
 2637SOL     OW 8809   6.387   1.416   3.758
 2637SOL    HW1 8810   6.401   1.506   3.717
 2637SOL    HW2 8811   6.300   1.378   3.726
 2638SOL     OW 8812   0.108   6.831   3.060
 2638SOL    HW1 8813   0.071   6.884   2.983
 2638SOL    HW2 8814   0.035   6.815   3.127
 2639SOL     OW 8815   1.075   6.992   1.817
 2639SOL    HW1 8816   1.110   6.913   1.768
 2639SOL    HW2 8817   0.978   7.004   1.796
 2640SOL     OW 8818   6.848   6.077   5.110
 2640SOL    HW1 8819   6.877   6.002   5.050
 2640SOL    HW2 8820   6.784   6.043   5.178
 2641SOL     OW 8821   5.066   2.829   2.232
 2641SOL    HW1 8822   5.025   2.889   2.300
 2641SOL    HW2 8823   5.021   2.841   2.144
 2642SOL     OW 8824   4.729   0.013   4.426
 2642SOL    HW1 8825   4.801   0.021   4.495
 2642SOL    HW2 8826   4.683   6.946   4.435
 2643SOL     OW 8827   1.410   4.946   2.962
 2643SOL    HW1 8828   1.504   4.979   2.971
 2643SOL    HW2 8829   1.395   4.910   2.870
 2644SOL     OW 8830   6.572   5.045   6.211
 2644SOL    HW1 8831   6.583   4.993   6.296
 2644SOL    HW2 8832   6.663   5.072   6.178
 2645SOL     OW 8833   4.354   5.852   3.908
 2645SOL    HW1 8834   4.437   5.799   3.924
 2645SOL    HW2 8835   4.275   5.791   3.912
 2646SOL     OW 8836   5.667   6.992   6.435
 2646SOL    HW1 8837   5.708   6.906   6.406
 2646SOL    HW2 8838   5.676   7.002   6.534
 2647SOL     OW 8839   6.119   0.775   1.797
 2647SOL    HW1 8840   6.157   0.685   1.819
 2647SOL    HW2 8841   6.131   0.794   1.699
 2648SOL     OW 8842   0.220   0.325   3.184
 2648SOL    HW1 8843   0.303   0.348   3.236
 2648SOL    HW2 8844   0.152   0.285   3.246
 2649SOL     OW 8845   5.490   3.262   6.056
 2649SOL    HW1 8846   5.411   3.285   5.999
 2649SOL    HW2 8847   5.498   3.163   6.064
 2650SOL     OW 8848   0.842   3.920   4.124
 2650SOL    HW1 8849   0.770   3.969   4.173
 2650SOL    HW2 8850   0.800   3.853   4.061
 2651SOL     OW 8851   0.003   2.125   0.061
 2651SOL    HW1 8852   0.077   2.061   0.042
 2651SOL    HW2 8853   0.037   2.219   0.057
 2652SOL     OW 8854   2.912   3.736   3.571
 2652SOL    HW1 8855   2.898   3.813   3.633
 2652SOL    HW2 8856   3.004   3.742   3.531
 2653SOL     OW 8857   4.980   6.932   5.506
 2653SOL    HW1 8858   4.976   7.002   5.434
 2653SOL    HW2 8859   4.887   6.904   5.530
 2654SOL     OW 8860   4.650   4.474   1.167
 2654SOL    HW1 8861   4.640   4.475   1.266
 2654SOL    HW2 8862   4.561   4.491   1.124
 2655SOL     OW 8863   5.317   4.830   4.528
 2655SOL    HW1 8864   5.327   4.864   4.621
 2655SOL    HW2 8865   5.361   4.892   4.464
 2656SOL     OW 8866   3.881   4.874   4.195
 2656SOL    HW1 8867   3.785   4.884   4.172
 2656SOL    HW2 8868   3.937   4.878   4.112
 2657SOL     OW 8869   2.659   4.216   6.640
 2657SOL    HW1 8870   2.700   4.127   6.660
 2657SOL    HW2 8871   2.690   4.247   6.550
 2658SOL     OW 8872   5.091   4.116   0.546
 2658SOL    HW1 8873   5.004   4.165   0.548
 2658SOL    HW2 8874   5.089   4.050   0.471
 2659SOL     OW 8875   6.061   2.742   4.667
 2659SOL    HW1 8876   6.033   2.781   4.579
 2659SOL    HW2 8877   6.028   2.648   4.674
 2660SOL     OW 8878   0.720   1.434   0.878
 2660SOL    HW1 8879   0.622   1.421   0.897
 2660SOL    HW2 8880   0.773   1.401   0.955
 2661SOL     OW 8881   2.278   6.558   1.149
 2661SOL    HW1 8882   2.344   6.537   1.221
 2661SOL    HW2 8883   2.233   6.474   1.119
 2662SOL     OW 8884   4.132   0.335   5.462
 2662SOL    HW1 8885   4.033   0.326   5.478
 2662SOL    HW2 8886   4.156   0.288   5.377
 2663SOL     OW 8887   2.852   3.840   1.388
 2663SOL    HW1 8888   2.892   3.829   1.479
 2663SOL    HW2 8889   2.759   3.876   1.396
 2664SOL     OW 8890   3.627   3.836   4.670
 2664SOL    HW1 8891   3.558   3.822   4.741
 2664SOL    HW2 8892   3.612   3.924   4.625
 2665SOL     OW 8893   2.879   2.434   5.452
 2665SOL    HW1 8894   2.842   2.452   5.543
 2665SOL    HW2 8895   2.979   2.431   5.457
 2666SOL     OW 8896   4.756   3.926   1.842
 2666SOL    HW1 8897   4.779   3.904   1.936
 2666SOL    HW2 8898   4.799   3.860   1.780
 2667SOL     OW 8899   1.582   5.978   4.379
 2667SOL    HW1 8900   1.508   5.948   4.318
 2667SOL    HW2 8901   1.586   6.078   4.381
 2668SOL     OW 8902   6.081   3.274   3.606
 2668SOL    HW1 8903   6.104   3.371   3.613
 2668SOL    HW2 8904   5.994   3.257   3.653
 2669SOL     OW 8905   3.189   4.839   5.141
 2669SOL    HW1 8906   3.120   4.828   5.213
 2669SOL    HW2 8907   3.144   4.847   5.052
 2670SOL     OW 8908   5.331   1.890   6.385
 2670SOL    HW1 8909   5.381   1.963   6.432
 2670SOL    HW2 8910   5.233   1.903   6.397
 2671SOL     OW 8911   3.632   5.339   6.732
 2671SOL    HW1 8912   3.690   5.419   6.717
 2671SOL    HW2 8913   3.598   5.305   6.645
 2672SOL     OW 8914   6.726   5.195   6.830
 2672SOL    HW1 8915   6.687   5.154   6.913
 2672SOL    HW2 8916   6.723   5.129   6.755
 2673SOL     OW 8917   6.194   2.187   3.709
 2673SOL    HW1 8918   6.269   2.246   3.680
 2673SOL    HW2 8919   6.225   2.092   3.711
 2674SOL     OW 8920   1.483   4.085   3.824
 2674SOL    HW1 8921   1.446   4.003   3.780
 2674SOL    HW2 8922   1.551   4.126   3.763
 2675SOL     OW 8923   6.478   5.120   4.699
 2675SOL    HW1 8924   6.416   5.042   4.713
 2675SOL    HW2 8925   6.538   5.102   4.622
 2676SOL     OW 8926   4.645   1.099   1.722
 2676SOL    HW1 8927   4.578   1.153   1.672
 2676SOL    HW2 8928   4.599   1.042   1.790
 2677SOL     OW 8929   3.350   4.402   0.134
 2677SOL    HW1 8930   3.266   4.452   0.157
 2677SOL    HW2 8931   3.333   4.343   0.055
 2678SOL     OW 8932   0.047   4.752   1.313
 2678SOL    HW1 8933   0.077   4.844   1.339
 2678SOL    HW2 8934   0.067   4.688   1.387
 2679SOL     OW 8935   3.857   5.631   0.746
 2679SOL    HW1 8936   3.848   5.542   0.791
 2679SOL    HW2 8937   3.782   5.642   0.680
 2680SOL     OW 8938   0.858   1.846   1.020
 2680SOL    HW1 8939   0.824   1.806   0.935
 2680SOL    HW2 8940   0.861   1.945   1.012
 2681SOL     OW 8941   1.620   2.437   4.352
 2681SOL    HW1 8942   1.662   2.366   4.296
 2681SOL    HW2 8943   1.534   2.465   4.311
 2682SOL     OW 8944   5.428   3.908   2.798
 2682SOL    HW1 8945   5.338   3.916   2.755
 2682SOL    HW2 8946   5.464   3.816   2.782
 2683SOL     OW 8947   2.034   4.248   0.400
 2683SOL    HW1 8948   1.992   4.219   0.314
 2683SOL    HW2 8949   2.119   4.197   0.414
 2684SOL     OW 8950   4.816   5.727   1.496
 2684SOL    HW1 8951   4.808   5.715   1.595
 2684SOL    HW2 8952   4.798   5.639   1.451
 2685SOL     OW 8953   6.202   6.040   6.786
 2685SOL    HW1 8954   6.218   5.943   6.770
 2685SOL    HW2 8955   6.122   6.070   6.733
 2686SOL     OW 8956   1.613   1.615   5.609
 2686SOL    HW1 8957   1.528   1.666   5.608
 2686SOL    HW2 8958   1.622   1.565   5.695
 2687SOL     OW 8959   4.534   4.421   2.563
 2687SOL    HW1 8960   4.516   4.405   2.466
 2687SOL    HW2 8961   4.581   4.342   2.602
 2688SOL     OW 8962   4.777   5.733   6.812
 2688SOL    HW1 8963   4.724   5.731   6.896
 2688SOL    HW2 8964   4.732   5.791   6.744
 2689SOL     OW 8965   1.854   2.582   3.648
 2689SOL    HW1 8966   1.892   2.566   3.557
 2689SOL    HW2 8967   1.884   2.672   3.681
 2690SOL     OW 8968   3.361   3.735   4.296
 2690SOL    HW1 8969   3.345   3.674   4.374
 2690SOL    HW2 8970   3.291   3.719   4.227
 2691SOL     OW 8971   0.907   5.642   2.310
 2691SOL    HW1 8972   0.905   5.701   2.391
 2691SOL    HW2 8973   0.952   5.691   2.235
 2692SOL     OW 8974   4.087   4.757   3.614
 2692SOL    HW1 8975   4.098   4.685   3.545
 2692SOL    HW2 8976   4.171   4.763   3.669
 2693SOL     OW 8977   1.801   4.180   2.872
 2693SOL    HW1 8978   1.847   4.094   2.894
 2693SOL    HW2 8979   1.705   4.174   2.898
 2694SOL     OW 8980   4.246   6.699   2.715
 2694SOL    HW1 8981   4.343   6.693   2.691
 2694SOL    HW2 8982   4.197   6.619   2.678
 2695SOL     OW 8983   5.405   0.865   2.863
 2695SOL    HW1 8984   5.416   0.873   2.764
 2695SOL    HW2 8985   5.477   0.916   2.909
 2696SOL     OW 8986   4.039   3.640   5.158
 2696SOL    HW1 8987   4.013   3.737   5.162
 2696SOL    HW2 8988   3.965   3.584   5.195
 2697SOL     OW 8989   3.582   1.317   3.295
 2697SOL    HW1 8990   3.519   1.393   3.279
 2697SOL    HW2 8991   3.539   1.251   3.357
 2698SOL     OW 8992   1.995   5.393   0.406
 2698SOL    HW1 8993   2.050   5.347   0.476
 2698SOL    HW2 8994   2.019   5.490   0.403
 2699SOL     OW 8995   3.557   6.376   0.428
 2699SOL    HW1 8996   3.533   6.446   0.496
 2699SOL    HW2 8997   3.476   6.352   0.375
 2700SOL     OW 8998   2.008   4.186   1.236
 2700SOL    HW1 8999   1.910   4.206   1.242
 2700SOL    HW2 9000   2.061   4.270   1.251
 2701SOL     OW 9001   3.212   0.569   6.702
 2701SOL    HW1 9002   3.144   0.501   6.674
 2701SOL    HW2 9003   3.204   0.650   6.644
 2702SOL     OW 9004   1.335   2.948   3.042
 2702SOL    HW1 9005   1.249   2.944   2.992
 2702SOL    HW2 9006   1.402   2.888   2.998
 2703SOL     OW 9007   2.064   0.599   2.700
 2703SOL    HW1 9008   2.164   0.595   2.710
 2703SOL    HW2 9009   2.035   0.694   2.696
 2704SOL     OW 9010   0.301   6.097   0.870
 2704SOL    HW1 9011   0.272   6.035   0.942
 2704SOL    HW2 9012   0.287   6.054   0.781
 2705SOL     OW 9013   1.477   5.557   4.477
 2705SOL    HW1 9014   1.488   5.643   4.526
 2705SOL    HW2 9015   1.567   5.516   4.461
 2706SOL     OW 9016   0.242   0.545   1.293
 2706SOL    HW1 9017   0.282   0.626   1.337
 2706SOL    HW2 9018   0.224   0.475   1.363
 2707SOL     OW 9019   2.333   0.951   5.058
 2707SOL    HW1 9020   2.400   0.959   4.984
 2707SOL    HW2 9021   2.248   0.913   5.021
 2708SOL     OW 9022   1.098   2.006   0.823
 2708SOL    HW1 9023   1.010   2.003   0.775
 2708SOL    HW2 9024   1.131   2.101   0.826
 2709SOL     OW 9025   5.439   6.282   0.402
 2709SOL    HW1 9026   5.416   6.315   0.493
 2709SOL    HW2 9027   5.465   6.185   0.407
 2710SOL     OW 9028   0.586   3.283   2.741
 2710SOL    HW1 9029   0.615   3.199   2.787
 2710SOL    HW2 9030   0.637   3.360   2.778
 2711SOL     OW 9031   2.426   1.156   3.578
 2711SOL    HW1 9032   2.342   1.183   3.625
 2711SOL    HW2 9033   2.417   1.176   3.480
 2712SOL     OW 9034   3.213   5.186   0.914
 2712SOL    HW1 9035   3.269   5.142   0.844
 2712SOL    HW2 9036   3.263   5.265   0.951
 2713SOL     OW 9037   2.383   2.122   4.750
 2713SOL    HW1 9038   2.367   2.034   4.795
 2713SOL    HW2 9039   2.399   2.107   4.652
 2714SOL     OW 9040   4.669   2.198   0.041
 2714SOL    HW1 9041   4.708   2.250   6.986
 2714SOL    HW2 9042   4.694   2.241   0.127
 2715SOL     OW 9043   5.306   0.709   0.163
 2715SOL    HW1 9044   5.333   0.615   0.185
 2715SOL    HW2 9045   5.287   0.758   0.248
 2716SOL     OW 9046   5.227   5.091   2.751
 2716SOL    HW1 9047   5.229   5.178   2.702
 2716SOL    HW2 9048   5.297   5.090   2.822
 2717SOL     OW 9049   2.462   4.929   2.173
 2717SOL    HW1 9050   2.482   5.021   2.142
 2717SOL    HW2 9051   2.513   4.863   2.119
 2718SOL     OW 9052   1.691   3.630   5.791
 2718SOL    HW1 9053   1.737   3.719   5.798
 2718SOL    HW2 9054   1.606   3.641   5.740
 2719SOL     OW 9055   6.272   5.736   1.557
 2719SOL    HW1 9056   6.356   5.684   1.572
 2719SOL    HW2 9057   6.199   5.674   1.529
 2720SOL     OW 9058   2.042   6.209   2.694
 2720SOL    HW1 9059   2.024   6.234   2.599
 2720SOL    HW2 9060   2.001   6.277   2.754
 2721SOL     OW 9061   3.143   0.563   4.142
 2721SOL    HW1 9062   3.122   0.589   4.048
 2721SOL    HW2 9063   3.197   0.636   4.185
 2722SOL     OW 9064   6.831   5.647   1.917
 2722SOL    HW1 9065   6.896   5.695   1.859
 2722SOL    HW2 9066   6.866   5.641   2.011
 2723SOL     OW 9067   1.206   6.384   5.903
 2723SOL    HW1 9068   1.131   6.401   5.967
 2723SOL    HW2 9069   1.288   6.431   5.934
 2724SOL     OW 9070   2.525   6.868   6.382
 2724SOL    HW1 9071   2.598   6.800   6.383
 2724SOL    HW2 9072   2.465   6.851   6.304
 2725SOL     OW 9073   6.356   4.735   4.114
 2725SOL    HW1 9074   6.406   4.820   4.133
 2725SOL    HW2 9075   6.273   4.733   4.170
 2726SOL     OW 9076   0.056   3.733   1.220
 2726SOL    HW1 9077   0.131   3.703   1.162
 2726SOL    HW2 9078   7.015   3.791   1.166
 2727SOL     OW 9079   0.399   5.004   3.632
 2727SOL    HW1 9080   0.371   4.954   3.551
 2727SOL    HW2 9081   0.320   5.048   3.674
 2728SOL     OW 9082   3.667   6.996   5.937
 2728SOL    HW1 9083   3.748   7.013   5.881
 2728SOL    HW2 9084   3.590   6.971   5.878
 2729SOL     OW 9085   6.290   5.558   1.238
 2729SOL    HW1 9086   6.221   5.580   1.169
 2729SOL    HW2 9087   6.346   5.639   1.257
 2730SOL     OW 9088   1.861   5.631   1.905
 2730SOL    HW1 9089   1.819   5.578   1.830
 2730SOL    HW2 9090   1.849   5.582   1.991
 2731SOL     OW 9091   3.878   3.385   2.306
 2731SOL    HW1 9092   3.977   3.375   2.304
 2731SOL    HW2 9093   3.837   3.323   2.238
 2732SOL     OW 9094   5.525   3.381   2.142
 2732SOL    HW1 9095   5.451   3.343   2.087
 2732SOL    HW2 9096   5.504   3.476   2.164
 2733SOL     OW 9097   0.358   6.997   4.658
 2733SOL    HW1 9098   0.292   7.018   4.586
 2733SOL    HW2 9099   0.334   6.911   4.702
 2734SOL     OW 9100   2.329   6.126   1.961
 2734SOL    HW1 9101   2.269   6.142   2.039
 2734SOL    HW2 9102   2.386   6.207   1.945
 2735SOL     OW 9103   0.995   3.525   2.773
 2735SOL    HW1 9104   1.063   3.482   2.713
 2735SOL    HW2 9105   1.021   3.512   2.868
 2736SOL     OW 9106   4.123   0.011   4.689
 2736SOL    HW1 9107   4.206   0.066   4.686
 2736SOL    HW2 9108   4.144   6.938   4.664
 2737SOL     OW 9109   3.842   3.638   5.501
 2737SOL    HW1 9110   3.848   3.738   5.500
 2737SOL    HW2 9111   3.754   3.610   5.541
 2738SOL     OW 9112   5.906   4.724   4.072
 2738SOL    HW1 9113   5.866   4.789   4.137
 2738SOL    HW2 9114   5.936   4.642   4.122
 2739SOL     OW 9115   6.411   5.278   0.432
 2739SOL    HW1 9116   6.494   5.223   0.435
 2739SOL    HW2 9117   6.337   5.223   0.391
 2740SOL     OW 9118   6.137   3.713   2.384
 2740SOL    HW1 9119   6.085   3.627   2.388
 2740SOL    HW2 9120   6.117   3.768   2.465
 2741SOL     OW 9121   6.645   1.297   5.501
 2741SOL    HW1 9122   6.577   1.368   5.486
 2741SOL    HW2 9123   6.677   1.262   5.413
 2742SOL     OW 9124   1.790   4.536   6.885
 2742SOL    HW1 9125   1.690   4.548   6.886
 2742SOL    HW2 9126   1.822   4.531   6.790
 2743SOL     OW 9127   6.401   5.501   2.514
 2743SOL    HW1 9128   6.475   5.435   2.528
 2743SOL    HW2 9129   6.440   5.593   2.507
 2744SOL     OW 9130   4.701   1.965   0.207
 2744SOL    HW1 9131   4.604   1.945   0.216
 2744SOL    HW2 9132   4.716   2.023   0.126
 2745SOL     OW 9133   0.901   6.671   6.667
 2745SOL    HW1 9134   0.832   6.680   6.595
 2745SOL    HW2 9135   0.894   6.748   6.730
 2746SOL     OW 9136   2.602   2.094   3.431
 2746SOL    HW1 9137   2.508   2.084   3.399
 2746SOL    HW2 9138   2.630   2.011   3.479
 2747SOL     OW 9139   5.301   3.378   5.910
 2747SOL    HW1 9140   5.255   3.467   5.918
 2747SOL    HW2 9141   5.248   3.319   5.850
 2748SOL     OW 9142   4.232   1.998   0.674
 2748SOL    HW1 9143   4.232   1.966   0.769
 2748SOL    HW2 9144   4.139   1.996   0.638
 2749SOL     OW 9145   5.930   4.300   3.798
 2749SOL    HW1 9146   5.867   4.377   3.812
 2749SOL    HW2 9147   6.011   4.313   3.855
 2750SOL     OW 9148   0.702   4.765   1.175
 2750SOL    HW1 9149   0.677   4.762   1.078
 2750SOL    HW2 9150   0.715   4.672   1.208
 2751SOL     OW 9151   0.517   6.191   0.601
 2751SOL    HW1 9152   0.553   6.127   0.669
 2751SOL    HW2 9153   0.576   6.191   0.520
 2752SOL     OW 9154   4.690   4.759   4.806
 2752SOL    HW1 9155   4.655   4.666   4.817
 2752SOL    HW2 9156   4.756   4.761   4.731
 2753SOL     OW 9157   1.565   6.679   6.338
 2753SOL    HW1 9158   1.508   6.687   6.420
 2753SOL    HW2 9159   1.557   6.586   6.302
 2754SOL     OW 9160   6.592   0.982   3.924
 2754SOL    HW1 9161   6.558   1.076   3.921
 2754SOL    HW2 9162   6.645   0.963   3.841
 2755SOL     OW 9163   2.563   6.417   3.872
 2755SOL    HW1 9164   2.583   6.478   3.795
 2755SOL    HW2 9165   2.472   6.378   3.860
 2756SOL     OW 9166   5.837   4.289   5.460
 2756SOL    HW1 9167   5.808   4.318   5.551
 2756SOL    HW2 9168   5.756   4.266   5.406
 2757SOL     OW 9169   2.165   1.387   6.220
 2757SOL    HW1 9170   2.207   1.299   6.195
 2757SOL    HW2 9171   2.095   1.371   6.290
 2758SOL     OW 9172   5.243   6.222   3.509
 2758SOL    HW1 9173   5.198   6.286   3.447
 2758SOL    HW2 9174   5.341   6.220   3.490
 2759SOL     OW 9175   4.425   5.931   5.201
 2759SOL    HW1 9176   4.393   5.853   5.256
 2759SOL    HW2 9177   4.524   5.931   5.198
 2760SOL     OW 9178   6.706   5.462   2.634
 2760SOL    HW1 9179   6.681   5.441   2.540
 2760SOL    HW2 9180   6.778   5.532   2.635
 2761SOL     OW 9181   1.964   4.326   4.478
 2761SOL    HW1 9182   1.953   4.304   4.575
 2761SOL    HW2 9183   2.059   4.310   4.451
 2762SOL     OW 9184   1.914   1.964   6.693
 2762SOL    HW1 9185   1.821   1.979   6.725
 2762SOL    HW2 9186   1.972   2.041   6.719
 2763SOL     OW 9187   4.692   2.224   5.137
 2763SOL    HW1 9188   4.722   2.197   5.229
 2763SOL    HW2 9189   4.764   2.277   5.093
 2764SOL     OW 9190   0.165   6.253   1.971
 2764SOL    HW1 9191   0.131   6.344   1.995
 2764SOL    HW2 9192   0.088   6.195   1.943
 2765SOL     OW 9193   6.855   0.126   0.840
 2765SOL    HW1 9194   6.941   0.093   0.802
 2765SOL    HW2 9195   6.861   0.223   0.859
 2766SOL     OW 9196   4.143   2.586   6.219
 2766SOL    HW1 9197   4.077   2.548   6.285
 2766SOL    HW2 9198   4.218   2.630   6.268
 2767SOL     OW 9199   6.503   5.334   6.712
 2767SOL    HW1 9200   6.483   5.393   6.634
 2767SOL    HW2 9201   6.581   5.275   6.690
 2768SOL     OW 9202   4.446   0.708   0.840
 2768SOL    HW1 9203   4.466   0.614   0.868
 2768SOL    HW2 9204   4.383   0.750   0.905
 2769SOL     OW 9205   2.725   4.248   6.366
 2769SOL    HW1 9206   2.651   4.224   6.303
 2769SOL    HW2 9207   2.741   4.347   6.363
 2770SOL     OW 9208   4.437   5.124   5.088
 2770SOL    HW1 9209   4.535   5.109   5.099
 2770SOL    HW2 9210   4.391   5.035   5.084
 2771SOL     OW 9211   5.747   0.634   4.540
 2771SOL    HW1 9212   5.834   0.589   4.523
 2771SOL    HW2 9213   5.707   0.598   4.624
 2772SOL     OW 9214   3.402   1.325   1.552
 2772SOL    HW1 9215   3.376   1.248   1.493
 2772SOL    HW2 9216   3.320   1.376   1.577
 2773SOL     OW 9217   6.488   2.689   4.024
 2773SOL    HW1 9218   6.409   2.632   4.001
 2773SOL    HW2 9219   6.572   2.636   4.013
 2774SOL     OW 9220   5.019   3.275   2.864
 2774SOL    HW1 9221   5.111   3.237   2.856
 2774SOL    HW2 9222   5.006   3.347   2.797
 2775SOL     OW 9223   6.335   3.212   4.188
 2775SOL    HW1 9224   6.356   3.261   4.273
 2775SOL    HW2 9225   6.269   3.139   4.208
 2776SOL     OW 9226   5.114   4.249   5.469
 2776SOL    HW1 9227   5.130   4.305   5.551
 2776SOL    HW2 9228   5.078   4.160   5.496
 2777SOL     OW 9229   2.458   1.692   1.315
 2777SOL    HW1 9230   2.409   1.648   1.239
 2777SOL    HW2 9231   2.458   1.632   1.394
 2778SOL     OW 9232   1.162   6.192   6.668
 2778SOL    HW1 9233   1.217   6.267   6.631
 2778SOL    HW2 9234   1.200   6.164   6.756
 2779SOL     OW 9235   5.531   6.959   1.689
 2779SOL    HW1 9236   5.435   6.959   1.659
 2779SOL    HW2 9237   5.570   6.868   1.677
 2780SOL     OW 9238   6.858   0.311   6.138
 2780SOL    HW1 9239   6.909   0.387   6.181
 2780SOL    HW2 9240   6.761   0.332   6.137
 2781SOL     OW 9241   6.175   0.569   3.387
 2781SOL    HW1 9242   6.159   0.635   3.461
 2781SOL    HW2 9243   6.261   0.590   3.341
 2782SOL     OW 9244   4.480   1.323   4.584
 2782SOL    HW1 9245   4.438   1.351   4.671
 2782SOL    HW2 9246   4.565   1.274   4.603
 2783SOL     OW 9247   0.095   4.281   1.697
 2783SOL    HW1 9248   0.095   4.371   1.654
 2783SOL    HW2 9249   0.184   4.238   1.684
 2784SOL     OW 9250   3.517   1.257   2.456
 2784SOL    HW1 9251   3.605   1.220   2.485
 2784SOL    HW2 9252   3.516   1.268   2.357
 2785SOL     OW 9253   5.202   2.352   0.468
 2785SOL    HW1 9254   5.123   2.377   0.412
 2785SOL    HW2 9255   5.276   2.418   0.453
 2786SOL     OW 9256   6.579   7.004   1.784
 2786SOL    HW1 9257   6.627   6.940   1.723
 2786SOL    HW2 9258   6.578   0.073   1.743
 2787SOL     OW 9259   6.062   6.557   5.742
 2787SOL    HW1 9260   5.992   6.519   5.803
 2787SOL    HW2 9261   6.036   6.649   5.715
 2788SOL     OW 9262   2.592   6.243   5.948
 2788SOL    HW1 9263   2.565   6.157   5.990
 2788SOL    HW2 9264   2.594   6.233   5.849
 2789SOL     OW 9265   1.917   1.779   3.820
 2789SOL    HW1 9266   1.982   1.834   3.872
 2789SOL    HW2 9267   1.835   1.832   3.802
 2790SOL     OW 9268   3.637   5.371   1.190
 2790SOL    HW1 9269   3.610   5.341   1.281
 2790SOL    HW2 9270   3.555   5.391   1.135
 2791SOL     OW 9271   0.932   4.442   2.338
 2791SOL    HW1 9272   0.869   4.366   2.330
 2791SOL    HW2 9273   1.021   4.417   2.299
 2792SOL     OW 9274   3.005   0.940   4.466
 2792SOL    HW1 9275   3.038   0.989   4.385
 2792SOL    HW2 9276   2.955   0.859   4.437
 2793SOL     OW 9277   5.085   3.719   2.018
 2793SOL    HW1 9278   5.145   3.679   1.949
 2793SOL    HW2 9279   5.075   3.655   2.095
 2794SOL     OW 9280   6.486   2.111   5.864
 2794SOL    HW1 9281   6.573   2.069   5.837
 2794SOL    HW2 9282   6.428   2.122   5.783
 2795SOL     OW 9283   0.647   3.925   0.996
 2795SOL    HW1 9284   0.595   3.929   1.081
 2795SOL    HW2 9285   0.589   3.891   0.922
 2796SOL     OW 9286   0.144   5.943   3.676
 2796SOL    HW1 9287   0.141   6.002   3.596
 2796SOL    HW2 9288   0.132   5.848   3.648
 2797SOL     OW 9289   5.171   5.067   5.745
 2797SOL    HW1 9290   5.222   5.011   5.811
 2797SOL    HW2 9291   5.119   5.137   5.794
 2798SOL     OW 9292   5.965   5.692   2.672
 2798SOL    HW1 9293   6.033   5.628   2.636
 2798SOL    HW2 9294   5.880   5.682   2.619
 2799SOL     OW 9295   5.834   5.891   6.311
 2799SOL    HW1 9296   5.919   5.933   6.278
 2799SOL    HW2 9297   5.777   5.962   6.353
 2800SOL     OW 9298   5.757   6.901   5.546
 2800SOL    HW1 9299   5.710   6.969   5.602
 2800SOL    HW2 9300   5.766   6.935   5.452
 2801SOL     OW 9301   0.440   5.796   5.751
 2801SOL    HW1 9302   0.346   5.771   5.774
 2801SOL    HW2 9303   0.489   5.714   5.721
 2802SOL     OW 9304   6.288   6.564   5.433
 2802SOL    HW1 9305   6.284   6.505   5.513
 2802SOL    HW2 9306   6.354   6.527   5.368
 2803SOL     OW 9307   3.836   4.947   5.633
 2803SOL    HW1 9308   3.877   4.855   5.634
 2803SOL    HW2 9309   3.736   4.939   5.642
 2804SOL     OW 9310   0.431   3.817   4.857
 2804SOL    HW1 9311   0.390   3.739   4.811
 2804SOL    HW2 9312   0.472   3.788   4.943
 2805SOL     OW 9313   5.588   3.627   2.796
 2805SOL    HW1 9314   5.597   3.597   2.891
 2805SOL    HW2 9315   5.676   3.661   2.763
 2806SOL     OW 9316   1.977   3.984   5.942
 2806SOL    HW1 9317   2.024   3.922   5.879
 2806SOL    HW2 9318   2.017   3.975   6.033
 2807SOL     OW 9319   4.431   0.417   3.175
 2807SOL    HW1 9320   4.416   0.516   3.186
 2807SOL    HW2 9321   4.427   0.394   3.077
 2808SOL     OW 9322   6.232   5.474   0.775
 2808SOL    HW1 9323   6.234   5.476   0.675
 2808SOL    HW2 9324   6.139   5.454   0.806
 2809SOL     OW 9325   5.348   2.192   1.857
 2809SOL    HW1 9326   5.295   2.130   1.915
 2809SOL    HW2 9327   5.299   2.207   1.771
 2810SOL     OW 9328   1.999   5.737   2.820
 2810SOL    HW1 9329   1.956   5.822   2.848
 2810SOL    HW2 9330   1.959   5.661   2.871
 2811SOL     OW 9331   0.711   1.921   2.828
 2811SOL    HW1 9332   0.626   1.869   2.817
 2811SOL    HW2 9333   0.773   1.899   2.754
 2812SOL     OW 9334   5.907   3.743   1.016
 2812SOL    HW1 9335   5.948   3.674   0.957
 2812SOL    HW2 9336   5.967   3.759   1.095
 2813SOL     OW 9337   0.844   1.839   6.993
 2813SOL    HW1 9338   0.804   1.765   0.026
 2813SOL    HW2 9339   0.772   1.890   6.947
 2814SOL     OW 9340   3.377   4.020   5.452
 2814SOL    HW1 9341   3.348   3.955   5.522
 2814SOL    HW2 9342   3.329   4.000   5.366
 2815SOL     OW 9343   6.416   5.250   6.319
 2815SOL    HW1 9344   6.324   5.235   6.355
 2815SOL    HW2 9345   6.436   5.181   6.250
 2816SOL     OW 9346   6.588   6.120   4.721
 2816SOL    HW1 9347   6.517   6.172   4.672
 2816SOL    HW2 9348   6.628   6.053   4.660
 2817SOL     OW 9349   3.265   1.017   2.850
 2817SOL    HW1 9350   3.228   0.935   2.893
 2817SOL    HW2 9351   3.205   1.094   2.868
 2818SOL     OW 9352   0.078   1.168   2.512
 2818SOL    HW1 9353   0.089   1.121   2.600
 2818SOL    HW2 9354   0.022   1.250   2.525
 2819SOL     OW 9355   1.160   0.329   2.213
 2819SOL    HW1 9356   1.120   0.252   2.263
 2819SOL    HW2 9357   1.111   0.342   2.127
 2820SOL     OW 9358   1.095   1.985   2.406
 2820SOL    HW1 9359   1.173   1.948   2.355
 2820SOL    HW2 9360   1.118   2.077   2.439
 2821SOL     OW 9361   3.041   4.883   5.988
 2821SOL    HW1 9362   3.116   4.878   5.922
 2821SOL    HW2 9363   2.956   4.851   5.945
 2822SOL     OW 9364   4.376   2.537   0.134
 2822SOL    HW1 9365   4.388   2.461   0.071
 2822SOL    HW2 9366   4.379   2.503   0.228
 2823SOL     OW 9367   6.234   0.577   6.953
 2823SOL    HW1 9368   6.139   0.551   6.970
 2823SOL    HW2 9369   6.249   0.588   6.855
 2824SOL     OW 9370   2.229   2.113   5.150
 2824SOL    HW1 9371   2.276   2.063   5.078
 2824SOL    HW2 9372   2.281   2.106   5.235
 2825SOL     OW 9373   5.565   0.169   5.522
 2825SOL    HW1 9374   5.632   0.170   5.597
 2825SOL    HW2 9375   5.494   0.102   5.541
 2826SOL     OW 9376   3.324   3.371   6.504
 2826SOL    HW1 9377   3.370   3.453   6.468
 2826SOL    HW2 9378   3.381   3.328   6.573
 2827SOL     OW 9379   0.234   0.862   6.492
 2827SOL    HW1 9380   0.218   0.809   6.575
 2827SOL    HW2 9381   0.186   0.819   6.415
 2828SOL     OW 9382   2.113   3.498   0.683
 2828SOL    HW1 9383   2.039   3.563   0.700
 2828SOL    HW2 9384   2.201   3.540   0.706
 2829SOL     OW 9385   3.063   3.188   3.611
 2829SOL    HW1 9386   3.080   3.139   3.525
 2829SOL    HW2 9387   2.971   3.227   3.609
 2830SOL     OW 9388   3.462   4.060   5.153
 2830SOL    HW1 9389   3.408   4.134   5.194
 2830SOL    HW2 9390   3.526   4.098   5.086
 2831SOL     OW 9391   1.396   3.252   2.716
 2831SOL    HW1 9392   1.368   3.346   2.733
 2831SOL    HW2 9393   1.345   3.190   2.777
 2832SOL     OW 9394   1.040   2.776   1.636
 2832SOL    HW1 9395   1.128   2.751   1.676
 2832SOL    HW2 9396   0.971   2.781   1.708
 2833SOL     OW 9397   2.575   1.849   1.997
 2833SOL    HW1 9398   2.573   1.895   2.086
 2833SOL    HW2 9399   2.500   1.783   1.993
 2834SOL     OW 9400   4.212   6.191   4.371
 2834SOL    HW1 9401   4.146   6.134   4.421
 2834SOL    HW2 9402   4.252   6.138   4.296
 2835SOL     OW 9403   0.919   6.941   0.516
 2835SOL    HW1 9404   1.006   6.933   0.467
 2835SOL    HW2 9405   0.844   6.946   0.450
 2836SOL     OW 9406   1.586   6.343   1.603
 2836SOL    HW1 9407   1.585   6.298   1.513
 2836SOL    HW2 9408   1.672   6.322   1.649
 2837SOL     OW 9409   5.600   4.404   2.671
 2837SOL    HW1 9410   5.626   4.350   2.591
 2837SOL    HW2 9411   5.670   4.472   2.689
 2838SOL     OW 9412   4.837   3.886   0.655
 2838SOL    HW1 9413   4.815   3.788   0.655
 2838SOL    HW2 9414   4.796   3.929   0.735
 2839SOL     OW 9415   0.482   2.879   2.701
 2839SOL    HW1 9416   0.532   2.917   2.623
 2839SOL    HW2 9417   0.388   2.912   2.700
 2840SOL     OW 9418   1.378   6.250   2.574
 2840SOL    HW1 9419   1.399   6.333   2.624
 2840SOL    HW2 9420   1.279   6.243   2.561
 2841SOL     OW 9421   6.261   2.626   6.998
 2841SOL    HW1 9422   6.353   2.605   0.010
 2841SOL    HW2 9423   6.267   2.672   6.910
 2842SOL     OW 9424   0.722   5.777   4.912
 2842SOL    HW1 9425   0.718   5.685   4.951
 2842SOL    HW2 9426   0.811   5.790   4.868
 2843SOL     OW 9427   2.411   1.626   2.013
 2843SOL    HW1 9428   2.440   1.556   2.079
 2843SOL    HW2 9429   2.312   1.640   2.022
 2844SOL     OW 9430   6.047   5.273   1.303
 2844SOL    HW1 9431   6.113   5.293   1.376
 2844SOL    HW2 9432   6.085   5.204   1.241
 2845SOL     OW 9433   5.249   3.158   2.278
 2845SOL    HW1 9434   5.151   3.179   2.281
 2845SOL    HW2 9435   5.283   3.146   2.371
 2846SOL     OW 9436   3.610   0.467   0.791
 2846SOL    HW1 9437   3.576   0.374   0.778
 2846SOL    HW2 9438   3.566   0.508   0.871
 2847SOL     OW 9439   5.114   4.087   2.924
 2847SOL    HW1 9440   5.162   4.004   2.896
 2847SOL    HW2 9441   5.027   4.092   2.875
 2848SOL     OW 9442   2.689   2.730   5.973
 2848SOL    HW1 9443   2.760   2.800   5.982
 2848SOL    HW2 9444   2.602   2.766   6.006
 2849SOL     OW 9445   3.478   0.975   1.814
 2849SOL    HW1 9446   3.493   0.988   1.716
 2849SOL    HW2 9447   3.437   1.057   1.852
 2850SOL     OW 9448   2.292   0.007   3.219
 2850SOL    HW1 9449   2.229   6.952   3.210
 2850SOL    HW2 9450   2.353   0.009   3.140
 2851SOL     OW 9451   4.735   3.275   6.506
 2851SOL    HW1 9452   4.735   3.224   6.592
 2851SOL    HW2 9453   4.827   3.309   6.488
 2852SOL     OW 9454   6.095   4.211   0.155
 2852SOL    HW1 9455   6.110   4.272   0.233
 2852SOL    HW2 9456   6.001   4.177   0.156
 2853SOL     OW 9457   0.919   2.969   0.053
 2853SOL    HW1 9458   0.945   2.929   6.987
 2853SOL    HW2 9459   0.905   3.068   0.041
 2854SOL     OW 9460   3.483   0.745   6.170
 2854SOL    HW1 9461   3.467   0.830   6.120
 2854SOL    HW2 9462   3.539   0.684   6.114
 2855SOL     OW 9463   1.531   2.622   4.971
 2855SOL    HW1 9464   1.476   2.705   4.969
 2855SOL    HW2 9465   1.502   2.561   4.897
 2856SOL     OW 9466   1.342   2.808   4.267
 2856SOL    HW1 9467   1.284   2.827   4.188
 2856SOL    HW2 9468   1.437   2.828   4.244
 2857SOL     OW 9469   0.373   2.722   1.132
 2857SOL    HW1 9470   0.344   2.732   1.228
 2857SOL    HW2 9471   0.462   2.677   1.129
 2858SOL     OW 9472   5.124   6.110   1.997
 2858SOL    HW1 9473   5.209   6.060   1.983
 2858SOL    HW2 9474   5.114   6.133   2.094
 2859SOL     OW 9475   5.819   6.537   0.058
 2859SOL    HW1 9476   5.891   6.470   0.039
 2859SOL    HW2 9477   5.738   6.514   0.004
 2860SOL     OW 9478   2.228   6.949   2.345
 2860SOL    HW1 9479   2.139   6.994   2.338
 2860SOL    HW2 9480   2.240   6.886   2.269
 2861SOL     OW 9481   3.341   5.859   5.380
 2861SOL    HW1 9482   3.259   5.913   5.360
 2861SOL    HW2 9483   3.333   5.769   5.336
 2862SOL     OW 9484   4.300   2.350   2.028
 2862SOL    HW1 9485   4.400   2.359   2.030
 2862SOL    HW2 9486   4.262   2.413   1.960
 2863SOL     OW 9487   5.127   1.771   6.937
 2863SOL    HW1 9488   5.055   1.727   6.883
 2863SOL    HW2 9489   5.208   1.785   6.880
 2864SOL     OW 9490   5.139   2.707   0.704
 2864SOL    HW1 9491   5.210   2.679   0.768
 2864SOL    HW2 9492   5.181   2.739   0.619
 2865SOL     OW 9493   4.397   6.462   4.011
 2865SOL    HW1 9494   4.476   6.412   3.977
 2865SOL    HW2 9495   4.370   6.425   4.100
 2866SOL     OW 9496   5.516   3.735   0.401
 2866SOL    HW1 9497   5.425   3.707   0.369
 2866SOL    HW2 9498   5.581   3.662   0.383
 2867SOL     OW 9499   5.849   6.310   2.842
 2867SOL    HW1 9500   5.803   6.322   2.930
 2867SOL    HW2 9501   5.926   6.375   2.836
 2868SOL     OW 9502   1.307   1.447   5.564
 2868SOL    HW1 9503   1.258   1.383   5.623
 2868SOL    HW2 9504   1.271   1.539   5.576
 2869SOL     OW 9505   6.304   0.827   3.645
 2869SOL    HW1 9506   6.317   0.886   3.724
 2869SOL    HW2 9507   6.392   0.784   3.621
 2870SOL     OW 9508   0.709   2.161   6.483
 2870SOL    HW1 9509   0.617   2.183   6.514
 2870SOL    HW2 9510   0.707   2.136   6.386
 2871SOL     OW 9511   6.317   0.531   0.459
 2871SOL    HW1 9512   6.249   0.466   0.426
 2871SOL    HW2 9513   6.298   0.622   0.421
 2872SOL     OW 9514   2.674   1.858   0.736
 2872SOL    HW1 9515   2.657   1.956   0.735
 2872SOL    HW2 9516   2.600   1.811   0.688
 2873SOL     OW 9517   6.758   6.551   2.311
 2873SOL    HW1 9518   6.712   6.480   2.257
 2873SOL    HW2 9519   6.777   6.515   2.402
 2874SOL     OW 9520   3.997   6.432   2.943
 2874SOL    HW1 9521   4.039   6.374   3.014
 2874SOL    HW2 9522   4.024   6.527   2.958
 2875SOL     OW 9523   4.476   6.616   2.597
 2875SOL    HW1 9524   4.422   6.603   2.513
 2875SOL    HW2 9525   4.554   6.553   2.596
 2876SOL     OW 9526   1.301   6.699   2.566
 2876SOL    HW1 9527   1.316   6.706   2.467
 2876SOL    HW2 9528   1.389   6.697   2.613
 2877SOL     OW 9529   1.910   0.840   6.050
 2877SOL    HW1 9530   1.921   0.793   5.963
 2877SOL    HW2 9531   1.916   0.774   6.125
 2878SOL     OW 9532   3.192   3.511   5.268
 2878SOL    HW1 9533   3.170   3.442   5.337
 2878SOL    HW2 9534   3.110   3.534   5.216
 2879SOL     OW 9535   5.226   5.327   5.605
 2879SOL    HW1 9536   5.215   5.228   5.604
 2879SOL    HW2 9537   5.319   5.351   5.577
 2880SOL     OW 9538   6.848   1.686   3.566
 2880SOL    HW1 9539   6.838   1.655   3.471
 2880SOL    HW2 9540   6.829   1.609   3.628
 2881SOL     OW 9541   3.372   5.904   6.707
 2881SOL    HW1 9542   3.285   5.872   6.668
 2881SOL    HW2 9543   3.354   5.952   6.793
 2882SOL     OW 9544   6.591   5.876   1.413
 2882SOL    HW1 9545   6.521   5.818   1.455
 2882SOL    HW2 9546   6.564   5.971   1.420
 2883SOL     OW 9547   5.759   6.895   3.666
 2883SOL    HW1 9548   5.828   6.880   3.737
 2883SOL    HW2 9549   5.681   6.944   3.705
 2884SOL     OW 9550   6.794   6.109   2.620
 2884SOL    HW1 9551   6.724   6.073   2.558
 2884SOL    HW2 9552   6.861   6.161   2.568
 2885SOL     OW 9553   1.396   2.280   4.486
 2885SOL    HW1 9554   1.420   2.339   4.409
 2885SOL    HW2 9555   1.307   2.238   4.469
 2886SOL     OW 9556   2.074   3.975   6.210
 2886SOL    HW1 9557   2.117   3.917   6.279
 2886SOL    HW2 9558   2.076   4.071   6.241
 2887SOL     OW 9559   0.437   6.110   4.874
 2887SOL    HW1 9560   0.381   6.081   4.952
 2887SOL    HW2 9561   0.534   6.104   4.899
 2888SOL     OW 9562   0.495   4.732   6.912
 2888SOL    HW1 9563   0.593   4.711   6.920
 2888SOL    HW2 9564   0.461   4.697   6.824
 2889SOL     OW 9565   3.274   6.470   2.638
 2889SOL    HW1 9566   3.277   6.523   2.553
 2889SOL    HW2 9567   3.189   6.490   2.687
 2890SOL     OW 9568   1.508   5.792   0.846
 2890SOL    HW1 9569   1.525   5.728   0.771
 2890SOL    HW2 9570   1.554   5.879   0.827
 2891SOL     OW 9571   0.993   3.309   3.537
 2891SOL    HW1 9572   0.893   3.317   3.538
 2891SOL    HW2 9573   1.027   3.317   3.631
 2892SOL     OW 9574   5.507   2.836   1.473
 2892SOL    HW1 9575   5.412   2.814   1.496
 2892SOL    HW2 9576   5.520   2.935   1.476
 2893SOL     OW 9577   1.227   5.479   4.377
 2893SOL    HW1 9578   1.314   5.458   4.420
 2893SOL    HW2 9579   1.242   5.522   4.288
 2894SOL     OW 9580   1.558   3.615   1.572
 2894SOL    HW1 9581   1.596   3.624   1.480
 2894SOL    HW2 9582   1.492   3.688   1.588
 2895SOL     OW 9583   4.552   0.577   6.255
 2895SOL    HW1 9584   4.583   0.490   6.293
 2895SOL    HW2 9585   4.472   0.609   6.307
 2896SOL     OW 9586   3.780   0.256   5.267
 2896SOL    HW1 9587   3.821   0.168   5.292
 2896SOL    HW2 9588   3.680   0.249   5.271
 2897SOL     OW 9589   3.711   4.908   2.561
 2897SOL    HW1 9590   3.741   4.995   2.522
 2897SOL    HW2 9591   3.774   4.836   2.535
 2898SOL     OW 9592   4.939   4.327   4.084
 2898SOL    HW1 9593   4.880   4.393   4.038
 2898SOL    HW2 9594   5.029   4.367   4.100
 2899SOL     OW 9595   6.478   1.980   0.425
 2899SOL    HW1 9596   6.575   2.002   0.424
 2899SOL    HW2 9597   6.424   2.065   0.424
 2900SOL     OW 9598   3.730   4.496   6.701
 2900SOL    HW1 9599   3.764   4.412   6.659
 2900SOL    HW2 9600   3.631   4.490   6.712
 2901SOL     OW 9601   1.793   4.918   3.512
 2901SOL    HW1 9602   1.745   4.973   3.580
 2901SOL    HW2 9603   1.730   4.895   3.438
 2902SOL     OW 9604   6.652   4.966   3.472
 2902SOL    HW1 9605   6.558   4.936   3.456
 2902SOL    HW2 9606   6.657   5.066   3.461
 2903SOL     OW 9607   4.390   6.626   0.589
 2903SOL    HW1 9608   4.371   6.527   0.591
 2903SOL    HW2 9609   4.375   6.664   0.681
 2904SOL     OW 9610   3.084   5.519   5.339
 2904SOL    HW1 9611   3.148   5.532   5.263
 2904SOL    HW2 9612   2.990   5.515   5.304
 2905SOL     OW 9613   1.431   3.948   4.337
 2905SOL    HW1 9614   1.498   3.898   4.284
 2905SOL    HW2 9615   1.355   3.975   4.277
 2906SOL     OW 9616   5.354   6.210   2.732
 2906SOL    HW1 9617   5.340   6.183   2.637
 2906SOL    HW2 9618   5.311   6.298   2.749
 2907SOL     OW 9619   0.558   1.697   3.685
 2907SOL    HW1 9620   0.589   1.603   3.669
 2907SOL    HW2 9621   0.490   1.697   3.758
 2908SOL     OW 9622   5.351   6.530   3.521
 2908SOL    HW1 9623   5.330   6.623   3.549
 2908SOL    HW2 9624   5.273   6.491   3.471
 2909SOL     OW 9625   1.872   6.030   3.847
 2909SOL    HW1 9626   1.855   6.086   3.766
 2909SOL    HW2 9627   1.870   6.087   3.929
 2910SOL     OW 9628   6.755   0.574   3.593
 2910SOL    HW1 9629   6.736   0.591   3.689
 2910SOL    HW2 9630   6.853   0.588   3.575
 2911SOL     OW 9631   1.691   5.294   4.080
 2911SOL    HW1 9632   1.594   5.274   4.097
 2911SOL    HW2 9633   1.703   5.330   3.988
 2912SOL     OW 9634   6.302   6.415   6.783
 2912SOL    HW1 9635   6.211   6.425   6.821
 2912SOL    HW2 9636   6.307   6.331   6.729
 2913SOL     OW 9637   3.146   5.185   1.836
 2913SOL    HW1 9638   3.135   5.094   1.795
 2913SOL    HW2 9639   3.116   5.255   1.770
 2914SOL     OW 9640   5.869   6.115   0.944
 2914SOL    HW1 9641   5.814   6.101   0.862
 2914SOL    HW2 9642   5.818   6.080   1.024
 2915SOL     OW 9643   2.698   1.752   3.344
 2915SOL    HW1 9644   2.752   1.667   3.343
 2915SOL    HW2 9645   2.689   1.786   3.251
 2916SOL     OW 9646   1.353   5.413   0.254
 2916SOL    HW1 9647   1.444   5.445   0.279
 2916SOL    HW2 9648   1.359   5.322   0.213
 2917SOL     OW 9649   3.333   0.265   4.446
 2917SOL    HW1 9650   3.292   0.316   4.371
 2917SOL    HW2 9651   3.401   0.323   4.492
 2918SOL     OW 9652   5.911   4.009   5.741
 2918SOL    HW1 9653   5.933   4.035   5.835
 2918SOL    HW2 9654   5.818   4.040   5.720
 2919SOL     OW 9655   6.469   0.134   3.649
 2919SOL    HW1 9656   6.480   0.220   3.599
 2919SOL    HW2 9657   6.372   0.118   3.668
 2920SOL     OW 9658   3.631   0.292   1.625
 2920SOL    HW1 9659   3.572   0.359   1.670
 2920SOL    HW2 9660   3.590   0.265   1.538
 2921SOL     OW 9661   0.317   0.025   5.558
 2921SOL    HW1 9662   0.394   0.025   5.623
 2921SOL    HW2 9663   0.232   0.008   5.608
 2922SOL     OW 9664   4.269   5.878   1.313
 2922SOL    HW1 9665   4.323   5.953   1.276
 2922SOL    HW2 9666   4.216   5.836   1.239
 2923SOL     OW 9667   6.835   5.516   4.146
 2923SOL    HW1 9668   6.904   5.445   4.164
 2923SOL    HW2 9669   6.811   5.561   4.232
 2924SOL     OW 9670   0.387   2.396   4.880
 2924SOL    HW1 9671   0.370   2.316   4.938
 2924SOL    HW2 9672   0.301   2.438   4.855
 2925SOL     OW 9673   5.922   2.144   0.659
 2925SOL    HW1 9674   5.838   2.115   0.703
 2925SOL    HW2 9675   5.900   2.200   0.578
 2926SOL     OW 9676   5.785   1.898   6.151
 2926SOL    HW1 9677   5.710   1.930   6.093
 2926SOL    HW2 9678   5.861   1.963   6.146
 2927SOL     OW 9679   2.046   3.807   0.814
 2927SOL    HW1 9680   2.045   3.811   0.914
 2927SOL    HW2 9681   1.969   3.752   0.782
 2928SOL     OW 9682   6.500   1.220   6.877
 2928SOL    HW1 9683   6.470   1.125   6.887
 2928SOL    HW2 9684   6.509   1.241   6.780
 2929SOL     OW 9685   2.206   2.834   5.768
 2929SOL    HW1 9686   2.155   2.896   5.708
 2929SOL    HW2 9687   2.280   2.792   5.717
 2930SOL     OW 9688   5.162   6.283   5.091
 2930SOL    HW1 9689   5.242   6.227   5.110
 2930SOL    HW2 9690   5.147   6.347   5.167
 2931SOL     OW 9691   4.959   5.025   6.825
 2931SOL    HW1 9692   4.979   5.122   6.809
 2931SOL    HW2 9693   4.869   5.017   6.868
 2932SOL     OW 9694   0.602   5.837   1.804
 2932SOL    HW1 9695   0.597   5.793   1.894
 2932SOL    HW2 9696   0.518   5.818   1.753
 2933SOL     OW 9697   1.303   6.499   2.228
 2933SOL    HW1 9698   1.316   6.590   2.267
 2933SOL    HW2 9699   1.294   6.506   2.129
 2934SOL     OW 9700   5.392   2.541   0.417
 2934SOL    HW1 9701   5.424   2.548   0.322
 2934SOL    HW2 9702   5.352   2.628   0.445
 2935SOL     OW 9703   6.479   2.555   6.107
 2935SOL    HW1 9704   6.437   2.467   6.086
 2935SOL    HW2 9705   6.466   2.618   6.030
 2936SOL     OW 9706   4.035   6.561   0.809
 2936SOL    HW1 9707   4.051   6.500   0.731
 2936SOL    HW2 9708   3.994   6.510   0.884
 2937SOL     OW 9709   5.365   5.187   1.200
 2937SOL    HW1 9710   5.458   5.158   1.225
 2937SOL    HW2 9711   5.309   5.106   1.182
 2938SOL     OW 9712   6.250   5.067   0.699
 2938SOL    HW1 9713   6.336   5.117   0.702
 2938SOL    HW2 9714   6.248   5.009   0.617
 2939SOL     OW 9715   1.989   0.601   1.306
 2939SOL    HW1 9716   2.062   0.614   1.374
 2939SOL    HW2 9717   2.002   0.667   1.232
 2940SOL     OW 9718   5.859   5.370   5.599
 2940SOL    HW1 9719   5.881   5.298   5.664
 2940SOL    HW2 9720   5.832   5.453   5.648
 2941SOL     OW 9721   2.160   2.122   3.623
 2941SOL    HW1 9722   2.103   2.056   3.573
 2941SOL    HW2 9723   2.120   2.137   3.714
 2942SOL     OW 9724   3.966   1.918   0.812
 2942SOL    HW1 9725   3.872   1.945   0.832
 2942SOL    HW2 9726   4.020   1.923   0.896
 2943SOL     OW 9727   5.385   4.420   3.647
 2943SOL    HW1 9728   5.393   4.362   3.567
 2943SOL    HW2 9729   5.312   4.385   3.706
 2944SOL     OW 9730   2.480   6.056   3.800
 2944SOL    HW1 9731   2.497   5.973   3.746
 2944SOL    HW2 9732   2.559   6.116   3.794
 2945SOL     OW 9733   4.568   2.598   1.926
 2945SOL    HW1 9734   4.619   2.681   1.899
 2945SOL    HW2 9735   4.537   2.550   1.844
 2946SOL     OW 9736   2.148   4.405   6.105
 2946SOL    HW1 9737   2.215   4.367   6.169
 2946SOL    HW2 9738   2.061   4.418   6.153
 2947SOL     OW 9739   0.749   5.572   0.920
 2947SOL    HW1 9740   0.674   5.523   0.876
 2947SOL    HW2 9741   0.715   5.618   1.003
 2948SOL     OW 9742   0.141   4.580   4.407
 2948SOL    HW1 9743   0.205   4.513   4.444
 2948SOL    HW2 9744   0.122   4.557   4.311
 2949SOL     OW 9745   0.479   5.322   0.292
 2949SOL    HW1 9746   0.575   5.305   0.314
 2949SOL    HW2 9747   0.471   5.354   0.197
 2950SOL     OW 9748   5.839   6.035   4.219
 2950SOL    HW1 9749   5.911   6.068   4.279
 2950SOL    HW2 9750   5.876   6.019   4.128
 2951SOL     OW 9751   5.535   2.019   2.226
 2951SOL    HW1 9752   5.465   1.949   2.216
 2951SOL    HW2 9753   5.602   1.989   2.294
 2952SOL     OW 9754   6.836   6.334   5.832
 2952SOL    HW1 9755   6.881   6.257   5.877
 2952SOL    HW2 9756   6.870   6.343   5.738
 2953SOL     OW 9757   6.453   4.266   3.337
 2953SOL    HW1 9758   6.406   4.221   3.261
 2953SOL    HW2 9759   6.535   4.313   3.303
 2954SOL     OW 9760   0.047   4.410   0.617
 2954SOL    HW1 9761   0.082   4.340   0.678
 2954SOL    HW2 9762   0.074   4.388   0.523
 2955SOL     OW 9763   0.257   4.156   1.122
 2955SOL    HW1 9764   0.353   4.182   1.135
 2955SOL    HW2 9765   0.247   4.107   1.035
 2956SOL     OW 9766   6.421   5.404   3.456
 2956SOL    HW1 9767   6.431   5.355   3.369
 2956SOL    HW2 9768   6.362   5.483   3.443
 2957SOL     OW 9769   4.991   4.657   1.358
 2957SOL    HW1 9770   4.973   4.624   1.266
 2957SOL    HW2 9771   5.048   4.591   1.407
 2958SOL     OW 9772   1.997   4.493   3.018
 2958SOL    HW1 9773   1.955   4.580   3.044
 2958SOL    HW2 9774   1.985   4.478   2.920
 2959SOL     OW 9775   5.566   3.099   2.192
 2959SOL    HW1 9776   5.585   3.095   2.094
 2959SOL    HW2 9777   5.552   3.195   2.219
 2960SOL     OW 9778   3.284   0.167   6.608
 2960SOL    HW1 9779   3.343   0.185   6.529
 2960SOL    HW2 9780   3.341   0.143   6.687
 2961SOL     OW 9781   6.066   4.886   3.213
 2961SOL    HW1 9782   6.129   4.920   3.282
 2961SOL    HW2 9783   6.117   4.846   3.137
 2962SOL     OW 9784   4.931   6.157   3.502
 2962SOL    HW1 9785   4.915   6.252   3.473
 2962SOL    HW2 9786   4.846   6.106   3.498
 2963SOL     OW 9787   0.720   0.967   7.010
 2963SOL    HW1 9788   0.750   1.003   0.077
 2963SOL    HW2 9789   0.632   1.008   6.986
 2964SOL     OW 9790   0.774   1.886   5.846
 2964SOL    HW1 9791   0.733   1.806   5.802
 2964SOL    HW2 9792   0.872   1.870   5.859
 2965SOL     OW 9793   0.551   1.030   4.664
 2965SOL    HW1 9794   0.618   0.964   4.630
 2965SOL    HW2 9795   0.595   1.119   4.674
 2966SOL     OW 9796   4.870   5.333   3.433
 2966SOL    HW1 9797   4.838   5.403   3.497
 2966SOL    HW2 9798   4.841   5.356   3.340
 2967SOL     OW 9799   6.098   0.732   5.564
 2967SOL    HW1 9800   6.083   0.736   5.465
 2967SOL    HW2 9801   6.013   0.706   5.610
 2968SOL     OW 9802   0.784   2.356   0.445
 2968SOL    HW1 9803   0.795   2.305   0.531
 2968SOL    HW2 9804   0.851   2.430   0.442
 2969SOL     OW 9805   4.580   2.503   3.858
 2969SOL    HW1 9806   4.561   2.447   3.939
 2969SOL    HW2 9807   4.585   2.600   3.885
 2970SOL     OW 9808   2.548   3.271   5.380
 2970SOL    HW1 9809   2.543   3.183   5.332
 2970SOL    HW2 9810   2.477   3.332   5.346
 2971SOL     OW 9811   5.103   3.793   0.645
 2971SOL    HW1 9812   5.030   3.861   0.639
 2971SOL    HW2 9813   5.066   3.703   0.622
 2972SOL     OW 9814   6.142   5.282   6.437
 2972SOL    HW1 9815   6.047   5.252   6.437
 2972SOL    HW2 9816   6.153   5.356   6.504
 2973SOL     OW 9817   4.921   6.896   1.908
 2973SOL    HW1 9818   4.880   6.805   1.906
 2973SOL    HW2 9819   5.011   6.893   1.866
 2974SOL     OW 9820   6.963   4.593   3.550
 2974SOL    HW1 9821   0.006   4.616   3.622
 2974SOL    HW2 9822   7.012   4.580   3.464
 2975SOL     OW 9823   5.348   4.156   4.029
 2975SOL    HW1 9824   5.317   4.139   4.122
 2975SOL    HW2 9825   5.448   4.148   4.025
 2976SOL     OW 9826   5.343   2.086   2.777
 2976SOL    HW1 9827   5.394   2.029   2.841
 2976SOL    HW2 9828   5.290   2.154   2.828
 2977SOL     OW 9829   0.717   0.718   2.470
 2977SOL    HW1 9830   0.691   0.656   2.396
 2977SOL    HW2 9831   0.767   0.796   2.432
 2978SOL     OW 9832   3.824   4.804   0.357
 2978SOL    HW1 9833   3.784   4.734   0.417
 2978SOL    HW2 9834   3.770   4.888   0.364
 2979SOL     OW 9835   3.159   1.815   4.071
 2979SOL    HW1 9836   3.209   1.843   4.152
 2979SOL    HW2 9837   3.077   1.872   4.061
 2980SOL     OW 9838   2.033   5.650   5.981
 2980SOL    HW1 9839   2.049   5.566   6.032
 2980SOL    HW2 9840   2.104   5.662   5.912
 2981SOL     OW 9841   1.808   0.989   0.313
 2981SOL    HW1 9842   1.879   1.055   0.337
 2981SOL    HW2 9843   1.830   0.947   0.225
 2982SOL     OW 9844   2.499   6.310   1.147
 2982SOL    HW1 9845   2.409   6.268   1.156
 2982SOL    HW2 9846   2.548   6.269   1.071
 2983SOL     OW 9847   6.700   2.157   2.335
 2983SOL    HW1 9848   6.686   2.217   2.413
 2983SOL    HW2 9849   6.748   2.207   2.263
 2984SOL     OW 9850   5.492   5.242   6.932
 2984SOL    HW1 9851   5.513   5.243   0.008
 2984SOL    HW2 9852   5.525   5.156   6.893
 2985SOL     OW 9853   1.768   1.465   4.717
 2985SOL    HW1 9854   1.857   1.505   4.740
 2985SOL    HW2 9855   1.773   1.365   4.725
 2986SOL     OW 9856   3.664   3.996   2.522
 2986SOL    HW1 9857   3.658   3.897   2.530
 2986SOL    HW2 9858   3.653   4.038   2.612
 2987SOL     OW 9859   1.562   1.074   4.518
 2987SOL    HW1 9860   1.500   1.120   4.582
 2987SOL    HW2 9861   1.585   0.984   4.552
 2988SOL     OW 9862   1.966   6.749   2.337
 2988SOL    HW1 9863   1.906   6.700   2.400
 2988SOL    HW2 9864   1.913   6.813   2.282
 2989SOL     OW 9865   5.296   4.653   5.564
 2989SOL    HW1 9866   5.314   4.556   5.545
 2989SOL    HW2 9867   5.202   4.675   5.538
 2990SOL     OW 9868   4.620   2.137   4.358
 2990SOL    HW1 9869   4.581   2.090   4.437
 2990SOL    HW2 9870   4.582   2.230   4.353
 2991SOL     OW 9871   6.381   3.155   5.874
 2991SOL    HW1 9872   6.353   3.125   5.965
 2991SOL    HW2 9873   6.302   3.192   5.825
 2992SOL     OW 9874   1.441   5.269   4.188
 2992SOL    HW1 9875   1.474   5.231   4.275
 2992SOL    HW2 9876   1.386   5.351   4.206
 2993SOL     OW 9877   0.668   4.941   1.380
 2993SOL    HW1 9878   0.617   5.024   1.358
 2993SOL    HW2 9879   0.680   4.886   1.297
 2994SOL     OW 9880   4.036   6.467   0.544
 2994SOL    HW1 9881   3.941   6.490   0.526
 2994SOL    HW2 9882   4.089   6.475   0.460
 2995SOL     OW 9883   3.747   0.557   6.757
 2995SOL    HW1 9884   3.648   0.559   6.750
 2995SOL    HW2 9885   3.775   0.490   6.826
 2996SOL     OW 9886   0.661   1.926   5.501
 2996SOL    HW1 9887   0.646   1.967   5.411
 2996SOL    HW2 9888   0.573   1.914   5.547
 2997SOL     OW 9889   4.964   0.300   3.150
 2997SOL    HW1 9890   4.868   0.305   3.180
 2997SOL    HW2 9891   5.013   0.381   3.183
 2998SOL     OW 9892   4.670   6.510   3.220
 2998SOL    HW1 9893   4.652   6.511   3.319
 2998SOL    HW2 9894   4.631   6.591   3.178
 2999SOL     OW 9895   2.424   5.213   5.515
 2999SOL    HW1 9896   2.429   5.126   5.565
 2999SOL    HW2 9897   2.506   5.225   5.460
 3000SOL     OW 9898   2.927   3.902   6.436
 3000SOL    HW1 9899   2.908   3.977   6.373
 3000SOL    HW2 9900   3.024   3.881   6.434
 3001SOL     OW 9901   6.373   1.501   6.654
 3001SOL    HW1 9902   6.434   1.424   6.638
 3001SOL    HW2 9903   6.287   1.486   6.605
 3002SOL     OW 9904   3.224   2.308   0.435
 3002SOL    HW1 9905   3.179   2.327   0.522
 3002SOL    HW2 9906   3.228   2.209   0.420
 3003SOL     OW 9907   0.990   6.597   0.661
 3003SOL    HW1 9908   1.088   6.581   0.673
 3003SOL    HW2 9909   0.968   6.690   0.690
 3004SOL     OW 9910   1.353   4.555   2.785
 3004SOL    HW1 9911   1.361   4.459   2.758
 3004SOL    HW2 9912   1.257   4.582   2.785
 3005SOL     OW 9913   1.772   2.821   6.987
 3005SOL    HW1 9914   1.720   2.905   7.005
 3005SOL    HW2 9915   1.747   2.752   0.033
 3006SOL     OW 9916   5.626   1.909   4.982
 3006SOL    HW1 9917   5.673   1.953   5.059
 3006SOL    HW2 9918   5.583   1.824   5.013
 3007SOL     OW 9919   4.857   4.775   0.967
 3007SOL    HW1 9920   4.882   4.859   0.920
 3007SOL    HW2 9921   4.798   4.796   1.046
 3008SOL     OW 9922   2.777   2.114   6.347
 3008SOL    HW1 9923   2.787   2.025   6.304
 3008SOL    HW2 9924   2.681   2.142   6.345
 3009SOL     OW 9925   6.859   3.174   2.877
 3009SOL    HW1 9926   6.823   3.196   2.786
 3009SOL    HW2 9927   6.790   3.194   2.946
 3010SOL     OW 9928   2.696   5.609   3.881
 3010SOL    HW1 9929   2.665   5.675   3.950
 3010SOL    HW2 9930   2.786   5.573   3.908
 3011SOL     OW 9931   6.362   1.113   1.822
 3011SOL    HW1 9932   6.403   1.189   1.773
 3011SOL    HW2 9933   6.354   1.034   1.760
 3012SOL     OW 9934   2.300   3.111   6.978
 3012SOL    HW1 9935   2.305   3.071   6.886
 3012SOL    HW2 9936   2.386   3.095   0.004
 3013SOL     OW 9937   5.729   4.994   3.714
 3013SOL    HW1 9938   5.647   4.939   3.726
 3013SOL    HW2 9939   5.768   5.016   3.803
 3014SOL     OW 9940   4.891   2.182   5.840
 3014SOL    HW1 9941   4.886   2.230   5.752
 3014SOL    HW2 9942   4.964   2.114   5.837
 3015SOL     OW 9943   1.632   1.945   0.324
 3015SOL    HW1 9944   1.579   2.030   0.330
 3015SOL    HW2 9945   1.596   1.878   0.389
 3016SOL     OW 9946   3.161   6.831   4.213
 3016SOL    HW1 9947   3.156   6.745   4.263
 3016SOL    HW2 9948   3.206   6.900   4.270
 3017SOL     OW 9949   5.758   5.684   2.473
 3017SOL    HW1 9950   5.700   5.734   2.537
 3017SOL    HW2 9951   5.709   5.604   2.437
 3018SOL     OW 9952   3.084   0.368   6.580
 3018SOL    HW1 9953   3.144   0.292   6.606
 3018SOL    HW2 9954   2.993   0.332   6.558
 3019SOL     OW 9955   0.291   0.399   6.660
 3019SOL    HW1 9956   0.269   0.303   6.675
 3019SOL    HW2 9957   0.385   0.416   6.690
 3020SOL     OW 9958   3.947   3.263   0.874
 3020SOL    HW1 9959   3.998   3.218   0.800
 3020SOL    HW2 9960   3.875   3.320   0.835
 3021SOL     OW 9961   2.841   0.400   4.785
 3021SOL    HW1 9962   2.766   0.343   4.820
 3021SOL    HW2 9963   2.846   0.484   4.839
 3022SOL     OW 9964   4.492   5.174   4.633
 3022SOL    HW1 9965   4.480   5.086   4.679
 3022SOL    HW2 9966   4.421   5.184   4.563
 3023SOL     OW 9967   4.063   6.724   3.208
 3023SOL    HW1 9968   4.044   6.734   3.110
 3023SOL    HW2 9969   4.151   6.678   3.220
 3024SOL     OW 9970   5.876   6.306   4.835
 3024SOL    HW1 9971   5.907   6.394   4.873
 3024SOL    HW2 9972   5.782   6.315   4.803
 3025SOL     OW 9973   4.334   5.882   1.556
 3025SOL    HW1 9974   4.433   5.898   1.560
 3025SOL    HW2 9975   4.304   5.882   1.460
 3026SOL     OW 9976   0.031   1.507   6.360
 3026SOL    HW1 9977   6.961   1.467   6.368
 3026SOL    HW2 9978   0.095   1.456   6.417
 3027SOL     OW 9979   3.443   2.069   2.624
 3027SOL    HW1 9980   3.430   1.992   2.561
 3027SOL    HW2 9981   3.522   2.122   2.596
 3028SOL     OW 9982   1.049   3.892   5.773
 3028SOL    HW1 9983   1.143   3.877   5.743
 3028SOL    HW2 9984   0.993   3.923   5.696
 3029SOL     OW 9985   1.248   3.191   4.091
 3029SOL    HW1 9986   1.195   3.146   4.163
 3029SOL    HW2 9987   1.293   3.122   4.035
 3030SOL     OW 9988   1.857   4.103   0.811
 3030SOL    HW1 9989   1.830   4.191   0.850
 3030SOL    HW2 9990   1.853   4.108   0.711
 3031SOL     OW 9991   0.254   4.819   1.012
 3031SOL    HW1 9992   0.282   4.826   1.108
 3031SOL    HW2 9993   0.257   4.723   0.983
 3032SOL     OW 9994   2.233   6.837   1.385
 3032SOL    HW1 9995   2.329   6.847   1.411
 3032SOL    HW2 9996   2.223   6.856   1.288
 3033SOL     OW 9997   6.077   0.827   2.283
 3033SOL    HW1 9998   6.077   0.883   2.366
 3033SOL    HW2 9999   6.156   0.851   2.227
 3034SOL     OW10000   0.599   6.438   3.323
 3034SOL    HW110001   0.558   6.508   3.264
 3034SOL    HW210002   0.655   6.376   3.267
 3035SOL     OW10003   1.064   3.266   6.081
 3035SOL    HW110004   0.973   3.268   6.040
 3035SOL    HW210005   1.103   3.358   6.081
 3036SOL     OW10006   1.404   1.646   6.012
 3036SOL    HW110007   1.468   1.579   5.976
 3036SOL    HW210008   1.401   1.640   6.112
 3037SOL     OW10009   6.602   4.804   5.725
 3037SOL    HW110010   6.620   4.817   5.627
 3037SOL    HW210011   6.569   4.711   5.740
 3038SOL     OW10012   5.024   4.655   5.459
 3038SOL    HW110013   5.010   4.701   5.372
 3038SOL    HW210014   4.965   4.574   5.464
 3039SOL     OW10015   0.512   2.965   0.717
 3039SOL    HW110016   0.561   3.021   0.784
 3039SOL    HW210017   0.577   2.920   0.657
 3040SOL     OW10018   3.593   5.123   5.529
 3040SOL    HW110019   3.500   5.131   5.564
 3040SOL    HW210020   3.614   5.027   5.512
 3041SOL     OW10021   1.596   4.593   5.689
 3041SOL    HW110022   1.669   4.550   5.635
 3041SOL    HW210023   1.610   4.574   5.786
 3042SOL     OW10024   6.022   6.198   3.202
 3042SOL    HW110025   5.943   6.213   3.260
 3042SOL    HW210026   6.067   6.286   3.184
 3043SOL     OW10027   2.987   3.863   1.630
 3043SOL    HW110028   2.959   3.789   1.692
 3043SOL    HW210029   3.086   3.863   1.620
 3044SOL     OW10030   3.215   5.811   5.697
 3044SOL    HW110031   3.155   5.812   5.617
 3044SOL    HW210032   3.306   5.842   5.671
 3045SOL     OW10033   5.116   6.719   3.008
 3045SOL    HW110034   5.189   6.677   2.954
 3045SOL    HW210035   5.042   6.652   3.021
 3046SOL     OW10036   3.468   0.206   6.818
 3046SOL    HW110037   3.420   0.181   6.902
 3046SOL    HW210038   3.552   0.153   6.810
 3047SOL     OW10039   5.668   0.177   1.182
 3047SOL    HW110040   5.571   0.153   1.180
 3047SOL    HW210041   5.684   0.257   1.124
 3048SOL     OW10042   4.822   2.416   0.477
 3048SOL    HW110043   4.743   2.470   0.450
 3048SOL    HW210044   4.861   2.453   0.561
 3049SOL     OW10045   1.765   6.932   3.183
 3049SOL    HW110046   1.828   6.982   3.243
 3049SOL    HW210047   1.679   6.983   3.177
 3050SOL     OW10048   3.373   1.902   1.711
 3050SOL    HW110049   3.293   1.942   1.665
 3050SOL    HW210050   3.382   1.942   1.802
 3051SOL     OW10051   2.066   6.619   6.417
 3051SOL    HW110052   1.967   6.631   6.410
 3051SOL    HW210053   2.088   6.522   6.423
 3052SOL     OW10054   4.912   5.797   2.156
 3052SOL    HW110055   4.923   5.878   2.215
 3052SOL    HW210056   4.815   5.776   2.148
 3053SOL     OW10057   0.074   3.360   1.306
 3053SOL    HW110058   0.149   3.312   1.351
 3053SOL    HW210059   0.007   3.390   1.374
 3054SOL     OW10060   5.839   2.171   1.677
 3054SOL    HW110061   5.872   2.264   1.695
 3054SOL    HW210062   5.914   2.106   1.692
 3055SOL     OW10063   5.230   0.207   5.135
 3055SOL    HW110064   5.195   0.125   5.091
 3055SOL    HW210065   5.306   0.183   5.196
 3056SOL     OW10066   6.865   1.028   5.441
 3056SOL    HW110067   6.775   0.990   5.422
 3056SOL    HW210068   6.893   1.086   5.364
 3057SOL     OW10069   4.808   5.106   4.338
 3057SOL    HW110070   4.746   5.071   4.268
 3057SOL    HW210071   4.889   5.145   4.294
 3058SOL     OW10072   6.837   4.294   0.721
 3058SOL    HW110073   6.861   4.285   0.624
 3058SOL    HW210074   6.892   4.367   0.762
 3059SOL     OW10075   2.646   1.436   3.617
 3059SOL    HW110076   2.637   1.482   3.706
 3059SOL    HW210077   2.555   1.421   3.578
 3060SOL     OW10078   2.341   5.513   0.621
 3060SOL    HW110079   2.426   5.500   0.671
 3060SOL    HW210080   2.302   5.424   0.596
 3061SOL     OW10081   5.923   5.528   5.390
 3061SOL    HW110082   5.931   5.626   5.409
 3061SOL    HW210083   5.934   5.477   5.475
 3062SOL     OW10084   1.626   6.732   0.537
 3062SOL    HW110085   1.711   6.704   0.492
 3062SOL    HW210086   1.641   6.818   0.586
 3063SOL     OW10087   1.971   4.730   1.315
 3063SOL    HW110088   1.942   4.642   1.279
 3063SOL    HW210089   1.917   4.752   1.397
 3064SOL     OW10090   4.879   3.370   0.333
 3064SOL    HW110091   4.939   3.345   0.257
 3064SOL    HW210092   4.848   3.287   0.380
 3065SOL     OW10093   1.138   2.371   6.299
 3065SOL    HW110094   1.181   2.337   6.215
 3065SOL    HW210095   1.042   2.391   6.281
 3066SOL     OW10096   5.397   4.990   0.434
 3066SOL    HW110097   5.358   4.974   0.344
 3066SOL    HW210098   5.450   4.911   0.463
 3067SOL     OW10099   2.964   0.969   6.825
 3067SOL    HW110100   2.895   0.963   6.753
 3067SOL    HW210101   3.047   1.011   6.788
 3068SOL     OW10102   6.876   6.413   1.631
 3068SOL    HW110103   6.826   6.493   1.663
 3068SOL    HW210104   6.852   6.334   1.687
 3069SOL     OW10105   6.503   6.417   2.718
 3069SOL    HW110106   6.588   6.466   2.698
 3069SOL    HW210107   6.425   6.478   2.706
 3070SOL     OW10108   2.670   0.772   6.990
 3070SOL    HW110109   2.755   0.802   0.010
 3070SOL    HW210110   2.603   0.846   6.994
 3071SOL     OW10111   6.421   5.993   3.932
 3071SOL    HW110112   6.495   6.016   3.995
 3071SOL    HW210113   6.454   5.927   3.865
 3072SOL     OW10114   2.058   5.432   6.163
 3072SOL    HW110115   2.094   5.444   6.255
 3072SOL    HW210116   1.973   5.379   6.167
 3073SOL     OW10117   6.737   3.836   3.017
 3073SOL    HW110118   6.694   3.877   2.937
 3073SOL    HW210119   6.725   3.895   3.096
 3074SOL     OW10120   0.013   3.834   0.848
 3074SOL    HW110121   6.968   3.883   0.905
 3074SOL    HW210122   0.094   3.891   0.834
 3075SOL     OW10123   2.422   5.485   3.331
 3075SOL    HW110124   2.505   5.466   3.279
 3075SOL    HW210125   2.344   5.490   3.269
 3076SOL     OW10126   6.728   1.969   3.780
 3076SOL    HW110127   6.680   1.899   3.728
 3076SOL    HW210128   6.740   2.050   3.722
 3077SOL     OW10129   5.470   4.505   1.974
 3077SOL    HW110130   5.463   4.414   2.014
 3077SOL    HW210131   5.554   4.511   1.919
 3078SOL     OW10132   6.853   3.331   2.640
 3078SOL    HW110133   6.933   3.359   2.692
 3078SOL    HW210134   6.793   3.411   2.626
 3079SOL     OW10135   2.871   2.254   2.904
 3079SOL    HW110136   2.911   2.248   2.813
 3079SOL    HW210137   2.807   2.178   2.918
 3080SOL     OW10138   6.017   4.747   2.190
 3080SOL    HW110139   5.995   4.844   2.179
 3080SOL    HW210140   6.100   4.726   2.139
 3081SOL     OW10141   0.774   4.593   5.724
 3081SOL    HW110142   0.847   4.660   5.741
 3081SOL    HW210143   0.719   4.623   5.646
 3082SOL     OW10144   1.454   5.730   4.069
 3082SOL    HW110145   1.399   5.780   4.136
 3082SOL    HW210146   1.407   5.731   3.981
 3083SOL     OW10147   2.806   6.394   3.457
 3083SOL    HW110148   2.813   6.295   3.443
 3083SOL    HW210149   2.818   6.441   3.370
 3084SOL     OW10150   6.242   4.687   3.557
 3084SOL    HW110151   6.238   4.588   3.568
 3084SOL    HW210152   6.152   4.726   3.576
 3085SOL     OW10153   6.233   4.980   0.416
 3085SOL    HW110154   6.207   4.884   0.412
 3085SOL    HW210155   6.303   4.999   0.347
 3086SOL     OW10156   4.989   1.299   6.769
 3086SOL    HW110157   5.001   1.204   6.738
 3086SOL    HW210158   4.935   1.299   6.853
 3087SOL     OW10159   2.511   6.772   3.508
 3087SOL    HW110160   2.551   6.694   3.557
 3087SOL    HW210161   2.427   6.800   3.553
 3088SOL     OW10162   1.647   3.582   4.964
 3088SOL    HW110163   1.567   3.541   4.920
 3088SOL    HW210164   1.621   3.620   5.053
 3089SOL     OW10165   4.182   2.178   4.523
 3089SOL    HW110166   4.277   2.149   4.520
 3089SOL    HW210167   4.166   2.235   4.604
 3090SOL     OW10168   2.671   1.084   2.167
 3090SOL    HW110169   2.646   1.143   2.244
 3090SOL    HW210170   2.744   1.129   2.114
 3091SOL     OW10171   1.275   1.228   0.512
 3091SOL    HW110172   1.273   1.299   0.582
 3091SOL    HW210173   1.281   1.138   0.555
 3092SOL     OW10174   5.604   0.343   0.552
 3092SOL    HW110175   5.695   0.347   0.594
 3092SOL    HW210176   5.562   0.433   0.555
 3093SOL     OW10177   5.527   5.714   6.435
 3093SOL    HW110178   5.604   5.661   6.470
 3093SOL    HW210179   5.534   5.721   6.336
 3094SOL     OW10180   2.537   0.089   4.163
 3094SOL    HW110181   2.534   7.020   4.122
 3094SOL    HW210182   2.613   0.094   4.229
 3095SOL     OW10183   2.355   3.636   5.469
 3095SOL    HW110184   2.353   3.640   5.568
 3095SOL    HW210185   2.418   3.704   5.433
 3096SOL     OW10186   0.826   5.005   5.514
 3096SOL    HW110187   0.847   4.941   5.588
 3096SOL    HW210188   0.763   5.075   5.548
 3097SOL     OW10189   5.747   3.506   6.815
 3097SOL    HW110190   5.679   3.437   6.840
 3097SOL    HW210191   5.789   3.543   6.897
 3098SOL     OW10192   1.691   3.192   1.459
 3098SOL    HW110193   1.688   3.216   1.362
 3098SOL    HW210194   1.598   3.184   1.494
 3099SOL     OW10195   1.006   6.161   3.969
 3099SOL    HW110196   0.941   6.097   4.010
 3099SOL    HW210197   0.957   6.234   3.923
 3100SOL     OW10198   6.425   6.249   3.804
 3100SOL    HW110199   6.434   6.250   3.705
 3100SOL    HW210200   6.395   6.159   3.834
 3101SOL     OW10201   5.257   5.570   6.119
 3101SOL    HW110202   5.288   5.645   6.176
 3101SOL    HW210203   5.158   5.558   6.130
 3102SOL     OW10204   6.546   0.017   1.126
 3102SOL    HW110205   6.640   7.007   1.117
 3102SOL    HW210206   6.484   6.961   1.138
 3103SOL     OW10207   4.089   1.140   1.273
 3103SOL    HW110208   4.170   1.145   1.331
 3103SOL    HW210209   4.113   1.096   1.186
 3104SOL     OW10210   4.167   0.535   6.067
 3104SOL    HW110211   4.262   0.508   6.052
 3104SOL    HW210212   4.157   0.566   6.162
 3105SOL     OW10213   5.326   3.483   1.633
 3105SOL    HW110214   5.379   3.508   1.552
 3105SOL    HW210215   5.346   3.388   1.657
 3106SOL     OW10216   4.885   6.542   5.130
 3106SOL    HW110217   4.788   6.560   5.150
 3106SOL    HW210218   4.907   6.579   5.040
 3107SOL     OW10219   3.637   0.858   4.867
 3107SOL    HW110220   3.540   0.844   4.885
 3107SOL    HW210221   3.666   0.946   4.904
 3108SOL     OW10222   2.102   5.673   4.927
 3108SOL    HW110223   2.149   5.679   4.839
 3108SOL    HW210224   2.004   5.667   4.913
 3109SOL     OW10225   5.995   0.217   3.922
 3109SOL    HW110226   6.076   0.266   3.890
 3109SOL    HW210227   6.018   0.166   4.005
 3110SOL     OW10228   1.245   4.197   2.843
 3110SOL    HW110229   1.218   4.103   2.821
 3110SOL    HW210230   1.279   4.242   2.760
 3111SOL     OW10231   0.162   5.201   3.504
 3111SOL    HW110232   0.067   5.199   3.534
 3111SOL    HW210233   0.212   5.271   3.556
 3112SOL     OW10234   3.161   3.030   0.803
 3112SOL    HW110235   3.086   3.037   0.870
 3112SOL    HW210236   3.165   2.937   0.767
 3113SOL     OW10237   3.498   5.781   2.652
 3113SOL    HW110238   3.409   5.738   2.663
 3113SOL    HW210239   3.570   5.713   2.665
 3114SOL     OW10240   3.701   1.879   0.562
 3114SOL    HW110241   3.764   1.883   0.484
 3114SOL    HW210242   3.616   1.835   0.534
 3115SOL     OW10243   3.996   4.944   6.460
 3115SOL    HW110244   4.046   4.863   6.493
 3115SOL    HW210245   4.060   5.007   6.416
 3116SOL     OW10246   6.875   2.365   6.881
 3116SOL    HW110247   6.778   2.366   6.858
 3116SOL    HW210248   6.911   2.272   6.871
 3117SOL     OW10249   4.480   3.692   5.552
 3117SOL    HW110250   4.456   3.736   5.466
 3117SOL    HW210251   4.405   3.702   5.617
 3118SOL     OW10252   0.619   5.620   2.295
 3118SOL    HW110253   0.709   5.650   2.328
 3118SOL    HW210254   0.614   5.520   2.300
 3119SOL     OW10255   2.430   2.417   0.024
 3119SOL    HW110256   2.505   2.470   0.066
 3119SOL    HW210257   2.352   2.415   0.087
 3120SOL     OW10258   2.376   0.240   5.814
 3120SOL    HW110259   2.433   0.230   5.732
 3120SOL    HW210260   2.417   0.190   5.890
 3121SOL     OW10261   5.688   1.589   4.682
 3121SOL    HW110262   5.623   1.526   4.724
 3121SOL    HW210263   5.688   1.578   4.583
 3122SOL     OW10264   4.989   5.135   5.233
 3122SOL    HW110265   5.035   5.096   5.314
 3122SOL    HW210266   5.037   5.219   5.206
 3123SOL     OW10267   1.871   1.486   2.522
 3123SOL    HW110268   1.773   1.505   2.517
 3123SOL    HW210269   1.920   1.571   2.540
 3124SOL     OW10270   4.604   0.541   4.331
 3124SOL    HW110271   4.525   0.572   4.278
 3124SOL    HW210272   4.669   0.496   4.270
 3125SOL     OW10273   1.550   3.273   5.034
 3125SOL    HW110274   1.516   3.331   4.960
 3125SOL    HW210275   1.568   3.329   5.115
 3126SOL     OW10276   5.431   4.569   5.136
 3126SOL    HW110277   5.450   4.580   5.038
 3126SOL    HW210278   5.500   4.620   5.189
 3127SOL     OW10279   2.341   1.721   6.746
 3127SOL    HW110280   2.427   1.771   6.760
 3127SOL    HW210281   2.267   1.770   6.792
 3128SOL     OW10282   3.327   0.843   0.270
 3128SOL    HW110283   3.377   0.775   0.216
 3128SOL    HW210284   3.391   0.914   0.301
 3129SOL     OW10285   5.645   3.640   0.835
 3129SOL    HW110286   5.704   3.689   0.770
 3129SOL    HW210287   5.575   3.589   0.785
 3130SOL     OW10288   2.149   4.399   1.959
 3130SOL    HW110289   2.156   4.484   1.907
 3130SOL    HW210290   2.054   4.383   1.984
 3131SOL     OW10291   0.911   3.811   2.035
 3131SOL    HW110292   0.947   3.719   2.021
 3131SOL    HW210293   0.896   3.826   2.133
 3132SOL     OW10294   5.089   5.120   6.543
 3132SOL    HW110295   5.092   5.209   6.589
 3132SOL    HW210296   5.178   5.099   6.504
 3133SOL     OW10297   3.397   0.738   3.448
 3133SOL    HW110298   3.376   0.735   3.351
 3133SOL    HW210299   3.495   0.724   3.462
 3134SOL     OW10300   4.348   4.739   0.607
 3134SOL    HW110301   4.425   4.679   0.586
 3134SOL    HW210302   4.370   4.833   0.581
 3135SOL     OW10303   4.735   0.297   5.688
 3135SOL    HW110304   4.803   0.271   5.618
 3135SOL    HW210305   4.676   0.219   5.707
 3136SOL     OW10306   5.675   0.067   2.559
 3136SOL    HW110307   5.704   7.018   2.624
 3136SOL    HW210308   5.666   0.027   2.468
 3137SOL     OW10309   6.941   6.635   3.706
 3137SOL    HW110310   6.994   6.567   3.655
 3137SOL    HW210311   6.843   6.620   3.689
 3138SOL     OW10312   5.978   5.557   3.859
 3138SOL    HW110313   5.923   5.562   3.943
 3138SOL    HW210314   6.055   5.495   3.874
 3139SOL     OW10315   3.348   5.385   1.076
 3139SOL    HW110316   3.349   5.483   1.060
 3139SOL    HW210317   3.270   5.361   1.135
 3140SOL     OW10318   6.197   6.227   6.007
 3140SOL    HW110319   6.265   6.198   5.940
 3140SOL    HW210320   6.110   6.245   5.961
 3141SOL     OW10321   0.627   7.005   6.228
 3141SOL    HW110322   0.692   6.993   6.303
 3141SOL    HW210323   0.670   0.035   6.154
 3142SOL     OW10324   3.264   0.137   2.697
 3142SOL    HW110325   3.258   0.220   2.642
 3142SOL    HW210326   3.342   0.143   2.758
 3143SOL     OW10327   6.074   1.362   0.098
 3143SOL    HW110328   6.122   1.281   0.063
 3143SOL    HW210329   6.092   1.440   0.037
 3144SOL     OW10330   4.526   3.799   0.792
 3144SOL    HW110331   4.437   3.845   0.795
 3144SOL    HW210332   4.593   3.852   0.843
 3145SOL     OW10333   2.060   6.410   2.253
 3145SOL    HW110334   2.133   6.474   2.279
 3145SOL    HW210335   2.001   6.453   2.185
 3146SOL     OW10336   0.753   1.328   4.466
 3146SOL    HW110337   0.851   1.344   4.454
 3146SOL    HW210338   0.716   1.280   4.387
 3147SOL     OW10339   3.294   5.170   0.205
 3147SOL    HW110340   3.251   5.115   0.134
 3147SOL    HW210341   3.391   5.147   0.211
 3148SOL     OW10342   0.042   6.989   4.015
 3148SOL    HW110343   0.020   6.895   3.988
 3148SOL    HW210344   0.132   7.013   3.978
 3149SOL     OW10345   2.783   0.923   6.621
 3149SOL    HW110346   2.776   0.825   6.606
 3149SOL    HW210347   2.691   0.963   6.622
 3150SOL     OW10348   0.069   5.912   5.224
 3150SOL    HW110349   0.122   5.994   5.203
 3150SOL    HW210350   0.056   5.859   5.141
 3151SOL     OW10351   0.455   1.234   5.417
 3151SOL    HW110352   0.506   1.200   5.338
 3151SOL    HW210353   0.489   1.325   5.443
 3152SOL     OW10354   0.837   4.915   0.411
 3152SOL    HW110355   0.840   4.846   0.338
 3152SOL    HW210356   0.742   4.935   0.435
 3153SOL     OW10357   6.192   5.791   0.564
 3153SOL    HW110358   6.160   5.710   0.613
 3153SOL    HW210359   6.291   5.798   0.571
 3154SOL     OW10360   6.944   1.951   0.256
 3154SOL    HW110361   6.934   1.882   0.185
 3154SOL    HW210362   6.949   2.042   0.214
 3155SOL     OW10363   6.712   5.003   0.065
 3155SOL    HW110364   6.640   4.951   0.110
 3155SOL    HW210365   6.752   5.068   0.130
 3156SOL     OW10366   2.973   3.451   2.033
 3156SOL    HW110367   2.935   3.367   1.994
 3156SOL    HW210368   3.063   3.432   2.072
 3157SOL     OW10369   2.020   1.724   5.892
 3157SOL    HW110370   2.098   1.781   5.918
 3157SOL    HW210371   1.944   1.741   5.954
 3158SOL     OW10372   2.666   1.329   3.980
 3158SOL    HW110373   2.602   1.252   3.983
 3158SOL    HW210374   2.733   1.314   3.906
 3159SOL     OW10375   5.686   0.254   6.372
 3159SOL    HW110376   5.685   0.297   6.462
 3159SOL    HW210377   5.672   0.155   6.382
 3160SOL     OW10378   1.358   5.905   6.076
 3160SOL    HW110379   1.379   5.950   5.989
 3160SOL    HW210380   1.325   5.974   6.142
 3161SOL     OW10381   2.518   2.525   2.746
 3161SOL    HW110382   2.578   2.497   2.820
 3161SOL    HW210383   2.573   2.566   2.673
 3162SOL     OW10384   1.295   5.892   1.702
 3162SOL    HW110385   1.230   5.852   1.767
 3162SOL    HW210386   1.312   5.988   1.727
 3163SOL     OW10387   4.447   3.899   6.329
 3163SOL    HW110388   4.421   3.990   6.362
 3163SOL    HW210389   4.510   3.909   6.252
 3164SOL     OW10390   4.088   5.480   0.893
 3164SOL    HW110391   4.098   5.574   0.862
 3164SOL    HW210392   4.001   5.443   0.861
 3165SOL     OW10393   2.053   6.695   1.575
 3165SOL    HW110394   2.058   6.596   1.562
 3165SOL    HW210395   2.097   6.740   1.497
 3166SOL     OW10396   4.078   1.815   3.490
 3166SOL    HW110397   4.123   1.778   3.408
 3166SOL    HW210398   4.147   1.856   3.550
 3167SOL     OW10399   5.478   4.122   1.134
 3167SOL    HW110400   5.459   4.025   1.121
 3167SOL    HW210401   5.522   4.159   1.052
 3168SOL     OW10402   5.396   3.134   6.946
 3168SOL    HW110403   5.422   3.039   6.964
 3168SOL    HW210404   5.299   3.147   6.966
 3169SOL     OW10405   2.293   4.251   3.827
 3169SOL    HW110406   2.356   4.243   3.750
 3169SOL    HW210407   2.270   4.348   3.842
 3170SOL     OW10408   4.124   5.967   1.755
 3170SOL    HW110409   4.177   5.922   1.683
 3170SOL    HW210410   4.031   5.984   1.723
 3171SOL     OW10411   6.751   1.530   2.149
 3171SOL    HW110412   6.765   1.623   2.114
 3171SOL    HW210413   6.663   1.525   2.196
 3172SOL     OW10414   6.442   5.485   6.911
 3172SOL    HW110415   6.462   5.443   6.822
 3172SOL    HW210416   6.443   5.585   6.902
 3173SOL     OW10417   3.258   2.404   0.165
 3173SOL    HW110418   3.222   2.497   0.163
 3173SOL    HW210419   3.237   2.362   0.253
 3174SOL     OW10420   3.130   2.679   0.184
 3174SOL    HW110421   3.120   2.682   0.085
 3174SOL    HW210422   3.048   2.718   0.227
 3175SOL     OW10423   5.900   1.401   1.532
 3175SOL    HW110424   5.906   1.356   1.443
 3175SOL    HW210425   5.847   1.485   1.523
 3176SOL     OW10426   0.675   3.832   5.134
 3176SOL    HW110427   0.585   3.790   5.119
 3176SOL    HW210428   0.689   3.847   5.232
 3177SOL     OW10429   5.215   4.322   3.852
 3177SOL    HW110430   5.236   4.255   3.923
 3177SOL    HW210431   5.201   4.412   3.894
 3178SOL     OW10432   6.662   2.562   0.814
 3178SOL    HW110433   6.682   2.569   0.912
 3178SOL    HW210434   6.643   2.653   0.777
 3179SOL     OW10435   1.031   2.113   1.935
 3179SOL    HW110436   1.073   2.172   1.866
 3179SOL    HW210437   0.933   2.103   1.916
 3180SOL     OW10438   5.096   0.276   0.449
 3180SOL    HW110439   5.076   0.210   0.376
 3180SOL    HW210440   5.011   0.321   0.476
 3181SOL     OW10441   6.518   1.939   3.409
 3181SOL    HW110442   6.616   1.948   3.425
 3181SOL    HW210443   6.485   2.017   3.356
 3182SOL     OW10444   2.493   0.323   6.888
 3182SOL    HW110445   2.487   0.253   6.960
 3182SOL    HW210446   2.549   0.288   6.813
 3183SOL     OW10447   4.780   4.153   2.143
 3183SOL    HW110448   4.686   4.176   2.121
 3183SOL    HW210449   4.810   4.076   2.086
 3184SOL     OW10450   0.948   2.723   2.753
 3184SOL    HW110451   0.895   2.754   2.674
 3184SOL    HW210452   0.906   2.756   2.837
 3185SOL     OW10453   4.579   5.995   6.945
 3185SOL    HW110454   4.535   5.917   6.989
 3185SOL    HW210455   4.636   6.043   7.012
 3186SOL     OW10456   3.189   1.777   0.733
 3186SOL    HW110457   3.278   1.801   0.771
 3186SOL    HW210458   3.177   1.677   0.736
 3187SOL     OW10459   4.843   5.252   0.750
 3187SOL    HW110460   4.772   5.315   0.718
 3187SOL    HW210461   4.931   5.299   0.753
 3188SOL     OW10462   1.445   6.590   4.160
 3188SOL    HW110463   1.393   6.657   4.214
 3188SOL    HW210464   1.512   6.545   4.219
 3189SOL     OW10465   1.268   2.546   1.423
 3189SOL    HW110466   1.310   2.541   1.514
 3189SOL    HW210467   1.315   2.484   1.361
 3190SOL     OW10468   0.139   5.196   0.639
 3190SOL    HW110469   0.237   5.191   0.616
 3190SOL    HW210470   0.119   5.132   0.712
 3191SOL     OW10471   4.956   5.889   1.330
 3191SOL    HW110472   4.928   5.811   1.386
 3191SOL    HW210473   4.974   5.859   1.237
 3192SOL     OW10474   0.629   3.403   1.458
 3192SOL    HW110475   0.561   3.387   1.529
 3192SOL    HW210476   0.709   3.447   1.498
 3193SOL     OW10477   4.122   1.182   6.187
 3193SOL    HW110478   4.077   1.254   6.240
 3193SOL    HW210479   4.156   1.111   6.249
 3194SOL     OW10480   1.678   1.866   6.285
 3194SOL    HW110481   1.683   1.966   6.284
 3194SOL    HW210482   1.751   1.830   6.343
 3195SOL     OW10483   1.912   0.657   3.166
 3195SOL    HW110484   1.994   0.602   3.183
 3195SOL    HW210485   1.895   0.662   3.068
 3196SOL     OW10486   0.382   1.040   6.932
 3196SOL    HW110487   0.437   1.118   6.905
 3196SOL    HW210488   0.299   1.071   6.978
 3197SOL     OW10489   2.704   6.752   4.491
 3197SOL    HW110490   2.778   6.700   4.535
 3197SOL    HW210491   2.741   6.833   4.447
 3198SOL     OW10492   6.475   2.743   3.411
 3198SOL    HW110493   6.422   2.659   3.396
 3198SOL    HW210494   6.462   2.773   3.506
 3199SOL     OW10495   5.573   4.141   2.869
 3199SOL    HW110496   5.670   4.132   2.849
 3199SOL    HW210497   5.529   4.052   2.862
 3200SOL     OW10498   5.378   3.074   2.504
 3200SOL    HW110499   5.425   2.990   2.532
 3200SOL    HW210500   5.446   3.146   2.489
 3201SOL     OW10501   6.672   4.451   3.607
 3201SOL    HW110502   6.761   4.497   3.605
 3201SOL    HW210503   6.600   4.517   3.627
 3202SOL     OW10504   1.477   5.132   1.263
 3202SOL    HW110505   1.537   5.167   1.335
 3202SOL    HW210506   1.385   5.119   1.300
 3203SOL     OW10507   5.572   2.139   0.187
 3203SOL    HW110508   5.593   2.182   0.099
 3203SOL    HW210509   5.640   2.069   0.207
 3204SOL     OW10510   4.619   6.649   2.844
 3204SOL    HW110511   4.572   6.671   2.758
 3204SOL    HW210512   4.626   6.550   2.854
 3205SOL     OW10513   5.526   2.445   5.695
 3205SOL    HW110514   5.438   2.491   5.702
 3205SOL    HW210515   5.592   2.507   5.652
 3206SOL     OW10516   1.799   4.910   0.676
 3206SOL    HW110517   1.880   4.853   0.688
 3206SOL    HW210518   1.825   4.995   0.631
 3207SOL     OW10519   1.349   0.913   6.490
 3207SOL    HW110520   1.438   0.876   6.516
 3207SOL    HW210521   1.282   0.839   6.487
 3208SOL     OW10522   4.601   6.374   5.976
 3208SOL    HW110523   4.547   6.361   6.059
 3208SOL    HW210524   4.547   6.348   5.896
 3209SOL     OW10525   3.421   5.022   3.800
 3209SOL    HW110526   3.351   5.091   3.817
 3209SOL    HW210527   3.421   4.997   3.703
 3210SOL     OW10528   1.442   4.199   0.781
 3210SOL    HW110529   1.486   4.236   0.863
 3210SOL    HW210530   1.490   4.232   0.700
 3211SOL     OW10531   1.442   3.926   0.713
 3211SOL    HW110532   1.434   4.020   0.748
 3211SOL    HW210533   1.517   3.922   0.647
 3212SOL     OW10534   2.841   6.873   1.480
 3212SOL    HW110535   2.822   6.860   1.577
 3212SOL    HW210536   2.937   6.898   1.467
 3213SOL     OW10537   1.731   0.071   0.422
 3213SOL    HW110538   1.715   0.048   0.518
 3213SOL    HW210539   1.830   0.068   0.404
 3214SOL     OW10540   4.626   5.772   0.663
 3214SOL    HW110541   4.666   5.734   0.579
 3214SOL    HW210542   4.531   5.797   0.646
 3215SOL     OW10543   0.295   3.704   1.062
 3215SOL    HW110544   0.316   3.607   1.055
 3215SOL    HW210545   0.380   3.757   1.064
 3216SOL     OW10546   5.915   5.548   0.705
 3216SOL    HW110547   5.915   5.504   0.794
 3216SOL    HW210548   5.822   5.554   0.670
 3217SOL     OW10549   6.992   5.438   2.247
 3217SOL    HW110550   0.027   5.366   2.206
 3217SOL    HW210551   0.026   5.519   2.264
 3218SOL     OW10552   4.955   2.527   3.574
 3218SOL    HW110553   4.949   2.428   3.566
 3218SOL    HW210554   4.984   2.565   3.486
 3219SOL     OW10555   0.755   1.576   3.293
 3219SOL    HW110556   0.779   1.491   3.340
 3219SOL    HW210557   0.838   1.629   3.275
 3220SOL     OW10558   0.113   5.163   5.769
 3220SOL    HW110559   0.090   5.183   5.865
 3220SOL    HW210560   0.194   5.105   5.766
 3221SOL     OW10561   3.856   0.024   1.815
 3221SOL    HW110562   3.756   0.027   1.807
 3221SOL    HW210563   3.881   7.014   1.906
 3222SOL     OW10564   2.871   1.332   2.874
 3222SOL    HW110565   2.920   1.331   2.787
 3222SOL    HW210566   2.882   1.243   2.919
 3223SOL     OW10567   2.446   6.812   6.110
 3223SOL    HW110568   2.400   6.855   6.032
 3223SOL    HW210569   2.530   6.768   6.079
 3224SOL     OW10570   4.745   3.214   5.235
 3224SOL    HW110571   4.669   3.151   5.253
 3224SOL    HW210572   4.765   3.267   5.317
 3225SOL     OW10573   5.172   2.640   5.454
 3225SOL    HW110574   5.202   2.633   5.550
 3225SOL    HW210575   5.237   2.590   5.396
 3226SOL     OW10576   2.391   0.818   2.598
 3226SOL    HW110577   2.332   0.794   2.675
 3226SOL    HW210578   2.336   0.823   2.514
 3227SOL     OW10579   2.879   3.348   6.870
 3227SOL    HW110580   2.907   3.333   6.775
 3227SOL    HW210581   2.811   3.421   6.874
 3228SOL     OW10582   0.171   3.680   1.450
 3228SOL    HW110583   0.148   3.758   1.508
 3228SOL    HW210584   0.139   3.697   1.357
 3229SOL     OW10585   3.515   0.379   5.474
 3229SOL    HW110586   3.552   0.467   5.502
 3229SOL    HW210587   3.561   0.306   5.525
 3230SOL     OW10588   2.213   4.269   5.449
 3230SOL    HW110589   2.176   4.355   5.415
 3230SOL    HW210590   2.195   4.196   5.382
 3231SOL     OW10591   2.986   0.297   1.778
 3231SOL    HW110592   3.018   0.210   1.817
 3231SOL    HW210593   3.024   0.373   1.830
 3232SOL     OW10594   4.782   6.681   4.686
 3232SOL    HW110595   4.726   6.763   4.680
 3232SOL    HW210596   4.743   6.609   4.628
 3233SOL     OW10597   6.936   2.540   0.920
 3233SOL    HW110598   7.014   2.538   0.983
 3233SOL    HW210599   6.898   2.632   0.916
 3234SOL     OW10600   0.753   2.353   6.990
 3234SOL    HW110601   0.780   2.385   6.899
 3234SOL    HW210602   0.789   2.415   0.038
 3235SOL     OW10603   0.041   0.429   1.633
 3235SOL    HW110604   0.108   0.503   1.646
 3235SOL    HW210605   6.976   0.468   1.603
 3236SOL     OW10606   1.466   3.867   0.339
 3236SOL    HW110607   1.382   3.920   0.331
 3236SOL    HW210608   1.444   3.774   0.368
 3237SOL     OW10609   5.923   1.407   3.399
 3237SOL    HW110610   5.868   1.455   3.467
 3237SOL    HW210611   5.906   1.445   3.308
 3238SOL     OW10612   0.052   5.369   0.186
 3238SOL    HW110613   0.003   5.330   0.109
 3238SOL    HW210614   0.090   5.295   0.243
 3239SOL     OW10615   6.409   1.302   2.205
 3239SOL    HW110616   6.417   1.242   2.284
 3239SOL    HW210617   6.482   1.281   2.140
 3240SOL     OW10618   0.103   6.370   6.421
 3240SOL    HW110619   0.124   6.347   6.326
 3240SOL    HW210620   0.174   6.334   6.481
 3241SOL     OW10621   4.594   0.611   5.006
 3241SOL    HW110622   4.547   0.631   5.092
 3241SOL    HW210623   4.527   0.590   4.935
 3242SOL     OW10624   4.373   4.323   6.628
 3242SOL    HW110625   4.439   4.350   6.557
 3242SOL    HW210626   4.348   4.227   6.615
 3243SOL     OW10627   4.449   4.960   7.004
 3243SOL    HW110628   4.392   5.039   6.981
 3243SOL    HW210629   4.395   4.876   6.992
 3244SOL     OW10630   5.091   5.636   0.347
 3244SOL    HW110631   5.166   5.633   0.413
 3244SOL    HW210632   5.078   5.730   0.315
 3245SOL     OW10633   5.394   3.589   4.300
 3245SOL    HW110634   5.387   3.490   4.297
 3245SOL    HW210635   5.488   3.617   4.280
 3246SOL     OW10636   6.199   0.438   2.949
 3246SOL    HW110637   6.180   0.522   2.999
 3246SOL    HW210638   6.114   0.403   2.908
 3247SOL     OW10639   5.998   4.267   3.061
 3247SOL    HW110640   5.938   4.192   3.089
 3247SOL    HW210641   6.030   4.316   3.142
 3248SOL     OW10642   5.813   3.405   2.038
 3248SOL    HW110643   5.721   3.381   2.069
 3248SOL    HW210644   5.834   3.499   2.063
 3249SOL     OW10645   3.818   4.070   3.813
 3249SOL    HW110646   3.830   4.096   3.908
 3249SOL    HW210647   3.906   4.042   3.774
 3250SOL     OW10648   5.576   0.432   2.923
 3250SOL    HW110649   5.510   0.442   2.997
 3250SOL    HW210650   5.668   0.422   2.961
 3251SOL     OW10651   3.329   0.847   3.828
 3251SOL    HW110652   3.340   0.771   3.893
 3251SOL    HW210653   3.258   0.909   3.862
 3252SOL     OW10654   2.645   0.778   2.577
 3252SOL    HW110655   2.546   0.776   2.587
 3252SOL    HW210656   2.669   0.757   2.482
 3253SOL     OW10657   4.553   4.044   1.661
 3253SOL    HW110658   4.516   4.127   1.704
 3253SOL    HW210659   4.606   3.993   1.729
 3254SOL     OW10660   5.295   6.052   6.117
 3254SOL    HW110661   5.262   6.028   6.209
 3254SOL    HW210662   5.243   6.130   6.082
 3255SOL     OW10663   4.886   6.703   0.193
 3255SOL    HW110664   4.975   6.749   0.195
 3255SOL    HW210665   4.823   6.748   0.256
 3256SOL     OW10666   3.928   1.292   0.843
 3256SOL    HW110667   3.849   1.232   0.857
 3256SOL    HW210668   4.012   1.237   0.845
 3257SOL     OW10669   1.326   1.845   2.177
 3257SOL    HW110670   1.421   1.840   2.145
 3257SOL    HW210671   1.297   1.754   2.207
 3258SOL     OW10672   4.911   6.063   2.662
 3258SOL    HW110673   4.975   6.045   2.737
 3258SOL    HW210674   4.838   5.994   2.664
 3259SOL     OW10675   4.972   4.759   5.221
 3259SOL    HW110676   4.898   4.748   5.155
 3259SOL    HW210677   5.043   4.817   5.182
 3260SOL     OW10678   1.292   2.375   1.133
 3260SOL    HW110679   1.292   2.334   1.042
 3260SOL    HW210680   1.273   2.472   1.126
 3261SOL     OW10681   5.568   0.861   1.617
 3261SOL    HW110682   5.605   0.831   1.705
 3261SOL    HW210683   5.596   0.955   1.599
 3262SOL     OW10684   3.155   1.856   2.347
 3262SOL    HW110685   3.065   1.894   2.370
 3262SOL    HW210686   3.183   1.794   2.420
 3263SOL     OW10687   2.368   1.181   3.313
 3263SOL    HW110688   2.432   1.256   3.294
 3263SOL    HW210689   2.348   1.133   3.227
 3264SOL     OW10690   0.952   4.943   0.766
 3264SOL    HW110691   0.961   5.043   0.769
 3264SOL    HW210692   1.025   4.905   0.709
 3265SOL     OW10693   5.002   0.796   6.519
 3265SOL    HW110694   4.994   0.893   6.496
 3265SOL    HW210695   4.917   0.748   6.497
 3266SOL     OW10696   1.872   4.507   0.293
 3266SOL    HW110697   1.818   4.575   0.243
 3266SOL    HW210698   1.942   4.470   0.233
 3267SOL     OW10699   3.088   6.465   1.491
 3267SOL    HW110700   3.160   6.396   1.501
 3267SOL    HW210701   3.097   6.533   1.563
 3268SOL     OW10702   1.956   3.969   1.436
 3268SOL    HW110703   1.958   4.008   1.528
 3268SOL    HW210704   2.020   4.018   1.377
 3269SOL     OW10705   4.973   5.723   2.576
 3269SOL    HW110706   4.882   5.757   2.554
 3269SOL    HW210707   4.989   5.731   2.674
 3270SOL     OW10708   1.293   4.117   6.265
 3270SOL    HW110709   1.291   4.161   6.174
 3270SOL    HW210710   1.242   4.031   6.261
 3271SOL     OW10711   5.781   3.731   2.146
 3271SOL    HW110712   5.758   3.781   2.062
 3271SOL    HW210713   5.817   3.794   2.214
 3272SOL     OW10714   2.976   4.362   5.936
 3272SOL    HW110715   3.028   4.364   5.850
 3272SOL    HW210716   2.937   4.271   5.949
 3273SOL     OW10717   5.915   5.756   0.278
 3273SOL    HW110718   6.009   5.789   0.269
 3273SOL    HW210719   5.904   5.672   0.225
 3274SOL     OW10720   5.883   1.523   1.010
 3274SOL    HW110721   5.910   1.617   0.989
 3274SOL    HW210722   5.788   1.523   1.044
 3275SOL     OW10723   5.649   1.341   0.157
 3275SOL    HW110724   5.732   1.289   0.173
 3275SOL    HW210725   5.658   1.394   0.072
 3276SOL     OW10726   3.334   5.601   6.431
 3276SOL    HW110727   3.402   5.611   6.504
 3276SOL    HW210728   3.312   5.505   6.420
 3277SOL     OW10729   3.991   6.705   0.281
 3277SOL    HW110730   3.907   6.679   0.329
 3277SOL    HW210731   4.060   6.733   0.347
 3278SOL     OW10732   0.877   0.871   5.903
 3278SOL    HW110733   0.826   0.891   5.986
 3278SOL    HW210734   0.857   0.940   5.833
 3279SOL     OW10735   4.740   0.143   0.365
 3279SOL    HW110736   4.789   0.231   0.371
 3279SOL    HW210737   4.796   0.072   0.406
 3280SOL     OW10738   4.890   4.426   4.370
 3280SOL    HW110739   4.974   4.474   4.345
 3280SOL    HW210740   4.831   4.418   4.289
 3281SOL     OW10741   1.535   5.116   2.029
 3281SOL    HW110742   1.524   5.114   1.930
 3281SOL    HW210743   1.445   5.118   2.073
 3282SOL     OW10744   0.019   5.216   5.191
 3282SOL    HW110745   0.096   5.279   5.199
 3282SOL    HW210746   6.975   5.234   5.264
 3283SOL     OW10747   3.653   0.408   1.192
 3283SOL    HW110748   3.735   0.459   1.216
 3283SOL    HW210749   3.594   0.464   1.134
 3284SOL     OW10750   0.565   5.010   6.759
 3284SOL    HW110751   0.559   4.956   6.675
 3284SOL    HW210752   0.502   4.973   6.827
 3285SOL     OW10753   4.260   2.260   3.449
 3285SOL    HW110754   4.165   2.253   3.478
 3285SOL    HW210755   4.304   2.336   3.496
 3286SOL     OW10756   3.365   3.053   2.659
 3286SOL    HW110757   3.374   3.019   2.753
 3286SOL    HW210758   3.297   2.999   2.610
 3287SOL     OW10759   0.953   0.764   0.394
 3287SOL    HW110760   0.881   0.824   0.430
 3287SOL    HW210761   0.994   0.713   0.470
 3288SOL     OW10762   1.512   5.891   6.670
 3288SOL    HW110763   1.413   5.902   6.672
 3288SOL    HW210764   1.538   5.809   6.721
 3289SOL     OW10765   2.436   0.564   5.066
 3289SOL    HW110766   2.519   0.608   5.031
 3289SOL    HW210767   2.438   0.565   5.166
 3290SOL     OW10768   0.218   5.846   1.334
 3290SOL    HW110769   0.242   5.762   1.286
 3290SOL    HW210770   0.268   5.923   1.294
 3291SOL     OW10771   1.879   0.034   6.954
 3291SOL    HW110772   1.886   6.964   6.916
 3291SOL    HW210773   1.823   0.032   0.015
 3292SOL     OW10774   0.401   0.684   0.587
 3292SOL    HW110775   0.323   0.624   0.570
 3292SOL    HW210776   0.471   0.666   0.517
 3293SOL     OW10777   0.319   4.133   1.637
 3293SOL    HW110778   0.302   4.074   1.557
 3293SOL    HW210779   0.385   4.088   1.698
 3294SOL     OW10780   6.108   2.079   5.823
 3294SOL    HW110781   6.162   2.116   5.748
 3294SOL    HW210782   6.150   1.994   5.856
 3295SOL     OW10783   1.507   2.583   2.490
 3295SOL    HW110784   1.543   2.572   2.397
 3295SOL    HW210785   1.410   2.607   2.485
 3296SOL     OW10786   1.289   0.017   2.844
 3296SOL    HW110787   1.313   6.944   2.824
 3296SOL    HW210788   1.221   0.020   2.918
 3297SOL     OW10789   3.306   1.283   5.880
 3297SOL    HW110790   3.346   1.298   5.790
 3297SOL    HW210791   3.243   1.205   5.876
 3298SOL     OW10792   5.956   1.862   5.366
 3298SOL    HW110793   5.933   1.868   5.463
 3298SOL    HW210794   5.975   1.767   5.342
 3299SOL     OW10795   3.448   5.819   3.093
 3299SOL    HW110796   3.503   5.860   3.020
 3299SOL    HW210797   3.398   5.890   3.142
 3300SOL     OW10798   0.215   1.007   5.191
 3300SOL    HW110799   0.229   1.098   5.152
 3300SOL    HW210800   0.157   1.015   5.273
 3301SOL     OW10801   2.170   3.161   3.697
 3301SOL    HW110802   2.175   3.219   3.778
 3301SOL    HW210803   2.075   3.135   3.681
 3302SOL     OW10804   0.611   4.866   5.282
 3302SOL    HW110805   0.676   4.872   5.205
 3302SOL    HW210806   0.543   4.795   5.262
 3303SOL     OW10807   3.583   3.911   0.796
 3303SOL    HW110808   3.597   3.859   0.880
 3303SOL    HW210809   3.661   3.972   0.780
 3304SOL     OW10810   1.293   5.576   4.711
 3304SOL    HW110811   1.209   5.600   4.662
 3304SOL    HW210812   1.365   5.552   4.645
 3305SOL     OW10813   2.174   1.122   2.470
 3305SOL    HW110814   2.091   1.111   2.415
 3305SOL    HW210815   2.150   1.125   2.567
 3306SOL     OW10816   2.576   5.503   4.908
 3306SOL    HW110817   2.510   5.549   4.967
 3306SOL    HW210818   2.528   5.434   4.853
 3307SOL     OW10819   0.033   5.561   6.624
 3307SOL    HW110820   0.114   5.560   6.683
 3307SOL    HW210821   6.977   5.522   6.673
 3308SOL     OW10822   2.876   6.194   1.228
 3308SOL    HW110823   2.851   6.262   1.297
 3308SOL    HW210824   2.974   6.174   1.234
 3309SOL     OW10825   6.722   5.952   3.615
 3309SOL    HW110826   6.714   5.853   3.623
 3309SOL    HW210827   6.731   5.993   3.706
 3310SOL     OW10828   0.369   3.858   5.701
 3310SOL    HW110829   0.446   3.872   5.639
 3310SOL    HW210830   0.301   3.930   5.686
 3311SOL     OW10831   3.870   3.713   0.951
 3311SOL    HW110832   3.916   3.648   1.012
 3311SOL    HW210833   3.838   3.665   0.869
 3312SOL     OW10834   4.563   4.520   6.085
 3312SOL    HW110835   4.592   4.512   5.990
 3312SOL    HW210836   4.563   4.616   6.113
 3313SOL     OW10837   1.104   6.485   3.735
 3313SOL    HW110838   1.046   6.474   3.655
 3313SOL    HW210839   1.197   6.455   3.714
 3314SOL     OW10840   2.474   1.179   2.818
 3314SOL    HW110841   2.482   1.266   2.769
 3314SOL    HW210842   2.549   1.119   2.790
 3315SOL     OW10843   6.582   4.519   4.185
 3315SOL    HW110844   6.666   4.537   4.134
 3315SOL    HW210845   6.504   4.558   4.135
 3316SOL     OW10846   4.918   1.042   5.789
 3316SOL    HW110847   4.916   1.083   5.881
 3316SOL    HW210848   4.884   0.948   5.794
 3317SOL     OW10849   4.744   2.807   1.807
 3317SOL    HW110850   4.728   2.796   1.709
 3317SOL    HW210851   4.695   2.888   1.840
 3318SOL     OW10852   2.176   1.805   1.118
 3318SOL    HW110853   2.204   1.709   1.116
 3318SOL    HW210854   2.119   1.821   1.198
 3319SOL     OW10855   6.411   1.978   3.841
 3319SOL    HW110856   6.501   1.981   3.885
 3319SOL    HW210857   6.417   1.925   3.757
 3320SOL     OW10858   6.379   0.661   5.095
 3320SOL    HW110859   6.467   0.622   5.067
 3320SOL    HW210860   6.315   0.587   5.115
 3321SOL     OW10861   4.741   1.738   0.365
 3321SOL    HW110862   4.783   1.669   0.305
 3321SOL    HW210863   4.717   1.819   0.312
 3322SOL     OW10864   6.633   2.695   1.205
 3322SOL    HW110865   6.663   2.743   1.123
 3322SOL    HW210866   6.697   2.621   1.227
 3323SOL     OW10867   3.267   2.911   0.432
 3323SOL    HW110868   3.326   2.924   0.353
 3323SOL    HW210869   3.178   2.953   0.414
 3324SOL     OW10870   4.091   5.041   6.823
 3324SOL    HW110871   4.170   5.005   6.773
 3324SOL    HW210872   4.021   5.071   6.758
 3325SOL     OW10873   0.294   3.434   6.362
 3325SOL    HW110874   0.237   3.380   6.301
 3325SOL    HW210875   0.274   3.411   6.457
 3326SOL     OW10876   5.500   1.663   2.140
 3326SOL    HW110877   5.458   1.630   2.056
 3326SOL    HW210878   5.440   1.730   2.183
 3327SOL     OW10879   3.633   5.407   1.618
 3327SOL    HW110880   3.612   5.503   1.599
 3327SOL    HW210881   3.623   5.353   1.534
 3328SOL     OW10882   4.554   2.195   0.419
 3328SOL    HW110883   4.534   2.101   0.445
 3328SOL    HW210884   4.639   2.197   0.366
 3329SOL     OW10885   5.500   0.091   4.435
 3329SOL    HW110886   5.513   0.031   4.514
 3329SOL    HW210887   5.571   0.162   4.436
 3330SOL     OW10888   6.492   4.570   1.809
 3330SOL    HW110889   6.589   4.594   1.816
 3330SOL    HW210890   6.459   4.538   1.898
 3331SOL     OW10891   2.634   3.033   1.379
 3331SOL    HW110892   2.671   3.021   1.472
 3331SOL    HW210893   2.545   2.989   1.373
 3332SOL     OW10894   5.627   5.515   0.079
 3332SOL    HW110895   5.528   5.510   0.095
 3332SOL    HW210896   5.646   5.495   7.005
 3333SOL     OW10897   4.542   4.665   6.372
 3333SOL    HW110898   4.470   4.699   6.431
 3333SOL    HW210899   4.553   4.726   6.294
 3334SOL     OW10900   2.754   4.025   1.661
 3334SOL    HW110901   2.841   3.981   1.683
 3334SOL    HW210902   2.762   4.123   1.674
 3335SOL     OW10903   4.614   6.360   5.414
 3335SOL    HW110904   4.651   6.292   5.352
 3335SOL    HW210905   4.525   6.330   5.447
 3336SOL     OW10906   2.576   6.136   4.671
 3336SOL    HW110907   2.519   6.097   4.599
 3336SOL    HW210908   2.672   6.113   4.653
 3337SOL     OW10909   3.131   3.849   2.906
 3337SOL    HW110910   3.089   3.925   2.856
 3337SOL    HW210911   3.138   3.769   2.846
 3338SOL     OW10912   5.873   2.617   1.477
 3338SOL    HW110913   5.884   2.546   1.407
 3338SOL    HW210914   5.841   2.702   1.434
 3339SOL     OW10915   6.251   0.154   6.595
 3339SOL    HW110916   6.209   0.155   6.504
 3339SOL    HW210917   6.344   0.118   6.589
 3340SOL     OW10918   3.802   0.858   2.374
 3340SOL    HW110919   3.772   0.842   2.280
 3340SOL    HW210920   3.722   0.868   2.433
 3341SOL     OW10921   0.960   5.475   3.072
 3341SOL    HW110922   1.014   5.441   2.995
 3341SOL    HW210923   0.881   5.416   3.086
 3342SOL     OW10924   2.606   0.141   4.472
 3342SOL    HW110925   2.574   0.236   4.479
 3342SOL    HW210926   2.705   0.139   4.479
 3343SOL     OW10927   5.330   3.224   0.772
 3343SOL    HW110928   5.336   3.128   0.799
 3343SOL    HW210929   5.308   3.279   0.852
 3344SOL     OW10930   5.670   3.294   3.973
 3344SOL    HW110931   5.725   3.257   3.898
 3344SOL    HW210932   5.622   3.219   4.019
 3345SOL     OW10933   1.358   3.829   6.027
 3345SOL    HW110934   1.393   3.756   5.968
 3345SOL    HW210935   1.434   3.870   6.078
 3346SOL     OW10936   1.391   0.538   0.667
 3346SOL    HW110937   1.426   0.631   0.653
 3346SOL    HW210938   1.353   0.531   0.759
 3347SOL     OW10939   0.766   3.901   4.503
 3347SOL    HW110940   0.840   3.944   4.554
 3347SOL    HW210941   0.776   3.801   4.507
 3348SOL     OW10942   3.131   3.541   3.790
 3348SOL    HW110943   3.163   3.502   3.704
 3348SOL    HW210944   3.199   3.607   3.824
 3349SOL     OW10945   0.858   5.742   2.997
 3349SOL    HW110946   0.885   5.668   3.058
 3349SOL    HW210947   0.783   5.711   2.938
 3350SOL     OW10948   1.456   2.198   5.687
 3350SOL    HW110949   1.524   2.271   5.684
 3350SOL    HW210950   1.479   2.129   5.618
 3351SOL     OW10951   4.945   0.890   2.647
 3351SOL    HW110952   4.909   0.982   2.664
 3351SOL    HW210953   4.966   0.846   2.734
 3352SOL     OW10954   6.848   2.581   0.456
 3352SOL    HW110955   6.810   2.673   0.454
 3352SOL    HW210956   6.901   2.564   0.373
 3353SOL     OW10957   1.505   5.557   2.224
 3353SOL    HW110958   1.528   5.597   2.135
 3353SOL    HW210959   1.581   5.572   2.287
 3354SOL     OW10960   4.743   2.528   5.256
 3354SOL    HW110961   4.813   2.467   5.293
 3354SOL    HW210962   4.713   2.592   5.327
 3355SOL     OW10963   2.016   1.468   0.067
 3355SOL    HW110964   2.064   1.414   7.020
 3355SOL    HW210965   2.062   1.557   0.077
 3356SOL     OW10966   1.904   4.634   5.909
 3356SOL    HW110967   1.909   4.732   5.892
 3356SOL    HW210968   1.960   4.586   5.841
 3357SOL     OW10969   2.625   4.835   1.954
 3357SOL    HW110970   2.573   4.780   1.888
 3357SOL    HW210971   2.702   4.781   1.989
 3358SOL     OW10972   5.032   0.956   0.844
 3358SOL    HW110973   5.010   0.925   0.936
 3358SOL    HW210974   4.971   0.912   0.778
 3359SOL     OW10975   6.681   0.641   3.846
 3359SOL    HW110976   6.583   0.662   3.839
 3359SOL    HW210977   6.695   0.569   3.913
 3360SOL     OW10978   0.563   1.251   6.881
 3360SOL    HW110979   0.509   1.334   6.868
 3360SOL    HW210980   0.643   1.272   6.938
 3361SOL     OW10981   0.948   4.514   3.835
 3361SOL    HW110982   0.867   4.463   3.864
 3361SOL    HW210983   1.029   4.456   3.844
 3362SOL     OW10984   3.816   1.918   3.487
 3362SOL    HW110985   3.775   1.851   3.425
 3362SOL    HW210986   3.903   1.883   3.521
 3363SOL     OW10987   6.430   6.939   0.828
 3363SOL    HW110988   6.509   6.997   0.806
 3363SOL    HW210989   6.408   6.882   0.748
 3364SOL     OW10990   1.429   4.450   3.796
 3364SOL    HW110991   1.349   4.502   3.824
 3364SOL    HW210992   1.420   4.355   3.825
 3365SOL     OW10993   0.562   2.245   5.439
 3365SOL    HW110994   0.646   2.238   5.386
 3365SOL    HW210995   0.541   2.341   5.457
 3366SOL     OW10996   5.977   0.032   5.781
 3366SOL    HW110997   5.966   6.975   5.842
 3366SOL    HW210998   6.042   0.096   5.821
 3367SOL     OW10999   3.766   2.789   1.439
 3367SOL    HW111000   3.746   2.708   1.384
 3367SOL    HW211001   3.734   2.775   1.532
 3368SOL     OW11002   0.610   5.089   5.831
 3368SOL    HW111003   0.616   5.141   5.746
 3368SOL    HW211004   0.636   5.146   5.909
 3369SOL     OW11005   3.862   2.384   6.132
 3369SOL    HW111006   3.834   2.475   6.160
 3369SOL    HW211007   3.900   2.335   6.211
 3370SOL     OW11008   6.919   5.859   6.512
 3370SOL    HW111009   6.862   5.941   6.509
 3370SOL    HW211010   7.011   5.880   6.479
 3371SOL     OW11011   1.822   3.351   2.067
 3371SOL    HW111012   1.887   3.363   1.991
 3371SOL    HW211013   1.796   3.255   2.074
 3372SOL     OW11014   0.900   1.365   1.098
 3372SOL    HW111015   0.892   1.337   1.193
 3372SOL    HW211016   0.956   1.447   1.092
 3373SOL     OW11017   6.866   1.823   3.005
 3373SOL    HW111018   6.909   1.733   3.014
 3373SOL    HW211019   6.826   1.832   2.914
 3374SOL     OW11020   1.433   6.193   4.624
 3374SOL    HW111021   1.371   6.129   4.669
 3374SOL    HW211022   1.458   6.158   4.534
 3375SOL     OW11023   6.214   5.759   6.325
 3375SOL    HW111024   6.159   5.753   6.408
 3375SOL    HW211025   6.211   5.672   6.277
 3376SOL     OW11026   4.027   3.238   3.523
 3376SOL    HW111027   4.006   3.252   3.620
 3376SOL    HW211028   4.096   3.304   3.494
 3377SOL     OW11029   0.328   6.608   4.945
 3377SOL    HW111030   0.338   6.541   5.019
 3377SOL    HW211031   0.249   6.666   4.963
 3378SOL     OW11032   6.907   1.285   0.560
 3378SOL    HW111033   6.936   1.250   0.649
 3378SOL    HW211034   6.845   1.362   0.573
 3379SOL     OW11035   6.677   6.609   6.498
 3379SOL    HW111036   6.609   6.536   6.508
 3379SOL    HW211037   6.769   6.571   6.508
 3380SOL     OW11038   5.808   6.783   6.296
 3380SOL    HW111039   5.834   6.699   6.345
 3380SOL    HW211040   5.890   6.833   6.269
 3381SOL     OW11041   1.107   2.761   1.362
 3381SOL    HW111042   1.074   2.758   1.456
 3381SOL    HW211043   1.172   2.687   1.347
 3382SOL     OW11044   0.443   1.393   0.939
 3382SOL    HW111045   0.422   1.298   0.917
 3382SOL    HW211046   0.379   1.453   0.891
 3383SOL     OW11047   4.614   5.995   2.072
 3383SOL    HW111048   4.705   6.023   2.040
 3383SOL    HW211049   4.548   6.006   1.997
 3384SOL     OW11050   2.353   3.410   5.990
 3384SOL    HW111051   2.277   3.425   5.927
 3384SOL    HW211052   2.438   3.403   5.938
 3385SOL     OW11053   6.922   2.614   4.258
 3385SOL    HW111054   7.019   2.638   4.265
 3385SOL    HW211055   6.912   2.516   4.242
 3386SOL     OW11056   6.224   3.832   6.449
 3386SOL    HW111057   6.150   3.780   6.407
 3386SOL    HW211058   6.311   3.809   6.405
 3387SOL     OW11059   2.953   0.928   3.696
 3387SOL    HW111060   2.856   0.951   3.702
 3387SOL    HW211061   2.991   0.964   3.611
 3388SOL     OW11062   5.086   3.285   1.837
 3388SOL    HW111063   4.998   3.248   1.809
 3388SOL    HW211064   5.146   3.294   1.758
 3389SOL     OW11065   5.491   4.820   5.501
 3389SOL    HW111066   5.419   4.770   5.550
 3389SOL    HW211067   5.468   4.917   5.497
 3390SOL     OW11068   4.899   4.876   5.839
 3390SOL    HW111069   4.838   4.909   5.767
 3390SOL    HW211070   4.972   4.821   5.798
 3391SOL     OW11071   5.375   3.094   4.659
 3391SOL    HW111072   5.370   3.192   4.644
 3391SOL    HW211073   5.302   3.066   4.722
 3392SOL     OW11074   2.770   6.966   3.880
 3392SOL    HW111075   2.815   6.880   3.855
 3392SOL    HW211076   2.715   6.953   3.963
 3393SOL     OW11077   0.338   6.299   0.214
 3393SOL    HW111078   0.358   6.213   0.167
 3393SOL    HW211079   0.393   6.373   0.175
 3394SOL     OW11080   6.248   3.245   1.927
 3394SOL    HW111081   6.198   3.326   1.895
 3394SOL    HW211082   6.328   3.274   1.978
 3395SOL     OW11083   5.430   2.953   3.357
 3395SOL    HW111084   5.361   2.894   3.314
 3395SOL    HW211085   5.477   2.901   3.429
 3396SOL     OW11086   4.962   1.858   3.755
 3396SOL    HW111087   4.967   1.806   3.670
 3396SOL    HW211088   4.867   1.864   3.785
 3397SOL     OW11089   2.039   0.641   5.107
 3397SOL    HW111090   2.035   0.740   5.095
 3397SOL    HW211091   2.027   0.596   5.019
 3398SOL     OW11092   0.683   6.801   4.889
 3398SOL    HW111093   0.589   6.790   4.858
 3398SOL    HW211094   0.741   6.828   4.812
 3399SOL     OW11095   5.494   4.436   4.004
 3399SOL    HW111096   5.430   4.392   4.067
 3399SOL    HW211097   5.474   4.406   3.911
 3400SOL     OW11098   4.923   2.569   5.669
 3400SOL    HW111099   4.855   2.615   5.726
 3400SOL    HW211100   4.994   2.530   5.728
 3401SOL     OW11101   0.021   3.477   1.034
 3401SOL    HW111102   0.033   3.458   1.132
 3401SOL    HW211103   7.008   3.395   0.988
 3402SOL     OW11104   3.984   5.935   6.754
 3402SOL    HW111105   3.987   5.874   6.675
 3402SOL    HW211106   3.941   5.888   6.831
 3403SOL     OW11107   3.613   5.999   4.710
 3403SOL    HW111108   3.596   5.961   4.619
 3403SOL    HW211109   3.562   6.085   4.720
 3404SOL     OW11110   5.052   1.608   0.162
 3404SOL    HW111111   5.069   1.663   0.080
 3404SOL    HW211112   5.081   1.659   0.243
 3405SOL     OW11113   0.196   3.785   4.257
 3405SOL    HW111114   0.265   3.739   4.312
 3405SOL    HW211115   0.123   3.819   4.316
 3406SOL     OW11116   0.803   4.180   1.940
 3406SOL    HW111117   0.861   4.105   1.909
 3406SOL    HW211118   0.798   4.250   1.869
 3407SOL     OW11119   1.318   5.155   6.690
 3407SOL    HW111120   1.260   5.080   6.660
 3407SOL    HW211121   1.329   5.221   6.615
 3408SOL     OW11122   4.740   3.893   5.248
 3408SOL    HW111123   4.809   3.909   5.177
 3408SOL    HW211124   4.700   3.802   5.235
 3409SOL     OW11125   3.228   6.261   6.454
 3409SOL    HW111126   3.283   6.219   6.526
 3409SOL    HW211127   3.147   6.204   6.436
 3410SOL     OW11128   0.173   5.993   0.313
 3410SOL    HW111129   0.266   5.974   0.280
 3410SOL    HW211130   0.159   6.092   0.318
 3411SOL     OW11131   0.756   3.348   1.975
 3411SOL    HW111132   0.714   3.321   1.888
 3411SOL    HW211133   0.689   3.341   2.049
 3412SOL     OW11134   4.052   3.028   6.662
 3412SOL    HW111135   4.020   2.945   6.707
 3412SOL    HW211136   4.047   3.105   6.726
 3413SOL     OW11137   5.882   1.440   0.761
 3413SOL    HW111138   5.869   1.530   0.718
 3413SOL    HW211139   5.899   1.453   0.859
 3414SOL     OW11140   2.112   0.365   5.865
 3414SOL    HW111141   2.021   0.340   5.831
 3414SOL    HW211142   2.177   0.294   5.838
 3415SOL     OW11143   1.636   3.882   4.786
 3415SOL    HW111144   1.618   3.849   4.693
 3415SOL    HW211145   1.706   3.824   4.828
 3416SOL     OW11146   0.275   5.689   0.660
 3416SOL    HW111147   0.260   5.785   0.637
 3416SOL    HW211148   0.261   5.633   0.578
 3417SOL     OW11149   0.357   5.467   2.879
 3417SOL    HW111150   0.447   5.511   2.878
 3417SOL    HW211151   0.367   5.371   2.853
 3418SOL     OW11152   3.633   0.850   4.595
 3418SOL    HW111153   3.580   0.780   4.548
 3418SOL    HW211154   3.653   0.819   4.688
 3419SOL     OW11155   3.745   5.627   4.939
 3419SOL    HW111156   3.707   5.561   4.874
 3419SOL    HW211157   3.797   5.696   4.889
 3420SOL     OW11158   5.160   2.879   4.016
 3420SOL    HW111159   5.188   2.842   4.105
 3420SOL    HW211160   5.141   2.804   3.953
 3421SOL     OW11161   5.185   0.964   5.708
 3421SOL    HW111162   5.187   0.871   5.744
 3421SOL    HW211163   5.106   1.013   5.746
 3422SOL     OW11164   1.827   0.381   1.311
 3422SOL    HW111165   1.876   0.305   1.269
 3422SOL    HW211166   1.880   0.465   1.300
 3423SOL     OW11167   1.348   4.841   0.124
 3423SOL    HW111168   1.397   4.828   0.038
 3423SOL    HW211169   1.414   4.865   0.196
 3424SOL     OW11170   3.102   6.680   1.658
 3424SOL    HW111171   3.138   6.631   1.737
 3424SOL    HW211172   3.027   6.740   1.687
 3425SOL     OW11173   5.006   4.919   2.698
 3425SOL    HW111174   5.076   4.979   2.735
 3425SOL    HW211175   4.991   4.843   2.761
 3426SOL     OW11176   4.241   2.581   0.799
 3426SOL    HW111177   4.236   2.588   0.899
 3426SOL    HW211178   4.316   2.637   0.765
 3427SOL     OW11179   6.142   0.159   0.119
 3427SOL    HW111180   6.209   0.151   0.046
 3427SOL    HW211181   6.152   0.081   0.182
 3428SOL     OW11182   2.996   4.935   0.905
 3428SOL    HW111183   3.059   5.011   0.922
 3428SOL    HW211184   3.036   4.871   0.839
 3429SOL     OW11185   0.165   2.375   0.162
 3429SOL    HW111186   0.169   2.331   0.252
 3429SOL    HW211187   0.256   2.412   0.140
 3430SOL     OW11188   0.292   6.429   5.164
 3430SOL    HW111189   0.193   6.421   5.175
 3430SOL    HW211190   0.335   6.444   5.253
 3431SOL     OW11191   0.770   6.995   1.264
 3431SOL    HW111192   0.693   6.995   1.201
 3431SOL    HW211193   0.855   6.987   1.213
 3432SOL     OW11194   1.843   2.385   0.045
 3432SOL    HW111195   1.802   2.453   7.007
 3432SOL    HW211196   1.795   2.298   0.035
 3433SOL     OW11197   0.941   0.389   6.349
 3433SOL    HW111198   0.883   0.322   6.396
 3433SOL    HW211199   1.013   0.341   6.299
 3434SOL     OW11200   4.936   2.150   0.689
 3434SOL    HW111201   4.895   2.144   0.780
 3434SOL    HW211202   4.946   2.246   0.664
 3435SOL     OW11203   0.780   1.691   0.819
 3435SOL    HW111204   0.765   1.717   0.723
 3435SOL    HW211205   0.772   1.592   0.828
 3436SOL     OW11206   3.795   5.593   6.671
 3436SOL    HW111207   3.860   5.611   6.597
 3436SOL    HW211208   3.818   5.650   6.749
 3437SOL     OW11209   1.946   1.072   5.629
 3437SOL    HW111210   1.909   1.064   5.722
 3437SOL    HW211211   1.936   1.166   5.597
 3438SOL     OW11212   1.042   2.878   6.817
 3438SOL    HW111213   1.029   2.825   6.733
 3438SOL    HW211214   1.118   2.840   6.869
 3439SOL     OW11215   1.917   6.475   4.788
 3439SOL    HW111216   2.004   6.517   4.765
 3439SOL    HW211217   1.885   6.511   4.876
 3440SOL     OW11218   3.815   3.289   1.768
 3440SOL    HW111219   3.791   3.213   1.828
 3440SOL    HW211220   3.894   3.264   1.712
 3441SOL     OW11221   5.067   0.241   4.446
 3441SOL    HW111222   5.101   0.323   4.491
 3441SOL    HW211223   5.122   0.222   4.365
 3442SOL     OW11224   3.194   5.445   2.064
 3442SOL    HW111225   3.272   5.383   2.067
 3442SOL    HW211226   3.188   5.488   1.974
 3443SOL     OW11227   5.130   5.906   1.627
 3443SOL    HW111228   5.146   6.002   1.646
 3443SOL    HW211229   5.046   5.876   1.673
 3444SOL     OW11230   5.320   5.386   0.534
 3444SOL    HW111231   5.352   5.417   0.445
 3444SOL    HW211232   5.357   5.445   0.605
 3445SOL     OW11233   6.307   5.872   4.597
 3445SOL    HW111234   6.229   5.821   4.634
 3445SOL    HW211235   6.385   5.862   4.659
 3446SOL     OW11236   6.023   0.190   2.666
 3446SOL    HW111237   6.112   0.167   2.706
 3446SOL    HW211238   5.998   0.283   2.693
 3447SOL     OW11239   5.435   5.900   0.960
 3447SOL    HW111240   5.423   5.855   0.872
 3447SOL    HW211241   5.356   5.879   1.019
 3448SOL     OW11242   3.147   0.223   1.132
 3448SOL    HW111243   3.054   0.193   1.155
 3448SOL    HW211244   3.154   0.322   1.147
 3449SOL     OW11245   6.229   6.619   3.860
 3449SOL    HW111246   6.142   6.576   3.881
 3449SOL    HW211247   6.214   6.715   3.834
 3450SOL     OW11248   6.676   2.432   6.615
 3450SOL    HW111249   6.633   2.462   6.530
 3450SOL    HW211250   6.669   2.332   6.622
 3451SOL     OW11251   2.189   6.444   1.474
 3451SOL    HW111252   2.229   6.408   1.559
 3451SOL    HW211253   2.199   6.376   1.402
 3452SOL     OW11254   5.717   0.724   5.946
 3452SOL    HW111255   5.666   0.726   6.032
 3452SOL    HW211256   5.659   0.686   5.874
 3453SOL     OW11257   6.432   5.943   5.655
 3453SOL    HW111258   6.520   5.983   5.679
 3453SOL    HW211259   6.360   6.012   5.665
 3454SOL     OW11260   1.294   2.261   6.103
 3454SOL    HW111261   1.306   2.165   6.128
 3454SOL    HW211262   1.382   2.308   6.105
 3455SOL     OW11263   2.408   2.064   4.458
 3455SOL    HW111264   2.500   2.030   4.442
 3455SOL    HW211265   2.380   2.122   4.380
 3456SOL     OW11266   5.968   5.494   2.864
 3456SOL    HW111267   5.875   5.462   2.882
 3456SOL    HW211268   5.966   5.590   2.836
 3457SOL     OW11269   2.743   5.462   3.317
 3457SOL    HW111270   2.827   5.409   3.308
 3457SOL    HW211271   2.681   5.439   3.242
 3458SOL     OW11272   4.445   0.534   1.222
 3458SOL    HW111273   4.497   0.618   1.239
 3458SOL    HW211274   4.446   0.477   1.304
 3459SOL     OW11275   5.821   3.677   2.714
 3459SOL    HW111276   5.887   3.630   2.773
 3459SOL    HW211277   5.788   3.614   2.644
 3460SOL     OW11278   2.684   3.021   6.800
 3460SOL    HW111279   2.643   2.955   6.864
 3460SOL    HW211280   2.716   2.973   6.719
 3461SOL     OW11281   4.338   6.373   5.031
 3461SOL    HW111282   4.374   6.445   4.973
 3461SOL    HW211283   4.289   6.414   5.108
 3462SOL     OW11284   0.513   3.537   2.335
 3462SOL    HW111285   0.416   3.549   2.313
 3462SOL    HW211286   0.569   3.581   2.264
 3463SOL     OW11287   0.795   3.752   3.066
 3463SOL    HW111288   0.851   3.679   3.104
 3463SOL    HW211289   0.751   3.802   3.140
 3464SOL     OW11290   6.214   2.912   6.587
 3464SOL    HW111291   6.306   2.935   6.557
 3464SOL    HW211292   6.155   2.900   6.507
 3465SOL     OW11293   1.982   2.371   2.307
 3465SOL    HW111294   2.055   2.403   2.246
 3465SOL    HW211295   1.949   2.282   2.275
 3466SOL     OW11296   0.345   4.779   0.097
 3466SOL    HW111297   0.372   4.736   0.183
 3466SOL    HW211298   0.413   4.761   0.027
 3467SOL     OW11299   2.030   2.055   0.947
 3467SOL    HW111300   2.022   2.003   1.032
 3467SOL    HW211301   2.106   2.018   0.893
 3468SOL     OW11302   5.823   6.748   2.857
 3468SOL    HW111303   5.873   6.699   2.785
 3468SOL    HW211304   5.841   6.846   2.848
 3469SOL     OW11305   4.545   0.171   3.417
 3469SOL    HW111306   4.463   0.227   3.408
 3469SOL    HW211307   4.519   0.076   3.434
 3470SOL     OW11308   6.915   3.104   1.692
 3470SOL    HW111309   6.835   3.116   1.750
 3470SOL    HW211310   6.918   3.177   1.623
 3471SOL     OW11311   4.376   5.135   4.221
 3471SOL    HW111312   4.373   5.224   4.176
 3471SOL    HW211313   4.324   5.139   4.307
 3472SOL     OW11314   2.785   1.277   3.324
 3472SOL    HW111315   2.784   1.179   3.305
 3472SOL    HW211316   2.693   1.314   3.314
 3473SOL     OW11317   6.986   2.503   1.415
 3473SOL    HW111318   7.019   2.590   1.378
 3473SOL    HW211319   6.940   2.451   1.343
 3474SOL     OW11320   0.964   4.928   2.392
 3474SOL    HW111321   0.957   4.881   2.303
 3474SOL    HW211322   1.055   4.969   2.401
 3475SOL     OW11323   1.381   4.621   4.336
 3475SOL    HW111324   1.445   4.692   4.307
 3475SOL    HW211325   1.288   4.650   4.314
 3476SOL     OW11326   2.454   1.487   3.028
 3476SOL    HW111327   2.379   1.542   3.063
 3476SOL    HW211328   2.425   1.443   2.942
 3477SOL     OW11329   1.376   5.729   1.184
 3477SOL    HW111330   1.460   5.678   1.203
 3477SOL    HW211331   1.329   5.749   1.270
 3478SOL     OW11332   2.690   5.331   5.169
 3478SOL    HW111333   2.600   5.374   5.163
 3478SOL    HW211334   2.700   5.285   5.257
 3479SOL     OW11335   0.788   0.305   3.410
 3479SOL    HW111336   0.733   0.303   3.326
 3479SOL    HW211337   0.743   0.362   3.478
 3480SOL     OW11338   0.914   6.579   4.891
 3480SOL    HW111339   0.845   6.651   4.899
 3480SOL    HW211340   0.910   6.539   4.800
 3481SOL     OW11341   4.553   0.601   0.160
 3481SOL    HW111342   4.541   0.547   0.077
 3481SOL    HW211343   4.518   0.550   0.239
 3482SOL     OW11344   6.359   1.559   1.898
 3482SOL    HW111345   6.433   1.503   1.933
 3482SOL    HW211346   6.288   1.501   1.859
 3483SOL     OW11347   4.950   2.179   1.896
 3483SOL    HW111348   4.982   2.210   1.985
 3483SOL    HW211349   4.850   2.182   1.893
 3484SOL     OW11350   1.136   3.140   6.761
 3484SOL    HW111351   1.077   3.189   6.698
 3484SOL    HW211352   1.094   3.053   6.787
 3485SOL     OW11353   1.918   1.345   4.411
 3485SOL    HW111354   1.981   1.406   4.363
 3485SOL    HW211355   1.830   1.390   4.423
 3486SOL     OW11356   2.932   0.152   3.768
 3486SOL    HW111357   2.857   0.095   3.803
 3486SOL    HW211358   2.980   0.195   3.845
 3487SOL     OW11359   6.132   2.401   5.480
 3487SOL    HW111360   6.093   2.310   5.465
 3487SOL    HW211361   6.063   2.460   5.523
 3488SOL     OW11362   6.356   0.843   4.373
 3488SOL    HW111363   6.349   0.877   4.279
 3488SOL    HW211364   6.270   0.801   4.400
 3489SOL     OW11365   4.466   6.885   1.214
 3489SOL    HW111366   4.563   6.875   1.195
 3489SOL    HW211367   4.453   6.925   1.304
 3490SOL     OW11368   4.341   4.489   0.445
 3490SOL    HW111369   4.425   4.482   0.500
 3490SOL    HW211370   4.327   4.583   0.416
 3491SOL     OW11371   4.381   2.409   5.481
 3491SOL    HW111372   4.422   2.326   5.518
 3491SOL    HW211373   4.281   2.399   5.478
 3492SOL     OW11374   6.816   4.822   1.187
 3492SOL    HW111375   6.906   4.792   1.218
 3492SOL    HW211376   6.773   4.749   1.134
 3493SOL     OW11377   5.351   4.050   5.277
 3493SOL    HW111378   5.330   4.057   5.375
 3493SOL    HW211379   5.271   4.015   5.229
 3494SOL     OW11380   3.515   0.257   1.374
 3494SOL    HW111381   3.424   0.293   1.395
 3494SOL    HW211382   3.563   0.320   1.313
 3495SOL     OW11383   5.596   4.772   1.876
 3495SOL    HW111384   5.659   4.695   1.885
 3495SOL    HW211385   5.558   4.774   1.783
 3496SOL     OW11386   6.346   4.333   1.262
 3496SOL    HW111387   6.426   4.325   1.204
 3496SOL    HW211388   6.307   4.425   1.254
 3497SOL     OW11389   2.818   1.246   3.779
 3497SOL    HW111390   2.910   1.283   3.765
 3497SOL    HW211391   2.767   1.250   3.693
 3498SOL     OW11392   2.900   2.190   0.913
 3498SOL    HW111393   2.902   2.283   0.876
 3498SOL    HW211394   2.820   2.141   0.877
 3499SOL     OW11395   4.923   3.600   3.999
 3499SOL    HW111396   5.007   3.547   4.014
 3499SOL    HW211397   4.937   3.694   4.031
 3500SOL     OW11398   1.496   3.668   5.178
 3500SOL    HW111399   1.435   3.590   5.191
 3500SOL    HW211400   1.446   3.752   5.199
 3501SOL     OW11401   1.809   5.621   4.927
 3501SOL    HW111402   1.780   5.697   4.868
 3501SOL    HW211403   1.799   5.535   4.878
 3502SOL     OW11404   6.396   2.901   2.687
 3502SOL    HW111405   6.405   3.000   2.701
 3502SOL    HW211406   6.434   2.875   2.599
 3503SOL     OW11407   6.169   6.655   4.883
 3503SOL    HW111408   6.213   6.581   4.832
 3503SOL    HW211409   6.070   6.644   4.878
 3504SOL     OW11410   2.324   1.775   1.780
 3504SOL    HW111411   2.336   1.713   1.857
 3504SOL    HW211412   2.291   1.724   1.700
 3505SOL     OW11413   5.951   4.547   4.930
 3505SOL    HW111414   6.050   4.534   4.938
 3505SOL    HW211415   5.910   4.544   5.021
 3506SOL     OW11416   5.066   5.466   5.769
 3506SOL    HW111417   4.973   5.430   5.774
 3506SOL    HW211418   5.111   5.432   5.687
 3507SOL     OW11419   1.479   0.520   1.032
 3507SOL    HW111420   1.388   0.540   0.997
 3507SOL    HW211421   1.534   0.604   1.031
 3508SOL     OW11422   2.944   2.206   5.765
 3508SOL    HW111423   2.996   2.285   5.796
 3508SOL    HW211424   2.896   2.229   5.680
 3509SOL     OW11425   5.486   0.057   5.950
 3509SOL    HW111426   5.444   7.015   5.885
 3509SOL    HW211427   5.484   0.018   6.042
 3510SOL     OW11428   1.625   2.111   1.842
 3510SOL    HW111429   1.531   2.138   1.824
 3510SOL    HW211430   1.643   2.117   1.940
 3511SOL     OW11431   2.949   5.368   0.397
 3511SOL    HW111432   2.851   5.368   0.412
 3511SOL    HW211433   2.996   5.342   0.481
 3512SOL     OW11434   0.531   4.241   1.233
 3512SOL    HW111435   0.601   4.184   1.275
 3512SOL    HW211436   0.573   4.325   1.197
 3513SOL     OW11437   6.339   2.915   0.345
 3513SOL    HW111438   6.418   2.945   0.399
 3513SOL    HW211439   6.283   2.994   0.321
 3514SOL     OW11440   0.743   1.611   2.022
 3514SOL    HW111441   0.654   1.650   1.998
 3514SOL    HW211442   0.748   1.517   1.990
 3515SOL     OW11443   5.449   6.022   3.147
 3515SOL    HW111444   5.460   6.016   3.048
 3515SOL    HW211445   5.356   5.998   3.172
 3516SOL     OW11446   4.880   0.070   0.655
 3516SOL    HW111447   4.865   7.021   0.586
 3516SOL    HW211448   4.882   0.160   0.610
 3517SOL     OW11449   1.277   2.608   0.491
 3517SOL    HW111450   1.327   2.545   0.432
 3517SOL    HW211451   1.284   2.701   0.455
 3518SOL     OW11452   6.016   2.705   4.400
 3518SOL    HW111453   5.960   2.752   4.331
 3518SOL    HW211454   6.112   2.711   4.373
 3519SOL     OW11455   1.556   0.762   6.958
 3519SOL    HW111456   1.547   0.849   7.006
 3519SOL    HW211457   1.472   0.744   6.906
 3520SOL     OW11458   3.321   4.586   6.388
 3520SOL    HW111459   3.383   4.533   6.330
 3520SOL    HW211460   3.227   4.553   6.375
 3521SOL     OW11461   4.823   1.962   6.759
 3521SOL    HW111462   4.769   1.879   6.775
 3521SOL    HW211463   4.886   1.976   6.836
 3522SOL     OW11464   0.317   4.669   1.891
 3522SOL    HW111465   0.350   4.591   1.943
 3522SOL    HW211466   0.346   4.754   1.936
 3523SOL     OW11467   1.779   5.245   6.399
 3523SOL    HW111468   1.731   5.269   6.314
 3523SOL    HW211469   1.797   5.146   6.400
 3524SOL     OW11470   4.439   1.432   1.846
 3524SOL    HW111471   4.440   1.360   1.777
 3524SOL    HW211472   4.523   1.487   1.838
 3525SOL     OW11473   1.275   4.267   3.122
 3525SOL    HW111474   1.223   4.253   3.038
 3525SOL    HW211475   1.316   4.358   3.121
 3526SOL     OW11476   2.205   6.316   4.185
 3526SOL    HW111477   2.273   6.255   4.145
 3526SOL    HW211478   2.249   6.400   4.215
 3527SOL     OW11479   6.038   2.874   6.380
 3527SOL    HW111480   6.067   2.846   6.288
 3527SOL    HW211481   5.948   2.835   6.400
 3528SOL     OW11482   0.781   5.478   4.559
 3528SOL    HW111483   0.832   5.424   4.627
 3528SOL    HW211484   0.697   5.513   4.601
 3529SOL     OW11485   4.110   0.234   6.902
 3529SOL    HW111486   4.133   0.176   6.981
 3529SOL    HW211487   4.061   0.180   6.834
 3530SOL     OW11488   0.263   4.983   2.662
 3530SOL    HW111489   0.274   5.005   2.565
 3530SOL    HW211490   0.290   4.888   2.678
 3531SOL     OW11491   5.684   2.705   0.504
 3531SOL    HW111492   5.711   2.723   0.410
 3531SOL    HW211493   5.721   2.777   0.563
 3532SOL     OW11494   2.880   1.028   1.753
 3532SOL    HW111495   2.889   1.091   1.829
 3532SOL    HW211496   2.962   0.971   1.747
 3533SOL     OW11497   1.866   1.871   2.370
 3533SOL    HW111498   1.795   1.926   2.415
 3533SOL    HW211499   1.909   1.811   2.438
 3534SOL     OW11500   5.605   0.621   6.202
 3534SOL    HW111501   5.610   0.534   6.154
 3534SOL    HW211502   5.513   0.634   6.240
 3535SOL     OW11503   1.627   5.688   0.613
 3535SOL    HW111504   1.672   5.620   0.554
 3535SOL    HW211505   1.694   5.756   0.642
 3536SOL     OW11506   2.615   2.481   3.223
 3536SOL    HW111507   2.612   2.453   3.127
 3536SOL    HW211508   2.701   2.451   3.264
 3537SOL     OW11509   3.252   5.709   1.264
 3537SOL    HW111510   3.261   5.679   1.169
 3537SOL    HW211511   3.166   5.673   1.301
 3538SOL     OW11512   1.195   0.292   6.264
 3538SOL    HW111513   1.184   0.389   6.243
 3538SOL    HW211514   1.259   0.251   6.199
 3539SOL     OW11515   5.771   3.562   6.041
 3539SOL    HW111516   5.698   3.542   6.108
 3539SOL    HW211517   5.781   3.484   5.979
 3540SOL     OW11518   2.502   2.473   6.290
 3540SOL    HW111519   2.486   2.562   6.247
 3540SOL    HW211520   2.415   2.424   6.298
 3541SOL     OW11521   1.643   2.517   6.399
 3541SOL    HW111522   1.686   2.600   6.432
 3541SOL    HW211523   1.548   2.535   6.376
 3542SOL     OW11524   1.587   4.962   2.280
 3542SOL    HW111525   1.591   4.998   2.187
 3542SOL    HW211526   1.551   4.869   2.278
 3543SOL     OW11527   0.770   2.347   4.884
 3543SOL    HW111528   0.857   2.302   4.903
 3543SOL    HW211529   0.722   2.297   4.812
 3544SOL     OW11530   2.824   3.916   6.152
 3544SOL    HW111531   2.845   3.826   6.116
 3544SOL    HW211532   2.759   3.907   6.228
 3545SOL     OW11533   4.144   5.482   0.531
 3545SOL    HW111534   4.112   5.575   0.514
 3545SOL    HW211535   4.076   5.417   0.498
 3546SOL     OW11536   0.674   3.523   4.099
 3546SOL    HW111537   0.739   3.447   4.104
 3546SOL    HW211538   0.721   3.606   4.070
 3547SOL     OW11539   6.624   4.908   5.220
 3547SOL    HW111540   6.708   4.931   5.170
 3547SOL    HW211541   6.563   4.857   5.161
 3548SOL     OW11542   5.579   0.470   5.463
 3548SOL    HW111543   5.673   0.503   5.463
 3548SOL    HW211544   5.568   0.402   5.535
 3549SOL     OW11545   7.008   4.404   5.889
 3549SOL    HW111546   0.033   4.459   5.820
 3549SOL    HW211547   6.910   4.405   5.872
 3550SOL     OW11548   5.696   3.309   3.215
 3550SOL    HW111549   5.711   3.244   3.289
 3550SOL    HW211550   5.721   3.267   3.128
 3551SOL     OW11551   3.172   2.009   2.730
 3551SOL    HW111552   3.249   2.007   2.666
 3551SOL    HW211553   3.105   2.077   2.699
 3552SOL     OW11554   6.397   6.694   1.465
 3552SOL    HW111555   6.346   6.645   1.394
 3552SOL    HW211556   6.338   6.709   1.545
 3553SOL     OW11557   4.761   5.402   1.070
 3553SOL    HW111558   4.780   5.420   0.973
 3553SOL    HW211559   4.787   5.481   1.125
 3554SOL     OW11560   4.518   2.020   1.354
 3554SOL    HW111561   4.455   1.987   1.424
 3554SOL    HW211562   4.557   1.941   1.306
 3555SOL     OW11563   0.375   4.372   3.779
 3555SOL    HW111564   0.409   4.401   3.868
 3555SOL    HW211565   0.352   4.275   3.782
 3556SOL     OW11566   3.827   1.422   4.220
 3556SOL    HW111567   3.855   1.476   4.141
 3556SOL    HW211568   3.812   1.327   4.192
 3557SOL     OW11569   1.060   1.573   4.504
 3557SOL    HW111570   1.065   1.477   4.528
 3557SOL    HW211571   0.965   1.597   4.484
 3558SOL     OW11572   0.972   6.017   2.253
 3558SOL    HW111573   0.884   6.021   2.299
 3558SOL    HW211574   1.028   6.095   2.281
 3559SOL     OW11575   0.331   6.013   5.513
 3559SOL    HW111576   0.266   5.939   5.496
 3559SOL    HW211577   0.415   5.975   5.553
 3560SOL     OW11578   1.293   5.921   2.700
 3560SOL    HW111579   1.321   5.903   2.606
 3560SOL    HW211580   1.201   5.960   2.701
 3561SOL     OW11581   4.242   4.759   4.788
 3561SOL    HW111582   4.206   4.836   4.842
 3561SOL    HW211583   4.271   4.686   4.851
 3562SOL     OW11584   4.176   1.537   3.412
 3562SOL    HW111585   4.146   1.453   3.367
 3562SOL    HW211586   4.176   1.612   3.346
 3563SOL     OW11587   5.681   1.647   0.219
 3563SOL    HW111588   5.657   1.687   0.131
 3563SOL    HW211589   5.630   1.562   0.232
 3564SOL     OW11590   0.976   4.495   3.368
 3564SOL    HW111591   1.074   4.476   3.361
 3564SOL    HW211592   0.961   4.565   3.437
 3565SOL     OW11593   3.078   5.797   4.999
 3565SOL    HW111594   3.164   5.848   5.010
 3565SOL    HW211595   3.026   5.836   4.922
 3566SOL     OW11596   0.098   3.578   5.845
 3566SOL    HW111597   0.068   3.483   5.835
 3566SOL    HW211598   0.035   3.627   5.904
 3567SOL     OW11599   0.152   2.795   6.703
 3567SOL    HW111600   0.131   2.772   6.608
 3567SOL    HW211601   0.157   2.712   6.758
 3568SOL     OW11602   4.756   5.031   3.996
 3568SOL    HW111603   4.799   5.120   3.986
 3568SOL    HW211604   4.666   5.033   3.953
 3569SOL     OW11605   2.050   1.458   5.779
 3569SOL    HW111606   2.144   1.444   5.811
 3569SOL    HW211607   2.021   1.550   5.802
 3570SOL     OW11608   5.281   0.534   5.445
 3570SOL    HW111609   5.279   0.606   5.376
 3570SOL    HW211610   5.369   0.487   5.442
 3571SOL     OW11611   0.933   5.363   4.745
 3571SOL    HW111612   0.933   5.271   4.707
 3571SOL    HW211613   1.024   5.385   4.780
 3572SOL     OW11614   5.924   3.627   3.179
 3572SOL    HW111615   5.928   3.676   3.267
 3572SOL    HW211616   5.848   3.562   3.181
 3573SOL     OW11617   0.301   5.374   3.662
 3573SOL    HW111618   0.287   5.290   3.715
 3573SOL    HW211619   0.257   5.450   3.708
 3574SOL     OW11620   0.711   3.347   0.804
 3574SOL    HW111621   0.671   3.328   0.894
 3574SOL    HW211622   0.761   3.266   0.773
 3575SOL     OW11623   5.491   5.314   2.237
 3575SOL    HW111624   5.565   5.246   2.230
 3575SOL    HW211625   5.455   5.332   2.146
 3576SOL     OW11626   0.642   2.532   6.078
 3576SOL    HW111627   0.741   2.541   6.063
 3576SOL    HW211628   0.612   2.605   6.140
 3577SOL     OW11629   1.228   2.187   6.473
 3577SOL    HW111630   1.219   2.272   6.421
 3577SOL    HW211631   1.179   2.113   6.427
 3578SOL     OW11632   3.856   1.882   0.058
 3578SOL    HW111633   3.904   1.848   0.139
 3578SOL    HW211634   3.890   1.974   0.036
 3579SOL     OW11635   0.637   2.361   3.497
 3579SOL    HW111636   0.692   2.292   3.545
 3579SOL    HW211637   0.655   2.451   3.536
 3580SOL     OW11638   6.553   3.536   1.652
 3580SOL    HW111639   6.464   3.579   1.653
 3580SOL    HW211640   6.546   3.445   1.611
 3581SOL     OW11641   1.277   5.661   3.443
 3581SOL    HW111642   1.179   5.645   3.448
 3581SOL    HW211643   1.324   5.607   3.513
 3582SOL     OW11644   1.100   3.556   6.395
 3582SOL    HW111645   1.040   3.586   6.469
 3582SOL    HW211646   1.074   3.463   6.367
 3583SOL     OW11647   1.067   4.386   6.362
 3583SOL    HW111648   1.120   4.456   6.314
 3583SOL    HW211649   1.023   4.325   6.296
 3584SOL     OW11650   5.665   5.065   6.463
 3584SOL    HW111651   5.645   5.083   6.366
 3584SOL    HW211652   5.629   4.976   6.489
 3585SOL     OW11653   2.972   1.190   4.585
 3585SOL    HW111654   2.881   1.220   4.555
 3585SOL    HW211655   2.992   1.100   4.544
 3586SOL     OW11656   6.176   1.507   4.779
 3586SOL    HW111657   6.162   1.426   4.723
 3586SOL    HW211658   6.237   1.570   4.731
 3587SOL     OW11659   2.031   4.719   5.627
 3587SOL    HW111660   2.110   4.779   5.620
 3587SOL    HW211661   2.039   4.646   5.559
 3588SOL     OW11662   1.351   3.022   5.354
 3588SOL    HW111663   1.317   2.933   5.326
 3588SOL    HW211664   1.308   3.094   5.299
 3589SOL     OW11665   5.226   0.677   5.210
 3589SOL    HW111666   5.148   0.739   5.198
 3589SOL    HW211667   5.225   0.608   5.138
 3590SOL     OW11668   0.964   3.555   0.476
 3590SOL    HW111669   0.975   3.458   0.497
 3590SOL    HW211670   1.016   3.578   0.395
 3591SOL     OW11671   5.319   4.061   6.925
 3591SOL    HW111672   5.404   4.037   6.878
 3591SOL    HW211673   5.249   3.993   6.903
 3592SOL     OW11674   0.629   5.161   2.044
 3592SOL    HW111675   0.724   5.178   2.066
 3592SOL    HW211676   0.616   5.166   1.944
 3593SOL     OW11677   0.774   5.184   5.243
 3593SOL    HW111678   0.803   5.155   5.334
 3593SOL    HW211679   0.852   5.225   5.195
 3594SOL     OW11680   5.076   6.725   3.452
 3594SOL    HW111681   5.107   6.763   3.540
 3594SOL    HW211682   5.139   6.753   3.380
 3595SOL     OW11683   4.542   5.931   6.264
 3595SOL    HW111684   4.523   5.958   6.358
 3595SOL    HW211685   4.460   5.891   6.223
 3596SOL     OW11686   6.582   3.182   3.006
 3596SOL    HW111687   6.649   3.191   3.080
 3596SOL    HW211688   6.550   3.087   3.002
 3597SOL     OW11689   1.914   2.088   5.777
 3597SOL    HW111690   1.892   2.124   5.686
 3597SOL    HW211691   1.996   2.032   5.771
 3598SOL     OW11692   0.915   5.714   6.522
 3598SOL    HW111693   0.832   5.660   6.526
 3598SOL    HW211694   0.913   5.772   6.440
 3599SOL     OW11695   5.963   2.631   6.489
 3599SOL    HW111696   6.053   2.587   6.485
 3599SOL    HW211697   5.905   2.583   6.555
 3600SOL     OW11698   0.571   2.985   1.624
 3600SOL    HW111699   0.494   2.924   1.638
 3600SOL    HW211700   0.586   2.998   1.526
 3601SOL     OW11701   5.159   3.027   6.047
 3601SOL    HW111702   5.170   3.058   5.953
 3601SOL    HW211703   5.078   3.070   6.088
 3602SOL     OW11704   1.591   3.678   0.742
 3602SOL    HW111705   1.540   3.763   0.749
 3602SOL    HW211706   1.538   3.612   0.689
 3603SOL     OW11707   3.345   1.210   3.857
 3603SOL    HW111708   3.329   1.292   3.802
 3603SOL    HW211709   3.366   1.237   3.951
 3604SOL     OW11710   6.540   6.003   3.416
 3604SOL    HW111711   6.582   6.086   3.379
 3604SOL    HW211712   6.594   5.971   3.494
 3605SOL     OW11713   6.512   4.213   4.536
 3605SOL    HW111714   6.577   4.284   4.564
 3605SOL    HW211715   6.433   4.214   4.596
 3606SOL     OW11716   0.955   0.655   4.545
 3606SOL    HW111717   0.950   0.755   4.551
 3606SOL    HW211718   0.890   0.615   4.609
 3607SOL     OW11719   5.518   5.303   1.890
 3607SOL    HW111720   5.469   5.312   1.803
 3607SOL    HW211721   5.510   5.209   1.923
 3608SOL     OW11722   4.806   2.278   4.690
 3608SOL    HW111723   4.771   2.185   4.703
 3608SOL    HW211724   4.871   2.279   4.614
 3609SOL     OW11725   1.140   0.426   4.430
 3609SOL    HW111726   1.195   0.508   4.412
 3609SOL    HW211727   1.070   0.448   4.498
 3610SOL     OW11728   1.697   6.913   5.722
 3610SOL    HW111729   1.766   6.898   5.792
 3610SOL    HW211730   1.690   6.832   5.664
 3611SOL     OW11731   4.475   4.936   4.748
 3611SOL    HW111732   4.389   4.885   4.736
 3611SOL    HW211733   4.546   4.873   4.781
 3612SOL     OW11734   0.307   0.026   0.313
 3612SOL    HW111735   0.346   6.979   0.374
 3612SOL    HW211736   0.208   0.030   0.326
 3613SOL     OW11737   4.827   4.667   2.128
 3613SOL    HW111738   4.739   4.638   2.091
 3613SOL    HW211739   4.835   4.636   2.223
 3614SOL     OW11740   3.780   3.485   0.814
 3614SOL    HW111741   3.729   3.503   0.729
 3614SOL    HW211742   3.717   3.460   0.887
 3615SOL     OW11743   5.185   3.727   6.140
 3615SOL    HW111744   5.136   3.680   6.213
 3615SOL    HW211745   5.283   3.724   6.158
 3616SOL     OW11746   0.507   1.917   6.471
 3616SOL    HW111747   0.557   1.917   6.384
 3616SOL    HW211748   0.560   1.869   6.541
 3617SOL     OW11749   4.519   0.873   0.168
 3617SOL    HW111750   4.539   0.775   0.174
 3617SOL    HW211751   4.488   0.895   0.076
 3618SOL     OW11752   2.554   3.040   5.670
 3618SOL    HW111753   2.481   3.030   5.602
 3618SOL    HW211754   2.609   2.956   5.672
 3619SOL     OW11755   5.894   2.864   4.874
 3619SOL    HW111756   5.855   2.788   4.927
 3619SOL    HW211757   5.954   2.827   4.804
 3620SOL     OW11758   6.210   6.094   5.695
 3620SOL    HW111759   6.245   6.188   5.696
 3620SOL    HW211760   6.122   6.092   5.647
 3621SOL     OW11761   3.295   2.836   5.273
 3621SOL    HW111762   3.220   2.808   5.332
 3621SOL    HW211763   3.370   2.871   5.329
 3622SOL     OW11764   0.964   2.009   6.559
 3622SOL    HW111765   0.976   1.979   6.464
 3622SOL    HW211766   0.885   2.070   6.565
 3623SOL     OW11767   6.926   6.435   4.613
 3623SOL    HW111768   6.935   6.360   4.548
 3623SOL    HW211769   6.885   6.401   4.698
 3624SOL     OW11770   1.887   6.977   2.216
 3624SOL    HW111771   1.918   6.951   2.124
 3624SOL    HW211772   1.900   0.054   2.229
 3625SOL     OW11773   0.283   3.056   6.715
 3625SOL    HW111774   0.261   2.960   6.729
 3625SOL    HW211775   0.364   3.079   6.770
 3626SOL     OW11776   1.821   2.416   5.407
 3626SOL    HW111777   1.870   2.500   5.385
 3626SOL    HW211778   1.726   2.424   5.376
 3627SOL     OW11779   3.435   3.511   1.829
 3627SOL    HW111780   3.394   3.421   1.845
 3627SOL    HW211781   3.432   3.564   1.914
 3628SOL     OW11782   1.432   0.905   2.370
 3628SOL    HW111783   1.397   0.992   2.406
 3628SOL    HW211784   1.359   0.859   2.318
 3629SOL     OW11785   0.109   0.986   5.537
 3629SOL    HW111786   0.132   0.891   5.559
 3629SOL    HW211787   0.013   0.992   5.510
 3630SOL     OW11788   5.174   2.387   4.212
 3630SOL    HW111789   5.200   2.293   4.234
 3630SOL    HW211790   5.136   2.430   4.294
 3631SOL     OW11791   2.378   0.870   3.413
 3631SOL    HW111792   2.285   0.836   3.408
 3631SOL    HW211793   2.377   0.970   3.425
 3632SOL     OW11794   5.513   5.364   0.772
 3632SOL    HW111795   5.443   5.349   0.842
 3632SOL    HW211796   5.599   5.324   0.802
 3633SOL     OW11797   4.340   1.957   5.619
 3633SOL    HW111798   4.366   2.018   5.694
 3633SOL    HW211799   4.267   1.896   5.649
 3634SOL     OW11800   1.614   5.217   5.904
 3634SOL    HW111801   1.651   5.189   5.815
 3634SOL    HW211802   1.647   5.155   5.975
 3635SOL     OW11803   3.330   6.810   1.047
 3635SOL    HW111804   3.321   6.769   1.138
 3635SOL    HW211805   3.423   6.844   1.034
 3636SOL     OW11806   6.947   5.896   0.911
 3636SOL    HW111807   6.977   5.836   0.837
 3636SOL    HW211808   7.020   5.903   0.979
 3637SOL     OW11809   0.413   2.602   2.070
 3637SOL    HW111810   0.337   2.598   2.005
 3637SOL    HW211811   0.404   2.528   2.137
 3638SOL     OW11812   0.885   4.057   3.144
 3638SOL    HW111813   0.875   4.143   3.194
 3638SOL    HW211814   0.817   3.991   3.177
 3639SOL     OW11815   4.131   5.810   0.535
 3639SOL    HW111816   4.130   5.905   0.502
 3639SOL    HW211817   4.091   5.807   0.626
 3640SOL     OW11818   4.073   1.089   0.279
 3640SOL    HW111819   4.086   1.057   0.185
 3640SOL    HW211820   4.038   1.183   0.278
 3641SOL     OW11821   6.124   3.924   2.224
 3641SOL    HW111822   6.177   3.950   2.144
 3641SOL    HW211823   6.161   3.840   2.263
 3642SOL     OW11824   5.411   2.180   6.745
 3642SOL    HW111825   5.325   2.175   6.795
 3642SOL    HW211826   5.477   2.234   6.797
 3643SOL     OW11827   2.499   5.844   4.797
 3643SOL    HW111828   2.515   5.785   4.719
 3643SOL    HW211829   2.583   5.855   4.850
 3644SOL     OW11830   1.486   1.679   1.894
 3644SOL    HW111831   1.433   1.594   1.886
 3644SOL    HW211832   1.583   1.658   1.885
 3645SOL     OW11833   1.575   1.934   3.948
 3645SOL    HW111834   1.662   1.940   3.996
 3645SOL    HW211835   1.507   1.991   3.994
 3646SOL     OW11836   1.986   4.290   5.920
 3646SOL    HW111837   2.031   4.200   5.918
 3646SOL    HW211838   2.050   4.358   5.954
 3647SOL     OW11839   2.399   6.124   6.772
 3647SOL    HW111840   2.491   6.132   6.809
 3647SOL    HW211841   2.402   6.098   6.676
 3648SOL     OW11842   4.500   5.964   2.433
 3648SOL    HW111843   4.562   6.021   2.487
 3648SOL    HW211844   4.448   6.022   2.370
 3649SOL     OW11845   6.125   3.023   1.459
 3649SOL    HW111846   6.199   2.983   1.405
 3649SOL    HW211847   6.158   3.045   1.550
 3650SOL     OW11848   6.523   5.255   2.074
 3650SOL    HW111849   6.610   5.299   2.095
 3650SOL    HW211850   6.450   5.295   2.130
 3651SOL     OW11851   0.853   0.647   4.267
 3651SOL    HW111852   0.928   0.659   4.202
 3651SOL    HW211853   0.890   0.627   4.358
 3652SOL     OW11854   6.207   6.976   3.442
 3652SOL    HW111855   6.188   0.006   3.525
 3652SOL    HW211856   6.240   6.885   3.465
 3653SOL     OW11857   1.283   1.163   3.074
 3653SOL    HW111858   1.364   1.206   3.113
 3653SOL    HW211859   1.260   1.082   3.128
 3654SOL     OW11860   4.000   4.945   0.248
 3654SOL    HW111861   3.980   4.947   0.150
 3654SOL    HW211862   3.942   4.877   0.293
 3655SOL     OW11863   3.145   6.852   3.687
 3655SOL    HW111864   3.236   6.825   3.655
 3655SOL    HW211865   3.145   6.858   3.787
 3656SOL     OW11866   0.406   5.097   1.595
 3656SOL    HW111867   0.428   5.118   1.500
 3656SOL    HW211868   0.328   5.035   1.598
 3657SOL     OW11869   5.498   5.328   5.502
 3657SOL    HW111870   5.543   5.352   5.416
 3657SOL    HW211871   5.548   5.369   5.578
 3658SOL     OW11872   2.532   4.640   6.549
 3658SOL    HW111873   2.445   4.639   6.598
 3658SOL    HW211874   2.515   4.621   6.452
 3659SOL     OW11875   2.281   2.584   6.072
 3659SOL    HW111876   2.254   2.584   5.976
 3659SOL    HW211877   2.333   2.668   6.092
 3660SOL     OW11878   5.496   6.174   4.274
 3660SOL    HW111879   5.423   6.142   4.213
 3660SOL    HW211880   5.536   6.096   4.322
 3661SOL     OW11881   6.876   0.629   5.039
 3661SOL    HW111882   6.952   0.685   5.007
 3661SOL    HW211883   6.864   0.643   5.138
 3662SOL     OW11884   4.247   0.516   4.361
 3662SOL    HW111885   4.290   0.606   4.357
 3662SOL    HW211886   4.274   0.470   4.446
 3663SOL     OW11887   1.739   2.594   0.528
 3663SOL    HW111888   1.706   2.617   0.620
 3663SOL    HW211889   1.715   2.499   0.508
 3664SOL     OW11890   4.651   2.172   1.874
 3664SOL    HW111891   4.604   2.084   1.885
 3664SOL    HW211892   4.639   2.227   1.957
 3665SOL     OW11893   1.272   6.259   4.921
 3665SOL    HW111894   1.233   6.168   4.937
 3665SOL    HW211895   1.207   6.328   4.952
 3666SOL     OW11896   1.181   3.943   2.825
 3666SOL    HW111897   1.232   3.904   2.902
 3666SOL    HW211898   1.083   3.932   2.842
 3667SOL     OW11899   0.419   1.383   3.433
 3667SOL    HW111900   0.345   1.443   3.461
 3667SOL    HW211901   0.507   1.428   3.446
 3668SOL     OW11902   1.208   0.900   1.657
 3668SOL    HW111903   1.179   0.984   1.702
 3668SOL    HW211904   1.185   0.904   1.560
 3669SOL     OW11905   5.595   1.898   3.325
 3669SOL    HW111906   5.652   1.866   3.401
 3669SOL    HW211907   5.502   1.864   3.337
 3670SOL     OW11908   2.173   5.520   6.709
 3670SOL    HW111909   2.258   5.504   6.657
 3670SOL    HW211910   2.122   5.595   6.666
 3671SOL     OW11911   0.117   1.813   3.966
 3671SOL    HW111912   0.021   1.789   3.948
 3671SOL    HW211913   0.120   1.902   4.013
 3672SOL     OW11914   4.606   1.934   2.187
 3672SOL    HW111915   4.693   1.983   2.186
 3672SOL    HW211916   4.582   1.905   2.094
 3673SOL     OW11917   3.867   5.753   6.910
 3673SOL    HW111918   3.896   5.711   6.996
 3673SOL    HW211919   3.770   5.778   6.916
 3674SOL     OW11920   1.541   5.719   5.860
 3674SOL    HW111921   1.507   5.744   5.770
 3674SOL    HW211922   1.521   5.793   5.925
 3675SOL     OW11923   1.989   2.693   4.499
 3675SOL    HW111924   1.899   2.655   4.479
 3675SOL    HW211925   1.982   2.756   4.575
 3676SOL     OW11926   6.697   4.420   2.755
 3676SOL    HW111927   6.701   4.334   2.806
 3676SOL    HW211928   6.744   4.409   2.667
 3677SOL     OW11929   2.847   6.400   4.436
 3677SOL    HW111930   2.800   6.401   4.347
 3677SOL    HW211931   2.939   6.363   4.425
 3678SOL     OW11932   1.358   1.387   4.399
 3678SOL    HW111933   1.299   1.451   4.351
 3678SOL    HW211934   1.314   1.356   4.483
 3679SOL     OW11935   6.782   0.351   3.231
 3679SOL    HW111936   6.815   0.371   3.139
 3679SOL    HW211937   6.700   0.406   3.250
 3680SOL     OW11938   5.305   2.580   3.977
 3680SOL    HW111939   5.265   2.567   4.067
 3680SOL    HW211940   5.233   2.576   3.907
 3681SOL     OW11941   0.776   1.329   6.595
 3681SOL    HW111942   0.706   1.312   6.664
 3681SOL    HW211943   0.776   1.426   6.570
 3682SOL     OW11944   6.028   2.721   0.215
 3682SOL    HW111945   6.023   2.638   0.160
 3682SOL    HW211946   6.039   2.696   0.311
 3683SOL     OW11947   0.232   1.595   4.353
 3683SOL    HW111948   0.304   1.529   4.373
 3683SOL    HW211949   0.151   1.547   4.320
 3684SOL     OW11950   1.060   5.540   0.476
 3684SOL    HW111951   1.138   5.564   0.533
 3684SOL    HW211952   0.975   5.561   0.525
 3685SOL     OW11953   2.119   6.010   6.281
 3685SOL    HW111954   2.178   5.929   6.271
 3685SOL    HW211955   2.168   6.090   6.247
 3686SOL     OW11956   6.231   4.995   4.604
 3686SOL    HW111957   6.251   4.897   4.612
 3686SOL    HW211958   6.193   5.028   4.691
 3687SOL     OW11959   3.887   6.132   3.924
 3687SOL    HW111960   3.982   6.156   3.945
 3687SOL    HW211961   3.826   6.185   3.982
 3688SOL     OW11962   6.938   2.851   6.840
 3688SOL    HW111963   6.908   2.777   6.901
 3688SOL    HW211964   0.002   2.824   6.796
 3689SOL     OW11965   1.786   0.522   5.721
 3689SOL    HW111966   1.843   0.441   5.708
 3689SOL    HW211967   1.708   0.519   5.658
 3690SOL     OW11968   3.914   5.905   0.292
 3690SOL    HW111969   3.867   5.821   0.264
 3690SOL    HW211970   3.855   5.956   0.355
 3691SOL     OW11971   2.593   1.486   6.998
 3691SOL    HW111972   2.676   1.473   0.031
 3691SOL    HW211973   2.606   1.445   6.907
 3692SOL     OW11974   6.539   5.044   5.620
 3692SOL    HW111975   6.596   5.106   5.674
 3692SOL    HW211976   6.522   4.961   5.672
 3693SOL     OW11977   2.136   3.405   2.953
 3693SOL    HW111978   2.168   3.451   2.870
 3693SOL    HW211979   2.155   3.308   2.947
 3694SOL     OW11980   0.598   6.300   2.195
 3694SOL    HW111981   0.550   6.351   2.123
 3694SOL    HW211982   0.589   6.202   2.179
 3695SOL     OW11983   5.208   2.979   1.054
 3695SOL    HW111984   5.225   2.982   1.153
 3695SOL    HW211985   5.221   3.071   1.016
 3696SOL     OW11986   3.843   0.431   4.213
 3696SOL    HW111987   3.880   0.453   4.303
 3696SOL    HW211988   3.856   0.333   4.194
 3697SOL     OW11989   0.056   6.117   2.976
 3697SOL    HW111990   0.099   6.101   2.886
 3697SOL    HW211991   0.127   6.119   3.046
 3698SOL     OW11992   2.311   0.946   3.867
 3698SOL    HW111993   2.263   1.015   3.813
 3698SOL    HW211994   2.382   0.903   3.812
 3699SOL     OW11995   1.868   1.056   3.344
 3699SOL    HW111996   1.835   1.141   3.304
 3699SOL    HW211997   1.799   0.984   3.332
 3700SOL     OW11998   1.485   5.182   4.797
 3700SOL    HW111999   1.486   5.199   4.896
 3700SOL    HW212000   1.554   5.113   4.774
 3701SOL     OW12001   1.635   0.037   3.670
 3701SOL    HW112002   1.590   0.066   3.754
 3701SOL    HW212003   1.732   0.017   3.689
 3702SOL     OW12004   5.531   6.564   3.724
 3702SOL    HW112005   5.622   6.536   3.694
 3702SOL    HW212006   5.463   6.502   3.684
 3703SOL     OW12007   6.722   0.764   6.527
 3703SOL    HW112008   6.724   0.759   6.427
 3703SOL    HW212009   6.814   0.749   6.563
 3704SOL     OW12010   3.861   2.120   1.130
 3704SOL    HW112011   3.819   2.184   1.065
 3704SOL    HW212012   3.865   2.163   1.220
 3705SOL     OW12013   5.510   4.225   4.682
 3705SOL    HW112014   5.555   4.304   4.640
 3705SOL    HW212015   5.530   4.144   4.628
 3706SOL     OW12016   0.356   3.887   6.812
 3706SOL    HW112017   0.269   3.841   6.795
 3706SOL    HW212018   0.377   3.884   6.910
 3707SOL     OW12019   5.218   5.297   4.962
 3707SOL    HW112020   5.244   5.221   4.901
 3707SOL    HW212021   5.128   5.331   4.935
 3708SOL     OW12022   5.583   0.144   0.737
 3708SOL    HW112023   5.587   0.204   0.657
 3708SOL    HW212024   5.496   0.096   0.738
 3709SOL     OW12025   3.582   0.035   1.747
 3709SOL    HW112026   3.599   0.129   1.716
 3709SOL    HW212027   3.497   0.032   1.799
 3710SOL     OW12028   6.505   5.395   5.332
 3710SOL    HW112029   6.484   5.298   5.322
 3710SOL    HW212030   6.421   5.445   5.352
 3711SOL     OW12031   1.322   5.464   5.147
 3711SOL    HW112032   1.230   5.492   5.178
 3711SOL    HW212033   1.376   5.546   5.129
 3712SOL     OW12034   1.143   5.070   6.300
 3712SOL    HW112035   1.043   5.071   6.296
 3712SOL    HW212036   1.180   5.090   6.209
 3713SOL     OW12037   0.522   0.083   5.104
 3713SOL    HW112038   0.495   0.139   5.183
 3713SOL    HW212039   0.582   0.009   5.135
 3714SOL     OW12040   5.927   5.713   6.488
 3714SOL    HW112041   5.893   5.766   6.410
 3714SOL    HW212042   5.850   5.673   6.538
 3715SOL     OW12043   0.964   4.157   2.437
 3715SOL    HW112044   0.881   4.116   2.399
 3715SOL    HW212045   0.939   4.217   2.513
 3716SOL     OW12046   6.085   6.545   4.529
 3716SOL    HW112047   6.015   6.480   4.501
 3716SOL    HW212048   6.171   6.496   4.545
 3717SOL     OW12049   5.761   0.165   0.146
 3717SOL    HW112050   5.834   0.182   0.212
 3717SOL    HW212051   5.792   0.100   0.077
 3718SOL     OW12052   6.743   0.321   0.480
 3718SOL    HW112053   6.650   0.292   0.504
 3718SOL    HW212054   6.791   0.247   0.435
 3719SOL     OW12055   4.977   3.027   0.530
 3719SOL    HW112056   4.965   2.937   0.571
 3719SOL    HW212057   5.043   3.021   0.455
 3720SOL     OW12058   6.200   3.069   0.813
 3720SOL    HW112059   6.129   3.003   0.787
 3720SOL    HW212060   6.158   3.149   0.854
 3721SOL     OW12061   0.015   5.262   1.302
 3721SOL    HW112062   0.012   5.362   1.304
 3721SOL    HW212063   6.946   5.227   1.274
 3722SOL     OW12064   5.656   6.010   1.080
 3722SOL    HW112065   5.570   5.964   1.061
 3722SOL    HW212066   5.718   5.946   1.127
 3723SOL     OW12067   5.384   4.784   0.813
 3723SOL    HW112068   5.367   4.749   0.721
 3723SOL    HW212069   5.320   4.858   0.833
 3724SOL     OW12070   1.847   4.497   5.268
 3724SOL    HW112071   1.763   4.504   5.213
 3724SOL    HW212072   1.895   4.584   5.266
 3725SOL     OW12073   0.378   5.352   6.757
 3725SOL    HW112074   0.354   5.321   6.665
 3725SOL    HW212075   0.471   5.321   6.778
 3726SOL     OW12076   5.726   2.941   6.209
 3726SOL    HW112077   5.736   2.880   6.288
 3726SOL    HW212078   5.633   2.978   6.207
 3727SOL     OW12079   6.506   2.080   5.519
 3727SOL    HW112080   6.488   2.110   5.426
 3727SOL    HW212081   6.566   2.000   5.518
 3728SOL     OW12082   0.982   3.295   6.609
 3728SOL    HW112083   1.069   3.279   6.562
 3728SOL    HW212084   0.912   3.234   6.571
 3729SOL     OW12085   1.656   1.408   4.138
 3729SOL    HW112086   1.650   1.379   4.234
 3729SOL    HW212087   1.646   1.507   4.133
 3730SOL     OW12088   3.058   5.745   5.475
 3730SOL    HW112089   3.085   5.649   5.464
 3730SOL    HW212090   3.010   5.776   5.393
 3731SOL     OW12091   6.879   1.561   0.199
 3731SOL    HW112092   6.833   1.477   0.228
 3731SOL    HW212093   6.954   1.581   0.263
 3732SOL     OW12094   2.636   2.046   0.180
 3732SOL    HW112095   2.589   2.010   0.261
 3732SOL    HW212096   2.731   2.066   0.203
 3733SOL     OW12097   2.078   3.153   2.913
 3733SOL    HW112098   2.110   3.103   2.833
 3733SOL    HW212099   1.988   3.118   2.941
 3734SOL     OW12100   5.323   0.276   1.033
 3734SOL    HW112101   5.278   0.342   0.973
 3734SOL    HW212102   5.254   0.224   1.083
 3735SOL     OW12103   3.122   0.494   2.630
 3735SOL    HW112104   3.127   0.437   2.548
 3735SOL    HW212105   3.207   0.545   2.640
 3736SOL     OW12106   0.558   1.243   1.181
 3736SOL    HW112107   0.468   1.271   1.217
 3736SOL    HW212108   0.572   1.283   1.091
 3737SOL     OW12109   5.242   1.377   3.842
 3737SOL    HW112110   5.188   1.301   3.877
 3737SOL    HW212111   5.284   1.426   3.918
 3738SOL     OW12112   6.439   0.476   1.395
 3738SOL    HW112113   6.359   0.447   1.342
 3738SOL    HW212114   6.444   0.423   1.479
 3739SOL     OW12115   2.345   5.294   1.115
 3739SOL    HW112116   2.399   5.244   1.047
 3739SOL    HW212117   2.386   5.281   1.205
 3740SOL     OW12118   6.648   0.064   0.699
 3740SOL    HW112119   6.709   0.079   0.776
 3740SOL    HW212120   6.701   0.061   0.614
 3741SOL     OW12121   5.048   2.891   5.795
 3741SOL    HW112122   5.077   2.873   5.701
 3741SOL    HW212123   5.104   2.837   5.858
 3742SOL     OW12124   3.676   1.427   0.031
 3742SOL    HW112125   3.754   1.436   6.990
 3742SOL    HW212126   3.670   1.333   0.062
 3743SOL     OW12127   5.698   3.051   0.455
 3743SOL    HW112128   5.750   2.985   0.509
 3743SOL    HW212129   5.759   3.096   0.389
 3744SOL     OW12130   1.016   6.402   1.690
 3744SOL    HW112131   0.955   6.374   1.764
 3744SOL    HW212132   1.041   6.498   1.702
 3745SOL     OW12133   4.534   4.441   2.836
 3745SOL    HW112134   4.532   4.442   2.736
 3745SOL    HW212135   4.550   4.348   2.868
 3746SOL     OW12136   6.969   0.572   4.037
 3746SOL    HW112137   6.998   0.530   4.123
 3746SOL    HW212138   6.922   0.658   4.057
 3747SOL     OW12139   3.868   5.609   5.168
 3747SOL    HW112140   3.833   5.607   5.074
 3747SOL    HW212141   3.827   5.687   5.216
 3748SOL     OW12142   5.546   1.393   1.436
 3748SOL    HW112143   5.612   1.465   1.414
 3748SOL    HW212144   5.560   1.361   1.529
 3749SOL     OW12145   2.652   4.840   2.904
 3749SOL    HW112146   2.580   4.886   2.957
 3749SOL    HW212147   2.656   4.880   2.812
 3750SOL     OW12148   6.540   4.707   1.195
 3750SOL    HW112149   6.607   4.635   1.179
 3750SOL    HW212150   6.547   4.740   1.289
 3751SOL     OW12151   6.688   3.223   0.907
 3751SOL    HW112152   6.787   3.230   0.920
 3751SOL    HW212153   6.643   3.215   0.997
 3752SOL     OW12154   0.373   6.703   0.311
 3752SOL    HW112155   0.426   6.740   0.386
 3752SOL    HW212156   0.431   6.645   0.254
 3753SOL     OW12157   0.325   1.139   3.832
 3753SOL    HW112158   0.409   1.180   3.799
 3753SOL    HW212159   0.297   1.184   3.917
 3754SOL     OW12160   3.845   6.613   1.305
 3754SOL    HW112161   3.774   6.680   1.280
 3754SOL    HW212162   3.856   6.547   1.232
 3755SOL     OW12163   5.469   5.465   4.303
 3755SOL    HW112164   5.394   5.519   4.263
 3755SOL    HW212165   5.470   5.374   4.261
 3756SOL     OW12166   2.454   6.029   6.145
 3756SOL    HW112167   2.509   6.023   6.229
 3756SOL    HW212168   2.497   5.975   6.073
 3757SOL     OW12169   3.898   6.644   6.183
 3757SOL    HW112170   3.907   6.567   6.246
 3757SOL    HW212171   3.813   6.693   6.202
 3758SOL     OW12172   2.308   1.773   4.881
 3758SOL    HW112173   2.225   1.800   4.831
 3758SOL    HW212174   2.335   1.681   4.853
 3759SOL     OW12175   4.506   5.532   6.073
 3759SOL    HW112176   4.462   5.617   6.103
 3759SOL    HW212177   4.542   5.544   5.980
 3760SOL     OW12178   1.718   2.211   4.864
 3760SOL    HW112179   1.746   2.297   4.823
 3760SOL    HW212180   1.717   2.221   4.964
 3761SOL     OW12181   0.809   0.969   5.405
 3761SOL    HW112182   0.723   0.946   5.449
 3761SOL    HW212183   0.817   0.918   5.320
 3762SOL     OW12184   1.204   4.554   0.221
 3762SOL    HW112185   1.202   4.654   0.215
 3762SOL    HW212186   1.200   4.515   0.129
 3763SOL     OW12187   6.863   4.598   0.540
 3763SOL    HW112188   6.790   4.529   0.536
 3763SOL    HW212189   6.941   4.560   0.590
 3764SOL     OW12190   1.803   6.829   4.289
 3764SOL    HW112191   1.730   6.842   4.222
 3764SOL    HW212192   1.763   6.811   4.379
 3765SOL     OW12193   4.963   0.776   1.020
 3765SOL    HW112194   4.876   0.734   0.997
 3765SOL    HW212195   4.972   0.781   1.120
 3766SOL     OW12196   1.227   1.473   3.660
 3766SOL    HW112197   1.274   1.555   3.628
 3766SOL    HW212198   1.237   1.400   3.593
 3767SOL     OW12199   2.605   4.613   0.885
 3767SOL    HW112200   2.658   4.697   0.889
 3767SOL    HW212201   2.664   4.538   0.856
 3768SOL     OW12202   2.014   5.974   4.985
 3768SOL    HW112203   2.049   5.913   4.914
 3768SOL    HW212204   1.915   5.983   4.975
 3769SOL     OW12205   5.849   6.252   5.597
 3769SOL    HW112206   5.780   6.180   5.601
 3769SOL    HW212207   5.875   6.268   5.501
 3770SOL     OW12208   1.996   0.255   6.773
 3770SOL    HW112209   1.961   0.194   6.845
 3770SOL    HW212210   2.096   0.257   6.778
 3771SOL     OW12211   6.152   3.128   0.313
 3771SOL    HW112212   6.095   3.131   0.395
 3771SOL    HW212213   6.097   3.153   0.233
 3772SOL     OW12214   7.004   0.923   0.455
 3772SOL    HW112215   6.964   0.904   0.366
 3772SOL    HW212216   0.015   0.838   0.497
 3773SOL     OW12217   6.712   3.197   5.784
 3773SOL    HW112218   6.620   3.230   5.765
 3773SOL    HW212219   6.776   3.238   5.720
 3774SOL     OW12220   0.171   5.576   0.057
 3774SOL    HW112221   0.120   5.655   0.093
 3774SOL    HW212222   0.127   5.492   0.087
 3775SOL     OW12223   5.242   5.159   2.324
 3775SOL    HW112224   5.198   5.159   2.414
 3775SOL    HW212225   5.339   5.182   2.335
 3776SOL     OW12226   3.814   1.544   1.111
 3776SOL    HW112227   3.856   1.548   1.020
 3776SOL    HW212228   3.819   1.635   1.153
 3777SOL     OW12229   3.367   4.982   4.334
 3777SOL    HW112230   3.351   4.976   4.235
 3777SOL    HW212231   3.281   4.967   4.382
 3778SOL     OW12232   3.195   5.031   2.427
 3778SOL    HW112233   3.286   4.995   2.446
 3778SOL    HW212234   3.130   4.955   2.418
 3779SOL     OW12235   1.938   5.386   1.049
 3779SOL    HW112236   1.947   5.483   1.072
 3779SOL    HW212237   1.866   5.374   0.980
 3780SOL     OW12238   5.349   6.068   5.592
 3780SOL    HW112239   5.321   6.015   5.673
 3780SOL    HW212240   5.345   6.166   5.614
 3781SOL     OW12241   1.329   6.793   4.373
 3781SOL    HW112242   1.383   6.865   4.417
 3781SOL    HW212243   1.361   6.704   4.406
 3782SOL     OW12244   2.841   0.800   4.046
 3782SOL    HW112245   2.825   0.894   4.017
 3782SOL    HW212246   2.758   0.763   4.086
 3783SOL     OW12247   5.444   5.181   4.184
 3783SOL    HW112248   5.492   5.134   4.110
 3783SOL    HW212249   5.355   5.213   4.152
 3784SOL     OW12250   4.705   2.741   2.432
 3784SOL    HW112251   4.787   2.684   2.439
 3784SOL    HW212252   4.625   2.682   2.419
 3785SOL     OW12253   1.422   1.600   6.714
 3785SOL    HW112254   1.462   1.625   6.802
 3785SOL    HW212255   1.493   1.567   6.653
 3786SOL     OW12256   2.071   6.582   2.680
 3786SOL    HW112257   2.060   6.606   2.776
 3786SOL    HW212258   1.981   6.583   2.635
 3787SOL     OW12259   6.006   0.433   2.470
 3787SOL    HW112260   6.086   0.464   2.521
 3787SOL    HW212261   6.016   0.456   2.374
 3788SOL     OW12262   1.192   4.332   4.358
 3788SOL    HW112263   1.119   4.268   4.381
 3788SOL    HW212264   1.207   4.394   4.436
 3789SOL     OW12265   0.521   3.278   5.238
 3789SOL    HW112266   0.486   3.320   5.322
 3789SOL    HW212267   0.618   3.257   5.249
 3790SOL     OW12268   1.717   4.857   5.329
 3790SOL    HW112269   1.709   4.758   5.327
 3790SOL    HW212270   1.640   4.896   5.379
 3791SOL     OW12271   6.100   0.370   0.438
 3791SOL    HW112272   6.043   0.436   0.389
 3791SOL    HW212273   6.060   0.279   0.431
 3792SOL     OW12274   0.797   1.689   4.466
 3792SOL    HW112275   0.800   1.789   4.455
 3792SOL    HW212276   0.750   1.648   4.388
 3793SOL     OW12277   4.198   7.011   2.748
 3793SOL    HW112278   4.296   0.009   2.741
 3793SOL    HW212279   4.184   6.912   2.750
 3794SOL     OW12280   2.590   4.154   1.038
 3794SOL    HW112281   2.512   4.208   1.068
 3794SOL    HW212282   2.660   4.214   1.001
 3795SOL     OW12283   4.664   5.929   6.681
 3795SOL    HW112284   4.580   5.952   6.632
 3795SOL    HW212285   4.660   5.966   6.774
 3796SOL     OW12286   2.467   1.494   1.521
 3796SOL    HW112287   2.389   1.491   1.583
 3796SOL    HW212288   2.513   1.406   1.521
 3797SOL     OW12289   0.443   4.153   2.636
 3797SOL    HW112290   0.502   4.221   2.592
 3797SOL    HW212291   0.400   4.194   2.716
 3798SOL     OW12292   2.986   5.629   2.681
 3798SOL    HW112293   2.934   5.667   2.605
 3798SOL    HW212294   2.934   5.641   2.766
 3799SOL     OW12295   0.939   2.366   4.475
 3799SOL    HW112296   0.895   2.394   4.390
 3799SOL    HW212297   0.966   2.448   4.527
 3800SOL     OW12298   5.483   3.345   4.402
 3800SOL    HW112299   5.567   3.381   4.441
 3800SOL    HW212300   5.418   3.323   4.475
 3801SOL     OW12301   6.301   6.586   2.707
 3801SOL    HW112302   6.235   6.531   2.758
 3801SOL    HW212303   6.265   6.677   2.691
 3802SOL     OW12304   1.279   2.157   2.666
 3802SOL    HW112305   1.330   2.213   2.731
 3802SOL    HW212306   1.248   2.215   2.590
 3803SOL     OW12307   3.604   2.202   1.361
 3803SOL    HW112308   3.696   2.236   1.339
 3803SOL    HW212309   3.591   2.205   1.460
 3804SOL     OW12310   5.452   1.435   3.647
 3804SOL    HW112311   5.370   1.421   3.703
 3804SOL    HW212312   5.465   1.356   3.587
 3805SOL     OW12313   2.896   3.230   1.900
 3805SOL    HW112314   2.844   3.150   1.867
 3805SOL    HW212315   2.892   3.302   1.831
 3806SOL     OW12316   3.987   4.124   6.691
 3806SOL    HW112317   3.924   4.093   6.761
 3806SOL    HW212318   3.940   4.189   6.630
 3807SOL     OW12319   1.898   6.368   3.425
 3807SOL    HW112320   1.946   6.320   3.498
 3807SOL    HW212321   1.844   6.303   3.372
 3808SOL     OW12322   4.821   0.059   0.939
 3808SOL    HW112323   4.822   0.157   0.956
 3808SOL    HW212324   4.846   0.042   0.843
 3809SOL     OW12325   5.942   2.967   0.818
 3809SOL    HW112326   5.981   2.944   0.907
 3809SOL    HW212327   5.860   3.022   0.830
 3810SOL     OW12328   4.770   2.726   4.421
 3810SOL    HW112329   4.781   2.823   4.396
 3810SOL    HW212330   4.698   2.686   4.364
 3811SOL     OW12331   0.949   4.150   3.971
 3811SOL    HW112332   1.019   4.193   3.914
 3811SOL    HW212333   0.969   4.052   3.980
 3812SOL     OW12334   5.471   0.209   5.290
 3812SOL    HW112335   5.511   0.219   5.381
 3812SOL    HW212336   5.493   0.291   5.235
 3813SOL     OW12337   4.522   4.571   0.196
 3813SOL    HW112338   4.425   4.593   0.179
 3813SOL    HW212339   4.569   4.560   0.108
 3814SOL     OW12340   0.160   6.541   0.441
 3814SOL    HW112341   0.189   6.450   0.469
 3814SOL    HW212342   0.229   6.582   0.383
 3815SOL     OW12343   4.424   3.077   6.692
 3815SOL    HW112344   4.399   3.128   6.775
 3815SOL    HW212345   4.394   2.982   6.701
 3816SOL     OW12346   0.618   5.872   6.961
 3816SOL    HW112347   0.664   5.862   6.874
 3816SOL    HW212348   0.567   5.789   6.982
 3817SOL     OW12349   4.898   3.866   2.715
 3817SOL    HW112350   4.853   3.925   2.781
 3817SOL    HW212351   4.908   3.775   2.753
 3818SOL     OW12352   5.259   0.414   0.245
 3818SOL    HW112353   5.225   0.471   0.320
 3818SOL    HW212354   5.338   0.361   0.276
 3819SOL     OW12355   5.172   5.381   1.295
 3819SOL    HW112356   5.168   5.470   1.249
 3819SOL    HW212357   5.237   5.322   1.248
 3820SOL     OW12358   6.253   6.678   3.239
 3820SOL    HW112359   6.319   6.711   3.307
 3820SOL    HW212360   6.207   6.756   3.197
 3821SOL     OW12361   2.892   1.689   0.743
 3821SOL    HW112362   2.795   1.710   0.758
 3821SOL    HW212363   2.945   1.774   0.742
 3822SOL     OW12364   1.117   6.533   2.718
 3822SOL    HW112365   1.161   6.606   2.666
 3822SOL    HW212366   1.181   6.495   2.784
 3823SOL     OW12367   3.070   2.748   6.215
 3823SOL    HW112368   3.138   2.698   6.161
 3823SOL    HW212369   3.115   2.823   6.264
 3824SOL     OW12370   6.011   2.154   0.389
 3824SOL    HW112371   6.046   2.082   0.448
 3824SOL    HW212372   6.051   2.145   0.297
 3825SOL     OW12373   0.899   6.219   0.522
 3825SOL    HW112374   0.809   6.175   0.517
 3825SOL    HW212375   0.969   6.148   0.527
 3826SOL     OW12376   0.765   2.778   0.159
 3826SOL    HW112377   0.828   2.846   0.123
 3826SOL    HW212378   0.673   2.816   0.164
 3827SOL     OW12379   2.837   2.850   1.174
 3827SOL    HW112380   2.773   2.922   1.148
 3827SOL    HW212381   2.921   2.891   1.210
 3828SOL     OW12382   3.589   2.575   1.780
 3828SOL    HW112383   3.645   2.501   1.816
 3828SOL    HW212384   3.517   2.538   1.722
 3829SOL     OW12385   1.886   4.831   4.395
 3829SOL    HW112386   1.894   4.880   4.482
 3829SOL    HW212387   1.862   4.735   4.412
 3830SOL     OW12388   0.618   0.155   4.507
 3830SOL    HW112389   0.542   0.177   4.568
 3830SOL    HW212390   0.588   0.162   4.411
 3831SOL     OW12391   4.716   1.729   2.387
 3831SOL    HW112392   4.803   1.756   2.345
 3831SOL    HW212393   4.643   1.787   2.350
 3832SOL     OW12394   5.603   0.646   2.739
 3832SOL    HW112395   5.581   0.583   2.813
 3832SOL    HW212396   5.656   0.599   2.668
 3833SOL     OW12397   0.832   5.867   6.286
 3833SOL    HW112398   0.921   5.886   6.244
 3833SOL    HW212399   0.764   5.932   6.251
 3834SOL     OW12400   4.281   3.049   1.371
 3834SOL    HW112401   4.197   3.094   1.339
 3834SOL    HW212402   4.288   3.057   1.470
 3835SOL     OW12403   3.239   5.540   5.058
 3835SOL    HW112404   3.299   5.586   5.123
 3835SOL    HW212405   3.191   5.608   5.003
 3836SOL     OW12406   1.325   3.924   5.696
 3836SOL    HW112407   1.347   3.899   5.790
 3836SOL    HW212408   1.381   3.870   5.633
 3837SOL     OW12409   4.881   3.694   6.860
 3837SOL    HW112410   4.836   3.776   6.897
 3837SOL    HW212411   4.900   3.630   6.935
 3838SOL     OW12412   0.208   3.044   4.624
 3838SOL    HW112413   0.211   3.067   4.527
 3838SOL    HW212414   0.301   3.024   4.656
 3839SOL     OW12415   3.989   0.576   4.425
 3839SOL    HW112416   4.081   0.589   4.388
 3839SOL    HW212417   3.952   0.664   4.455
 3840SOL     OW12418   1.885   1.281   5.060
 3840SOL    HW112419   1.934   1.236   4.985
 3840SOL    HW212420   1.917   1.375   5.070
 3841SOL     OW12421   0.127   3.189   5.145
 3841SOL    HW112422   0.148   3.197   5.243
 3841SOL    HW212423   0.121   3.280   5.105
 3842SOL     OW12424   0.737   3.879   6.944
 3842SOL    HW112425   0.781   3.835   6.866
 3842SOL    HW212426   0.737   3.978   6.931
 3843SOL     OW12427   6.919   4.201   2.457
 3843SOL    HW112428   6.901   4.289   2.501
 3843SOL    HW212429   6.853   4.187   2.383
 3844SOL     OW12430   6.888   3.545   6.206
 3844SOL    HW112431   6.928   3.519   6.294
 3844SOL    HW212432   6.943   3.506   6.132
 3845SOL     OW12433   3.750   2.972   3.040
 3845SOL    HW112434   3.693   2.966   3.122
 3845SOL    HW212435   3.829   3.030   3.060
 3846SOL     OW12436   1.246   4.777   4.054
 3846SOL    HW112437   1.192   4.729   4.123
 3846SOL    HW212438   1.333   4.730   4.040
 3847SOL     OW12439   6.007   0.564   4.845
 3847SOL    HW112440   6.044   0.477   4.811
 3847SOL    HW212441   5.992   0.626   4.768
 3848SOL     OW12442   3.044   5.397   2.531
 3848SOL    HW112443   3.119   5.425   2.472
 3848SOL    HW212444   3.019   5.472   2.592
 3849SOL     OW12445   1.018   1.531   5.244
 3849SOL    HW112446   0.986   1.443   5.280
 3849SOL    HW212447   0.946   1.600   5.255
 3850SOL     OW12448   2.980   3.669   1.216
 3850SOL    HW112449   2.933   3.736   1.274
 3850SOL    HW212450   3.024   3.599   1.274
 3851SOL     OW12451   1.392   4.505   3.088
 3851SOL    HW112452   1.366   4.519   2.993
 3851SOL    HW212453   1.483   4.464   3.092
 3852SOL     OW12454   4.917   6.520   4.381
 3852SOL    HW112455   4.981   6.474   4.320
 3852SOL    HW212456   4.949   6.613   4.398
 3853SOL     OW12457   1.689   3.156   2.929
 3853SOL    HW112458   1.617   3.221   2.952
 3853SOL    HW212459   1.778   3.200   2.939
 3854SOL     OW12460   1.701   3.633   2.576
 3854SOL    HW112461   1.738   3.540   2.577
 3854SOL    HW212462   1.637   3.642   2.499
 3855SOL     OW12463   4.611   6.253   6.579
 3855SOL    HW112464   4.645   6.308   6.503
 3855SOL    HW212465   4.595   6.159   6.548
 3856SOL     OW12466   6.507   6.321   5.434
 3856SOL    HW112467   6.500   6.406   5.487
 3856SOL    HW212468   6.415   6.282   5.423
 3857SOL     OW12469   1.056   5.928   6.142
 3857SOL    HW112470   1.087   5.886   6.057
 3857SOL    HW212471   1.119   5.906   6.216
 3858SOL     OW12472   1.590   5.864   5.601
 3858SOL    HW112473   1.524   5.851   5.527
 3858SOL    HW212474   1.669   5.804   5.586
 3859SOL     OW12475   6.484   2.335   3.486
 3859SOL    HW112476   6.468   2.375   3.577
 3859SOL    HW212477   6.462   2.403   3.416
 3860SOL     OW12478   0.957   0.734   5.676
 3860SOL    HW112479   0.861   0.729   5.650
 3860SOL    HW212480   1.014   0.697   5.602
 3861SOL     OW12481   5.006   4.498   1.976
 3861SOL    HW112482   4.932   4.547   2.021
 3861SOL    HW212483   5.029   4.545   1.890
 3862SOL     OW12484   0.418   6.722   4.715
 3862SOL    HW112485   0.394   6.675   4.799
 3862SOL    HW212486   0.351   6.702   4.644
 3863SOL     OW12487   3.932   3.710   6.328
 3863SOL    HW112488   3.910   3.780   6.260
 3863SOL    HW212489   4.021   3.730   6.370
 3864SOL     OW12490   3.638   1.506   4.975
 3864SOL    HW112491   3.702   1.507   4.898
 3864SOL    HW212492   3.623   1.600   5.006
 3865SOL     OW12493   4.057   0.238   1.079
 3865SOL    HW112494   3.971   0.288   1.084
 3865SOL    HW212495   4.042   0.143   1.107
 3866SOL     OW12496   4.275   0.748   1.055
 3866SOL    HW112497   4.261   0.698   1.140
 3866SOL    HW212498   4.200   0.813   1.042
 3867SOL     OW12499   1.933   3.434   3.682
 3867SOL    HW112500   2.009   3.409   3.621
 3867SOL    HW212501   1.875   3.501   3.636
 3868SOL     OW12502   2.578   6.468   1.378
 3868SOL    HW112503   2.561   6.413   1.296
 3868SOL    HW212504   2.664   6.440   1.420
 3869SOL     OW12505   6.834   2.984   4.469
 3869SOL    HW112506   6.919   2.941   4.498
 3869SOL    HW212507   6.852   3.080   4.447
 3870SOL     OW12508   4.808   4.806   0.552
 3870SOL    HW112509   4.797   4.864   0.633
 3870SOL    HW212510   4.729   4.817   0.492
 3871SOL     OW12511   3.844   0.762   2.803
 3871SOL    HW112512   3.887   0.808   2.726
 3871SOL    HW212513   3.791   0.828   2.856
 3872SOL     OW12514   3.247   3.026   2.150
 3872SOL    HW112515   3.325   3.029   2.088
 3872SOL    HW212516   3.269   2.969   2.229
 3873SOL     OW12517   6.814   5.785   1.257
 3873SOL    HW112518   6.810   5.813   1.161
 3873SOL    HW212519   6.730   5.812   1.304
 3874SOL     OW12520   4.020   6.068   0.077
 3874SOL    HW112521   4.107   6.074   0.126
 3874SOL    HW212522   3.958   6.008   0.126
 3875SOL     OW12523   1.259   3.101   2.295
 3875SOL    HW112524   1.292   3.194   2.308
 3875SOL    HW212525   1.167   3.092   2.333
 3876SOL     OW12526   5.733   5.434   6.843
 3876SOL    HW112527   5.823   5.468   6.871
 3876SOL    HW212528   5.737   5.336   6.827
 3877SOL     OW12529   6.754   2.043   0.456
 3877SOL    HW112530   6.771   2.139   0.478
 3877SOL    HW212531   6.834   2.003   0.411
 3878SOL     OW12532   2.290   6.070   5.656
 3878SOL    HW112533   2.233   6.098   5.734
 3878SOL    HW212534   2.373   6.025   5.690
 3879SOL     OW12535   4.576   6.412   1.311
 3879SOL    HW112536   4.481   6.437   1.328
 3879SOL    HW212537   4.599   6.434   1.217
 3880SOL     OW12538   5.413   4.095   3.528
 3880SOL    HW112539   5.370   4.081   3.617
 3880SOL    HW212540   5.354   4.059   3.456
 3881SOL     OW12541   1.495   4.807   0.435
 3881SOL    HW112542   1.500   4.863   0.518
 3881SOL    HW212543   1.579   4.817   0.383
 3882SOL     OW12544   6.310   1.125   5.053
 3882SOL    HW112545   6.373   1.200   5.074
 3882SOL    HW212546   6.277   1.133   4.959
 3883SOL     OW12547   4.394   1.245   3.657
 3883SOL    HW112548   4.453   1.271   3.581
 3883SOL    HW212549   4.315   1.194   3.622
 3884SOL     OW12550   0.822   5.575   4.294
 3884SOL    HW112551   0.897   5.640   4.286
 3884SOL    HW212552   0.819   5.538   4.387
 3885SOL     OW12553   6.070   1.077   4.612
 3885SOL    HW112554   6.038   1.156   4.560
 3885SOL    HW212555   6.165   1.057   4.587
 3886SOL     OW12556   6.514   6.953   5.091
 3886SOL    HW112557   6.469   6.864   5.091
 3886SOL    HW212558   6.548   6.974   5.000
 3887SOL     OW12559   5.164   1.878   5.660
 3887SOL    HW112560   5.259   1.866   5.632
 3887SOL    HW212561   5.140   1.808   5.728
 3888SOL     OW12562   0.269   0.421   6.200
 3888SOL    HW112563   0.332   0.448   6.127
 3888SOL    HW212564   0.290   0.328   6.230
 3889SOL     OW12565   6.919   3.573   6.754
 3889SOL    HW112566   6.861   3.555   6.675
 3889SOL    HW212567   6.862   3.591   6.834
 3890SOL     OW12568   6.809   6.387   3.352
 3890SOL    HW112569   6.716   6.411   3.321
 3890SOL    HW212570   6.848   6.318   3.291
 3891SOL     OW12571   5.386   4.545   4.769
 3891SOL    HW112572   5.323   4.486   4.719
 3891SOL    HW212573   5.435   4.604   4.705
 3892SOL     OW12574   0.772   0.271   2.000
 3892SOL    HW112575   0.816   0.200   1.944
 3892SOL    HW212576   0.807   0.266   2.093
 3893SOL     OW12577   3.354   5.635   2.222
 3893SOL    HW112578   3.349   5.647   2.123
 3893SOL    HW212579   3.449   5.634   2.252
 3894SOL     OW12580   3.458   2.288   1.126
 3894SOL    HW112581   3.509   2.262   1.044
 3894SOL    HW212582   3.517   2.281   1.206
 3895SOL     OW12583   0.815   1.168   5.808
 3895SOL    HW112584   0.788   1.247   5.753
 3895SOL    HW212585   0.802   1.189   5.905
 3896SOL     OW12586   0.533   2.575   5.779
 3896SOL    HW112587   0.509   2.580   5.682
 3896SOL    HW212588   0.533   2.666   5.819
 3897SOL     OW12589   2.950   6.648   2.237
 3897SOL    HW112590   2.852   6.631   2.244
 3897SOL    HW212591   2.987   6.672   2.327
 3898SOL     OW12592   3.290   2.914   3.565
 3898SOL    HW112593   3.285   2.984   3.495
 3898SOL    HW212594   3.261   2.952   3.653
 3899SOL     OW12595   4.718   1.199   4.635
 3899SOL    HW112596   4.706   1.124   4.700
 3899SOL    HW212597   4.802   1.184   4.582
 3900SOL     OW12598   5.633   3.153   3.445
 3900SOL    HW112599   5.557   3.112   3.396
 3900SOL    HW212600   5.632   3.121   3.540
 3901SOL     OW12601   2.253   6.205   6.106
 3901SOL    HW112602   2.279   6.286   6.054
 3901SOL    HW212603   2.333   6.149   6.124
 3902SOL     OW12604   4.591   4.411   2.270
 3902SOL    HW112605   4.589   4.373   2.177
 3902SOL    HW212606   4.664   4.368   2.322
 3903SOL     OW12607   4.263   4.076   6.600
 3903SOL    HW112608   4.174   4.093   6.642
 3903SOL    HW212609   4.258   4.092   6.502
 3904SOL     OW12610   0.808   0.004   6.782
 3904SOL    HW112611   0.833   6.986   6.870
 3904SOL    HW212612   0.715   0.041   6.787
 3905SOL     OW12613   5.983   6.872   6.576
 3905SOL    HW112614   6.065   6.845   6.627
 3905SOL    HW212615   6.010   6.911   6.489
 3906SOL     OW12616   2.345   5.199   4.881
 3906SOL    HW112617   2.313   5.128   4.944
 3906SOL    HW212618   2.413   5.160   4.819
 3907SOL     OW12619   0.543   1.220   4.952
 3907SOL    HW112620   0.608   1.270   4.894
 3907SOL    HW212621   0.524   1.130   4.911
 3908SOL     OW12622   0.230   0.672   6.675
 3908SOL    HW112623   0.282   0.721   6.746
 3908SOL    HW212624   0.274   0.583   6.658
 3909SOL     OW12625   5.284   3.990   6.355
 3909SOL    HW112626   5.303   4.038   6.269
 3909SOL    HW212627   5.355   3.921   6.371
 3910SOL     OW12628   3.715   4.153   1.794
 3910SOL    HW112629   3.619   4.167   1.820
 3910SOL    HW212630   3.751   4.072   1.841
 3911SOL     OW12631   5.541   0.993   0.853
 3911SOL    HW112632   5.473   0.926   0.881
 3911SOL    HW212633   5.498   1.061   0.793
 3912SOL     OW12634   3.277   1.340   6.181
 3912SOL    HW112635   3.333   1.384   6.111
 3912SOL    HW212636   3.188   1.317   6.142
 3913SOL     OW12637   3.607   5.811   6.869
 3913SOL    HW112638   3.557   5.869   6.806
 3913SOL    HW212639   3.545   5.779   6.941
 3914SOL     OW12640   5.280   1.300   1.876
 3914SOL    HW112641   5.272   1.203   1.856
 3914SOL    HW212642   5.281   1.314   1.975
 3915SOL     OW12643   3.705   6.581   6.933
 3915SOL    HW112644   3.689   6.496   6.881
 3915SOL    HW212645   3.764   6.561   7.011
 3916SOL     OW12646   2.731   0.052   2.783
 3916SOL    HW112647   2.814   0.051   2.838
 3916SOL    HW212648   2.656   0.012   2.835
 3917SOL     OW12649   2.814   5.240   0.019
 3917SOL    HW112650   2.803   5.303   6.963
 3917SOL    HW212651   2.788   5.147   7.012
 3918SOL     OW12652   4.447   0.940   0.420
 3918SOL    HW112653   4.456   0.932   0.321
 3918SOL    HW212654   4.415   1.032   0.444
 3919SOL     OW12655   4.231   0.811   0.544
 3919SOL    HW112656   4.309   0.798   0.483
 3919SOL    HW212657   4.184   0.896   0.520
 3920SOL     OW12658   1.940   1.318   6.400
 3920SOL    HW112659   1.917   1.239   6.455
 3920SOL    HW212660   1.904   1.401   6.442
 3921SOL     OW12661   6.825   3.091   6.814
 3921SOL    HW112662   6.852   3.152   6.888
 3921SOL    HW212663   6.853   2.997   6.836
 3922SOL     OW12664   4.768   5.133   1.678
 3922SOL    HW112665   4.720   5.167   1.759
 3922SOL    HW212666   4.827   5.205   1.642
 3923SOL     OW12667   6.003   1.718   1.268
 3923SOL    HW112668   6.057   1.637   1.245
 3923SOL    HW212669   5.936   1.694   1.338
 3924SOL     OW12670   0.801   4.283   3.270
 3924SOL    HW112671   0.766   4.334   3.192
 3924SOL    HW212672   0.824   4.346   3.343
 3925SOL     OW12673   4.614   4.239   0.965
 3925SOL    HW112674   4.615   4.208   1.060
 3925SOL    HW212675   4.558   4.321   0.958
 3926SOL     OW12676   0.734   0.148   5.996
 3926SOL    HW112677   0.795   0.201   5.938
 3926SOL    HW212678   0.677   0.088   5.940
 3927SOL     OW12679   1.017   3.070   3.867
 3927SOL    HW112680   1.071   3.149   3.837
 3927SOL    HW212681   1.075   2.989   3.873
 3928SOL     OW12682   2.737   6.834   2.598
 3928SOL    HW112683   2.766   6.890   2.676
 3928SOL    HW212684   2.718   6.894   2.520
 3929SOL     OW12685   6.897   1.460   6.971
 3929SOL    HW112686   6.884   1.511   0.034
 3929SOL    HW212687   6.864   1.366   6.983
 3930SOL     OW12688   1.145   1.886   4.062
 3930SOL    HW112689   1.233   1.926   4.087
 3930SOL    HW212690   1.138   1.794   4.102
 3931SOL     OW12691   1.793   2.024   1.668
 3931SOL    HW112692   1.710   2.026   1.724
 3931SOL    HW212693   1.815   2.116   1.636
 3932SOL     OW12694   2.203   5.377   4.042
 3932SOL    HW112695   2.233   5.304   4.103
 3932SOL    HW212696   2.282   5.431   4.013
 3933SOL     OW12697   1.079   6.144   0.193
 3933SOL    HW112698   1.151   6.140   0.125
 3933SOL    HW212699   1.103   6.083   0.269
 3934SOL     OW12700   0.392   1.920   3.123
 3934SOL    HW112701   0.433   1.830   3.108
 3934SOL    HW212702   0.294   1.910   3.142
 3935SOL     OW12703   6.250   2.533   6.311
 3935SOL    HW112704   6.323   2.565   6.251
 3935SOL    HW212705   6.164   2.530   6.259
 3936SOL     OW12706   6.709   5.713   5.390
 3936SOL    HW112707   6.697   5.622   5.429
 3936SOL    HW212708   6.806   5.738   5.392
 3937SOL     OW12709   0.389   5.524   2.547
 3937SOL    HW112710   0.345   5.498   2.461
 3937SOL    HW212711   0.321   5.562   2.609
 3938SOL     OW12712   6.729   3.638   4.730
 3938SOL    HW112713   6.767   3.668   4.642
 3938SOL    HW212714   6.630   3.647   4.727
 3939SOL     OW12715   1.873   0.688   2.917
 3939SOL    HW112716   1.794   0.694   2.857
 3939SOL    HW212717   1.934   0.765   2.900
 3940SOL     OW12718   3.120   4.863   1.888
 3940SOL    HW112719   3.091   4.852   1.983
 3940SOL    HW212720   3.217   4.840   1.880
 3941SOL     OW12721   5.849   0.055   4.457
 3941SOL    HW112722   5.909   0.025   4.531
 3941SOL    HW212723   5.785   7.003   4.434
 3942SOL     OW12724   1.517   6.188   5.997
 3942SOL    HW112725   1.444   6.257   6.000
 3942SOL    HW212726   1.554   6.176   6.089
 3943SOL     OW12727   1.261   3.613   1.890
 3943SOL    HW112728   1.335   3.570   1.838
 3943SOL    HW212729   1.301   3.671   1.962
 3944SOL     OW12730   5.292   2.673   5.715
 3944SOL    HW112731   5.378   2.723   5.721
 3944SOL    HW212732   5.239   2.687   5.799
 3945SOL     OW12733   0.995   2.403   3.134
 3945SOL    HW112734   0.898   2.403   3.106
 3945SOL    HW212735   1.052   2.421   3.054
 3946SOL     OW12736   6.858   3.274   7.010
 3946SOL    HW112737   6.792   3.306   0.057
 3946SOL    HW212738   6.939   3.332   7.013
 3947SOL     OW12739   5.938   5.377   0.505
 3947SOL    HW112740   5.844   5.387   0.473
 3947SOL    HW212741   5.954   5.438   0.582
 3948SOL     OW12742   1.657   3.787   0.126
 3948SOL    HW112743   1.706   3.865   0.087
 3948SOL    HW212744   1.628   3.809   0.219
 3949SOL     OW12745   6.625   0.089   3.016
 3949SOL    HW112746   6.585   0.117   3.103
 3949SOL    HW212747   6.556   0.041   2.962
 3950SOL     OW12748   4.218   4.134   1.740
 3950SOL    HW112749   4.160   4.076   1.796
 3950SOL    HW212750   4.297   4.165   1.793
 3951SOL     OW12751   0.637   2.760   6.225
 3951SOL    HW112752   0.711   2.784   6.287
 3951SOL    HW212753   0.635   2.824   6.148
 3952SOL     OW12754   5.854   2.584   4.049
 3952SOL    HW112755   5.785   2.521   4.085
 3952SOL    HW212756   5.931   2.532   4.012
 3953SOL     OW12757   3.423   4.491   5.781
 3953SOL    HW112758   3.409   4.402   5.737
 3953SOL    HW212759   3.367   4.560   5.736
 3954SOL     OW12760   6.113   3.548   5.689
 3954SOL    HW112761   6.090   3.557   5.592
 3954SOL    HW212762   6.074   3.624   5.740
 3955SOL     OW12763   4.886   6.457   0.548
 3955SOL    HW112764   4.884   6.465   0.448
 3955SOL    HW212765   4.812   6.511   0.587
 3956SOL     OW12766   1.192   2.952   5.601
 3956SOL    HW112767   1.223   2.857   5.600
 3956SOL    HW212768   1.261   3.010   5.558
 3957SOL     OW12769   3.507   6.647   4.064
 3957SOL    HW112770   3.435   6.706   4.026
 3957SOL    HW212771   3.465   6.564   4.102
 3958SOL     OW12772   6.152   6.931   0.245
 3958SOL    HW112773   6.144   6.860   0.175
 3958SOL    HW212774   6.211   6.899   0.319
 3959SOL     OW12775   3.337   5.647   1.008
 3959SOL    HW112776   3.271   5.719   0.985
 3959SOL    HW212777   3.429   5.678   0.987
 3960SOL     OW12778   4.570   2.746   6.560
 3960SOL    HW112779   4.662   2.785   6.571
 3960SOL    HW212780   4.540   2.757   6.465
 3961SOL     OW12781   5.174   1.990   1.909
 3961SOL    HW112782   5.104   2.025   1.848
 3961SOL    HW212783   5.210   1.904   1.874
 3962SOL     OW12784   0.782   5.635   0.210
 3962SOL    HW112785   0.833   5.564   0.161
 3962SOL    HW212786   0.775   5.611   0.307
 3963SOL     OW12787   5.602   5.239   3.063
 3963SOL    HW112788   5.515   5.191   3.072
 3963SOL    HW212789   5.666   5.184   3.010
 3964SOL     OW12790   4.684   6.357   4.789
 3964SOL    HW112791   4.710   6.337   4.884
 3964SOL    HW212792   4.766   6.359   4.732
 3965SOL     OW12793   3.479   4.431   6.578
 3965SOL    HW112794   3.383   4.458   6.580
 3965SOL    HW212795   3.515   4.443   6.486
 3966SOL     OW12796   6.571   4.516   6.428
 3966SOL    HW112797   6.565   4.504   6.329
 3966SOL    HW212798   6.539   4.433   6.473
 3967SOL     OW12799   1.085   5.191   3.899
 3967SOL    HW112800   1.022   5.148   3.963
 3967SOL    HW212801   1.171   5.140   3.897
 3968SOL     OW12802   5.399   0.279   2.795
 3968SOL    HW112803   5.482   0.330   2.812
 3968SOL    HW212804   5.401   0.193   2.846
 3969SOL     OW12805   1.029   4.952   2.938
 3969SOL    HW112806   1.009   4.868   2.989
 3969SOL    HW212807   0.965   4.961   2.862
 3970SOL     OW12808   4.739   4.675   3.575
 3970SOL    HW112809   4.830   4.711   3.553
 3970SOL    HW212810   4.737   4.577   3.559
 3971SOL     OW12811   2.614   5.682   3.026
 3971SOL    HW112812   2.583   5.777   3.034
 3971SOL    HW212813   2.592   5.647   2.935
 3972SOL     OW12814   0.275   5.965   0.591
 3972SOL    HW112815   0.358   5.962   0.536
 3972SOL    HW212816   0.200   6.002   0.536
 3973SOL     OW12817   3.133   3.307   5.445
 3973SOL    HW112818   3.204   3.290   5.513
 3973SOL    HW212819   3.051   3.254   5.468
 3974SOL     OW12820   0.757   1.588   6.526
 3974SOL    HW112821   0.747   1.621   6.432
 3974SOL    HW212822   0.793   1.661   6.584
 3975SOL     OW12823   6.533   0.418   5.541
 3975SOL    HW112824   6.572   0.498   5.588
 3975SOL    HW212825   6.587   0.398   5.459
 3976SOL     OW12826   1.077   4.618   1.177
 3976SOL    HW112827   1.160   4.656   1.219
 3976SOL    HW212828   1.028   4.562   1.244
 3977SOL     OW12829   2.757   5.763   6.226
 3977SOL    HW112830   2.853   5.756   6.200
 3977SOL    HW212831   2.712   5.674   6.218
 3978SOL     OW12832   5.468   1.189   5.330
 3978SOL    HW112833   5.450   1.147   5.418
 3978SOL    HW212834   5.537   1.261   5.341
 3979SOL     OW12835   2.056   7.018   1.520
 3979SOL    HW112836   2.117   6.949   1.481
 3979SOL    HW212837   2.066   0.082   1.468
 3980SOL     OW12838   5.619   3.684   4.751
 3980SOL    HW112839   5.604   3.776   4.714
 3980SOL    HW212840   5.639   3.691   4.849
 3981SOL     OW12841   0.073   2.285   6.156
 3981SOL    HW112842   0.144   2.216   6.168
 3981SOL    HW212843   7.008   2.251   6.194
 3982SOL     OW12844   2.455   1.084   4.811
 3982SOL    HW112845   2.476   1.165   4.866
 3982SOL    HW212846   2.483   1.100   4.717
 3983SOL     OW12847   3.543   6.211   4.327
 3983SOL    HW112848   3.594   6.203   4.413
 3983SOL    HW212849   3.469   6.143   4.326
 3984SOL     OW12850   1.764   0.158   1.785
 3984SOL    HW112851   1.717   0.246   1.790
 3984SOL    HW212852   1.699   0.084   1.797
 3985SOL     OW12853   1.874   4.342   0.019
 3985SOL    HW112854   1.954   4.354   0.079
 3985SOL    HW212855   1.881   4.406   6.964
 3986SOL     OW12856   0.152   2.083   2.253
 3986SOL    HW112857   0.086   2.035   2.311
 3986SOL    HW212858   0.128   2.180   2.249
 3987SOL     OW12859   1.507   5.684   5.170
 3987SOL    HW112860   1.597   5.642   5.180
 3987SOL    HW212861   1.488   5.699   5.073
 3988SOL     OW12862   3.284   2.183   5.933
 3988SOL    HW112863   3.223   2.127   5.989
 3988SOL    HW212864   3.250   2.278   5.931
 3989SOL     OW12865   6.093   0.141   6.385
 3989SOL    HW112866   6.121   0.170   6.294
 3989SOL    HW212867   6.011   0.084   6.378
 3990SOL     OW12868   5.764   2.641   4.978
 3990SOL    HW112869   5.764   2.653   5.078
 3990SOL    HW212870   5.671   2.622   4.947
 3991SOL     OW12871   0.064   2.418   3.475
 3991SOL    HW112872   0.147   2.420   3.532
 3991SOL    HW212873   0.087   2.447   3.382
 3992SOL     OW12874   3.821   3.357   6.588
 3992SOL    HW112875   3.908   3.307   6.589
 3992SOL    HW212876   3.808   3.401   6.677
 3993SOL     OW12877   2.748   2.041   2.625
 3993SOL    HW112878   2.726   1.946   2.651
 3993SOL    HW212879   2.665   2.087   2.593
 3994SOL     OW12880   2.325   2.523   5.244
 3994SOL    HW112881   2.283   2.544   5.333
 3994SOL    HW212882   2.289   2.586   5.175
 3995SOL     OW12883   2.271   4.145   3.307
 3995SOL    HW112884   2.297   4.073   3.242
 3995SOL    HW212885   2.325   4.227   3.288
 3996SOL     OW12886   1.803   1.188   4.687
 3996SOL    HW112887   1.769   1.140   4.768
 3996SOL    HW212888   1.817   1.122   4.613
 3997SOL     OW12889   4.812   3.840   3.093
 3997SOL    HW112890   4.819   3.820   3.191
 3997SOL    HW212891   4.888   3.796   3.045
 3998SOL     OW12892   6.071   2.110   2.120
 3998SOL    HW112893   6.157   2.081   2.079
 3998SOL    HW212894   5.995   2.084   2.060
 3999SOL     OW12895   6.355   3.863   3.727
 3999SOL    HW112896   6.328   3.840   3.820
 3999SOL    HW212897   6.401   3.785   3.685
 4000SOL     OW12898   3.006   5.410   2.935
 4000SOL    HW112899   2.919   5.362   2.924
 4000SOL    HW212900   2.990   5.508   2.939
 4001SOL     OW12901   2.547   4.001   5.610
 4001SOL    HW112902   2.616   3.945   5.655
 4001SOL    HW212903   2.577   4.022   5.517
 4002SOL     OW12904   3.475   2.881   4.187
 4002SOL    HW112905   3.450   2.857   4.280
 4002SOL    HW212906   3.573   2.899   4.182
 4003SOL     OW12907   1.623   0.852   6.516
 4003SOL    HW112908   1.701   0.909   6.488
 4003SOL    HW212909   1.652   0.789   6.589
 4004SOL     OW12910   7.015   3.559   4.228
 4004SOL    HW112911   6.954   3.546   4.150
 4004SOL    HW212912   0.052   3.638   4.212
 4005SOL     OW12913   4.454   4.837   1.175
 4005SOL    HW112914   4.406   4.869   1.257
 4005SOL    HW212915   4.427   4.893   1.097
 4006SOL     OW12916   5.501   4.837   2.137
 4006SOL    HW112917   5.550   4.837   2.050
 4006SOL    HW212918   5.427   4.770   2.134
 4007SOL     OW12919   0.445   2.532   2.703
 4007SOL    HW112920   0.544   2.527   2.700
 4007SOL    HW212921   0.412   2.485   2.786
 4008SOL     OW12922   2.962   0.708   6.265
 4008SOL    HW112923   2.985   0.616   6.297
 4008SOL    HW212924   2.903   0.701   6.184
 4009SOL     OW12925   4.744   1.853   1.360
 4009SOL    HW112926   4.809   1.879   1.288
 4009SOL    HW212927   4.758   1.911   1.440
 4010SOL     OW12928   3.197   3.593   1.689
 4010SOL    HW112929   3.226   3.497   1.682
 4010SOL    HW212930   3.196   3.635   1.599
 4011SOL     OW12931   6.815   6.495   1.917
 4011SOL    HW112932   6.814   6.578   1.861
 4011SOL    HW212933   6.908   6.479   1.952
 4012SOL     OW12934   4.746   6.539   2.579
 4012SOL    HW112935   4.737   6.573   2.672
 4012SOL    HW212936   4.803   6.457   2.578
 4013SOL     OW12937   2.403   0.634   1.250
 4013SOL    HW112938   2.361   0.632   1.341
 4013SOL    HW212939   2.424   0.541   1.221
 4014SOL     OW12940   3.101   5.450   3.753
 4014SOL    HW112941   3.019   5.488   3.797
 4014SOL    HW212942   3.081   5.430   3.657
 4015SOL     OW12943   4.995   4.757   6.401
 4015SOL    HW112944   4.910   4.800   6.372
 4015SOL    HW212945   5.031   4.806   6.481
 4016SOL     OW12946   3.053   5.916   0.001
 4016SOL    HW112947   3.025   6.009   0.026
 4016SOL    HW212948   3.107   5.877   0.076
 4017SOL     OW12949   0.174   5.665   5.830
 4017SOL    HW112950   0.170   5.688   5.927
 4017SOL    HW212951   0.226   5.581   5.818
 4018SOL     OW12952   4.453   6.650   1.587
 4018SOL    HW112953   4.383   6.706   1.630
 4018SOL    HW212954   4.412   6.566   1.550
 4019SOL     OW12955   5.617   4.162   2.251
 4019SOL    HW112956   5.609   4.168   2.351
 4019SOL    HW212957   5.678   4.086   2.227
 4020SOL     OW12958   6.628   3.176   5.447
 4020SOL    HW112959   6.596   3.147   5.356
 4020SOL    HW212960   6.719   3.139   5.463
 4021SOL     OW12961   3.701   4.277   5.220
 4021SOL    HW112962   3.670   4.233   5.136
 4021SOL    HW212963   3.645   4.357   5.238
 4022SOL     OW12964   3.576   6.679   6.457
 4022SOL    HW112965   3.577   6.698   6.359
 4022SOL    HW212966   3.616   6.589   6.473
 4023SOL     OW12967   0.202   0.455   5.435
 4023SOL    HW112968   0.216   0.436   5.532
 4023SOL    HW212969   0.213   0.370   5.383
 4024SOL     OW12970   2.436   4.564   4.336
 4024SOL    HW112971   2.436   4.503   4.256
 4024SOL    HW212972   2.342   4.580   4.366
 4025SOL     OW12973   0.801   6.299   4.128
 4025SOL    HW112974   0.831   6.305   4.033
 4025SOL    HW212975   0.778   6.391   4.161
 4026SOL     OW12976   5.691   6.858   4.101
 4026SOL    HW112977   5.632   6.913   4.161
 4026SOL    HW212978   5.637   6.818   4.027
 4027SOL     OW12979   2.338   2.676   0.401
 4027SOL    HW112980   2.431   2.644   0.421
 4027SOL    HW212981   2.320   2.760   0.452
 4028SOL     OW12982   4.410   1.632   3.903
 4028SOL    HW112983   4.434   1.546   3.950
 4028SOL    HW212984   4.395   1.613   3.806
 4029SOL     OW12985   2.916   4.263   5.586
 4029SOL    HW112986   2.908   4.342   5.525
 4029SOL    HW212987   2.998   4.274   5.643
 4030SOL     OW12988   6.838   0.889   2.059
 4030SOL    HW112989   6.809   0.927   1.972
 4030SOL    HW212990   6.811   0.793   2.065
 4031SOL     OW12991   5.454   5.806   3.546
 4031SOL    HW112992   5.392   5.869   3.592
 4031SOL    HW212993   5.515   5.858   3.486
 4032SOL     OW12994   6.941   6.873   1.887
 4032SOL    HW112995   7.002   6.831   1.955
 4032SOL    HW212996   6.907   6.960   1.922
 4033SOL     OW12997   2.219   3.165   1.410
 4033SOL    HW112998   2.197   3.203   1.320
 4033SOL    HW212999   2.180   3.225   1.481
 4034SOL     OW13000   5.672   1.644   5.093
 4034SOL    HW113001   5.673   1.593   5.179
 4034SOL    HW213002   5.764   1.647   5.055
 4035SOL     OW13003   6.478   2.062   1.352
 4035SOL    HW113004   6.499   2.084   1.256
 4035SOL    HW213005   6.392   2.011   1.356
 4036SOL     OW13006   3.871   5.057   2.417
 4036SOL    HW113007   3.941   5.108   2.366
 4036SOL    HW213008   3.804   5.019   2.352
 4037SOL     OW13009   2.157   1.702   0.048
 4037SOL    HW113010   2.102   1.754   7.004
 4037SOL    HW213011   2.215   1.765   0.100
 4038SOL     OW13012   4.282   2.791   1.656
 4038SOL    HW113013   4.298   2.885   1.684
 4038SOL    HW213014   4.192   2.784   1.612
 4039SOL     OW13015   5.733   5.545   1.548
 4039SOL    HW113016   5.756   5.456   1.589
 4039SOL    HW213017   5.683   5.600   1.615
 4040SOL     OW13018   3.260   6.691   4.973
 4040SOL    HW113019   3.194   6.725   5.039
 4040SOL    HW213020   3.349   6.735   4.989
 4041SOL     OW13021   0.639   5.161   0.946
 4041SOL    HW113022   0.647   5.131   0.851
 4041SOL    HW213023   0.729   5.185   0.981
 4042SOL     OW13024   5.624   5.946   4.352
 4042SOL    HW113025   5.683   5.966   4.274
 4042SOL    HW213026   5.607   5.848   4.357
 4043SOL     OW13027   6.902   2.581   5.414
 4043SOL    HW113028   6.805   2.601   5.398
 4043SOL    HW213029   6.947   2.662   5.451
 4044SOL     OW13030   4.420   6.793   3.703
 4044SOL    HW113031   4.436   6.803   3.605
 4044SOL    HW213032   4.362   6.868   3.735
 4045SOL     OW13033   4.232   5.776   5.692
 4045SOL    HW113034   4.197   5.860   5.653
 4045SOL    HW213035   4.215   5.700   5.630
 4046SOL     OW13036   1.511   1.651   3.874
 4046SOL    HW113037   1.537   1.645   3.777
 4046SOL    HW213038   1.479   1.744   3.894
 4047SOL     OW13039   1.996   2.364   0.274
 4047SOL    HW113040   1.929   2.308   0.226
 4047SOL    HW213041   1.979   2.460   0.256
 4048SOL     OW13042   5.290   1.752   1.823
 4048SOL    HW113043   5.215   1.705   1.777
 4048SOL    HW213044   5.370   1.693   1.828
 4049SOL     OW13045   5.363   5.094   6.422
 4049SOL    HW113046   5.355   5.158   6.346
 4049SOL    HW213047   5.458   5.086   6.451
 4050SOL     OW13048   0.936   6.731   1.624
 4050SOL    HW113049   0.998   6.726   1.702
 4050SOL    HW213050   0.989   6.727   1.539
 4051SOL     OW13051   3.586   1.672   6.729
 4051SOL    HW113052   3.681   1.688   6.758
 4051SOL    HW213053   3.539   1.620   6.799
 4052SOL     OW13054   6.700   1.263   2.135
 4052SOL    HW113055   6.753   1.346   2.146
 4052SOL    HW213056   6.754   1.184   2.165
 4053SOL     OW13057   3.038   5.764   3.682
 4053SOL    HW113058   3.075   5.733   3.594
 4053SOL    HW213059   3.103   5.744   3.755
 4054SOL     OW13060   5.776   3.934   1.298
 4054SOL    HW113061   5.785   3.860   1.364
 4054SOL    HW213062   5.693   3.921   1.245
 4055SOL     OW13063   2.753   3.147   0.036
 4055SOL    HW113064   2.766   3.094   6.974
 4055SOL    HW213065   2.843   3.165   0.078
 4056SOL     OW13066   5.156   3.837   0.906
 4056SOL    HW113067   5.149   3.822   0.807
 4056SOL    HW213068   5.097   3.913   0.932
 4057SOL     OW13069   6.807   2.462   1.181
 4057SOL    HW113070   6.797   2.416   1.093
 4057SOL    HW213071   6.761   2.408   1.252
 4058SOL     OW13072   2.020   7.002   5.146
 4058SOL    HW113073   1.945   0.007   5.086
 4058SOL    HW213074   2.059   0.063   5.188
 4059SOL     OW13075   0.550   1.662   2.800
 4059SOL    HW113076   0.632   1.604   2.809
 4059SOL    HW213077   0.468   1.606   2.814
 4060SOL     OW13078   5.468   5.681   4.807
 4060SOL    HW113079   5.389   5.738   4.785
 4060SOL    HW213080   5.507   5.711   4.894
 4061SOL     OW13081   2.431   4.522   2.393
 4061SOL    HW113082   2.409   4.425   2.406
 4061SOL    HW213083   2.432   4.568   2.481
 4062SOL     OW13084   2.311   1.408   1.794
 4062SOL    HW113085   2.249   1.446   1.862
 4062SOL    HW213086   2.398   1.386   1.836
 4063SOL     OW13087   6.025   6.355   6.994
 4063SOL    HW113088   6.107   6.373   0.026
 4063SOL    HW213089   6.007   6.257   6.992
 4064SOL     OW13090   2.208   0.219   3.930
 4064SOL    HW113091   2.299   0.257   3.910
 4064SOL    HW213092   2.210   0.120   3.917
 4065SOL     OW13093   1.533   6.740   1.529
 4065SOL    HW113094   1.541   6.837   1.549
 4065SOL    HW213095   1.515   6.728   1.431
 4066SOL     OW13096   6.000   4.868   3.585
 4066SOL    HW113097   5.918   4.911   3.545
 4066SOL    HW213098   6.070   4.938   3.599
 4067SOL     OW13099   6.400   3.147   2.747
 4067SOL    HW113100   6.401   3.190   2.837
 4067SOL    HW213101   6.342   3.201   2.685
 4068SOL     OW13102   1.696   1.488   4.448
 4068SOL    HW113103   1.695   1.474   4.547
 4068SOL    HW213104   1.605   1.518   4.419
 4069SOL     OW13105   2.980   5.356   6.560
 4069SOL    HW113106   2.933   5.415   6.625
 4069SOL    HW213107   3.078   5.377   6.560
 4070SOL     OW13108   0.952   3.526   2.035
 4070SOL    HW113109   0.889   3.449   2.028
 4070SOL    HW213110   1.015   3.524   1.957
 4071SOL     OW13111   1.287   1.038   5.327
 4071SOL    HW113112   1.343   1.042   5.410
 4071SOL    HW213113   1.259   1.131   5.302
 4072SOL     OW13114   0.318   5.742   4.303
 4072SOL    HW113115   0.353   5.802   4.232
 4072SOL    HW213116   0.279   5.797   4.377
 4073SOL     OW13117   2.948   6.060   6.112
 4073SOL    HW113118   2.971   5.965   6.133
 4073SOL    HW213119   3.032   6.114   6.108
 4074SOL     OW13120   0.143   3.832   2.351
 4074SOL    HW113121   0.217   3.896   2.371
 4074SOL    HW213122   0.079   3.830   2.428
 4075SOL     OW13123   4.138   2.178   1.885
 4075SOL    HW113124   4.109   2.100   1.941
 4075SOL    HW213125   4.199   2.237   1.939
 4076SOL     OW13126   2.830   2.482   5.712
 4076SOL    HW113127   2.757   2.472   5.779
 4076SOL    HW213128   2.885   2.563   5.733
 4077SOL     OW13129   3.164   1.308   6.895
 4077SOL    HW113130   3.166   1.389   6.837
 4077SOL    HW213131   3.208   1.232   6.847
 4078SOL     OW13132   0.597   5.689   1.181
 4078SOL    HW113133   0.628   5.784   1.180
 4078SOL    HW213134   0.554   5.670   1.270
 4079SOL     OW13135   1.583   0.572   3.660
 4079SOL    HW113136   1.539   0.549   3.573
 4079SOL    HW213137   1.518   0.622   3.718
 4080SOL     OW13138   4.014   4.502   6.135
 4080SOL    HW113139   3.974   4.587   6.103
 4080SOL    HW213140   4.077   4.467   6.066
 4081SOL     OW13141   1.957   2.795   4.769
 4081SOL    HW113142   2.045   2.749   4.775
 4081SOL    HW213143   1.898   2.766   4.844
 4082SOL     OW13144   1.093   3.615   0.713
 4082SOL    HW113145   1.058   3.589   0.622
 4082SOL    HW213146   1.137   3.704   0.706
 4083SOL     OW13147   6.970   4.497   1.987
 4083SOL    HW113148   6.918   4.430   1.935
 4083SOL    HW213149   6.907   4.554   2.040
 4084SOL     OW13150   5.372   2.193   3.430
 4084SOL    HW113151   5.371   2.201   3.330
 4084SOL    HW213152   5.375   2.285   3.470
 4085SOL     OW13153   2.714   5.668   1.533
 4085SOL    HW113154   2.775   5.731   1.485
 4085SOL    HW213155   2.679   5.600   1.468
 4086SOL     OW13156   0.991   5.595   1.674
 4086SOL    HW113157   0.938   5.638   1.600
 4086SOL    HW213158   0.943   5.513   1.706
 4087SOL     OW13159   1.440   1.556   3.251
 4087SOL    HW113160   1.457   1.514   3.340
 4087SOL    HW213161   1.507   1.628   3.235
 4088SOL     OW13162   6.543   0.981   6.587
 4088SOL    HW113163   6.466   0.958   6.528
 4088SOL    HW213164   6.602   0.901   6.598
 4089SOL     OW13165   6.159   5.576   4.273
 4089SOL    HW113166   6.211   5.565   4.358
 4089SOL    HW213167   6.222   5.592   4.197
 4090SOL     OW13168   1.753   5.297   5.224
 4090SOL    HW113169   1.704   5.284   5.310
 4090SOL    HW213170   1.768   5.209   5.180
 4091SOL     OW13171   6.664   6.219   7.015
 4091SOL    HW113172   6.627   6.127   0.008
 4091SOL    HW213173   6.589   6.283   6.998
 4092SOL     OW13174   6.473   2.532   5.280
 4092SOL    HW113175   6.386   2.576   5.301
 4092SOL    HW213176   6.548   2.593   5.304
 4093SOL     OW13177   4.814   6.331   2.239
 4093SOL    HW113178   4.735   6.269   2.232
 4093SOL    HW213179   4.784   6.416   2.282
 4094SOL     OW13180   2.051   5.380   5.512
 4094SOL    HW113181   1.965   5.410   5.553
 4094SOL    HW213182   2.087   5.453   5.454
 4095SOL     OW13183   0.490   3.808   0.281
 4095SOL    HW113184   0.583   3.815   0.315
 4095SOL    HW213185   0.484   3.851   0.191
 4096SOL     OW13186   4.644   6.190   5.646
 4096SOL    HW113187   4.645   6.277   5.597
 4096SOL    HW213188   4.610   6.118   5.585
 4097SOL     OW13189   4.103   4.626   5.284
 4097SOL    HW113190   4.170   4.566   5.241
 4097SOL    HW213191   4.057   4.577   5.358
 4098SOL     OW13192   0.088   2.346   2.259
 4098SOL    HW113193   0.139   2.430   2.281
 4098SOL    HW213194   7.013   2.359   2.281
 4099SOL     OW13195   3.107   5.325   1.591
 4099SOL    HW113196   3.052   5.249   1.556
 4099SOL    HW213197   3.144   5.378   1.515
 4100SOL     OW13198   6.913   6.828   4.878
 4100SOL    HW113199   6.952   6.767   4.808
 4100SOL    HW213200   6.984   6.853   4.943
 4101SOL     OW13201   5.886   1.182   0.181
 4101SOL    HW113202   5.941   1.257   0.143
 4101SOL    HW213203   5.947   1.111   0.218
 4102SOL     OW13204   6.862   1.168   0.862
 4102SOL    HW113205   6.839   1.248   0.917
 4102SOL    HW213206   6.802   1.092   0.886
 4103SOL     OW13207   0.183   0.239   0.405
 4103SOL    HW113208   0.253   0.182   0.361
 4103SOL    HW213209   0.165   0.319   0.348
 4104SOL     OW13210   0.676   4.712   2.925
 4104SOL    HW113211   0.700   4.800   2.882
 4104SOL    HW213212   0.727   4.702   3.011
 4105SOL     OW13213   4.941   6.862   1.353
 4105SOL    HW113214   4.983   6.952   1.338
 4105SOL    HW213215   5.012   6.795   1.375
 4106SOL     OW13216   6.478   2.910   2.988
 4106SOL    HW113217   6.385   2.875   3.002
 4106SOL    HW213218   6.498   2.913   2.891
 4107SOL     OW13219   1.185   5.814   1.012
 4107SOL    HW113220   1.102   5.777   1.054
 4107SOL    HW213221   1.265   5.785   1.064
 4108SOL     OW13222   6.488   3.857   5.729
 4108SOL    HW113223   6.488   3.758   5.712
 4108SOL    HW213224   6.513   3.874   5.825
 4109SOL     OW13225   6.174   0.125   4.903
 4109SOL    HW113226   6.237   0.191   4.942
 4109SOL    HW213227   6.224   0.045   4.871
 4110SOL     OW13228   3.960   3.247   5.843
 4110SOL    HW113229   4.045   3.203   5.815
 4110SOL    HW213230   3.918   3.293   5.764
 4111SOL     OW13231   4.704   3.191   6.796
 4111SOL    HW113232   4.632   3.122   6.800
 4111SOL    HW213233   4.677   3.271   6.849
 4112SOL     OW13234   4.971   6.121   4.293
 4112SOL    HW113235   5.039   6.078   4.352
 4112SOL    HW213236   5.010   6.204   4.253
 4113SOL     OW13237   4.897   5.992   4.690
 4113SOL    HW113238   4.814   5.949   4.728
 4113SOL    HW213239   4.940   6.049   4.760
 4114SOL     OW13240   3.363   2.127   4.111
 4114SOL    HW113241   3.458   2.156   4.116
 4114SOL    HW213242   3.339   2.108   4.016
 4115SOL     OW13243   3.460   4.980   1.873
 4115SOL    HW113244   3.540   4.928   1.902
 4115SOL    HW213245   3.393   4.982   1.948
 4116SOL     OW13246   3.270   1.405   2.337
 4116SOL    HW113247   3.351   1.444   2.380
 4116SOL    HW213248   3.229   1.338   2.399
 4117SOL     OW13249   1.646   4.236   2.555
 4117SOL    HW113250   1.705   4.316   2.544
 4117SOL    HW213251   1.693   4.167   2.611
 4118SOL     OW13252   3.560   6.776   0.027
 4118SOL    HW113253   3.559   6.861   6.996
 4118SOL    HW213254   3.618   6.709   7.002
 4119SOL     OW13255   2.856   2.047   3.718
 4119SOL    HW113256   2.937   2.053   3.661
 4119SOL    HW213257   2.793   1.979   3.681
 4120SOL     OW13258   3.462   0.469   6.760
 4120SOL    HW113259   3.457   0.376   6.796
 4120SOL    HW213260   3.370   0.501   6.738
 4121SOL     OW13261   5.943   0.953   4.352
 4121SOL    HW113262   6.015   0.885   4.362
 4121SOL    HW213263   5.934   1.005   4.437
 4122SOL     OW13264   0.994   5.781   4.824
 4122SOL    HW113265   1.042   5.786   4.912
 4122SOL    HW213266   0.991   5.686   4.793
 4123SOL     OW13267   4.401   5.067   5.644
 4123SOL    HW113268   4.352   5.030   5.723
 4123SOL    HW213269   4.335   5.106   5.579
 4124SOL     OW13270   5.997   5.523   6.920
 4124SOL    HW113271   5.995   5.589   6.995
 4124SOL    HW213272   6.079   5.467   6.926
 4125SOL     OW13273   4.878   1.480   2.423
 4125SOL    HW113274   4.831   1.568   2.432
 4125SOL    HW213275   4.924   1.476   2.335
 4126SOL     OW13276   1.049   3.901   4.341
 4126SOL    HW113277   1.029   3.974   4.407
 4126SOL    HW213278   0.995   3.916   4.258
 4127SOL     OW13279   4.709   5.125   4.853
 4127SOL    HW113280   4.713   5.088   4.760
 4127SOL    HW213281   4.615   5.118   4.888
 4128SOL     OW13282   1.267   2.632   1.716
 4128SOL    HW113283   1.256   2.566   1.791
 4128SOL    HW213284   1.359   2.670   1.718
 4129SOL     OW13285   3.714   1.097   6.793
 4129SOL    HW113286   3.625   1.140   6.808
 4129SOL    HW213287   3.725   1.021   6.857
 4130SOL     OW13288   6.563   2.640   6.736
 4130SOL    HW113289   6.610   2.562   6.694
 4130SOL    HW213290   6.519   2.694   6.665
 4131SOL     OW13291   1.151   0.272   3.547
 4131SOL    HW113292   1.203   0.230   3.621
 4131SOL    HW213293   1.104   0.200   3.494
 4132SOL     OW13294   5.007   4.725   3.404
 4132SOL    HW113295   5.004   4.626   3.419
 4132SOL    HW213296   4.955   4.747   3.321
 4133SOL     OW13297   2.954   6.017   0.712
 4133SOL    HW113298   2.901   6.078   0.772
 4133SOL    HW213299   2.905   6.005   0.626
 4134SOL     OW13300   2.673   3.425   1.051
 4134SOL    HW113301   2.741   3.384   1.112
 4134SOL    HW213302   2.654   3.362   0.976
 4135SOL     OW13303   0.854   1.418   2.737
 4135SOL    HW113304   0.913   1.347   2.773
 4135SOL    HW213305   0.758   1.389   2.742
 4136SOL     OW13306   1.313   1.941   3.045
 4136SOL    HW113307   1.253   2.020   3.058
 4136SOL    HW213308   1.305   1.909   2.951
 4137SOL     OW13309   0.799   4.386   0.746
 4137SOL    HW113310   0.769   4.300   0.788
 4137SOL    HW213311   0.880   4.420   0.794
 4138SOL     OW13312   4.553   5.478   3.342
 4138SOL    HW113313   4.525   5.469   3.438
 4138SOL    HW213314   4.472   5.481   3.284
 4139SOL     OW13315   1.984   1.747   5.500
 4139SOL    HW113316   1.909   1.710   5.445
 4139SOL    HW213317   1.972   1.720   5.595
 4140SOL     OW13318   2.900   0.402   5.096
 4140SOL    HW113319   2.996   0.425   5.110
 4140SOL    HW213320   2.849   0.485   5.073
 4141SOL     OW13321   6.283   5.951   1.093
 4141SOL    HW113322   6.252   5.925   1.184
 4141SOL    HW213323   6.211   6.003   1.046
 4142SOL     OW13324   6.748   5.311   1.217
 4142SOL    HW113325   6.666   5.359   1.185
 4142SOL    HW213326   6.723   5.219   1.248
 4143SOL     OW13327   5.973   1.828   0.992
 4143SOL    HW113328   5.882   1.867   1.002
 4143SOL    HW213329   6.008   1.800   1.081
 4144SOL     OW13330   5.058   3.531   6.707
 4144SOL    HW113331   5.000   3.593   6.759
 4144SOL    HW213332   5.032   3.534   6.611
 4145SOL     OW13333   6.144   6.438   1.036
 4145SOL    HW113334   6.145   6.349   0.991
 4145SOL    HW213335   6.070   6.494   0.999
 4146SOL     OW13336   6.478   0.465   4.720
 4146SOL    HW113337   6.536   0.509   4.789
 4146SOL    HW213338   6.415   0.533   4.681
 4147SOL     OW13339   4.822   4.216   5.857
 4147SOL    HW113340   4.827   4.286   5.786
 4147SOL    HW213341   4.791   4.130   5.817
 4148SOL     OW13342   1.167   0.531   5.133
 4148SOL    HW113343   1.198   0.500   5.222
 4148SOL    HW213344   1.080   0.487   5.110
 4149SOL     OW13345   0.230   2.924   0.887
 4149SOL    HW113346   0.222   2.906   0.789
 4149SOL    HW213347   0.230   2.837   0.937
 4150SOL     OW13348   0.789   0.809   6.381
 4150SOL    HW113349   0.724   0.736   6.360
 4150SOL    HW213350   0.868   0.803   6.320
 4151SOL     OW13351   2.561   5.946   5.636
 4151SOL    HW113352   2.490   5.934   5.566
 4151SOL    HW213353   2.648   5.915   5.600
 4152SOL     OW13354   4.498   6.012   1.813
 4152SOL    HW113355   4.544   6.097   1.787
 4152SOL    HW213356   4.406   6.033   1.846
 4153SOL     OW13357   4.309   5.606   6.783
 4153SOL    HW113358   4.215   5.578   6.806
 4153SOL    HW213359   4.355   5.532   6.734
 4154SOL     OW13360   6.957   5.326   3.943
 4154SOL    HW113361   6.877   5.300   3.996
 4154SOL    HW213362   6.942   5.304   3.846
 4155SOL     OW13363   0.134   1.074   2.244
 4155SOL    HW113364   0.123   1.106   2.338
 4155SOL    HW213365   0.052   1.096   2.192
 4156SOL     OW13366   5.403   6.163   5.171
 4156SOL    HW113367   5.476   6.115   5.123
 4156SOL    HW213368   5.375   6.110   5.252
 4157SOL     OW13369   5.237   5.083   4.786
 4157SOL    HW113370   5.323   5.041   4.758
 4157SOL    HW213371   5.185   5.018   4.843
 4158SOL     OW13372   1.461   4.810   2.734
 4158SOL    HW113373   1.407   4.729   2.757
 4158SOL    HW213374   1.558   4.784   2.730
 4159SOL     OW13375   2.067   3.743   4.260
 4159SOL    HW113376   2.113   3.682   4.324
 4159SOL    HW213377   2.119   3.748   4.175
 4160SOL     OW13378   6.201   1.249   0.798
 4160SOL    HW113379   6.249   1.162   0.786
 4160SOL    HW213380   6.215   1.307   0.718
 4161SOL     OW13381   0.847   1.079   0.642
 4161SOL    HW113382   0.917   1.032   0.696
 4161SOL    HW213383   0.839   1.035   0.553
 4162SOL     OW13384   6.232   6.773   6.710
 4162SOL    HW113385   6.300   6.751   6.640
 4162SOL    HW213386   6.238   6.705   6.784
 4163SOL     OW13387   5.762   6.479   3.602
 4163SOL    HW113388   5.782   6.416   3.677
 4163SOL    HW213389   5.839   6.540   3.588
 4164SOL     OW13390   1.814   6.600   6.409
 4164SOL    HW113391   1.746   6.674   6.413
 4164SOL    HW213392   1.795   6.533   6.480
 4165SOL     OW13393   4.016   6.793   0.007
 4165SOL    HW113394   4.004   6.760   0.101
 4165SOL    HW213395   3.975   6.728   6.965
 4166SOL     OW13396   6.719   4.181   1.443
 4166SOL    HW113397   6.658   4.245   1.490
 4166SOL    HW213398   6.715   4.092   1.489
 4167SOL     OW13399   1.203   4.285   0.886
 4167SOL    HW113400   1.292   4.247   0.863
 4167SOL    HW213401   1.135   4.212   0.888
 4168SOL     OW13402   6.653   4.899   0.730
 4168SOL    HW113403   6.592   4.976   0.745
 4168SOL    HW213404   6.694   4.906   0.639
 4169SOL     OW13405   5.686   3.933   3.734
 4169SOL    HW113406   5.600   3.985   3.732
 4169SOL    HW213407   5.704   3.901   3.827
 4170SOL     OW13408   4.494   4.219   5.449
 4170SOL    HW113409   4.415   4.256   5.402
 4170SOL    HW213410   4.567   4.201   5.383
 4171SOL     OW13411   6.474   5.583   0.885
 4171SOL    HW113412   6.398   5.525   0.857
 4171SOL    HW213413   6.457   5.677   0.856
 4172SOL     OW13414   0.308   2.458   6.081
 4172SOL    HW113415   0.334   2.527   6.149
 4172SOL    HW213416   0.241   2.395   6.121
 4173SOL     OW13417   5.134   3.588   5.902
 4173SOL    HW113418   5.066   3.603   5.830
 4173SOL    HW213419   5.105   3.635   5.986
 4174SOL     OW13420   5.510   0.759   3.352
 4174SOL    HW113421   5.420   0.804   3.359
 4174SOL    HW213422   5.567   0.808   3.286
 4175SOL     OW13423   2.154   6.175   4.500
 4175SOL    HW113424   2.168   6.248   4.433
 4175SOL    HW213425   2.160   6.212   4.592
 4176SOL     OW13426   2.905   6.820   1.765
 4176SOL    HW113427   2.917   6.903   1.819
 4176SOL    HW213428   2.826   6.769   1.799
 4177SOL     OW13429   6.192   4.349   4.816
 4177SOL    HW113430   6.236   4.260   4.828
 4177SOL    HW213431   6.131   4.345   4.737
 4178SOL     OW13432   4.681   0.218   4.709
 4178SOL    HW113433   4.698   0.274   4.790
 4178SOL    HW213434   4.715   0.265   4.628
 4179SOL     OW13435   5.392   2.461   3.545
 4179SOL    HW113436   5.384   2.512   3.460
 4179SOL    HW213437   5.421   2.523   3.618
 4180SOL     OW13438   4.898   4.174   1.757
 4180SOL    HW113439   4.983   4.130   1.787
 4180SOL    HW213440   4.822   4.111   1.770
 4181SOL     OW13441   2.386   1.582   0.847
 4181SOL    HW113442   2.403   1.658   0.910
 4181SOL    HW213443   2.290   1.581   0.820
 4182SOL     OW13444   0.317   0.012   3.156
 4182SOL    HW113445   0.221   0.015   3.131
 4182SOL    HW213446   0.369   0.074   3.097
 4183SOL     OW13447   4.432   0.914   6.925
 4183SOL    HW113448   4.478   1.000   6.900
 4183SOL    HW213449   4.472   0.838   6.874
 4184SOL     OW13450   4.558   4.814   1.517
 4184SOL    HW113451   4.492   4.740   1.510
 4184SOL    HW213452   4.644   4.778   1.555
 4185SOL     OW13453   0.106   5.680   2.254
 4185SOL    HW113454   0.180   5.712   2.195
 4185SOL    HW213455   0.110   5.727   2.342
 4186SOL     OW13456   2.202   5.502   1.019
 4186SOL    HW113457   2.241   5.419   1.059
 4186SOL    HW213458   2.131   5.537   1.079
 4187SOL     OW13459   3.564   4.221   5.693
 4187SOL    HW113460   3.490   4.206   5.628
 4187SOL    HW213461   3.629   4.145   5.687
 4188SOL     OW13462   4.548   6.811   4.524
 4188SOL    HW113463   4.462   6.801   4.575
 4188SOL    HW213464   4.556   6.737   4.458
 4189SOL     OW13465   3.622   0.605   5.559
 4189SOL    HW113466   3.701   0.649   5.603
 4189SOL    HW213467   3.539   0.654   5.583
 4190SOL     OW13468   0.739   0.575   0.496
 4190SOL    HW113469   0.721   0.642   0.424
 4190SOL    HW213470   0.822   0.524   0.474
 4191SOL     OW13471   5.274   3.597   3.090
 4191SOL    HW113472   5.287   3.581   2.992
 4191SOL    HW213473   5.299   3.515   3.141
 4192SOL     OW13474   0.690   1.104   4.310
 4192SOL    HW113475   0.639   1.029   4.268
 4192SOL    HW213476   0.785   1.076   4.324
 4193SOL     OW13477   1.543   0.145   2.933
 4193SOL    HW113478   1.480   0.102   2.868
 4193SOL    HW213479   1.593   0.219   2.887
 4194SOL     OW13480   6.010   0.210   5.166
 4194SOL    HW113481   5.967   0.176   5.083
 4194SOL    HW213482   5.939   0.239   5.231
 4195SOL     OW13483   4.045   0.148   2.586
 4195SOL    HW113484   4.091   0.093   2.656
 4195SOL    HW213485   4.098   0.144   2.501
 4196SOL     OW13486   5.688   2.332   3.561
 4196SOL    HW113487   5.625   2.409   3.553
 4196SOL    HW213488   5.767   2.359   3.616
 4197SOL     OW13489   5.015   5.811   5.272
 4197SOL    HW113490   5.075   5.868   5.215
 4197SOL    HW213491   4.980   5.736   5.218
 4198SOL     OW13492   5.500   3.010   6.388
 4198SOL    HW113493   5.445   2.968   6.460
 4198SOL    HW213494   5.441   3.031   6.309
 4199SOL     OW13495   2.152   3.221   6.615
 4199SOL    HW113496   2.174   3.155   6.543
 4199SOL    HW213497   2.054   3.240   6.614
 4200SOL     OW13498   2.758   6.063   5.281
 4200SOL    HW113499   2.732   5.968   5.264
 4200SOL    HW213500   2.857   6.069   5.294
 4201SOL     OW13501   6.120   6.375   3.725
 4201SOL    HW113502   6.126   6.410   3.631
 4201SOL    HW213503   6.058   6.297   3.727
 4202SOL     OW13504   4.407   5.710   5.334
 4202SOL    HW113505   4.483   5.670   5.282
 4202SOL    HW213506   4.334   5.642   5.344
 4203SOL     OW13507   5.081   5.391   0.647
 4203SOL    HW113508   5.163   5.392   0.590
 4203SOL    HW213509   5.041   5.482   0.650
 4204SOL     OW13510   3.838   3.026   2.343
 4204SOL    HW113511   3.853   3.074   2.429
 4204SOL    HW213512   3.893   2.942   2.341
 4205SOL     OW13513   3.409   4.896   3.532
 4205SOL    HW113514   3.496   4.886   3.483
 4205SOL    HW213515   3.334   4.872   3.471
 4206SOL     OW13516   6.013   0.722   5.288
 4206SOL    HW113517   6.052   0.803   5.244
 4206SOL    HW213518   5.942   0.683   5.230
 4207SOL     OW13519   1.854   1.265   1.654
 4207SOL    HW113520   1.943   1.228   1.628
 4207SOL    HW213521   1.790   1.191   1.672
 4208SOL     OW13522   0.943   3.448   6.835
 4208SOL    HW113523   0.980   3.424   6.745
 4208SOL    HW213524   0.843   3.455   6.828
 4209SOL     OW13525   0.538   1.494   5.467
 4209SOL    HW113526   0.618   1.497   5.527
 4209SOL    HW213527   0.559   1.538   5.380
 4210SOL     OW13528   3.218   3.368   2.161
 4210SOL    HW113529   3.178   3.283   2.194
 4210SOL    HW213530   3.191   3.444   2.220
 4211SOL     OW13531   3.748   5.160   5.247
 4211SOL    HW113532   3.665   5.110   5.226
 4211SOL    HW213533   3.784   5.132   5.336
 4212SOL     OW13534   6.115   2.731   2.413
 4212SOL    HW113535   6.074   2.821   2.424
 4212SOL    HW213536   6.089   2.693   2.324
 4213SOL     OW13537   2.545   0.671   2.266
 4213SOL    HW113538   2.547   0.757   2.214
 4213SOL    HW213539   2.634   0.626   2.260
 4214SOL     OW13540   1.184   4.017   5.469
 4214SOL    HW113541   1.212   4.110   5.449
 4214SOL    HW213542   1.240   3.981   5.544
 4215SOL     OW13543   6.770   5.980   4.536
 4215SOL    HW113544   6.839   6.051   4.527
 4215SOL    HW213545   6.727   5.964   4.447
 4216SOL     OW13546   1.137   1.394   3.098
 4216SOL    HW113547   1.173   1.478   3.057
 4216SOL    HW213548   1.200   1.318   3.081
 4217SOL     OW13549   6.861   0.322   2.655
 4217SOL    HW113550   6.832   0.282   2.568
 4217SOL    HW213551   6.845   0.256   2.729
 4218SOL     OW13552   5.089   0.621   1.960
 4218SOL    HW113553   5.055   0.633   1.867
 4218SOL    HW213554   5.179   0.579   1.958
 4219SOL     OW13555   2.821   4.994   3.403
 4219SOL    HW113556   2.850   5.067   3.341
 4219SOL    HW213557   2.853   4.906   3.368
 4220SOL     OW13558   5.596   2.830   3.545
 4220SOL    HW113559   5.660   2.778   3.488
 4220SOL    HW213560   5.579   2.780   3.630
 4221SOL     OW13561   6.088   5.716   6.712
 4221SOL    HW113562   6.056   5.649   6.778
 4221SOL    HW213563   6.029   5.715   6.631
 4222SOL     OW13564   6.369   2.455   3.020
 4222SOL    HW113565   6.428   2.378   3.043
 4222SOL    HW213566   6.415   2.541   3.042
 4223SOL     OW13567   3.138   3.241   5.122
 4223SOL    HW113568   3.160   3.270   5.215
 4223SOL    HW213569   3.150   3.318   5.060
 4224SOL     OW13570   4.823   2.944   3.371
 4224SOL    HW113571   4.747   2.882   3.392
 4224SOL    HW213572   4.819   3.023   3.432
 4225SOL     OW13573   4.808   0.562   5.657
 4225SOL    HW113574   4.770   0.476   5.690
 4225SOL    HW213575   4.847   0.548   5.565
 4226SOL     OW13576   0.616   0.241   3.071
 4226SOL    HW113577   0.540   0.205   3.017
 4226SOL    HW213578   0.602   0.339   3.088
 4227SOL     OW13579   3.562   5.282   6.492
 4227SOL    HW113580   3.549   5.315   6.399
 4227SOL    HW213581   3.515   5.195   6.504
 4228SOL     OW13582   0.431   3.841   3.521
 4228SOL    HW113583   0.414   3.901   3.443
 4228SOL    HW213584   0.529   3.821   3.528
 4229SOL     OW13585   4.817   5.333   5.755
 4229SOL    HW113586   4.750   5.320   5.828
 4229SOL    HW213587   4.778   5.393   5.685
 4230SOL     OW13588   2.595   0.678   4.143
 4230SOL    HW113589   2.542   0.701   4.225
 4230SOL    HW213590   2.532   0.660   4.067
 4231SOL     OW13591   5.299   5.877   4.743
 4231SOL    HW113592   5.315   5.849   4.649
 4231SOL    HW213593   5.247   5.962   4.744
 4232SOL     OW13594   0.334   4.398   1.513
 4232SOL    HW113595   0.301   4.373   1.422
 4232SOL    HW213596   0.346   4.316   1.568
 4233SOL     OW13597   6.806   0.818   7.018
 4233SOL    HW113598   6.804   0.734   0.051
 4233SOL    HW213599   6.715   0.835   6.978
 4234SOL     OW13600   1.423   6.993   5.737
 4234SOL    HW113601   1.512   6.951   5.720
 4234SOL    HW213602   1.377   7.010   5.649
 4235SOL     OW13603   5.153   3.836   5.439
 4235SOL    HW113604   5.142   3.739   5.463
 4235SOL    HW213605   5.124   3.850   5.345
 4236SOL     OW13606   0.404   3.545   2.891
 4236SOL    HW113607   0.504   3.544   2.904
 4236SOL    HW213608   0.364   3.465   2.936
 4237SOL     OW13609   6.460   5.138   3.637
 4237SOL    HW113610   6.419   5.067   3.695
 4237SOL    HW213611   6.389   5.202   3.606
 4238SOL     OW13612   3.613   4.937   2.836
 4238SOL    HW113613   3.678   4.891   2.896
 4238SOL    HW213614   3.628   4.907   2.742
 4239SOL     OW13615   5.815   1.355   3.819
 4239SOL    HW113616   5.791   1.359   3.916
 4239SOL    HW213617   5.790   1.266   3.782
 4240SOL     OW13618   2.175   6.947   0.005
 4240SOL    HW113619   2.128   7.003   6.958
 4240SOL    HW213620   2.270   6.931   6.997
 4241SOL     OW13621   5.965   1.263   1.280
 4241SOL    HW113622   6.022   1.187   1.311
 4241SOL    HW213623   5.954   1.259   1.181
 4242SOL     OW13624   1.922   0.621   3.453
 4242SOL    HW113625   1.992   0.646   3.519
 4242SOL    HW213626   1.958   0.634   3.360
 4243SOL     OW13627   0.766   3.747   3.939
 4243SOL    HW113628   0.852   3.726   3.892
 4243SOL    HW213629   0.695   3.765   3.870
 4244SOL     OW13630   5.195   5.009   0.874
 4244SOL    HW113631   5.113   5.034   0.926
 4244SOL    HW213632   5.201   5.065   0.791
 4245SOL     OW13633   6.206   1.353   6.200
 4245SOL    HW113634   6.108   1.365   6.183
 4245SOL    HW213635   6.255   1.435   6.173
 4246SOL     OW13636   5.707   2.606   3.776
 4246SOL    HW113637   5.737   2.558   3.858
 4246SOL    HW213638   5.607   2.601   3.769
 4247SOL     OW13639   2.078   4.972   3.511
 4247SOL    HW113640   1.980   4.995   3.513
 4247SOL    HW213641   2.130   5.044   3.555
 4248SOL     OW13642   1.341   1.007   3.528
 4248SOL    HW113643   1.247   0.981   3.549
 4248SOL    HW213644   1.404   0.947   3.577
 4249SOL     OW13645   5.327   1.850   3.261
 4249SOL    HW113646   5.257   1.915   3.288
 4249SOL    HW213647   5.323   1.770   3.322
 4250SOL     OW13648   6.329   6.160   4.587
 4250SOL    HW113649   6.265   6.203   4.650
 4250SOL    HW213650   6.320   6.060   4.592
 4251SOL     OW13651   6.575   3.228   1.146
 4251SOL    HW113652   6.619   3.179   1.221
 4251SOL    HW213653   6.476   3.232   1.162
 4252SOL     OW13654   4.981   6.228   6.238
 4252SOL    HW113655   5.031   6.263   6.158
 4252SOL    HW213656   4.987   6.295   6.312
 4253SOL     OW13657   3.347   6.789   1.553
 4253SOL    HW113658   3.252   6.781   1.582
 4253SOL    HW213659   3.392   6.700   1.563
 4254SOL     OW13660   2.390   4.002   1.791
 4254SOL    HW113661   2.425   4.095   1.799
 4254SOL    HW213662   2.297   3.998   1.827
 4255SOL     OW13663   0.120   4.168   3.754
 4255SOL    HW113664   0.080   4.145   3.665
 4255SOL    HW213665   0.212   4.131   3.759
 4256SOL     OW13666   0.833   5.858   0.961
 4256SOL    HW113667   0.831   5.938   0.901
 4256SOL    HW213668   0.764   5.792   0.933
 4257SOL     OW13669   4.519   1.355   4.310
 4257SOL    HW113670   4.466   1.426   4.264
 4257SOL    HW213671   4.492   1.351   4.407
 4258SOL     OW13672   3.072   6.078   1.089
 4258SOL    HW113673   3.005   6.144   1.056
 4258SOL    HW213674   3.124   6.041   1.012
 4259SOL     OW13675   1.688   5.991   0.814
 4259SOL    HW113676   1.778   6.017   0.851
 4259SOL    HW213677   1.649   6.069   0.765
 4260SOL     OW13678   5.955   0.830   3.398
 4260SOL    HW113679   5.903   0.746   3.411
 4260SOL    HW213680   5.953   0.884   3.482
 4261SOL     OW13681   1.725   0.345   2.913
 4261SOL    HW113682   1.732   0.421   2.849
 4261SOL    HW213683   1.771   0.370   2.999
 4262SOL     OW13684   0.950   4.276   6.144
 4262SOL    HW113685   0.882   4.339   6.108
 4262SOL    HW213686   1.025   4.266   6.079
 4263SOL     OW13687   2.465   0.821   3.693
 4263SOL    HW113688   2.418   0.811   3.605
 4263SOL    HW213689   2.555   0.863   3.677
 4264SOL     OW13690   6.316   1.733   4.636
 4264SOL    HW113691   6.365   1.808   4.591
 4264SOL    HW213692   6.244   1.771   4.694
 4265SOL     OW13693   3.876   0.846   0.998
 4265SOL    HW113694   3.806   0.899   1.045
 4265SOL    HW213695   3.836   0.804   0.916
 4266SOL     OW13696   2.248   6.360   6.560
 4266SOL    HW113697   2.222   6.354   6.464
 4266SOL    HW213698   2.261   6.268   6.597
 4267SOL     OW13699   2.222   4.061   4.190
 4267SOL    HW113700   2.223   4.059   4.090
 4267SOL    HW213701   2.144   4.008   4.224
 4268SOL     OW13702   1.759   5.550   6.829
 4268SOL    HW113703   1.720   5.512   6.745
 4268SOL    HW213704   1.839   5.496   6.856
 4269SOL     OW13705   2.932   0.641   3.294
 4269SOL    HW113706   2.910   0.631   3.391
 4269SOL    HW213707   2.863   0.594   3.239
 4270SOL     OW13708   3.363   2.892   2.366
 4270SOL    HW113709   3.312   2.811   2.397
 4270SOL    HW213710   3.447   2.901   2.420
 4271SOL     OW13711   7.020   1.171   0.287
 4271SOL    HW113712   7.011   1.078   0.324
 4271SOL    HW213713   6.960   1.233   0.338
 4272SOL     OW13714   6.856   2.713   5.093
 4272SOL    HW113715   6.924   2.778   5.127
 4272SOL    HW213716   6.884   2.620   5.116
 4273SOL     OW13717   4.916   6.390   4.634
 4273SOL    HW113718   4.999   6.402   4.690
 4273SOL    HW213719   4.933   6.427   4.543
 4274SOL     OW13720   1.217   6.924   2.131
 4274SOL    HW113721   1.167   6.934   2.045
 4274SOL    HW213722   1.307   6.967   2.124
 4275SOL     OW13723   6.872   1.800   3.936
 4275SOL    HW113724   6.793   1.792   3.996
 4275SOL    HW213725   6.854   1.869   3.866
 4276SOL     OW13726   3.103   4.929   3.864
 4276SOL    HW113727   3.144   5.010   3.905
 4276SOL    HW213728   3.011   4.915   3.901
 4277SOL     OW13729   0.129   4.236   2.695
 4277SOL    HW113730   0.171   4.228   2.605
 4277SOL    HW213731   0.056   4.168   2.703
 4278SOL     OW13732   0.479   6.703   4.325
 4278SOL    HW113733   0.391   6.657   4.337
 4278SOL    HW213734   0.473   6.797   4.357
 4279SOL     OW13735   2.159   1.179   3.046
 4279SOL    HW113736   2.127   1.095   3.090
 4279SOL    HW213737   2.081   1.234   3.018
 4280SOL     OW13738   6.206   6.819   5.792
 4280SOL    HW113739   6.143   6.807   5.716
 4280SOL    HW213740   6.230   6.916   5.801
 4281SOL     OW13741   5.623   5.195   3.332
 4281SOL    HW113742   5.691   5.121   3.332
 4281SOL    HW213743   5.630   5.246   3.246
 4282SOL     OW13744   3.562   4.450   0.409
 4282SOL    HW113745   3.576   4.431   0.312
 4282SOL    HW213746   3.569   4.364   0.461
 4283SOL     OW13747   3.087   1.356   3.688
 4283SOL    HW113748   3.096   1.315   3.598
 4283SOL    HW213749   3.157   1.425   3.701
 4284SOL     OW13750   4.623   5.377   0.698
 4284SOL    HW113751   4.533   5.420   0.698
 4284SOL    HW213752   4.612   5.278   0.692
 4285SOL     OW13753   2.405   1.301   5.690
 4285SOL    HW113754   2.324   1.243   5.700
 4285SOL    HW213755   2.476   1.270   5.754
 4286SOL     OW13756   5.575   6.765   5.983
 4286SOL    HW113757   5.557   6.774   5.885
 4286SOL    HW213758   5.505   6.815   6.035
 4287SOL     OW13759   4.630   0.996   5.735
 4287SOL    HW113760   4.625   0.975   5.638
 4287SOL    HW213761   4.651   0.912   5.786
 4288SOL     OW13762   1.067   5.374   3.313
 4288SOL    HW113763   1.034   5.393   3.221
 4288SOL    HW213764   1.037   5.447   3.375
 4289SOL     OW13765   0.563   2.224   5.814
 4289SOL    HW113766   0.573   2.263   5.722
 4289SOL    HW213767   0.594   2.129   5.814
 4290SOL     OW13768   1.049   6.370   5.013
 4290SOL    HW113769   0.970   6.312   5.034
 4290SOL    HW213770   1.018   6.463   4.995
 4291SOL     OW13771   4.950   3.984   6.665
 4291SOL    HW113772   4.961   4.080   6.689
 4291SOL    HW213773   4.853   3.959   6.673
 4292SOL     OW13774   6.370   2.669   0.460
 4292SOL    HW113775   6.330   2.583   0.429
 4292SOL    HW213776   6.317   2.746   0.424
 4293SOL     OW13777   3.733   4.736   0.060
 4293SOL    HW113778   3.729   4.636   0.063
 4293SOL    HW213779   3.798   4.769   0.128
 4294SOL     OW13780   1.845   0.998   6.332
 4294SOL    HW113781   1.921   0.940   6.304
 4294SOL    HW213782   1.834   1.073   6.266
 4295SOL     OW13783   5.312   5.823   3.999
 4295SOL    HW113784   5.349   5.748   3.944
 4295SOL    HW213785   5.220   5.846   3.966
 4296SOL     OW13786   3.293   6.929   0.085
 4296SOL    HW113787   3.387   6.897   0.067
 4296SOL    HW213788   3.250   6.868   0.151
 4297SOL     OW13789   6.351   6.860   2.147
 4297SOL    HW113790   6.343   6.807   2.062
 4297SOL    HW213791   6.319   6.804   2.224
 4298SOL     OW13792   3.428   6.146   1.707
 4298SOL    HW113793   3.461   6.082   1.637
 4298SOL    HW213794   3.384   6.094   1.781
 4299SOL     OW13795   1.456   2.821   6.976
 4299SOL    HW113796   1.475   2.822   6.878
 4299SOL    HW213797   1.357   2.812   6.991
 4300SOL     OW13798   2.770   6.867   0.374
 4300SOL    HW113799   2.798   6.784   0.423
 4300SOL    HW213800   2.692   6.845   0.314
 4301SOL     OW13801   4.650   0.232   1.574
 4301SOL    HW113802   4.672   0.244   1.671
 4301SOL    HW213803   4.729   0.193   1.527
 4302SOL     OW13804   6.666   0.473   6.369
 4302SOL    HW113805   6.585   0.509   6.414
 4302SOL    HW213806   6.727   0.549   6.345
 4303SOL     OW13807   0.109   4.483   4.149
 4303SOL    HW113808   0.197   4.520   4.120
 4303SOL    HW213809   0.041   4.501   4.077
 4304SOL     OW13810   3.378   3.898   2.417
 4304SOL    HW113811   3.361   3.992   2.447
 4304SOL    HW213812   3.433   3.899   2.334
 4305SOL     OW13813   0.423   6.694   6.007
 4305SOL    HW113814   0.482   6.614   6.020
 4305SOL    HW213815   0.330   6.672   6.037
 4306SOL     OW13816   4.771   4.658   4.556
 4306SOL    HW113817   4.677   4.671   4.526
 4306SOL    HW213818   4.810   4.577   4.512
 4307SOL     OW13819   5.628   3.443   5.173
 4307SOL    HW113820   5.673   3.458   5.261
 4307SOL    HW213821   5.624   3.345   5.155
 4308SOL     OW13822   5.933   5.496   1.230
 4308SOL    HW113823   5.973   5.407   1.253
 4308SOL    HW213824   5.935   5.509   1.131
 4309SOL     OW13825   1.146   1.063   1.037
 4309SOL    HW113826   1.221   1.126   1.017
 4309SOL    HW213827   1.106   1.085   1.126
 4310SOL     OW13828   1.768   2.353   1.220
 4310SOL    HW113829   1.860   2.332   1.253
 4310SOL    HW213830   1.751   2.452   1.228
 4311SOL     OW13831   0.396   6.017   2.682
 4311SOL    HW113832   0.424   6.094   2.625
 4311SOL    HW213833   0.308   6.037   2.726
 4312SOL     OW13834   1.690   5.593   2.831
 4312SOL    HW113835   1.594   5.566   2.835
 4312SOL    HW213836   1.728   5.569   2.742
 4313SOL     OW13837   4.459   1.838   0.240
 4313SOL    HW113838   4.366   1.806   0.228
 4313SOL    HW213839   4.476   1.859   0.336
 4314SOL     OW13840   6.008   1.516   5.047
 4314SOL    HW113841   6.002   1.574   5.128
 4314SOL    HW213842   5.967   1.563   4.969
 4315SOL     OW13843   2.396   0.269   3.740
 4315SOL    HW113844   2.359   0.207   3.672
 4315SOL    HW213845   2.462   0.330   3.698
 4316SOL     OW13846   4.688   0.247   2.267
 4316SOL    HW113847   4.606   0.211   2.221
 4316SOL    HW213848   4.688   0.347   2.263
 4317SOL     OW13849   5.124   1.388   5.912
 4317SOL    HW113850   5.201   1.348   5.961
 4317SOL    HW213851   5.041   1.336   5.933
 4318SOL     OW13852   1.093   1.664   4.827
 4318SOL    HW113853   1.057   1.753   4.799
 4318SOL    HW213854   1.188   1.655   4.795
 4319SOL     OW13855   1.383   2.024   1.054
 4319SOL    HW113856   1.434   2.078   1.121
 4319SOL    HW213857   1.392   2.067   0.964
 4320SOL     OW13858   3.846   5.363   0.841
 4320SOL    HW113859   3.816   5.300   0.770
 4320SOL    HW213860   3.840   5.319   0.931
 4321SOL     OW13861   6.969   4.558   4.643
 4321SOL    HW113862   0.035   4.529   4.681
 4321SOL    HW213863   6.984   4.597   4.552
 4322SOL     OW13864   6.531   2.747   6.474
 4322SOL    HW113865   6.626   2.742   6.443
 4322SOL    HW213866   6.515   2.837   6.515
 4323SOL     OW13867   4.996   4.658   0.216
 4323SOL    HW113868   5.004   4.734   0.281
 4323SOL    HW213869   4.951   4.689   0.133
 4324SOL     OW13870   6.460   4.229   6.058
 4324SOL    HW113871   6.448   4.164   6.133
 4324SOL    HW213872   6.376   4.282   6.047
 4325SOL     OW13873   2.959   1.923   2.116
 4325SOL    HW113874   2.917   1.933   2.206
 4325SOL    HW213875   3.025   1.996   2.100
 4326SOL     OW13876   5.210   4.466   2.519
 4326SOL    HW113877   5.253   4.525   2.587
 4326SOL    HW213878   5.123   4.432   2.553
 4327SOL     OW13879   5.090   6.208   2.248
 4327SOL    HW113880   5.000   6.246   2.269
 4327SOL    HW213881   5.154   6.231   2.321
 4328SOL     OW13882   5.684   4.809   5.685
 4328SOL    HW113883   5.770   4.771   5.650
 4328SOL    HW213884   5.626   4.838   5.609
 4329SOL     OW13885   5.531   2.827   5.431
 4329SOL    HW113886   5.538   2.756   5.361
 4329SOL    HW213887   5.549   2.786   5.521
 4330SOL     OW13888   2.084   6.685   4.491
 4330SOL    HW113889   2.130   6.700   4.579
 4330SOL    HW213890   2.149   6.645   4.427
 4331SOL     OW13891   5.779   1.082   1.559
 4331SOL    HW113892   5.847   1.150   1.533
 4331SOL    HW213893   5.816   1.023   1.631
 4332SOL     OW13894   6.275   2.728   3.065
 4332SOL    HW113895   6.235   2.813   3.099
 4332SOL    HW213896   6.203   2.672   3.024
 4333SOL     OW13897   4.452   1.793   4.712
 4333SOL    HW113898   4.504   1.746   4.640
 4333SOL    HW213899   4.356   1.768   4.705
 4334SOL     OW13900   1.975   2.839   1.936
 4334SOL    HW113901   1.979   2.788   2.022
 4334SOL    HW213902   2.019   2.928   1.949
 4335SOL     OW13903   3.648   2.878   2.203
 4335SOL    HW113904   3.721   2.928   2.250
 4335SOL    HW213905   3.567   2.874   2.262
 4336SOL     OW13906   2.469   5.668   5.704
 4336SOL    HW113907   2.452   5.608   5.625
 4336SOL    HW213908   2.491   5.760   5.671
 4337SOL     OW13909   2.378   4.893   1.616
 4337SOL    HW113910   2.474   4.921   1.620
 4337SOL    HW213911   2.371   4.803   1.574
 4338SOL     OW13912   6.326   6.978   6.110
 4338SOL    HW113913   6.375   0.003   6.035
 4338SOL    HW213914   6.341   6.879   6.103
 4339SOL     OW13915   4.210   2.929   6.411
 4339SOL    HW113916   4.306   2.917   6.386
 4339SOL    HW213917   4.204   2.979   6.497
 4340SOL     OW13918   6.126   3.779   1.193
 4340SOL    HW113919   6.177   3.764   1.109
 4340SOL    HW213920   6.105   3.877   1.203
 4341SOL     OW13921   1.650   5.589   0.984
 4341SOL    HW113922   1.573   5.645   0.953
 4341SOL    HW213923   1.650   5.584   1.083
 4342SOL     OW13924   5.425   3.846   3.084
 4342SOL    HW113925   5.399   3.879   2.993
 4342SOL    HW213926   5.407   3.748   3.090
 4343SOL     OW13927   3.143   5.761   4.459
 4343SOL    HW113928   3.159   5.662   4.465
 4343SOL    HW213929   3.174   5.805   4.543
 4344SOL     OW13930   1.360   3.562   2.915
 4344SOL    HW113931   1.264   3.543   2.939
 4344SOL    HW213932   1.370   3.557   2.815
 4345SOL     OW13933   3.278   3.955   4.977
 4345SOL    HW113934   3.185   3.990   4.990
 4345SOL    HW213935   3.337   3.990   5.050
 4346SOL     OW13936   1.882   2.625   2.709
 4346SOL    HW113937   1.900   2.530   2.682
 4346SOL    HW213938   1.967   2.668   2.739
 4347SOL     OW13939   5.543   6.395   2.829
 4347SOL    HW113940   5.477   6.320   2.834
 4347SOL    HW213941   5.505   6.468   2.771
 4348SOL     OW13942   0.359   6.109   4.464
 4348SOL    HW113943   0.336   6.075   4.373
 4348SOL    HW213944   0.454   6.083   4.486
 4349SOL     OW13945   6.360   2.300   4.101
 4349SOL    HW113946   6.452   2.284   4.066
 4349SOL    HW213947   6.310   2.213   4.105
 4350SOL     OW13948   4.424   1.821   4.112
 4350SOL    HW113949   4.404   1.768   4.030
 4350SOL    HW213950   4.513   1.795   4.148
 4351SOL     OW13951   1.363   6.464   1.306
 4351SOL    HW113952   1.339   6.431   1.398
 4351SOL    HW213953   1.419   6.546   1.314
 4352SOL     OW13954   6.659   4.201   1.730
 4352SOL    HW113955   6.632   4.134   1.799
 4352SOL    HW213956   6.578   4.250   1.697
 4353SOL     OW13957   3.578   3.517   0.298
 4353SOL    HW113958   3.631   3.514   0.383
 4353SOL    HW213959   3.531   3.429   0.285
 4354SOL     OW13960   1.816   1.236   6.169
 4354SOL    HW113961   1.848   1.271   6.257
 4354SOL    HW213962   1.859   1.287   6.095
 4355SOL     OW13963   2.059   0.103   2.566
 4355SOL    HW113964   2.006   0.155   2.632
 4355SOL    HW213965   2.157   0.120   2.581
 4356SOL     OW13966   4.607   3.593   5.766
 4356SOL    HW113967   4.534   3.552   5.821
 4356SOL    HW213968   4.569   3.636   5.685
 4357SOL     OW13969   0.036   1.156   1.476
 4357SOL    HW113970   0.036   1.249   1.439
 4357SOL    HW213971   0.084   1.095   1.413
 4358SOL     OW13972   0.096   0.702   0.542
 4358SOL    HW113973   0.054   0.612   0.531
 4358SOL    HW213974   0.133   0.711   0.634
 4359SOL     OW13975   1.023   1.035   0.008
 4359SOL    HW113976   0.933   1.027   6.987
 4359SOL    HW213977   1.032   1.125   0.051
 4360SOL     OW13978   0.469   3.181   4.516
 4360SOL    HW113979   0.385   3.164   4.464
 4360SOL    HW213980   0.516   3.261   4.479
 4361SOL     OW13981   2.034   3.865   1.069
 4361SOL    HW113982   2.019   3.963   1.053
 4361SOL    HW213983   1.981   3.836   1.148
 4362SOL     OW13984   6.963   6.035   4.194
 4362SOL    HW113985   0.024   6.032   4.137
 4362SOL    HW213986   6.883   6.016   4.137
 4363SOL     OW13987   4.787   1.111   1.486
 4363SOL    HW113988   4.743   1.113   1.576
 4363SOL    HW213989   4.870   1.166   1.488
 4364SOL     OW13990   3.252   4.121   3.544
 4364SOL    HW113991   3.342   4.134   3.501
 4364SOL    HW213992   3.184   4.101   3.473
 4365SOL     OW13993   3.010   0.743   2.496
 4365SOL    HW113994   3.032   0.654   2.456
 4365SOL    HW213995   2.928   0.779   2.452
 4366SOL     OW13996   5.949   6.463   6.746
 4366SOL    HW113997   5.982   6.435   6.836
 4366SOL    HW213998   5.849   6.459   6.746
 4367SOL     OW13999   2.467   4.863   3.678
 4367SOL    HW114000   2.392   4.808   3.716
 4367SOL    HW214001   2.544   4.802   3.656
 4368SOL     OW14002   3.915   5.527   1.874
 4368SOL    HW114003   3.872   5.461   1.936
 4368SOL    HW214004   3.885   5.619   1.898
 4369SOL     OW14005   4.476   5.206   3.254
 4369SOL    HW114006   4.569   5.185   3.287
 4369SOL    HW214007   4.481   5.279   3.186
 4370SOL     OW14008   3.677   4.453   1.396
 4370SOL    HW114009   3.644   4.497   1.312
 4370SOL    HW214010   3.745   4.511   1.440
 4371SOL     OW14011   2.043   1.969   2.707
 4371SOL    HW114012   2.065   1.981   2.804
 4371SOL    HW214013   1.960   2.020   2.684
 4372SOL     OW14014   2.384   2.751   4.649
 4372SOL    HW114015   2.433   2.783   4.730
 4372SOL    HW214016   2.312   2.817   4.626
 4373SOL     OW14017   4.646   1.347   6.810
 4373SOL    HW114018   4.597   1.261   6.794
 4373SOL    HW214019   4.583   1.415   6.847
 4374SOL     OW14020   1.777   1.591   1.635
 4374SOL    HW114021   1.750   1.625   1.725
 4374SOL    HW214022   1.874   1.565   1.637
 4375SOL     OW14023   3.945   5.800   2.924
 4375SOL    HW114024   3.898   5.855   2.992
 4375SOL    HW214025   3.925   5.703   2.939
 4376SOL     OW14026   6.395   0.490   2.309
 4376SOL    HW114027   6.303   0.514   2.277
 4376SOL    HW214028   6.389   0.414   2.373
 4377SOL     OW14029   5.699   5.810   0.423
 4377SOL    HW114030   5.731   5.868   0.499
 4377SOL    HW214031   5.776   5.788   0.363
 4378SOL     OW14032   1.941   3.934   2.848
 4378SOL    HW114033   2.031   3.898   2.871
 4378SOL    HW214034   1.903   3.881   2.772
 4379SOL     OW14035   2.117   1.492   1.947
 4379SOL    HW114036   2.083   1.586   1.941
 4379SOL    HW214037   2.080   1.448   2.028
 4380SOL     OW14038   1.696   6.308   4.137
 4380SOL    HW114039   1.754   6.227   4.140
 4380SOL    HW214040   1.725   6.367   4.062
 4381SOL     OW14041   2.266   4.167   4.755
 4381SOL    HW114042   2.226   4.088   4.708
 4381SOL    HW214043   2.308   4.137   4.841
 4382SOL     OW14044   5.968   3.095   6.146
 4382SOL    HW114045   6.031   3.034   6.194
 4382SOL    HW214046   5.874   3.063   6.160
 4383SOL     OW14047   0.395   2.848   5.743
 4383SOL    HW114048   0.371   2.803   5.657
 4383SOL    HW214049   0.344   2.807   5.818
 4384SOL     OW14050   5.630   1.074   6.511
 4384SOL    HW114051   5.638   1.160   6.462
 4384SOL    HW214052   5.586   1.089   6.599
 4385SOL     OW14053   7.009   2.543   4.588
 4385SOL    HW114054   7.013   2.640   4.563
 4385SOL    HW214055   6.946   2.530   4.665
 4386SOL     OW14056   1.322   3.868   6.587
 4386SOL    HW114057   1.229   3.887   6.555
 4386SOL    HW214058   1.354   3.782   6.549
 4387SOL     OW14059   1.287   1.395   1.574
 4387SOL    HW114060   1.199   1.427   1.539
 4387SOL    HW214061   1.311   1.308   1.530
 4388SOL     OW14062   4.799   0.998   6.214
 4388SOL    HW114063   4.807   0.909   6.168
 4388SOL    HW214064   4.739   1.057   6.161
 4389SOL     OW14065   5.564   1.866   0.401
 4389SOL    HW114066   5.567   1.966   0.404
 4389SOL    HW214067   5.604   1.834   0.316
 4390SOL     OW14068   4.275   1.979   2.236
 4390SOL    HW114069   4.361   1.957   2.282
 4390SOL    HW214070   4.257   2.077   2.243
 4391SOL     OW14071   1.765   5.633   5.999
 4391SOL    HW114072   1.862   5.642   5.979
 4391SOL    HW214073   1.712   5.642   5.914
 4392SOL     OW14074   6.344   3.663   5.330
 4392SOL    HW114075   6.287   3.743   5.309
 4392SOL    HW214076   6.285   3.582   5.337
 4393SOL     OW14077   5.553   6.379   3.392
 4393SOL    HW114078   5.507   6.426   3.467
 4393SOL    HW214079   5.644   6.418   3.379
 4394SOL     OW14080   6.481   5.577   3.121
 4394SOL    HW114081   6.492   5.670   3.085
 4394SOL    HW214082   6.391   5.542   3.097
 4395SOL     OW14083   3.686   1.239   1.967
 4395SOL    HW114084   3.642   1.241   1.877
 4395SOL    HW214085   3.783   1.218   1.955
 4396SOL     OW14086   2.403   2.207   4.209
 4396SOL    HW114087   2.499   2.208   4.183
 4396SOL    HW214088   2.354   2.280   4.161
 4397SOL     OW14089   0.790   1.915   4.975
 4397SOL    HW114090   0.786   1.972   4.892
 4397SOL    HW214091   0.726   1.839   4.965
 4398SOL     OW14092   1.317   4.782   4.669
 4398SOL    HW114093   1.397   4.807   4.615
 4398SOL    HW214094   1.324   4.687   4.699
 4399SOL     OW14095   1.493   0.553   2.273
 4399SOL    HW114096   1.405   0.584   2.308
 4399SOL    HW214097   1.500   0.577   2.176
 4400SOL     OW14098   2.151   0.304   5.142
 4400SOL    HW114099   2.148   0.295   5.042
 4400SOL    HW214100   2.134   0.399   5.167
 4401SOL     OW14101   5.472   6.786   0.110
 4401SOL    HW114102   5.490   6.854   0.038
 4401SOL    HW214103   5.456   6.833   0.197
 4402SOL     OW14104   1.649   6.611   2.030
 4402SOL    HW114105   1.626   6.641   1.937
 4402SOL    HW214106   1.639   6.511   2.036
 4403SOL     OW14107   0.163   0.228   3.666
 4403SOL    HW114108   0.109   0.240   3.749
 4403SOL    HW214109   0.188   0.131   3.657
 4404SOL     OW14110   0.762   4.187   5.477
 4404SOL    HW114111   0.828   4.254   5.443
 4404SOL    HW214112   0.692   4.171   5.408
 4405SOL     OW14113   2.887   4.108   0.314
 4405SOL    HW114114   2.875   4.158   0.228
 4405SOL    HW214115   2.958   4.151   0.368
 4406SOL     OW14116   6.079   4.628   1.487
 4406SOL    HW114117   6.077   4.644   1.388
 4406SOL    HW214118   6.043   4.536   1.506
 4407SOL     OW14119   6.889   4.225   0.457
 4407SOL    HW114120   6.958   4.238   0.386
 4407SOL    HW214121   6.889   4.129   0.486
 4408SOL     OW14122   4.405   1.326   0.935
 4408SOL    HW114123   4.499   1.356   0.953
 4408SOL    HW214124   4.380   1.256   1.001
 4409SOL     OW14125   4.178   0.318   1.963
 4409SOL    HW114126   4.168   0.288   2.058
 4409SOL    HW214127   4.271   0.297   1.931
 4410SOL     OW14128   1.718   5.473   0.408
 4410SOL    HW114129   1.815   5.447   0.411
 4410SOL    HW214130   1.662   5.394   0.435
 4411SOL     OW14131   3.777   3.045   3.817
 4411SOL    HW114132   3.818   3.129   3.854
 4411SOL    HW214133   3.692   3.026   3.865
 4412SOL     OW14134   3.381   0.913   4.710
 4412SOL    HW114135   3.338   0.859   4.637
 4412SOL    HW214136   3.476   0.933   4.686
 4413SOL     OW14137   4.923   5.392   4.458
 4413SOL    HW114138   4.988   5.356   4.524
 4413SOL    HW214139   4.834   5.407   4.502
 4414SOL     OW14140   4.045   5.052   1.798
 4414SOL    HW114141   3.952   5.021   1.777
 4414SOL    HW214142   4.081   5.102   1.719
 4415SOL     OW14143   4.222   4.186   6.080
 4415SOL    HW114144   4.232   4.087   6.079
 4415SOL    HW214145   4.206   4.219   5.986
 4416SOL     OW14146   3.050   0.691   3.893
 4416SOL    HW114147   2.970   0.750   3.905
 4416SOL    HW214148   3.085   0.702   3.800
 4417SOL     OW14149   6.280   4.379   3.552
 4417SOL    HW114150   6.367   4.363   3.504
 4417SOL    HW214151   6.278   4.325   3.636
 4418SOL     OW14152   5.138   0.555   3.657
 4418SOL    HW114153   5.116   0.458   3.646
 4418SOL    HW214154   5.227   0.573   3.615
 4419SOL     OW14155   5.390   6.366   0.655
 4419SOL    HW114156   5.413   6.301   0.728
 4419SOL    HW214157   5.436   6.453   0.673
 4420SOL     OW14158   5.180   1.739   1.381
 4420SOL    HW114159   5.162   1.703   1.290
 4420SOL    HW214160   5.278   1.737   1.400
 4421SOL     OW14161   2.147   0.999   3.484
 4421SOL    HW114162   2.051   1.012   3.462
 4421SOL    HW214163   2.175   1.069   3.550
 4422SOL     OW14164   2.185   3.889   5.774
 4422SOL    HW114165   2.263   3.896   5.837
 4422SOL    HW214166   2.216   3.855   5.686
 4423SOL     OW14167   1.267   2.720   5.514
 4423SOL    HW114168   1.311   2.650   5.570
 4423SOL    HW214169   1.315   2.728   5.427
 4424SOL     OW14170   4.807   0.097   4.072
 4424SOL    HW114171   4.710   0.083   4.089
 4424SOL    HW214172   4.821   0.188   4.032
 4425SOL     OW14173   3.508   5.685   5.778
 4425SOL    HW114174   3.511   5.782   5.751
 4425SOL    HW214175   3.515   5.678   5.877
 4426SOL     OW14176   0.178   2.155   4.788
 4426SOL    HW114177   0.081   2.155   4.809
 4426SOL    HW214178   0.230   2.134   4.871
 4427SOL     OW14179   6.730   6.688   3.011
 4427SOL    HW114180   6.785   6.740   3.076
 4427SOL    HW214181   6.633   6.701   3.031
 4428SOL     OW14182   3.439   5.469   1.863
 4428SOL    HW114183   3.496   5.485   1.782
 4428SOL    HW214184   3.343   5.481   1.839
 4429SOL     OW14185   3.100   0.450   3.107
 4429SOL    HW114186   3.059   0.469   3.018
 4429SOL    HW214187   3.081   0.527   3.169
 4430SOL     OW14188   5.390   3.245   5.021
 4430SOL    HW114189   5.327   3.310   5.062
 4430SOL    HW214190   5.359   3.221   4.928
 4431SOL     OW14191   1.252   0.647   2.378
 4431SOL    HW114192   1.195   0.566   2.394
 4431SOL    HW214193   1.200   0.715   2.327
 4432SOL     OW14194   3.514   4.164   3.804
 4432SOL    HW114195   3.610   4.153   3.827
 4432SOL    HW214196   3.505   4.226   3.726
 4433SOL     OW14197   5.714   0.290   4.492
 4433SOL    HW114198   5.767   0.208   4.468
 4433SOL    HW214199   5.734   0.316   4.586
 4434SOL     OW14200   3.493   2.006   3.430
 4434SOL    HW114201   3.453   2.052   3.351
 4434SOL    HW214202   3.499   2.070   3.507
 4435SOL     OW14203   3.882   4.055   0.795
 4435SOL    HW114204   3.913   4.019   0.883
 4435SOL    HW214205   3.902   3.988   0.723
 4436SOL     OW14206   3.998   1.888   0.555
 4436SOL    HW114207   3.991   1.976   0.507
 4436SOL    HW214208   3.976   1.902   0.652
 4437SOL     OW14209   5.439   1.115   4.166
 4437SOL    HW114210   5.353   1.124   4.116
 4437SOL    HW214211   5.477   1.206   4.184
 4438SOL     OW14212   4.484   1.253   0.037
 4438SOL    HW114213   4.389   1.241   0.010
 4438SOL    HW214214   4.521   1.336   7.017
 4439SOL     OW14215   0.618   6.325   1.273
 4439SOL    HW114216   0.684   6.262   1.316
 4439SOL    HW214217   0.657   6.361   1.188
 4440SOL     OW14218   1.797   4.982   0.963
 4440SOL    HW114219   1.825   4.891   0.933
 4440SOL    HW214220   1.789   5.043   0.884
 4441SOL     OW14221   6.619   1.549   2.769
 4441SOL    HW114222   6.534   1.596   2.743
 4441SOL    HW214223   6.689   1.617   2.790
 4442SOL     OW14224   2.746   5.861   4.925
 4442SOL    HW114225   2.799   5.828   4.848
 4442SOL    HW214226   2.776   5.954   4.949
 4443SOL     OW14227   6.800   2.788   0.955
 4443SOL    HW114228   6.761   2.826   0.871
 4443SOL    HW214229   6.822   2.862   1.018
 4444SOL     OW14230   3.879   5.641   6.252
 4444SOL    HW114231   3.786   5.645   6.287
 4444SOL    HW214232   3.881   5.679   6.159
 4445SOL     OW14233   0.036   0.697   1.055
 4445SOL    HW114234   0.078   0.698   0.964
 4445SOL    HW214235   0.104   0.672   1.123
 4446SOL     OW14236   6.489   1.792   1.905
 4446SOL    HW114237   6.416   1.860   1.908
 4446SOL    HW214238   6.450   1.700   1.906
 4447SOL     OW14239   5.912   3.381   6.284
 4447SOL    HW114240   5.882   3.318   6.212
 4447SOL    HW214241   5.831   3.422   6.328
 4448SOL     OW14242   3.202   4.235   0.658
 4448SOL    HW114243   3.140   4.172   0.706
 4448SOL    HW214244   3.187   4.227   0.560
 4449SOL     OW14245   4.766   0.727   6.105
 4449SOL    HW114246   4.862   0.702   6.110
 4449SOL    HW214247   4.711   0.662   6.157
 4450SOL     OW14248   3.936   3.611   4.229
 4450SOL    HW114249   3.964   3.704   4.252
 4450SOL    HW214250   3.952   3.551   4.307
 4451SOL     OW14251   5.633   3.984   3.369
 4451SOL    HW114252   5.657   3.911   3.433
 4451SOL    HW214253   5.548   4.028   3.399
 4452SOL     OW14254   5.299   6.630   4.514
 4452SOL    HW114255   5.357   6.623   4.433
 4452SOL    HW214256   5.347   6.684   4.584
 4453SOL     OW14257   7.020   2.811   1.355
 4453SOL    HW114258   6.966   2.812   1.439
 4453SOL    HW214259   6.972   2.861   1.283
 4454SOL     OW14260   5.916   2.295   6.909
 4454SOL    HW114261   5.928   2.251   6.999
 4454SOL    HW214262   5.932   2.393   6.918
 4455SOL     OW14263   4.062   0.681   6.355
 4455SOL    HW114264   4.009   0.599   6.375
 4455SOL    HW214265   4.006   0.762   6.372
 4456SOL     OW14266   2.587   5.168   2.301
 4456SOL    HW114267   2.548   5.259   2.287
 4456SOL    HW214268   2.539   5.122   2.375
 4457SOL     OW14269   4.635   2.579   0.424
 4457SOL    HW114270   4.569   2.516   0.383
 4457SOL    HW214271   4.598   2.616   0.509
 4458SOL     OW14272   1.212   3.932   6.977
 4458SOL    HW114273   1.249   3.999   6.913
 4458SOL    HW214274   1.214   3.841   6.935
 4459SOL     OW14275   4.529   0.495   3.933
 4459SOL    HW114276   4.601   0.532   3.992
 4459SOL    HW214277   4.564   0.416   3.883
 4460SOL     OW14278   2.759   3.020   5.295
 4460SOL    HW114279   2.662   3.036   5.276
 4460SOL    HW214280   2.771   2.927   5.330
 4461SOL     OW14281   1.253   0.498   2.656
 4461SOL    HW114282   1.347   0.464   2.667
 4461SOL    HW214283   1.256   0.596   2.636
 4462SOL     OW14284   0.162   3.217   2.089
 4462SOL    HW114285   0.136   3.274   2.167
 4462SOL    HW214286   0.177   3.123   2.118
 4463SOL     OW14287   4.241   3.153   0.048
 4463SOL    HW114288   4.164   3.215   0.031
 4463SOL    HW214289   4.287   3.133   6.983
 4464SOL     OW14290   6.406   4.645   6.734
 4464SOL    HW114291   6.372   4.556   6.765
 4464SOL    HW214292   6.373   4.662   6.641
 4465SOL     OW14293   2.319   5.501   2.492
 4465SOL    HW114294   2.261   5.564   2.544
 4465SOL    HW214295   2.403   5.547   2.465
 4466SOL     OW14296   1.489   0.919   2.837
 4466SOL    HW114297   1.419   0.864   2.791
 4466SOL    HW214298   1.454   1.011   2.853
 4467SOL     OW14299   1.300   6.986   3.374
 4467SOL    HW114300   1.237   6.924   3.422
 4467SOL    HW214301   1.390   6.943   3.367
 4468SOL     OW14302   1.375   2.668   0.856
 4468SOL    HW114303   1.310   2.595   0.837
 4468SOL    HW214304   1.468   2.637   0.836
 4469SOL     OW14305   3.875   0.392   1.522
 4469SOL    HW114306   3.778   0.392   1.547
 4469SOL    HW214307   3.930   0.382   1.605
 4470SOL     OW14308   6.095   3.131   2.124
 4470SOL    HW114309   6.146   3.172   2.048
 4470SOL    HW214310   6.024   3.071   2.088
 4471SOL     OW14311   0.144   1.765   0.260
 4471SOL    HW114312   0.147   1.850   0.314
 4471SOL    HW214313   0.104   1.692   0.315
 4472SOL     OW14314   1.935   2.842   3.631
 4472SOL    HW114315   1.899   2.918   3.684
 4472SOL    HW214316   2.032   2.858   3.612
 4473SOL     OW14317   0.092   2.594   3.922
 4473SOL    HW114318   0.021   2.652   3.882
 4473SOL    HW214319   0.181   2.636   3.908
 4474SOL     OW14320   3.828   0.504   1.940
 4474SOL    HW114321   3.886   0.445   1.884
 4474SOL    HW214322   3.751   0.452   1.976
 4475SOL     OW14323   1.748   3.903   2.166
 4475SOL    HW114324   1.811   3.918   2.242
 4475SOL    HW214325   1.749   3.807   2.140
 4476SOL     OW14326   4.659   6.411   4.382
 4476SOL    HW114327   4.680   6.316   4.405
 4476SOL    HW214328   4.743   6.465   4.380
 4477SOL     OW14329   1.160   0.358   5.636
 4477SOL    HW114330   1.107   0.273   5.634
 4477SOL    HW214331   1.167   0.395   5.543
 4478SOL     OW14332   3.359   5.918   2.436
 4478SOL    HW114333   3.352   5.843   2.369
 4478SOL    HW214334   3.415   5.888   2.513
 4479SOL     OW14335   0.537   0.928   1.073
 4479SOL    HW114336   0.601   0.931   1.149
 4479SOL    HW214337   0.511   0.833   1.055
 4480SOL     OW14338   1.683   3.652   5.398
 4480SOL    HW114339   1.637   3.724   5.450
 4480SOL    HW214340   1.635   3.636   5.312
 4481SOL     OW14341   2.359   6.558   5.106
 4481SOL    HW114342   2.391   6.638   5.056
 4481SOL    HW214343   2.426   6.533   5.176
 4482SOL     OW14344   0.161   4.204   4.079
 4482SOL    HW114345   0.141   4.301   4.088
 4482SOL    HW214346   0.163   4.180   3.982
 4483SOL     OW14347   4.970   3.547   2.207
 4483SOL    HW114348   4.903   3.529   2.135
 4483SOL    HW214349   4.923   3.586   2.287
 4484SOL     OW14350   3.468   2.949   5.440
 4484SOL    HW114351   3.551   2.976   5.392
 4484SOL    HW214352   3.487   2.870   5.498
 4485SOL     OW14353   5.305   1.499   5.461
 4485SOL    HW114354   5.321   1.585   5.509
 4485SOL    HW214355   5.263   1.434   5.524
 4486SOL     OW14356   5.231   3.765   4.421
 4486SOL    HW114357   5.304   3.701   4.396
 4486SOL    HW214358   5.207   3.751   4.517
 4487SOL     OW14359   2.509   2.881   6.494
 4487SOL    HW114360   2.479   2.972   6.520
 4487SOL    HW214361   2.502   2.819   6.572
 4488SOL     OW14362   6.184   3.475   5.168
 4488SOL    HW114363   6.097   3.440   5.204
 4488SOL    HW214364   6.164   3.540   5.094
 4489SOL     OW14365   5.984   5.329   4.537
 4489SOL    HW114366   6.059   5.276   4.497
 4489SOL    HW214367   5.927   5.366   4.463
 4490SOL     OW14368   6.556   2.283   3.124
 4490SOL    HW114369   6.616   2.335   3.185
 4490SOL    HW214370   6.611   2.218   3.071
 4491SOL     OW14371   0.018   2.848   4.576
 4491SOL    HW114372   0.067   2.933   4.591
 4491SOL    HW214373   6.999   2.816   4.662
 4492SOL     OW14374   5.128   3.503   1.239
 4492SOL    HW114375   5.053   3.543   1.292
 4492SOL    HW214376   5.100   3.495   1.143
 4493SOL     OW14377   4.740   6.131   5.296
 4493SOL    HW114378   4.833   6.109   5.324
 4493SOL    HW214379   4.680   6.054   5.316
 4494SOL     OW14380   0.034   1.347   5.782
 4494SOL    HW114381   0.126   1.334   5.746
 4494SOL    HW214382   6.991   1.287   5.734
 4495SOL     OW14383   4.948   5.528   4.185
 4495SOL    HW114384   4.937   5.482   4.274
 4495SOL    HW214385   4.938   5.626   4.197
 4496SOL     OW14386   4.939   5.715   1.061
 4496SOL    HW114387   4.848   5.695   1.099
 4496SOL    HW214388   4.933   5.795   1.002
 4497SOL     OW14389   4.767   0.673   6.438
 4497SOL    HW114390   4.794   0.590   6.488
 4497SOL    HW214391   4.698   0.649   6.370
 4498SOL     OW14392   6.632   3.243   6.511
 4498SOL    HW114393   6.642   3.252   6.412
 4498SOL    HW214394   6.584   3.323   6.547
 4499SOL     OW14395   0.326   3.565   3.860
 4499SOL    HW114396   0.323   3.480   3.913
 4499SOL    HW214397   0.253   3.626   3.890
 4500SOL     OW14398   3.200   3.466   4.084
 4500SOL    HW114399   3.241   3.514   4.006
 4500SOL    HW214400   3.149   3.387   4.052
 4501SOL     OW14401   6.926   3.356   5.316
 4501SOL    HW114402   6.922   3.456   5.313
 4501SOL    HW214403   6.937   3.321   5.223
 4502SOL     OW14404   1.451   1.968   0.056
 4502SOL    HW114405   1.499   2.053   0.078
 4502SOL    HW214406   1.485   1.932   6.991
 4503SOL     OW14407   3.662   6.783   2.638
 4503SOL    HW114408   3.751   6.764   2.678
 4503SOL    HW214409   3.592   6.732   2.688
 4504SOL     OW14410   6.286   1.232   4.751
 4504SOL    HW114411   6.383   1.253   4.764
 4504SOL    HW214412   6.277   1.160   4.683
 4505SOL     OW14413   6.209   5.604   3.429
 4505SOL    HW114414   6.158   5.619   3.345
 4505SOL    HW214415   6.230   5.691   3.472
 4506SOL     OW14416   4.640   2.167   3.959
 4506SOL    HW114417   4.705   2.210   4.022
 4506SOL    HW214418   4.566   2.126   4.012
 4507SOL     OW14419   5.369   4.639   2.662
 4507SOL    HW114420   5.392   4.695   2.582
 4507SOL    HW214421   5.445   4.577   2.681
 4508SOL     OW14422   1.148   4.540   5.935
 4508SOL    HW114423   1.071   4.604   5.944
 4508SOL    HW214424   1.116   4.455   5.893
 4509SOL     OW14425   4.918   2.566   3.056
 4509SOL    HW114426   4.874   2.476   3.056
 4509SOL    HW214427   4.855   2.633   3.017
 4510SOL     OW14428   4.677   0.017   5.185
 4510SOL    HW114429   4.654   7.002   5.276
 4510SOL    HW214430   4.673   0.117   5.187
 4511SOL     OW14431   6.844   3.036   6.485
 4511SOL    HW114432   6.773   3.107   6.489
 4511SOL    HW214433   6.920   3.062   6.544
 4512SOL     OW14434   2.599   6.985   5.576
 4512SOL    HW114435   2.608   6.943   5.666
 4512SOL    HW214436   2.594   6.914   5.506
 4513SOL     OW14437   4.655   6.577   0.694
 4513SOL    HW114438   4.568   6.611   0.657
 4513SOL    HW214439   4.664   6.606   0.789
 4514SOL     OW14440   4.579   1.222   4.998
 4514SOL    HW114441   4.591   1.300   4.937
 4514SOL    HW214442   4.632   1.144   4.963
 4515SOL     OW14443   0.379   3.300   5.958
 4515SOL    HW114444   0.394   3.226   5.894
 4515SOL    HW214445   0.439   3.377   5.934
 4516SOL     OW14446   1.839   0.224   6.573
 4516SOL    HW114447   1.760   0.177   6.614
 4516SOL    HW214448   1.909   0.235   6.643
 4517SOL     OW14449   2.258   0.884   6.794
 4517SOL    HW114450   2.240   0.828   6.714
 4517SOL    HW214451   2.208   0.971   6.787
 4518SOL     OW14452   6.740   0.983   3.439
 4518SOL    HW114453   6.837   0.962   3.423
 4518SOL    HW214454   6.693   0.985   3.351
 4519SOL     OW14455   5.671   0.207   2.108
 4519SOL    HW114456   5.703   0.143   2.178
 4519SOL    HW214457   5.729   0.289   2.109
 4520SOL     OW14458   5.232   5.956   3.585
 4520SOL    HW114459   5.232   6.055   3.572
 4520SOL    HW214460   5.138   5.923   3.589
 4521SOL     OW14461   5.449   1.768   4.014
 4521SOL    HW114462   5.432   1.776   3.915
 4521SOL    HW214463   5.421   1.853   4.059
 4522SOL     OW14464   5.531   7.013   3.757
 4522SOL    HW114465   5.546   0.072   3.815
 4522SOL    HW214466   5.442   7.020   3.713
 4523SOL     OW14467   1.641   4.383   0.253
 4523SOL    HW114468   1.631   4.433   0.166
 4523SOL    HW214469   1.736   4.387   0.282
 4524SOL     OW14470   5.436   2.311   4.513
 4524SOL    HW114471   5.370   2.283   4.583
 4524SOL    HW214472   5.517   2.350   4.557
 4525SOL     OW14473   5.349   0.988   3.189
 4525SOL    HW114474   5.317   1.069   3.139
 4525SOL    HW214475   5.408   0.934   3.129
 4526SOL     OW14476   4.955   0.491   1.164
 4526SOL    HW114477   4.934   0.505   1.261
 4526SOL    HW214478   5.052   0.470   1.154
 4527SOL     OW14479   4.357   1.513   3.629
 4527SOL    HW114480   4.344   1.414   3.634
 4527SOL    HW214481   4.288   1.553   3.568
 4528SOL     OW14482   4.568   6.597   6.633
 4528SOL    HW114483   4.559   6.689   6.670
 4528SOL    HW214484   4.624   6.600   6.550
 4529SOL     OW14485   3.178   1.840   4.521
 4529SOL    HW114486   3.099   1.789   4.487
 4529SOL    HW214487   3.146   1.924   4.566
 4530SOL     OW14488   0.347   3.559   5.699
 4530SOL    HW114489   0.281   3.517   5.761
 4530SOL    HW214490   0.348   3.658   5.713
 4531SOL     OW14491   0.523   3.168   3.858
 4531SOL    HW114492   0.478   3.200   3.775
 4531SOL    HW214493   0.480   3.210   3.938
 4532SOL     OW14494   6.163   1.645   3.414
 4532SOL    HW114495   6.096   1.711   3.448
 4532SOL    HW214496   6.127   1.552   3.428
 4533SOL     OW14497   1.739   0.492   2.373
 4533SOL    HW114498   1.740   0.392   2.382
 4533SOL    HW214499   1.652   0.521   2.335
 4534SOL     OW14500   5.565   4.375   4.940
 4534SOL    HW114501   5.612   4.295   4.902
 4534SOL    HW214502   5.522   4.427   4.867
 4535SOL     OW14503   4.978   1.854   2.776
 4535SOL    HW114504   5.012   1.928   2.835
 4535SOL    HW214505   4.984   1.767   2.825
 4536SOL     OW14506   3.991   2.121   4.102
 4536SOL    HW114507   4.065   2.187   4.116
 4536SOL    HW214508   3.960   2.087   4.191
 4537SOL     OW14509   4.058   2.920   5.962
 4537SOL    HW114510   4.015   2.930   5.873
 4537SOL    HW214511   3.995   2.950   6.033
 4538SOL     OW14512   2.881   0.735   4.329
 4538SOL    HW114513   2.891   0.636   4.342
 4538SOL    HW214514   2.885   0.756   4.231
 4539SOL     OW14515   2.098   1.203   4.068
 4539SOL    HW114516   2.179   1.176   4.120
 4539SOL    HW214517   2.016   1.175   4.116
 4540SOL     OW14518   3.113   3.150   4.582
 4540SOL    HW114519   3.194   3.131   4.637
 4540SOL    HW214520   3.049   3.206   4.634
 4541SOL     OW14521   5.440   1.666   0.563
 4541SOL    HW114522   5.343   1.644   0.572
 4541SOL    HW214523   5.452   1.734   0.490
 4542SOL     OW14524   6.321   0.272   2.528
 4542SOL    HW114525   6.394   0.226   2.478
 4542SOL    HW214526   6.284   0.210   2.597
 4543SOL     OW14527   5.186   1.914   1.018
 4543SOL    HW114528   5.149   1.823   1.035
 4543SOL    HW214529   5.172   1.940   0.923
 4544SOL     OW14530   3.207   6.211   6.118
 4544SOL    HW114531   3.168   6.284   6.175
 4544SOL    HW214532   3.228   6.132   6.176
 4545SOL     OW14533   5.623   2.459   4.651
 4545SOL    HW114534   5.695   2.490   4.588
 4545SOL    HW214535   5.550   2.527   4.653
 4546SOL     OW14536   1.812   1.530   6.527
 4546SOL    HW114537   1.722   1.522   6.483
 4546SOL    HW214538   1.799   1.546   6.625
 4547SOL     OW14539   6.336   2.531   3.305
 4547SOL    HW114540   6.259   2.549   3.367
 4547SOL    HW214541   6.307   2.544   3.210
 4548SOL     OW14542   1.036   4.558   4.601
 4548SOL    HW114543   0.993   4.496   4.534
 4548SOL    HW214544   1.123   4.519   4.631
 4549SOL     OW14545   5.859   3.895   2.341
 4549SOL    HW114546   5.830   3.869   2.434
 4549SOL    HW214547   5.959   3.898   2.338
 4550SOL     OW14548   0.740   6.117   2.871
 4550SOL    HW114549   0.734   6.120   2.771
 4550SOL    HW214550   0.835   6.109   2.898
 4551SOL     OW14551   6.348   1.575   6.321
 4551SOL    HW114552   6.388   1.647   6.377
 4551SOL    HW214553   6.253   1.559   6.347
 4552SOL     OW14554   6.223   2.594   0.919
 4552SOL    HW114555   6.128   2.603   0.951
 4552SOL    HW214556   6.254   2.683   0.885
 4553SOL     OW14557   3.947   4.603   6.843
 4553SOL    HW114558   4.013   4.529   6.857
 4553SOL    HW214559   3.863   4.567   6.804
 4554SOL     OW14560   4.456   0.390   1.461
 4554SOL    HW114561   4.520   0.321   1.493
 4554SOL    HW214562   4.445   0.461   1.532
 4555SOL     OW14563   3.362   1.896   5.704
 4555SOL    HW114564   3.364   1.844   5.789
 4555SOL    HW214565   3.306   1.978   5.717
 4556SOL     OW14566   4.672   2.547   3.587
 4556SOL    HW114567   4.636   2.540   3.680
 4556SOL    HW214568   4.770   2.529   3.588
 4557SOL     OW14569   4.954   6.679   4.911
 4557SOL    HW114570   4.931   6.654   4.817
 4557SOL    HW214571   4.915   6.769   4.931
 4558SOL     OW14572   0.478   3.375   5.557
 4558SOL    HW114573   0.474   3.297   5.619
 4558SOL    HW214574   0.424   3.450   5.595
 4559SOL     OW14575   0.663   4.474   1.940
 4559SOL    HW114576   0.571   4.504   1.967
 4559SOL    HW214577   0.668   4.469   1.841
 4560SOL     OW14578   4.746   5.102   3.280
 4560SOL    HW114579   4.745   5.002   3.280
 4560SOL    HW214580   4.823   5.134   3.336
 4561SOL     OW14581   2.617   0.757   1.131
 4561SOL    HW114582   2.563   0.709   1.201
 4561SOL    HW214583   2.563   0.766   1.048
 4562SOL     OW14584   3.220   6.375   5.182
 4562SOL    HW114585   3.222   6.335   5.274
 4562SOL    HW214586   3.312   6.370   5.142
 4563SOL     OW14587   0.639   4.118   0.445
 4563SOL    HW114588   0.613   4.029   0.484
 4563SOL    HW214589   0.729   4.144   0.480
 4564SOL     OW14590   0.473   6.730   0.814
 4564SOL    HW114591   0.507   6.664   0.881
 4564SOL    HW214592   0.373   6.733   0.818
 4565SOL     OW14593   0.085   0.998   5.887
 4565SOL    HW114594   0.175   0.965   5.917
 4565SOL    HW214595   0.081   1.097   5.899
 4566SOL     OW14596   6.724   1.787   0.521
 4566SOL    HW114597   6.716   1.875   0.474
 4566SOL    HW214598   6.786   1.796   0.599
 4567SOL     OW14599   0.146   1.125   7.011
 4567SOL    HW114600   0.082   1.077   6.951
 4567SOL    HW214601   0.106   1.133   0.081
 4568SOL     OW14602   0.743   4.488   5.245
 4568SOL    HW114603   0.819   4.536   5.288
 4568SOL    HW214604   0.660   4.500   5.299
 4569SOL     OW14605   1.843   1.322   3.228
 4569SOL    HW114606   1.808   1.411   3.259
 4569SOL    HW214607   1.812   1.305   3.134
 4570SOL     OW14608   0.762   5.999   3.204
 4570SOL    HW114609   0.847   5.954   3.175
 4570SOL    HW214610   0.688   5.971   3.142
 4571SOL     OW14611   2.983   3.138   6.054
 4571SOL    HW114612   2.924   3.157   6.133
 4571SOL    HW214613   2.957   3.197   5.978
 4572SOL     OW14614   1.125   6.983   6.613
 4572SOL    HW114615   1.101   6.994   6.516
 4572SOL    HW214616   1.168   6.894   6.626
 4573SOL     OW14617   6.057   6.193   0.329
 4573SOL    HW114618   6.082   6.141   0.410
 4573SOL    HW214619   5.976   6.152   0.286
 4574SOL     OW14620   6.678   3.927   1.530
 4574SOL    HW114621   6.722   3.886   1.610
 4574SOL    HW214622   6.581   3.943   1.551
 4575SOL     OW14623   6.012   2.053   6.184
 4575SOL    HW114624   6.000   2.119   6.110
 4575SOL    HW214625   6.055   1.970   6.149
 4576SOL     OW14626   2.412   6.056   6.513
 4576SOL    HW114627   2.484   6.118   6.483
 4576SOL    HW214628   2.409   5.976   6.452
 4577SOL     OW14629   0.770   1.959   3.718
 4577SOL    HW114630   0.851   1.935   3.771
 4577SOL    HW214631   0.712   1.879   3.707
 4578SOL     OW14632   1.178   3.299   3.795
 4578SOL    HW114633   1.238   3.256   3.729
 4578SOL    HW214634   1.230   3.363   3.852
 4579SOL     OW14635   5.426   2.246   2.519
 4579SOL    HW114636   5.382   2.228   2.607
 4579SOL    HW214637   5.477   2.332   2.524
 4580SOL     OW14638   4.863   5.491   6.695
 4580SOL    HW114639   4.834   5.584   6.714
 4580SOL    HW214640   4.806   5.427   6.747
 4581SOL     OW14641   2.987   5.349   3.240
 4581SOL    HW114642   3.000   5.422   3.173
 4581SOL    HW214643   2.971   5.263   3.192
 4582SOL     OW14644   5.581   6.563   4.834
 4582SOL    HW114645   5.520   6.641   4.831
 4582SOL    HW214646   5.577   6.521   4.925
 4583SOL     OW14647   2.956   1.296   5.139
 4583SOL    HW114648   3.026   1.321   5.205
 4583SOL    HW214649   2.869   1.284   5.186
 4584SOL     OW14650   0.201   5.063   5.393
 4584SOL    HW114651   0.230   4.968   5.401
 4584SOL    HW214652   0.141   5.074   5.314
 4585SOL     OW14653   2.752   6.484   2.922
 4585SOL    HW114654   2.704   6.527   2.846
 4585SOL    HW214655   2.745   6.543   3.003
 4586SOL     OW14656   4.296   4.954   0.426
 4586SOL    HW114657   4.248   5.040   0.443
 4586SOL    HW214658   4.395   4.970   0.430
 4587SOL     OW14659   3.759   3.899   1.933
 4587SOL    HW114660   3.801   3.929   2.018
 4587SOL    HW214661   3.710   3.813   1.948
 4588SOL     OW14662   4.326   4.479   5.530
 4588SOL    HW114663   4.252   4.437   5.477
 4588SOL    HW214664   4.351   4.419   5.606
 4589SOL     OW14665   5.508   1.401   2.243
 4589SOL    HW114666   5.595   1.386   2.289
 4589SOL    HW214667   5.510   1.489   2.195
 4590SOL     OW14668   5.156   5.690   0.870
 4590SOL    HW114669   5.077   5.657   0.818
 4590SOL    HW214670   5.143   5.786   0.894
 4591SOL     OW14671   0.327   6.006   5.085
 4591SOL    HW114672   0.294   6.074   5.151
 4591SOL    HW214673   0.412   5.965   5.119
 4592SOL     OW14674   4.008   1.968   2.007
 4592SOL    HW114675   3.928   1.924   1.968
 4592SOL    HW214676   3.980   2.031   2.080
 4593SOL     OW14677   4.054   5.785   3.990
 4593SOL    HW114678   4.055   5.739   3.901
 4593SOL    HW214679   3.977   5.752   4.044
 4594SOL     OW14680   3.213   1.149   1.849
 4594SOL    HW114681   3.254   1.171   1.938
 4594SOL    HW214682   3.150   1.221   1.823
 4595SOL     OW14683   3.519   2.504   6.221
 4595SOL    HW114684   3.484   2.415   6.248
 4595SOL    HW214685   3.570   2.544   6.297
 4596SOL     OW14686   5.652   6.422   3.067
 4596SOL    HW114687   5.591   6.424   2.988
 4596SOL    HW214688   5.671   6.327   3.092
 4597SOL     OW14689   5.056   4.463   6.530
 4597SOL    HW114690   5.042   4.541   6.468
 4597SOL    HW214691   5.109   4.393   6.483
 4598SOL     OW14692   2.110   4.998   0.457
 4598SOL    HW114693   2.121   4.987   0.556
 4598SOL    HW214694   2.125   4.909   0.412
 4599SOL     OW14695   1.751   5.105   0.289
 4599SOL    HW114696   1.834   5.100   0.233
 4599SOL    HW214697   1.775   5.140   0.380
 4600SOL     OW14698   1.274   5.067   5.017
 4600SOL    HW114699   1.220   5.027   4.943
 4600SOL    HW214700   1.367   5.082   4.985
 4601SOL     OW14701   1.582   0.061   5.319
 4601SOL    HW114702   1.569   7.015   5.391
 4601SOL    HW214703   1.557   0.020   5.231
 4602SOL     OW14704   0.963   5.704   1.139
 4602SOL    HW114705   0.955   5.717   1.238
 4602SOL    HW214706   0.892   5.756   1.093
 4603SOL     OW14707   3.706   6.428   1.473
 4603SOL    HW114708   3.609   6.444   1.489
 4603SOL    HW214709   3.748   6.512   1.439
 4604SOL     OW14710   4.442   0.712   1.975
 4604SOL    HW114711   4.532   0.669   1.967
 4604SOL    HW214712   4.451   0.810   1.956
 4605SOL     OW14713   3.712   0.965   3.582
 4605SOL    HW114714   3.663   1.016   3.653
 4605SOL    HW214715   3.695   0.867   3.593
 4606SOL     OW14716   1.279   6.826   1.247
 4606SOL    HW114717   1.343   6.773   1.191
 4606SOL    HW214718   1.188   6.785   1.241
 4607SOL     OW14719   2.383   2.196   0.898
 4607SOL    HW114720   2.446   2.262   0.939
 4607SOL    HW214721   2.356   2.128   0.966
 4608SOL     OW14722   0.607   5.642   3.457
 4608SOL    HW114723   0.666   5.723   3.463
 4608SOL    HW214724   0.661   5.565   3.424
 4609SOL     OW14725   4.279   5.316   5.956
 4609SOL    HW114726   4.264   5.359   5.867
 4609SOL    HW214727   4.253   5.380   6.028
 4610SOL     OW14728   5.032   2.454   0.668
 4610SOL    HW114729   5.078   2.539   0.696
 4610SOL    HW214730   5.087   2.409   0.597
 4611SOL     OW14731   6.493   6.201   5.936
 4611SOL    HW114732   6.531   6.135   6.000
 4611SOL    HW214733   6.494   6.292   5.976
 4612SOL     OW14734   0.886   5.719   6.917
 4612SOL    HW114735   0.978   5.692   6.946
 4612SOL    HW214736   0.833   5.746   6.996
 4613SOL     OW14737   2.443   6.253   2.339
 4613SOL    HW114738   2.373   6.199   2.291
 4613SOL    HW214739   2.534   6.217   2.316
 4614SOL     OW14740   0.894   4.491   4.830
 4614SOL    HW114741   0.963   4.536   4.773
 4614SOL    HW214742   0.803   4.520   4.801
 4615SOL     OW14743   2.086   0.764   6.998
 4615SOL    HW114744   2.149   0.811   6.937
 4615SOL    HW214745   2.060   0.676   6.958
 4616SOL     OW14746   5.814   0.233   5.364
 4616SOL    HW114747   5.716   0.218   5.370
 4616SOL    HW214748   5.848   0.274   5.449
 4617SOL     OW14749   1.202   2.410   2.213
 4617SOL    HW114750   1.211   2.330   2.155
 4617SOL    HW214751   1.252   2.487   2.173
 4618SOL     OW14752   2.393   2.675   5.624
 4618SOL    HW114753   2.388   2.584   5.666
 4618SOL    HW214754   2.326   2.681   5.550
 4619SOL     OW14755   3.230   5.991   3.157
 4619SOL    HW114756   3.178   5.937   3.091
 4619SOL    HW214757   3.176   6.069   3.188
 4620SOL     OW14758   3.731   4.174   0.273
 4620SOL    HW114759   3.641   4.152   0.312
 4620SOL    HW214760   3.775   4.245   0.327
 4621SOL     OW14761   4.669   1.377   3.021
 4621SOL    HW114762   4.593   1.314   3.035
 4621SOL    HW214763   4.641   1.469   3.046
 4622SOL     OW14764   2.352   4.324   0.333
 4622SOL    HW114765   2.346   4.233   0.374
 4622SOL    HW214766   2.354   4.393   0.405
 4623SOL     OW14767   6.598   6.162   0.696
 4623SOL    HW114768   6.579   6.250   0.738
 4623SOL    HW214769   6.634   6.099   0.764
 4624SOL     OW14770   5.374   0.028   3.403
 4624SOL    HW114771   5.354   0.086   3.483
 4624SOL    HW214772   5.473   0.024   3.390
 4625SOL     OW14773   2.034   4.610   0.468
 4625SOL    HW114774   1.958   4.560   0.428
 4625SOL    HW214775   2.068   4.678   0.403
 4626SOL     OW14776   5.665   5.146   2.599
 4626SOL    HW114777   5.577   5.130   2.555
 4626SOL    HW214778   5.729   5.185   2.533
 4627SOL     OW14779   3.252   5.222   3.858
 4627SOL    HW114780   3.224   5.312   3.823
 4627SOL    HW214781   3.222   5.212   3.952
 4628SOL     OW14782   5.518   3.540   3.825
 4628SOL    HW114783   5.601   3.581   3.862
 4628SOL    HW214784   5.529   3.440   3.820
 4629SOL     OW14785   2.595   5.108   5.050
 4629SOL    HW114786   2.632   5.195   5.084
 4629SOL    HW214787   2.619   5.034   5.114
 4630SOL     OW14788   3.843   5.674   2.088
 4630SOL    HW114789   3.927   5.723   2.065
 4630SOL    HW214790   3.860   5.613   2.165
 4631SOL     OW14791   2.324   6.515   3.556
 4631SOL    HW114792   2.326   6.474   3.647
 4631SOL    HW214793   2.279   6.604   3.561
 4632SOL     OW14794   3.983   5.066   2.678
 4632SOL    HW114795   3.982   4.971   2.707
 4632SOL    HW214796   3.941   5.075   2.588
 4633SOL     OW14797   5.737   1.486   3.571
 4633SOL    HW114798   5.784   1.464   3.656
 4633SOL    HW214799   5.639   1.469   3.583
 4634SOL     OW14800   2.773   4.543   6.286
 4634SOL    HW114801   2.811   4.562   6.195
 4634SOL    HW214802   2.813   4.606   6.353
 4635SOL     OW14803   5.564   3.697   2.326
 4635SOL    HW114804   5.629   3.706   2.250
 4635SOL    HW214805   5.581   3.769   2.393
 4636SOL     OW14806   2.321   4.764   6.917
 4636SOL    HW114807   2.403   4.748   6.972
 4636SOL    HW214808   2.257   4.820   6.968
 4637SOL     OW14809   0.873   0.440   0.063
 4637SOL    HW114810   0.874   0.531   0.104
 4637SOL    HW214811   0.950   0.430   0.000
 4638SOL     OW14812   4.334   2.802   6.735
 4638SOL    HW114813   4.353   2.768   6.643
 4638SOL    HW214814   4.293   2.729   6.789
 4639SOL     OW14815   2.480   4.567   4.797
 4639SOL    HW114816   2.426   4.509   4.736
 4639SOL    HW214817   2.574   4.571   4.766
 4640SOL     OW14818   4.983   4.714   3.956
 4640SOL    HW114819   4.998   4.777   3.879
 4640SOL    HW214820   4.916   4.754   4.019
 4641SOL     OW14821   3.045   6.051   4.431
 4641SOL    HW114822   2.997   6.072   4.346
 4641SOL    HW214823   3.083   5.959   4.426
 4642SOL     OW14824   0.678   5.937   4.517
 4642SOL    HW114825   0.700   5.851   4.564
 4642SOL    HW214826   0.715   6.013   4.569
 4643SOL     OW14827   5.794   3.029   1.173
 4643SOL    HW114828   5.751   3.072   1.094
 4643SOL    HW214829   5.836   3.099   1.231
 4644SOL     OW14830   0.620   4.785   4.949
 4644SOL    HW114831   0.601   4.883   4.955
 4644SOL    HW214832   0.682   4.758   5.023
 4645SOL     OW14833   0.821   0.909   4.899
 4645SOL    HW114834   0.734   0.861   4.885
 4645SOL    HW214835   0.803   1.004   4.922
 4646SOL     OW14836   2.649   5.957   3.229
 4646SOL    HW114837   2.602   5.945   3.142
 4646SOL    HW214838   2.646   5.872   3.281
 4647SOL     OW14839   1.240   0.168   3.784
 4647SOL    HW114840   1.189   0.121   3.857
 4647SOL    HW214841   1.338   0.161   3.803
 4648SOL     OW14842   4.043   0.755   1.984
 4648SOL    HW114843   3.961   0.785   1.934
 4648SOL    HW214844   4.085   0.678   1.936
 4649SOL     OW14845   5.098   0.183   6.000
 4649SOL    HW114846   5.123   0.105   5.944
 4649SOL    HW214847   5.135   0.172   6.093
 4650SOL     OW14848   4.667   5.649   4.024
 4650SOL    HW114849   4.650   5.726   4.085
 4650SOL    HW214850   4.596   5.580   4.037
 4651SOL     OW14851   6.865   1.679   1.280
 4651SOL    HW114852   6.945   1.694   1.222
 4651SOL    HW214853   6.782   1.705   1.231
 4652SOL     OW14854   0.708   0.406   4.729
 4652SOL    HW114855   0.806   0.427   4.724
 4652SOL    HW214856   0.695   0.308   4.719
 4653SOL     OW14857   6.238   4.932   7.018
 4653SOL    HW114858   6.248   5.003   6.948
 4653SOL    HW214859   6.252   4.971   0.087
 4654SOL     OW14860   0.261   6.280   0.480
 4654SOL    HW114861   0.318   6.258   0.560
 4654SOL    HW214862   0.315   6.268   0.397
 4655SOL     OW14863   6.517   5.631   1.560
 4655SOL    HW114864   6.573   5.584   1.492
 4655SOL    HW214865   6.515   5.577   1.644
 4656SOL     OW14866   0.903   0.413   3.662
 4656SOL    HW114867   0.983   0.389   3.718
 4656SOL    HW214868   0.900   0.355   3.581
 4657SOL     OW14869   4.684   6.171   1.256
 4657SOL    HW114870   4.633   6.248   1.293
 4657SOL    HW214871   4.744   6.202   1.183
 4658SOL     OW14872   4.690   1.361   2.711
 4658SOL    HW114873   4.761   1.430   2.697
 4658SOL    HW214874   4.684   1.337   2.808
 4659SOL     OW14875   2.624   4.091   5.352
 4659SOL    HW114876   2.649   4.187   5.348
 4659SOL    HW214877   2.537   4.077   5.303
 4660SOL     OW14878   1.532   3.082   5.647
 4660SOL    HW114879   1.528   3.101   5.549
 4660SOL    HW214880   1.556   3.166   5.696
 4661SOL     OW14881   3.777   4.045   5.736
 4661SOL    HW114882   3.706   3.982   5.767
 4661SOL    HW214883   3.849   3.994   5.690
 4662SOL     OW14884   3.733   0.140   4.991
 4662SOL    HW114885   3.806   0.133   4.923
 4662SOL    HW214886   3.763   0.200   5.066
 4663SOL     OW14887   0.417   2.092   2.794
 4663SOL    HW114888   0.353   2.146   2.740
 4663SOL    HW214889   0.498   2.148   2.815
 4664SOL     OW14890   2.054   1.390   0.952
 4664SOL    HW114891   1.967   1.434   0.977
 4664SOL    HW214892   2.049   1.292   0.972
 4665SOL     OW14893   4.028   0.132   0.515
 4665SOL    HW114894   4.050   0.227   0.537
 4665SOL    HW214895   3.953   0.101   0.572
 4666SOL     OW14896   1.554   2.155   0.832
 4666SOL    HW114897   1.602   2.074   0.797
 4666SOL    HW214898   1.620   2.217   0.874
 4667SOL     OW14899   6.180   4.361   1.468
 4667SOL    HW114900   6.239   4.352   1.387
 4667SOL    HW214901   6.231   4.406   1.542
 4668SOL     OW14902   5.460   2.512   2.934
 4668SOL    HW114903   5.365   2.503   2.962
 4668SOL    HW214904   5.472   2.597   2.882
 4669SOL     OW14905   4.208   6.399   6.833
 4669SOL    HW114906   4.258   6.336   6.774
 4669SOL    HW214907   4.136   6.349   6.881
 4670SOL     OW14908   3.172   2.349   5.462
 4670SOL    HW114909   3.183   2.371   5.365
 4670SOL    HW214910   3.208   2.258   5.480
 4671SOL     OW14911   6.647   2.332   2.580
 4671SOL    HW114912   6.557   2.322   2.623
 4671SOL    HW214913   6.712   2.367   2.648
 4672SOL     OW14914   2.800   4.553   5.872
 4672SOL    HW114915   2.751   4.528   5.789
 4672SOL    HW214916   2.851   4.473   5.906
 4673SOL     OW14917   4.728   6.916   1.171
 4673SOL    HW114918   4.803   6.873   1.221
 4673SOL    HW214919   4.763   6.958   1.087
 4674SOL     OW14920   4.774   0.140   6.803
 4674SOL    HW114921   4.739   0.053   6.838
 4674SOL    HW214922   4.715   0.173   6.729
 4675SOL     OW14923   0.350   2.525   6.497
 4675SOL    HW114924   0.401   2.610   6.481
 4675SOL    HW214925   0.252   2.544   6.499
 4676SOL     OW14926   0.107   6.135   3.482
 4676SOL    HW114927   0.152   6.192   3.413
 4676SOL    HW214928   0.019   6.103   3.446
 4677SOL     OW14929   2.689   1.178   0.233
 4677SOL    HW114930   2.651   1.163   0.325
 4677SOL    HW214931   2.788   1.163   0.235
 4678SOL     OW14932   1.946   4.398   2.773
 4678SOL    HW114933   1.908   4.314   2.811
 4678SOL    HW214934   1.875   4.448   2.723
 4679SOL     OW14935   4.081   0.011   1.303
 4679SOL    HW114936   4.007   0.064   1.345
 4679SOL    HW214937   4.045   6.982   1.224
 4680SOL     OW14938   3.916   1.223   6.415
 4680SOL    HW114939   3.875   1.171   6.340
 4680SOL    HW214940   3.857   1.301   6.437
 4681SOL     OW14941   5.537   4.770   0.035
 4681SOL    HW114942   5.480   4.801   0.111
 4681SOL    HW214943   5.485   4.706   6.999
 4682SOL     OW14944   4.547   4.839   5.559
 4682SOL    HW114945   4.629   4.854   5.505
 4682SOL    HW214946   4.511   4.928   5.590
 4683SOL     OW14947   5.022   5.508   2.947
 4683SOL    HW114948   5.120   5.489   2.932
 4683SOL    HW214949   4.968   5.431   2.914
 4684SOL     OW14950   5.433   6.914   5.331
 4684SOL    HW114951   5.438   7.012   5.311
 4684SOL    HW214952   5.435   6.862   5.245
 4685SOL     OW14953   1.993   4.784   6.205
 4685SOL    HW114954   1.941   4.851   6.257
 4685SOL    HW214955   1.940   4.699   6.198
 4686SOL     OW14956   4.481   5.446   6.620
 4686SOL    HW114957   4.400   5.421   6.566
 4686SOL    HW214958   4.562   5.405   6.579
 4687SOL     OW14959   4.796   3.028   4.008
 4687SOL    HW114960   4.785   3.127   3.997
 4687SOL    HW214961   4.835   2.989   3.924
 4688SOL     OW14962   5.858   3.871   5.069
 4688SOL    HW114963   5.815   3.788   5.033
 4688SOL    HW214964   5.808   3.902   5.150
 4689SOL     OW14965   4.817   0.598   0.270
 4689SOL    HW114966   4.851   0.692   0.264
 4689SOL    HW214967   4.738   0.587   0.209
 4690SOL     OW14968   1.325   0.388   0.352
 4690SOL    HW114969   1.260   0.414   0.282
 4690SOL    HW214970   1.372   0.470   0.386
 4691SOL     OW14971   2.798   3.452   0.778
 4691SOL    HW114972   2.817   3.550   0.781
 4691SOL    HW214973   2.704   3.435   0.807
 4692SOL     OW14974   5.483   5.474   2.724
 4692SOL    HW114975   5.413   5.403   2.729
 4692SOL    HW214976   5.447   5.552   2.673
 4693SOL     OW14977   1.252   1.548   2.594
 4693SOL    HW114978   1.188   1.474   2.569
 4693SOL    HW214979   1.223   1.588   2.681
 4694SOL     OW14980   2.354   1.175   0.099
 4694SOL    HW114981   2.262   1.184   0.138
 4694SOL    HW214982   2.416   1.237   0.147
 4695SOL     OW14983   1.373   4.841   1.508
 4695SOL    HW114984   1.367   4.794   1.596
 4695SOL    HW214985   1.461   4.887   1.501
 4696SOL     OW14986   0.250   4.431   6.881
 4696SOL    HW114987   0.220   4.336   6.893
 4696SOL    HW214988   0.173   4.493   6.897
 4697SOL     OW14989   1.408   4.025   1.424
 4697SOL    HW114990   1.506   4.030   1.441
 4697SOL    HW214991   1.391   4.018   1.325
 4698SOL     OW14992   4.573   6.157   2.809
 4698SOL    HW114993   4.632   6.162   2.729
 4698SOL    HW214994   4.579   6.066   2.850
 4699SOL     OW14995   1.137   6.264   2.286
 4699SOL    HW114996   1.217   6.321   2.267
 4699SOL    HW214997   1.109   6.276   2.381
 4700SOL     OW14998   6.650   1.293   2.866
 4700SOL    HW114999   6.637   1.379   2.817
 4700SOL    HW215000   6.703   1.310   2.949
 4701SOL     OW15001   3.525   2.222   0.471
 4701SOL    HW115002   3.427   2.230   0.489
 4701SOL    HW215003   3.564   2.314   0.458
 4702SOL     OW15004   4.969   4.911   0.341
 4702SOL    HW115005   4.982   4.995   0.393
 4702SOL    HW215006   4.911   4.848   0.392
 4703SOL     OW15007   0.438   0.184   2.476
 4703SOL    HW115008   0.373   0.107   2.474
 4703SOL    HW215009   0.404   0.254   2.538
 4704SOL     OW15010   6.449   6.434   6.478
 4704SOL    HW115011   6.463   6.403   6.384
 4704SOL    HW215012   6.407   6.360   6.531
 4705SOL     OW15013   4.331   2.490   1.319
 4705SOL    HW115014   4.398   2.526   1.255
 4705SOL    HW215015   4.358   2.397   1.347
 4706SOL     OW15016   2.793   0.195   0.124
 4706SOL    HW115017   2.845   0.136   0.063
 4706SOL    HW215018   2.844   0.279   0.141
 4707SOL     OW15019   1.179   0.135   0.454
 4707SOL    HW115020   1.190   0.229   0.421
 4707SOL    HW215021   1.129   0.082   0.386
 4708SOL     OW15022   1.059   2.401   5.768
 4708SOL    HW115023   1.096   2.309   5.753
 4708SOL    HW215024   1.130   2.461   5.803
 4709SOL     OW15025   4.602   5.590   5.069
 4709SOL    HW115026   4.638   5.683   5.074
 4709SOL    HW215027   4.674   5.527   5.041
 4710SOL     OW15028   4.876   6.953   5.927
 4710SOL    HW115029   4.865   6.912   5.836
 4710SOL    HW215030   4.859   0.030   5.922
 4711SOL     OW15031   6.340   1.712   1.565
 4711SOL    HW115032   6.431   1.722   1.604
 4711SOL    HW215033   6.271   1.721   1.637
 4712SOL     OW15034   2.915   5.043   6.191
 4712SOL    HW115035   2.953   5.127   6.152
 4712SOL    HW215036   2.937   4.966   6.132
 4713SOL     OW15037   3.634   4.262   0.592
 4713SOL    HW115038   3.731   4.261   0.619
 4713SOL    HW215039   3.578   4.286   0.671
 4714SOL     OW15040   1.283   1.360   6.481
 4714SOL    HW115041   1.364   1.366   6.539
 4714SOL    HW215042   1.210   1.418   6.518
 4715SOL     OW15043   5.842   3.222   2.301
 4715SOL    HW115044   5.936   3.189   2.289
 4715SOL    HW215045   5.783   3.179   2.232
 4716SOL     OW15046   3.956   6.775   5.907
 4716SOL    HW115047   4.015   6.748   5.983
 4716SOL    HW215048   3.918   6.865   5.926
 4717SOL     OW15049   0.520   6.315   4.049
 4717SOL    HW115050   0.571   6.365   3.979
 4717SOL    HW215051   0.584   6.265   4.108
 4718SOL     OW15052   6.137   2.176   1.253
 4718SOL    HW115053   6.161   2.249   1.317
 4718SOL    HW215054   6.077   2.110   1.298
 4719SOL     OW15055   4.872   3.150   1.797
 4719SOL    HW115056   4.845   3.125   1.890
 4719SOL    HW215057   4.804   3.116   1.732
 4720SOL     OW15058   2.147   5.269   5.926
 4720SOL    HW115059   2.142   5.335   6.001
 4720SOL    HW215060   2.211   5.302   5.856
 4721SOL     OW15061   6.726   1.398   2.548
 4721SOL    HW115062   6.683   1.452   2.620
 4721SOL    HW215063   6.677   1.311   2.538
 4722SOL     OW15064   1.282   6.172   7.002
 4722SOL    HW115065   1.242   6.264   6.999
 4722SOL    HW215066   1.380   6.177   6.986
 4723SOL     OW15067   2.272   3.164   5.638
 4723SOL    HW115068   2.313   3.119   5.559
 4723SOL    HW215069   2.343   3.210   5.691
 4724SOL     OW15070   6.311   0.184   4.152
 4724SOL    HW115071   6.222   0.150   4.184
 4724SOL    HW215072   6.365   0.214   4.231
 4725SOL     OW15073   6.441   5.243   0.757
 4725SOL    HW115074   6.374   5.313   0.784
 4725SOL    HW215075   6.530   5.286   0.743
 4726SOL     OW15076   1.452   3.340   6.496
 4726SOL    HW115077   1.511   3.325   6.576
 4726SOL    HW215078   1.510   3.349   6.414
 4727SOL     OW15079   1.011   6.444   1.271
 4727SOL    HW115080   1.000   6.542   1.258
 4727SOL    HW215081   1.029   6.424   1.367
 4728SOL     OW15082   5.750   1.413   1.883
 4728SOL    HW115083   5.737   1.428   1.981
 4728SOL    HW215084   5.814   1.337   1.868
 4729SOL     OW15085   4.604   0.853   0.651
 4729SOL    HW115086   4.560   0.888   0.568
 4729SOL    HW215087   4.546   0.782   0.691
 4730SOL     OW15088   3.189   6.080   4.802
 4730SOL    HW115089   3.154   6.125   4.720
 4730SOL    HW215090   3.257   6.139   4.846
 4731SOL     OW15091   3.165   0.435   0.398
 4731SOL    HW115092   3.227   0.393   0.463
 4731SOL    HW215093   3.082   0.466   0.445
 4732SOL     OW15094   0.993   3.923   5.181
 4732SOL    HW115095   0.901   3.957   5.161
 4732SOL    HW215096   1.058   3.998   5.177
 4733SOL     OW15097   1.959   3.858   3.789
 4733SOL    HW115098   1.861   3.873   3.773
 4733SOL    HW215099   2.003   3.835   3.702
 4734SOL     OW15100   4.591   3.449   6.892
 4734SOL    HW115101   4.570   3.509   6.815
 4734SOL    HW215102   4.642   3.499   6.961
 4735SOL     OW15103   0.374   5.352   4.735
 4735SOL    HW115104   0.277   5.334   4.718
 4735SOL    HW215105   0.426   5.268   4.721
 4736SOL     OW15106   6.142   1.508   5.753
 4736SOL    HW115107   6.239   1.532   5.758
 4736SOL    HW215108   6.096   1.541   5.836
 4737SOL     OW15109   3.241   4.272   1.520
 4737SOL    HW115110   3.223   4.369   1.502
 4737SOL    HW215111   3.183   4.240   1.595
 4738SOL     OW15112   1.657   6.473   2.902
 4738SOL    HW115113   1.697   6.556   2.940
 4738SOL    HW215114   1.587   6.498   2.834
 4739SOL     OW15115   4.557   1.844   2.769
 4739SOL    HW115116   4.607   1.881   2.691
 4739SOL    HW215117   4.612   1.854   2.852
 4740SOL     OW15118   0.253   1.594   0.815
 4740SOL    HW115119   0.278   1.691   0.822
 4740SOL    HW215120   0.172   1.577   0.871
 4741SOL     OW15121   5.418   3.333   1.108
 4741SOL    HW115122   5.377   3.388   1.035
 4741SOL    HW215123   5.517   3.340   1.102
 4742SOL     OW15124   2.904   6.993   7.003
 4742SOL    HW115125   2.932   7.007   6.908
 4742SOL    HW215126   2.835   6.921   7.007
 4743SOL     OW15127   1.844   3.410   5.364
 4743SOL    HW115128   1.808   3.502   5.378
 4743SOL    HW215129   1.938   3.406   5.398
 4744SOL     OW15130   2.509   3.712   6.122
 4744SOL    HW115131   2.478   3.777   6.052
 4744SOL    HW215132   2.430   3.674   6.169
 4745SOL     OW15133   2.528   5.564   6.198
 4745SOL    HW115134   2.458   5.496   6.178
 4745SOL    HW215135   2.582   5.535   6.277
 4746SOL     OW15136   5.604   6.700   2.477
 4746SOL    HW115137   5.559   6.736   2.396
 4746SOL    HW215138   5.702   6.719   2.473
 4747SOL     OW15139   1.851   3.954   6.572
 4747SOL    HW115140   1.866   3.914   6.663
 4747SOL    HW215141   1.893   4.044   6.567
 4748SOL     OW15142   0.693   4.821   0.662
 4748SOL    HW115143   0.692   4.750   0.732
 4748SOL    HW215144   0.786   4.859   0.654
 4749SOL     OW15145   2.830   6.297   5.465
 4749SOL    HW115146   2.907   6.283   5.527
 4749SOL    HW215147   2.761   6.226   5.479
 4750SOL     OW15148   0.167   3.538   3.648
 4750SOL    HW115149   0.233   3.566   3.717
 4750SOL    HW215150   0.114   3.617   3.618
 4751SOL     OW15151   2.783   2.673   0.935
 4751SOL    HW115152   2.703   2.716   0.892
 4751SOL    HW215153   2.810   2.726   1.015
 4752SOL     OW15154   3.071   0.221   6.903
 4752SOL    HW115155   2.983   0.270   6.900
 4752SOL    HW215156   3.076   0.156   6.828
 4753SOL     OW15157   4.964   0.853   4.011
 4753SOL    HW115158   4.957   0.939   3.960
 4753SOL    HW215159   5.057   0.818   4.006
 4754SOL     OW15160   6.380   0.238   4.620
 4754SOL    HW115161   6.412   0.149   4.653
 4754SOL    HW215162   6.427   0.311   4.669
 4755SOL     OW15163   2.344   0.410   0.872
 4755SOL    HW115164   2.248   0.410   0.844
 4755SOL    HW215165   2.350   0.409   0.972
 4756SOL     OW15166   6.268   3.538   1.533
 4756SOL    HW115167   6.312   3.464   1.481
 4756SOL    HW215168   6.180   3.559   1.491
 4757SOL     OW15169   2.419   1.812   0.619
 4757SOL    HW115170   2.344   1.847   0.675
 4757SOL    HW215171   2.393   1.813   0.522
 4758SOL     OW15172   1.834   6.089   4.142
 4758SOL    HW115173   1.763   6.026   4.109
 4758SOL    HW215174   1.855   6.070   4.238
 4759SOL     OW15175   5.587   5.177   4.723
 4759SOL    HW115176   5.528   5.255   4.747
 4759SOL    HW215177   5.539   5.117   4.659
 4760SOL     OW15178   3.461   1.810   0.460
 4760SOL    HW115179   3.469   1.754   0.378
 4760SOL    HW215180   3.372   1.855   0.461
 4761SOL     OW15181   0.366   6.047   0.093
 4761SOL    HW115182   0.282   6.053   0.039
 4761SOL    HW215183   0.431   5.987   0.048
 4762SOL     OW15184   1.699   5.849   2.901
 4762SOL    HW115185   1.609   5.888   2.921
 4762SOL    HW215186   1.688   5.755   2.867
 4763SOL     OW15187   6.400   6.297   3.488
 4763SOL    HW115188   6.459   6.344   3.421
 4763SOL    HW215189   6.307   6.335   3.483
 4764SOL     OW15190   4.910   3.856   4.961
 4764SOL    HW115191   4.873   3.911   4.886
 4764SOL    HW215192   4.866   3.766   4.962
 4765SOL     OW15193   4.475   0.968   4.549
 4765SOL    HW115194   4.458   1.067   4.544
 4765SOL    HW215195   4.542   0.942   4.480
 4766SOL     OW15196   4.982   5.786   4.193
 4766SOL    HW115197   4.957   5.868   4.244
 4766SOL    HW215198   5.000   5.809   4.098
 4767SOL     OW15199   3.775   5.240   5.726
 4767SOL    HW115200   3.755   5.198   5.638
 4767SOL    HW215201   3.820   5.173   5.786
 4768SOL     OW15202   4.546   1.679   5.500
 4768SOL    HW115203   4.571   1.716   5.590
 4768SOL    HW215204   4.617   1.701   5.434
 4769SOL     OW15205   5.293   4.654   0.151
 4769SOL    HW115206   5.273   4.751   0.165
 4769SOL    HW215207   5.216   4.611   0.104
 4770SOL     OW15208   1.243   0.890   4.621
 4770SOL    HW115209   1.188   0.849   4.694
 4770SOL    HW215210   1.335   0.909   4.656
 4771SOL     OW15211   3.078   5.419   5.659
 4771SOL    HW115212   3.037   5.473   5.733
 4771SOL    HW215213   3.174   5.445   5.649
 4772SOL     OW15214   3.040   4.491   1.064
 4772SOL    HW115215   3.001   4.409   1.105
 4772SOL    HW215216   3.077   4.468   0.974
 4773SOL     OW15217   6.899   5.863   4.958
 4773SOL    HW115218   6.837   5.798   5.004
 4773SOL    HW215219   6.885   5.857   4.859
 4774SOL     OW15220   1.211   2.148   2.150
 4774SOL    HW115221   1.280   2.075   2.159
 4774SOL    HW215222   1.154   2.129   2.070
 4775SOL     OW15223   5.131   6.846   2.680
 4775SOL    HW115224   5.079   6.915   2.730
 4775SOL    HW215225   5.105   6.849   2.583
 4776SOL     OW15226   1.191   6.114   5.467
 4776SOL    HW115227   1.160   6.152   5.554
 4776SOL    HW215228   1.129   6.143   5.393
 4777SOL     OW15229   2.809   4.846   1.351
 4777SOL    HW115230   2.712   4.829   1.338
 4777SOL    HW215231   2.836   4.930   1.304
 4778SOL     OW15232   6.748   2.662   3.149
 4778SOL    HW115233   6.694   2.738   3.188
 4778SOL    HW215234   6.788   2.691   3.062
 4779SOL     OW15235   6.046   6.464   2.409
 4779SOL    HW115236   6.044   6.365   2.391
 4779SOL    HW215237   6.100   6.509   2.338
 4780SOL     OW15238   6.699   0.599   0.434
 4780SOL    HW115239   6.642   0.635   0.509
 4780SOL    HW215240   6.742   0.514   0.463
 4781SOL     OW15241   1.888   6.169   2.072
 4781SOL    HW115242   1.869   6.092   2.012
 4781SOL    HW215243   1.985   6.194   2.064
 4782SOL     OW15244   4.177   6.121   6.745
 4782SOL    HW115245   4.099   6.074   6.786
 4782SOL    HW215246   4.254   6.057   6.737
 4783SOL     OW15247   4.904   4.788   7.000
 4783SOL    HW115248   4.895   4.794   6.900
 4783SOL    HW215249   4.890   4.878   0.019
 4784SOL     OW15250   5.867   4.074   0.209
 4784SOL    HW115251   5.781   4.115   0.179
 4784SOL    HW215252   5.887   3.993   0.154
 4785SOL     OW15253   6.567   5.870   1.937
 4785SOL    HW115254   6.634   5.796   1.930
 4785SOL    HW215255   6.541   5.900   1.845
 4786SOL     OW15256   2.675   1.574   0.357
 4786SOL    HW115257   2.719   1.491   0.324
 4786SOL    HW215258   2.740   1.628   0.410
 4787SOL     OW15259   4.367   1.324   2.463
 4787SOL    HW115260   4.380   1.423   2.470
 4787SOL    HW215261   4.269   1.304   2.458
 4788SOL     OW15262   1.032   5.282   6.046
 4788SOL    HW115263   1.057   5.369   6.088
 4788SOL    HW215264   0.989   5.299   5.957
 4789SOL     OW15265   5.375   1.459   0.991
 4789SOL    HW115266   5.416   1.483   0.903
 4789SOL    HW215267   5.443   1.412   1.047
 4790SOL     OW15268   6.495   2.561   4.689
 4790SOL    HW115269   6.536   2.644   4.651
 4790SOL    HW215270   6.510   2.559   4.787
 4791SOL     OW15271   6.107   2.647   1.273
 4791SOL    HW115272   6.094   2.595   1.357
 4791SOL    HW215273   6.126   2.584   1.198
 4792SOL     OW15274   2.102   3.642   3.159
 4792SOL    HW115275   2.118   3.714   3.092
 4792SOL    HW215276   2.122   3.553   3.118
 4793SOL     OW15277   2.162   2.569   5.839
 4793SOL    HW115278   2.077   2.523   5.813
 4793SOL    HW215279   2.156   2.666   5.817
 4794SOL     OW15280   4.094   0.463   3.506
 4794SOL    HW115281   4.016   0.437   3.563
 4794SOL    HW215282   4.111   0.391   3.438
 4795SOL     OW15283   6.639   2.219   4.391
 4795SOL    HW115284   6.618   2.169   4.306
 4795SOL    HW215285   6.573   2.294   4.401
 4796SOL     OW15286   4.992   1.652   5.589
 4796SOL    HW115287   4.938   1.633   5.671
 4796SOL    HW215288   5.089   1.653   5.612
 4797SOL     OW15289   1.900   6.396   6.222
 4797SOL    HW115290   1.855   6.443   6.299
 4797SOL    HW215291   1.839   6.397   6.143
 4798SOL     OW15292   0.060   3.164   4.842
 4798SOL    HW115293   0.142   3.130   4.889
 4798SOL    HW215294   0.066   3.142   4.745
 4799SOL     OW15295   5.004   2.591   6.581
 4799SOL    HW115296   5.020   2.539   6.665
 4799SOL    HW215297   5.062   2.555   6.508
 4800SOL     OW15298   3.311   3.449   6.071
 4800SOL    HW115299   3.332   3.353   6.092
 4800SOL    HW215300   3.261   3.453   5.985
 4801SOL     OW15301   2.934   2.146   0.412
 4801SOL    HW115302   2.914   2.050   0.432
 4801SOL    HW215303   2.962   2.192   0.496
 4802SOL     OW15304   1.045   6.323   2.008
 4802SOL    HW115305   1.039   6.319   2.107
 4802SOL    HW215306   0.958   6.294   1.968
 4803SOL     OW15307   0.868   5.192   1.128
 4803SOL    HW115308   0.956   5.240   1.130
 4803SOL    HW215309   0.884   5.094   1.144
 4804SOL     OW15310   5.324   5.615   6.676
 4804SOL    HW115311   5.413   5.646   6.642
 4804SOL    HW215312   5.252   5.676   6.641
 4805SOL     OW15313   5.897   0.922   1.801
 4805SOL    HW115314   5.862   0.889   1.889
 4805SOL    HW215315   5.992   0.894   1.791
 4806SOL     OW15316   0.555   4.568   3.279
 4806SOL    HW115317   0.488   4.637   3.249
 4806SOL    HW215318   0.532   4.539   3.372
 4807SOL     OW15319   0.976   4.575   0.478
 4807SOL    HW115320   0.906   4.607   0.414
 4807SOL    HW215321   0.955   4.607   0.570
 4808SOL     OW15322   5.663   3.424   6.482
 4808SOL    HW115323   5.694   3.335   6.517
 4808SOL    HW215324   5.718   3.497   6.522
 4809SOL     OW15325   3.649   4.193   0.014
 4809SOL    HW115326   3.720   4.141   6.989
 4809SOL    HW215327   3.666   4.192   0.113
 4810SOL     OW15328   1.217   5.355   2.420
 4810SOL    HW115329   1.241   5.415   2.343
 4810SOL    HW215330   1.209   5.409   2.503
 4811SOL     OW15331   2.330   4.352   1.623
 4811SOL    HW115332   2.312   4.274   1.563
 4811SOL    HW215333   2.375   4.320   1.707
 4812SOL     OW15334   6.593   5.429   4.416
 4812SOL    HW115335   6.541   5.411   4.500
 4812SOL    HW215336   6.578   5.355   4.351
 4813SOL     OW15337   4.856   1.794   0.931
 4813SOL    HW115338   4.825   1.708   0.972
 4813SOL    HW215339   4.886   1.777   0.837
 4814SOL     OW15340   6.328   3.705   0.534
 4814SOL    HW115341   6.406   3.768   0.537
 4814SOL    HW215342   6.260   3.738   0.469
 4815SOL     OW15343   5.575   4.788   2.834
 4815SOL    HW115344   5.538   4.710   2.883
 4815SOL    HW215345   5.578   4.769   2.736
 4816SOL     OW15346   1.335   5.329   1.125
 4816SOL    HW115347   1.400   5.264   1.164
 4816SOL    HW215348   1.378   5.420   1.119
 4817SOL     OW15349   0.566   2.200   6.727
 4817SOL    HW115350   0.508   2.264   6.677
 4817SOL    HW215351   0.633   2.250   6.781
 4818SOL     OW15352   1.057   0.145   4.948
 4818SOL    HW115353   1.076   0.187   4.859
 4818SOL    HW215354   0.963   0.165   4.974
 4819SOL     OW15355   1.343   2.080   0.572
 4819SOL    HW115356   1.261   2.022   0.572
 4819SOL    HW215357   1.401   2.057   0.650
 4820SOL     OW15358   5.905   2.989   1.743
 4820SOL    HW115359   5.938   2.945   1.827
 4820SOL    HW215360   5.960   2.958   1.665
 4821SOL     OW15361   0.609   5.662   2.920
 4821SOL    HW115362   0.585   5.758   2.906
 4821SOL    HW215363   0.557   5.625   2.997
 4822SOL     OW15364   2.798   1.868   4.757
 4822SOL    HW115365   2.825   1.900   4.848
 4822SOL    HW215366   2.795   1.946   4.694
 4823SOL     OW15367   2.062   0.921   4.297
 4823SOL    HW115368   2.069   0.822   4.284
 4823SOL    HW215369   1.976   0.953   4.259
 4824SOL     OW15370   4.850   2.789   5.077
 4824SOL    HW115371   4.879   2.774   5.171
 4824SOL    HW215372   4.774   2.727   5.055
 4825SOL     OW15373   1.856   3.035   4.708
 4825SOL    HW115374   1.891   2.948   4.742
 4825SOL    HW215375   1.870   3.106   4.777
 4826SOL     OW15376   5.470   1.220   0.339
 4826SOL    HW115377   5.524   1.157   0.395
 4826SOL    HW215378   5.532   1.273   0.281
 4827SOL     OW15379   6.304   1.626   0.666
 4827SOL    HW115380   6.349   1.714   0.682
 4827SOL    HW215381   6.210   1.629   0.700
 4828SOL     OW15382   4.949   1.914   1.169
 4828SOL    HW115383   4.898   1.853   1.108
 4828SOL    HW215384   5.042   1.926   1.134
 4829SOL     OW15385   3.875   6.915   5.063
 4829SOL    HW115386   3.807   6.984   5.038
 4829SOL    HW215387   3.963   6.938   5.021
 4830SOL     OW15388   3.943   5.758   4.536
 4830SOL    HW115389   3.973   5.666   4.562
 4830SOL    HW215390   3.934   5.763   4.436
 4831SOL     OW15391   1.235   4.212   6.014
 4831SOL    HW115392   1.328   4.207   5.978
 4831SOL    HW215393   1.170   4.226   5.939
 4832SOL     OW15394   3.630   3.958   3.654
 4832SOL    HW115395   3.702   4.001   3.709
 4832SOL    HW215396   3.561   4.026   3.630
 4833SOL     OW15397   5.819   1.086   2.641
 4833SOL    HW115398   5.752   1.055   2.574
 4833SOL    HW215399   5.793   1.177   2.675
 4834SOL     OW15400   2.813   6.405   1.486
 4834SOL    HW115401   2.908   6.437   1.478
 4834SOL    HW215402   2.778   6.427   1.577
 4835SOL     OW15403   5.807   1.758   6.407
 4835SOL    HW115404   5.798   1.795   6.315
 4835SOL    HW215405   5.733   1.693   6.424
 4836SOL     OW15406   5.093   2.075   4.722
 4836SOL    HW115407   5.143   2.031   4.797
 4836SOL    HW215408   5.004   2.030   4.711
 4837SOL     OW15409   0.382   3.862   3.000
 4837SOL    HW115410   0.354   3.885   2.907
 4837SOL    HW215411   0.354   3.769   3.022
 4838SOL     OW15412   1.153   5.619   0.234
 4838SOL    HW115413   1.095   5.610   0.316
 4838SOL    HW215414   1.225   5.550   0.237
 4839SOL     OW15415   1.199   3.912   0.250
 4839SOL    HW115416   1.179   3.923   0.152
 4839SOL    HW215417   1.115   3.890   0.299
 4840SOL     OW15418   6.880   4.776   6.368
 4840SOL    HW115419   6.979   4.783   6.358
 4840SOL    HW215420   6.836   4.780   6.279
 4841SOL     OW15421   2.357   5.289   2.689
 4841SOL    HW115422   2.310   5.348   2.623
 4841SOL    HW215423   2.446   5.263   2.651
 4842SOL     OW15424   3.491   5.117   2.242
 4842SOL    HW115425   3.452   5.150   2.156
 4842SOL    HW215426   3.571   5.060   2.224
 4843SOL     OW15427   6.139   2.761   1.579
 4843SOL    HW115428   6.118   2.665   1.598
 4843SOL    HW215429   6.093   2.789   1.495
 4844SOL     OW15430   0.132   3.144   6.401
 4844SOL    HW115431   0.090   3.137   6.492
 4844SOL    HW215432   0.088   3.217   6.349
 4845SOL     OW15433   5.747   4.687   6.371
 4845SOL    HW115434   5.698   4.680   6.284
 4845SOL    HW215435   5.723   4.773   6.415
 4846SOL     OW15436   6.914   2.204   3.523
 4846SOL    HW115437   6.987   2.272   3.521
 4846SOL    HW215438   6.948   2.118   3.562
 4847SOL     OW15439   2.272   1.108   6.268
 4847SOL    HW115440   2.227   1.019   6.274
 4847SOL    HW215441   2.276   1.150   6.359
 4848SOL     OW15442   2.028   0.764   4.601
 4848SOL    HW115443   2.034   0.724   4.510
 4848SOL    HW215444   1.933   0.760   4.633
 4849SOL     OW15445   1.809   5.649   0.155
 4849SOL    HW115446   1.763   5.574   0.201
 4849SOL    HW215447   1.744   5.722   0.136
 4850SOL     OW15448   4.253   1.025   1.510
 4850SOL    HW115449   4.302   0.972   1.441
 4850SOL    HW215450   4.214   0.962   1.577
 4851SOL     OW15451   3.300   6.799   5.874
 4851SOL    HW115452   3.262   6.783   5.966
 4851SOL    HW215453   3.361   6.878   5.877
 4852SOL     OW15454   2.248   5.958   4.775
 4852SOL    HW115455   2.217   5.975   4.682
 4852SOL    HW215456   2.339   5.916   4.773
 4853SOL     OW15457   3.741   1.531   3.699
 4853SOL    HW115458   3.674   1.577   3.642
 4853SOL    HW215459   3.808   1.485   3.641
 4854SOL     OW15460   4.522   6.549   2.166
 4854SOL    HW115461   4.446   6.596   2.211
 4854SOL    HW215462   4.607   6.568   2.215
 4855SOL     OW15463   5.948   2.466   4.824
 4855SOL    HW115464   5.871   2.513   4.866
 4855SOL    HW215465   5.918   2.378   4.787
 4856SOL     OW15466   1.739   3.534   3.031
 4856SOL    HW115467   1.807   3.485   3.085
 4856SOL    HW215468   1.650   3.490   3.041
 4857SOL     OW15469   2.708   2.320   3.536
 4857SOL    HW115470   2.650   2.366   3.603
 4857SOL    HW215471   2.666   2.234   3.508
 4858SOL     OW15472   0.005   6.762   5.251
 4858SOL    HW115473   0.086   6.772   5.308
 4858SOL    HW215474   7.008   6.848   5.204
 4859SOL     OW15475   0.511   5.275   2.630
 4859SOL    HW115476   0.460   5.359   2.608
 4859SOL    HW215477   0.468   5.230   2.708
 4860SOL     OW15478   4.512   4.013   0.521
 4860SOL    HW115479   4.570   3.954   0.576
 4860SOL    HW215480   4.551   4.023   0.430
 4861SOL     OW15481   6.166   4.942   6.707
 4861SOL    HW115482   6.090   5.000   6.738
 4861SOL    HW215483   6.253   4.985   6.733
 4862SOL     OW15484   2.319   4.625   5.005
 4862SOL    HW115485   2.250   4.559   4.975
 4862SOL    HW215486   2.408   4.599   4.969
 4863SOL     OW15487   5.281   3.299   2.059
 4863SOL    HW115488   5.265   3.259   2.149
 4863SOL    HW215489   5.201   3.283   2.001
 4864SOL     OW15490   3.298   1.314   2.051
 4864SOL    HW115491   3.271   1.382   1.984
 4864SOL    HW215492   3.283   1.350   2.143
 4865SOL     OW15493   1.849   6.082   4.661
 4865SOL    HW115494   1.773   6.133   4.701
 4865SOL    HW215495   1.936   6.123   4.691
 4866SOL     OW15496   5.907   4.808   1.631
 4866SOL    HW115497   5.987   4.759   1.596
 4866SOL    HW215498   5.846   4.743   1.676
 4867SOL     OW15499   4.982   5.699   3.198
 4867SOL    HW115500   5.072   5.685   3.240
 4867SOL    HW215501   4.971   5.636   3.121
 4868SOL     OW15502   0.054   5.222   2.110
 4868SOL    HW115503   0.077   5.143   2.166
 4868SOL    HW215504   0.134   5.251   2.058
 4869SOL     OW15505   0.658   1.977   1.978
 4869SOL    HW115506   0.613   2.046   1.922
 4869SOL    HW215507   0.640   1.996   2.075
 4870SOL     OW15508   6.186   5.685   1.982
 4870SOL    HW115509   6.282   5.706   2.002
 4870SOL    HW215510   6.139   5.660   2.067
 4871SOL     OW15511   0.422   1.434   4.540
 4871SOL    HW115512   0.519   1.453   4.531
 4871SOL    HW215513   0.376   1.511   4.583
 4872SOL     OW15514   0.151   6.322   4.516
 4872SOL    HW115515   0.174   6.374   4.598
 4872SOL    HW215516   0.228   6.263   4.491
 4873SOL     OW15517   6.881   4.794   3.894
 4873SOL    HW115518   6.808   4.859   3.872
 4873SOL    HW215519   6.967   4.827   3.857
 4874SOL     OW15520   6.023   3.579   2.915
 4874SOL    HW115521   6.080   3.502   2.887
 4874SOL    HW215522   6.006   3.573   3.014
 4875SOL     OW15523   4.867   2.531   1.197
 4875SOL    HW115524   4.829   2.576   1.116
 4875SOL    HW215525   4.924   2.454   1.168
 4876SOL     OW15526   5.677   0.903   4.604
 4876SOL    HW115527   5.686   0.819   4.551
 4876SOL    HW215528   5.735   0.897   4.685
 4877SOL     OW15529   6.761   1.911   0.020
 4877SOL    HW115530   6.730   1.924   6.948
 4877SOL    HW215531   6.698   1.851   0.069
 4878SOL     OW15532   6.434   1.173   2.965
 4878SOL    HW115533   6.354   1.233   2.957
 4878SOL    HW215534   6.513   1.215   2.921
 4879SOL     OW15535   4.406   4.908   3.480
 4879SOL    HW115536   4.398   4.844   3.556
 4879SOL    HW215537   4.418   5.001   3.516
 4880SOL     OW15538   6.238   3.315   6.619
 4880SOL    HW115539   6.150   3.357   6.639
 4880SOL    HW215540   6.236   3.277   6.526
 4881SOL     OW15541   2.285   6.720   6.627
 4881SOL    HW115542   2.343   6.705   6.546
 4881SOL    HW215543   2.191   6.694   6.605
 4882SOL     OW15544   5.544   1.345   4.198
 4882SOL    HW115545   5.570   1.407   4.273
 4882SOL    HW215546   5.491   1.395   4.130
 4883SOL     OW15547   5.005   4.959   2.219
 4883SOL    HW115548   5.046   5.049   2.234
 4883SOL    HW215549   5.009   4.906   2.303
 4884SOL     OW15550   4.380   0.176   1.200
 4884SOL    HW115551   4.367   0.231   1.282
 4884SOL    HW215552   4.354   0.081   1.219
 4885SOL     OW15553   2.886   6.265   2.144
 4885SOL    HW115554   2.808   6.292   2.088
 4885SOL    HW215555   2.971   6.291   2.097
 4886SOL     OW15556   6.645   5.427   6.038
 4886SOL    HW115557   6.639   5.378   5.951
 4886SOL    HW215558   6.730   5.403   6.084
 4887SOL     OW15559   0.151   0.469   2.925
 4887SOL    HW115560   0.217   0.544   2.914
 4887SOL    HW215561   0.176   0.415   3.006
 4888SOL     OW15562   1.937   6.615   4.181
 4888SOL    HW115563   1.909   6.693   4.238
 4888SOL    HW215564   1.943   6.533   4.238
 4889SOL     OW15565   6.168   0.543   6.427
 4889SOL    HW115566   6.141   0.622   6.372
 4889SOL    HW215567   6.133   0.553   6.520
 4890SOL     OW15568   1.103   1.926   5.605
 4890SOL    HW115569   1.015   1.881   5.617
 4890SOL    HW215570   1.139   1.906   5.514
 4891SOL     OW15571   1.128   5.850   0.746
 4891SOL    HW115572   1.167   5.848   0.838
 4891SOL    HW215573   1.180   5.788   0.687
 4892SOL     OW15574   2.264   6.792   2.099
 4892SOL    HW115575   2.185   6.847   2.070
 4892SOL    HW215576   2.280   6.720   2.031
 4893SOL     OW15577   6.491   4.195   0.402
 4893SOL    HW115578   6.558   4.146   0.347
 4893SOL    HW215579   6.452   4.134   0.471
 4894SOL     OW15580   2.120   1.778   1.988
 4894SOL    HW115581   2.183   1.829   2.047
 4894SOL    HW215582   2.097   1.833   1.908
 4895SOL     OW15583   0.242   4.737   2.446
 4895SOL    HW115584   0.154   4.773   2.418
 4895SOL    HW215585   0.255   4.646   2.408
 4896SOL     OW15586   2.422   5.215   1.801
 4896SOL    HW115587   2.434   5.313   1.818
 4896SOL    HW215588   2.504   5.166   1.833
 4897SOL     OW15589   2.460   4.995   5.678
 4897SOL    HW115590   2.494   4.995   5.772
 4897SOL    HW215591   2.389   4.925   5.669
 4898SOL     OW15592   5.117   1.022   4.843
 4898SOL    HW115593   5.071   0.958   4.905
 4898SOL    HW215594   5.166   1.091   4.898
 4899SOL     OW15595   5.938   4.605   3.624
 4899SOL    HW115596   5.853   4.590   3.675
 4899SOL    HW215597   5.950   4.703   3.607
 4900SOL     OW15598   1.785   5.719   5.445
 4900SOL    HW115599   1.852   5.790   5.426
 4900SOL    HW215600   1.746   5.687   5.358
 4901SOL     OW15601   2.615   6.821   5.338
 4901SOL    HW115602   2.566   6.877   5.272
 4901SOL    HW215603   2.670   6.753   5.290
 4902SOL     OW15604   2.898   2.196   5.005
 4902SOL    HW115605   2.981   2.242   5.037
 4902SOL    HW215606   2.917   2.099   4.990
 4903SOL     OW15607   3.109   6.665   6.578
 4903SOL    HW115608   3.203   6.691   6.601
 4903SOL    HW215609   3.075   6.726   6.506
 4904SOL     OW15610   0.810   0.522   3.946
 4904SOL    HW115611   0.767   0.498   4.033
 4904SOL    HW215612   0.902   0.483   3.942
 4905SOL     OW15613   4.198   1.679   2.297
 4905SOL    HW115614   4.238   1.768   2.275
 4905SOL    HW215615   4.255   1.606   2.258
 4906SOL     OW15616   3.927   1.607   6.601
 4906SOL    HW115617   3.865   1.530   6.615
 4906SOL    HW215618   3.927   1.666   6.682
 4907SOL     OW15619   4.929   6.293   1.118
 4907SOL    HW115620   4.884   6.376   1.086
 4907SOL    HW215621   5.021   6.288   1.080
 4908SOL     OW15622   4.763   4.755   6.631
 4908SOL    HW115623   4.671   4.726   6.605
 4908SOL    HW215624   4.767   4.855   6.633
 4909SOL     OW15625   6.640   0.300   5.108
 4909SOL    HW115626   6.673   0.350   5.188
 4909SOL    HW215627   6.718   0.256   5.062
 4910SOL     OW15628   5.670   6.814   4.469
 4910SOL    HW115629   5.723   6.751   4.525
 4910SOL    HW215630   5.583   6.835   4.515
 4911SOL     OW15631   6.662   2.856   5.593
 4911SOL    HW115632   6.563   2.859   5.588
 4911SOL    HW215633   6.690   2.814   5.680
 4912SOL     OW15634   5.442   2.397   1.464
 4912SOL    HW115635   5.400   2.466   1.405
 4912SOL    HW215636   5.447   2.310   1.415
 4913SOL     OW15637   3.786   3.629   3.579
 4913SOL    HW115638   3.724   3.578   3.639
 4913SOL    HW215639   3.756   3.620   3.484
 4914SOL     OW15640   3.051   6.822   4.792
 4914SOL    HW115641   3.092   6.791   4.879
 4914SOL    HW215642   2.987   6.896   4.811
 4915SOL     OW15643   4.294   0.320   4.853
 4915SOL    HW115644   4.341   0.402   4.822
 4915SOL    HW215645   4.319   0.243   4.794
 4916SOL     OW15646   1.963   1.678   3.582
 4916SOL    HW115647   2.061   1.683   3.565
 4916SOL    HW215648   1.943   1.710   3.675
 4917SOL     OW15649   1.539   4.928   0.674
 4917SOL    HW115650   1.635   4.897   0.679
 4917SOL    HW215651   1.485   4.879   0.742
 4918SOL     OW15652   3.060   6.706   2.966
 4918SOL    HW115653   3.079   6.644   3.042
 4918SOL    HW215654   3.041   6.797   3.002
 4919SOL     OW15655   2.047   1.732   0.771
 4919SOL    HW115656   2.121   1.751   0.836
 4919SOL    HW215657   2.032   1.811   0.712
 4920SOL     OW15658   4.874   0.413   6.176
 4920SOL    HW115659   4.922   0.474   6.113
 4920SOL    HW215660   4.940   0.368   6.235
 4921SOL     OW15661   1.846   4.497   1.185
 4921SOL    HW115662   1.802   4.414   1.150
 4921SOL    HW215663   1.923   4.470   1.243
 4922SOL     OW15664   1.781   3.369   4.799
 4922SOL    HW115665   1.756   3.376   4.702
 4922SOL    HW215666   1.719   3.426   4.853
 4923SOL     OW15667   3.485   1.308   1.022
 4923SOL    HW115668   3.430   1.225   1.013
 4923SOL    HW215669   3.426   1.388   1.010
 4924SOL     OW15670   2.052   2.576   6.234
 4924SOL    HW115671   2.140   2.577   6.186
 4924SOL    HW215672   2.016   2.670   6.239
 4925SOL     OW15673   5.777   6.451   0.676
 4925SOL    HW115674   5.703   6.515   0.698
 4925SOL    HW215675   5.789   6.447   0.577
 4926SOL     OW15676   4.690   2.182   1.143
 4926SOL    HW115677   4.690   2.239   1.225
 4926SOL    HW215678   4.657   2.090   1.166
 4927SOL     OW15679   3.948   3.954   4.063
 4927SOL    HW115680   3.984   3.954   4.156
 4927SOL    HW215681   3.850   3.977   4.065
 4928SOL     OW15682   0.064   0.462   6.849
 4928SOL    HW115683   0.094   0.445   6.755
 4928SOL    HW215684   0.141   0.497   6.903
 4929SOL     OW15685   1.321   4.484   4.580
 4929SOL    HW115686   1.349   4.533   4.497
 4929SOL    HW215687   1.402   4.451   4.628
 4930SOL     OW15688   6.576   0.502   1.984
 4930SOL    HW115689   6.526   0.537   2.063
 4930SOL    HW215690   6.608   0.580   1.929
 4931SOL     OW15691   0.182   7.018   1.038
 4931SOL    HW115692   0.144   6.949   0.976
 4931SOL    HW215693   0.127   7.021   1.121
 4932SOL     OW15694   2.446   2.826   1.696
 4932SOL    HW115695   2.535   2.867   1.678
 4932SOL    HW215696   2.410   2.863   1.782
 4933SOL     OW15697   2.807   6.991   4.307
 4933SOL    HW115698   2.791   6.917   4.242
 4933SOL    HW215699   2.861   0.042   4.262
 4934SOL     OW15700   1.389   5.291   2.706
 4934SOL    HW115701   1.367   5.276   2.610
 4934SOL    HW215702   1.345   5.220   2.762
 4935SOL     OW15703   1.079   1.406   6.898
 4935SOL    HW115704   1.057   1.503   6.888
 4935SOL    HW215705   1.167   1.386   6.856
 4936SOL     OW15706   2.254   5.347   2.289
 4936SOL    HW115707   2.277   5.391   2.376
 4936SOL    HW215708   2.333   5.351   2.228
 4937SOL     OW15709   6.635   2.954   5.918
 4937SOL    HW115710   6.668   2.971   6.010
 4937SOL    HW215711   6.671   3.023   5.856
 4938SOL     OW15712   2.973   5.585   0.825
 4938SOL    HW115713   2.970   5.485   0.822
 4938SOL    HW215714   2.889   5.620   0.866
 4939SOL     OW15715   1.067   1.553   4.030
 4939SOL    HW115716   1.118   1.565   3.945
 4939SOL    HW215717   1.131   1.554   4.107
 4940SOL     OW15718   0.728   1.456   6.191
 4940SOL    HW115719   0.766   1.539   6.234
 4940SOL    HW215720   0.803   1.400   6.155
 4941SOL     OW15721   4.364   2.577   5.256
 4941SOL    HW115722   4.380   2.497   5.314
 4941SOL    HW215723   4.283   2.562   5.200
 4942SOL     OW15724   5.346   3.737   5.017
 4942SOL    HW115725   5.355   3.705   5.111
 4942SOL    HW215726   5.358   3.836   5.014
 4943SOL     OW15727   4.962   4.288   5.245
 4943SOL    HW115728   5.031   4.282   5.317
 4943SOL    HW215729   5.008   4.296   5.156
 4944SOL     OW15730   2.410   4.581   1.731
 4944SOL    HW115731   2.502   4.590   1.692
 4944SOL    HW215732   2.363   4.504   1.688
 4945SOL     OW15733   1.104   6.713   5.302
 4945SOL    HW115734   1.064   6.778   5.237
 4945SOL    HW215735   1.039   6.639   5.319
 4946SOL     OW15736   0.840   5.422   0.016
 4946SOL    HW115737   0.825   5.342   0.073
 4946SOL    HW215738   0.873   5.393   6.948
 4947SOL     OW15739   2.617   0.555   0.942
 4947SOL    HW115740   2.602   0.483   1.010
 4947SOL    HW215741   2.624   0.514   0.851
 4948SOL     OW15742   2.184   2.561   2.458
 4948SOL    HW115743   2.135   2.488   2.410
 4948SOL    HW215744   2.167   2.648   2.412
 4949SOL     OW15745   6.405   4.009   5.512
 4949SOL    HW115746   6.469   3.969   5.446
 4949SOL    HW215747   6.388   3.944   5.586
 4950SOL     OW15748   1.731   4.068   5.445
 4950SOL    HW115749   1.777   4.127   5.511
 4950SOL    HW215750   1.779   4.073   5.357
 4951SOL     OW15751   6.366   0.899   4.075
 4951SOL    HW115752   6.455   0.889   4.030
 4951SOL    HW215753   6.324   0.985   4.047
 4952SOL     OW15754   0.140   6.736   6.009
 4952SOL    HW115755   0.198   6.816   6.022
 4952SOL    HW215756   0.061   6.743   6.071
 4953SOL     OW15757   1.046   6.946   3.652
 4953SOL    HW115758   0.988   6.904   3.581
 4953SOL    HW215759   0.988   6.998   3.715
 4954SOL     OW15760   3.018   3.105   0.132
 4954SOL    HW115761   3.027   3.103   0.232
 4954SOL    HW215762   3.033   3.198   0.099
 4955SOL     OW15763   2.709   6.822   0.021
 4955SOL    HW115764   2.656   6.773   6.974
 4955SOL    HW215765   2.647   6.852   0.095
 4956SOL     OW15766   2.890   0.111   5.460
 4956SOL    HW115767   2.956   0.142   5.392
 4956SOL    HW215768   2.811   0.173   5.462
 4957SOL     OW15769   5.732   2.804   1.313
 4957SOL    HW115770   5.654   2.831   1.370
 4957SOL    HW215771   5.753   2.878   1.249
 4958SOL     OW15772   0.876   5.216   6.279
 4958SOL    HW115773   0.941   5.250   6.210
 4958SOL    HW215774   0.798   5.173   6.233
 4959SOL     OW15775   5.931   1.677   0.364
 4959SOL    HW115776   5.852   1.672   0.303
 4959SOL    HW215777   5.969   1.586   0.378
 4960SOL     OW15778   4.115   4.815   3.942
 4960SOL    HW115779   4.153   4.898   3.982
 4960SOL    HW215780   4.050   4.839   3.870
 4961SOL     OW15781   3.223   0.728   6.018
 4961SOL    HW115782   3.134   0.753   6.056
 4961SOL    HW215783   3.295   0.779   6.063
 4962SOL     OW15784   5.883   2.855   0.593
 4962SOL    HW115785   5.964   2.800   0.573
 4962SOL    HW215786   5.895   2.903   0.679
 4963SOL     OW15787   0.509   5.649   0.245
 4963SOL    HW115788   0.474   5.603   0.163
 4963SOL    HW215789   0.603   5.678   0.229
 4964SOL     OW15790   2.373   0.164   4.765
 4964SOL    HW115791   2.326   0.238   4.814
 4964SOL    HW215792   2.314   0.131   4.691
 4965SOL     OW15793   0.730   6.835   1.833
 4965SOL    HW115794   0.760   6.772   1.761
 4965SOL    HW215795   0.730   6.788   1.921
 4966SOL     OW15796   2.739   6.665   5.158
 4966SOL    HW115797   2.750   6.709   5.068
 4966SOL    HW215798   2.812   6.598   5.171
 4967SOL     OW15799   3.661   4.876   5.387
 4967SOL    HW115800   3.697   4.897   5.297
 4967SOL    HW215801   3.728   4.822   5.438
 4968SOL     OW15802   0.252   0.948   3.401
 4968SOL    HW115803   0.223   0.985   3.489
 4968SOL    HW215804   0.294   0.858   3.414
 4969SOL     OW15805   2.301   6.311   2.754
 4969SOL    HW115806   2.207   6.278   2.744
 4969SOL    HW215807   2.306   6.406   2.723
 4970SOL     OW15808   2.722   1.900   1.374
 4970SOL    HW115809   2.698   1.819   1.319
 4970SOL    HW215810   2.652   1.914   1.444
 4971SOL     OW15811   5.812   5.505   3.288
 4971SOL    HW115812   5.873   5.555   3.226
 4971SOL    HW215813   5.720   5.501   3.249
 4972SOL     OW15814   0.929   3.862   1.279
 4972SOL    HW115815   0.863   3.787   1.282
 4972SOL    HW215816   0.979   3.859   1.193
 4973SOL     OW15817   1.477   0.035   2.079
 4973SOL    HW115818   1.507   6.980   2.137
 4973SOL    HW215819   1.549   0.057   2.014
 4974SOL     OW15820   6.475   4.483   0.606
 4974SOL    HW115821   6.414   4.519   0.536
 4974SOL    HW215822   6.437   4.502   0.697
 4975SOL     OW15823   5.742   3.849   6.139
 4975SOL    HW115824   5.752   3.755   6.108
 4975SOL    HW215825   5.801   3.909   6.085
 4976SOL     OW15826   2.151   1.919   3.932
 4976SOL    HW115827   2.228   1.944   3.873
 4976SOL    HW215828   2.185   1.899   4.024
 4977SOL     OW15829   4.610   5.027   0.220
 4977SOL    HW115830   4.559   4.999   0.138
 4977SOL    HW215831   4.583   5.120   0.246
 4978SOL     OW15832   6.237   4.559   4.975
 4978SOL    HW115833   6.330   4.561   5.011
 4978SOL    HW215834   6.224   4.478   4.919
 4979SOL     OW15835   6.590   6.671   6.110
 4979SOL    HW115836   6.646   6.685   6.191
 4979SOL    HW215837   6.583   6.758   6.060
 4980SOL     OW15838   5.533   5.265   3.588
 4980SOL    HW115839   5.573   5.251   3.498
 4980SOL    HW215840   5.597   5.316   3.646
 4981SOL     OW15841   4.399   5.158   0.701
 4981SOL    HW115842   4.367   5.126   0.791
 4981SOL    HW215843   4.371   5.253   0.689
 4982SOL     OW15844   3.357   1.743   5.946
 4982SOL    HW115845   3.269   1.698   5.962
 4982SOL    HW215846   3.417   1.728   6.025
 4983SOL     OW15847   6.200   3.261   5.701
 4983SOL    HW115848   6.191   3.242   5.604
 4983SOL    HW215849   6.165   3.353   5.721
 4984SOL     OW15850   5.798   4.077   3.159
 4984SOL    HW115851   5.762   4.062   3.251
 4984SOL    HW215852   5.844   3.994   3.128
 4985SOL     OW15853   6.157   6.887   3.106
 4985SOL    HW115854   6.058   6.889   3.120
 4985SOL    HW215855   6.193   6.979   3.114
 4986SOL     OW15856   0.016   4.633   0.800
 4986SOL    HW115857   0.000   4.710   0.737
 4986SOL    HW215858   0.105   4.592   0.781
 4987SOL     OW15859   0.044   6.465   2.370
 4987SOL    HW115860   0.129   6.452   2.421
 4987SOL    HW215861   7.005   6.525   2.423
 4988SOL     OW15862   5.308   1.106   2.266
 4988SOL    HW115863   5.284   1.009   2.266
 4988SOL    HW215864   5.384   1.122   2.203
 4989SOL     OW15865   5.429   6.720   0.909
 4989SOL    HW115866   5.437   6.814   0.940
 4989SOL    HW215867   5.332   6.695   0.902
 4990SOL     OW15868   2.619   1.783   5.908
 4990SOL    HW115869   2.565   1.756   5.987
 4990SOL    HW215870   2.573   1.860   5.861
 4991SOL     OW15871   6.552   5.644   4.270
 4991SOL    HW115872   6.511   5.722   4.317
 4991SOL    HW215873   6.541   5.561   4.325
 4992SOL     OW15874   4.716   0.507   2.217
 4992SOL    HW115875   4.741   0.503   2.120
 4992SOL    HW215876   4.763   0.585   2.259
 4993SOL     OW15877   3.381   5.980   5.092
 4993SOL    HW115878   3.445   6.031   5.149
 4993SOL    HW215879   3.431   5.920   5.030
 4994SOL     OW15880   2.001   0.229   4.588
 4994SOL    HW115881   1.955   0.153   4.542
 4994SOL    HW215882   2.090   0.245   4.545
 4995SOL     OW15883   1.186   1.887   5.314
 4995SOL    HW115884   1.235   1.800   5.311
 4995SOL    HW215885   1.143   1.903   5.225
 4996SOL     OW15886   0.255   1.601   3.139
 4996SOL    HW115887   0.347   1.629   3.110
 4996SOL    HW215888   0.231   1.648   3.224
 4997SOL     OW15889   4.339   2.323   2.513
 4997SOL    HW115890   4.321   2.249   2.578
 4997SOL    HW215891   4.284   2.310   2.431
 4998SOL     OW15892   2.073   3.318   5.112
 4998SOL    HW115893   2.139   3.290   5.181
 4998SOL    HW215894   1.980   3.304   5.147
 4999SOL     OW15895   6.780   3.536   5.748
 4999SOL    HW115896   6.721   3.480   5.806
 4999SOL    HW215897   6.812   3.481   5.670
 5000SOL     OW15898   3.676   6.893   3.171
 5000SOL    HW115899   3.675   6.824   3.099
 5000SOL    HW215900   3.670   6.849   3.260
 5001SOL     OW15901   1.062   4.672   2.167
 5001SOL    HW115902   1.000   4.597   2.192
 5001SOL    HW215903   1.084   4.666   2.070
 5002SOL     OW15904   1.027   3.489   2.296
 5002SOL    HW115905   1.004   3.507   2.200
 5002SOL    HW215906   0.946   3.501   2.353
 5003SOL     OW15907   3.282   5.281   2.835
 5003SOL    HW115908   3.208   5.331   2.878
 5003SOL    HW215909   3.346   5.248   2.905
 5004SOL     OW15910   2.488   4.566   5.297
 5004SOL    HW115911   2.543   4.485   5.319
 5004SOL    HW215912   2.511   4.597   5.205
 5005SOL     OW15913   3.571   3.175   0.820
 5005SOL    HW115914   3.554   3.186   0.722
 5005SOL    HW215915   3.494   3.130   0.863
 5006SOL     OW15916   5.108   0.643   1.665
 5006SOL    HW115917   5.205   0.665   1.680
 5006SOL    HW215918   5.055   0.728   1.665
 5007SOL     OW15919   1.028   6.334   0.711
 5007SOL    HW115920   0.972   6.278   0.648
 5007SOL    HW215921   1.003   6.430   0.701
 5008SOL     OW15922   5.260   6.382   1.262
 5008SOL    HW115923   5.331   6.440   1.302
 5008SOL    HW215924   5.280   6.365   1.165
 5009SOL     OW15925   0.038   1.599   0.454
 5009SOL    HW115926   0.110   1.552   0.506
 5009SOL    HW215927   6.984   1.621   0.515
 5010SOL     OW15928   4.228   3.189   1.844
 5010SOL    HW115929   4.221   3.208   1.942
 5010SOL    HW215930   4.300   3.121   1.829
 5011SOL     OW15931   1.337   4.406   1.976
 5011SOL    HW115932   1.427   4.416   1.934
 5011SOL    HW215933   1.296   4.320   1.947
 5012SOL     OW15934   5.696   3.714   5.762
 5012SOL    HW115935   5.690   3.802   5.716
 5012SOL    HW215936   5.615   3.699   5.818
 5013SOL     OW15937   5.271   1.315   6.709
 5013SOL    HW115938   5.172   1.324   6.722
 5013SOL    HW215939   5.316   1.319   6.798
 5014SOL     OW15940   6.287   4.623   1.153
 5014SOL    HW115941   6.219   4.688   1.187
 5014SOL    HW215942   6.379   4.661   1.167
 5015SOL     OW15943   4.837   1.760   5.240
 5015SOL    HW115944   4.805   1.665   5.230
 5015SOL    HW215945   4.783   1.819   5.181
 5016SOL     OW15946   1.863   3.037   6.622
 5016SOL    HW115947   1.775   3.080   6.605
 5016SOL    HW215948   1.851   2.938   6.627
 5017SOL     OW15949   2.683   2.706   1.321
 5017SOL    HW115950   2.655   2.768   1.395
 5017SOL    HW215951   2.751   2.752   1.264
 5018SOL     OW15952   1.046   4.339   2.678
 5018SOL    HW115953   1.001   4.274   2.739
 5018SOL    HW215954   1.085   4.413   2.732
 5019SOL     OW15955   1.242   5.113   6.050
 5019SOL    HW115956   1.231   5.043   5.979
 5019SOL    HW215957   1.186   5.192   6.027
 5020SOL     OW15958   5.488   0.199   0.130
 5020SOL    HW115959   5.587   0.189   0.118
 5020SOL    HW215960   5.463   0.174   0.223
 5021SOL     OW15961   0.476   1.474   0.213
 5021SOL    HW115962   0.534   1.400   0.179
 5021SOL    HW215963   0.408   1.437   0.275
 5022SOL     OW15964   1.379   1.219   0.991
 5022SOL    HW115965   1.453   1.269   1.036
 5022SOL    HW215966   1.416   1.167   0.914
 5023SOL     OW15967   0.127   3.534   2.017
 5023SOL    HW115968   0.067   3.603   1.976
 5023SOL    HW215969   0.086   3.443   2.006
 5024SOL     OW15970   6.228   5.325   1.669
 5024SOL    HW115971   6.210   5.228   1.655
 5024SOL    HW215972   6.146   5.377   1.643
 5025SOL     OW15973   4.163   1.564   2.822
 5025SOL    HW115974   4.208   1.590   2.908
 5025SOL    HW215975   4.227   1.576   2.746
 5026SOL     OW15976   6.251   6.197   5.379
 5026SOL    HW115977   6.266   6.145   5.295
 5026SOL    HW215978   6.196   6.278   5.358
 5027SOL     OW15979   0.117   6.025   1.634
 5027SOL    HW115980   0.059   5.968   1.576
 5027SOL    HW215981   0.128   6.115   1.592
 5028SOL     OW15982   0.423   2.070   2.306
 5028SOL    HW115983   0.416   2.041   2.401
 5028SOL    HW215984   0.331   2.083   2.268
 5029SOL     OW15985   6.683   1.898   2.326
 5029SOL    HW115986   6.706   1.864   2.417
 5029SOL    HW215987   6.693   1.998   2.324
 5030SOL     OW15988   6.759   6.619   6.951
 5030SOL    HW115989   6.688   6.608   7.021
 5030SOL    HW215990   6.771   6.533   6.902
 5031SOL     OW15991   6.425   0.494   5.922
 5031SOL    HW115992   6.395   0.573   5.976
 5031SOL    HW215993   6.497   0.522   5.858
 5032SOL     OW15994   1.877   2.051   0.290
 5032SOL    HW115995   1.793   1.998   0.302
 5032SOL    HW215996   1.955   1.998   0.324
 5033SOL     OW15997   2.331   6.494   5.733
 5033SOL    HW115998   2.401   6.565   5.733
 5033SOL    HW215999   2.340   6.438   5.651
 5034SOL     OW16000   5.888   0.568   3.493
 5034SOL    HW116001   5.916   0.479   3.460
 5034SOL    HW216002   5.948   0.597   3.568
 5035SOL     OW16003   0.670   3.507   6.851
 5035SOL    HW116004   0.623   3.453   6.921
 5035SOL    HW216005   0.639   3.478   6.760
 5036SOL     OW16006   0.803   5.011   6.970
 5036SOL    HW116007   0.770   4.918   6.958
 5036SOL    HW216008   0.837   5.047   6.883
 5037SOL     OW16009   5.730   3.888   1.916
 5037SOL    HW116010   5.642   3.884   1.963
 5037SOL    HW216011   5.788   3.955   1.960
 5038SOL     OW16012   3.508   3.953   6.007
 5038SOL    HW116013   3.589   3.904   6.039
 5038SOL    HW216014   3.502   3.945   5.907
 5039SOL     OW16015   2.868   4.127   5.975
 5039SOL    HW116016   2.882   4.057   6.045
 5039SOL    HW216017   2.772   4.154   5.973
 5040SOL     OW16018   1.612   6.082   5.741
 5040SOL    HW116019   1.664   6.074   5.826
 5040SOL    HW216020   1.626   5.999   5.686
 5041SOL     OW16021   2.025   1.722   2.561
 5041SOL    HW116022   2.094   1.708   2.489
 5041SOL    HW216023   2.058   1.791   2.625
 5042SOL     OW16024   6.632   3.127   0.284
 5042SOL    HW116025   6.615   3.043   0.233
 5042SOL    HW216026   6.547   3.161   0.323
 5043SOL     OW16027   2.952   0.223   6.149
 5043SOL    HW116028   2.971   0.142   6.204
 5043SOL    HW216029   2.998   0.302   6.189
 5044SOL     OW16030   0.517   6.649   6.740
 5044SOL    HW116031   0.591   6.680   6.800
 5044SOL    HW216032   0.471   6.572   6.782
 5045SOL     OW16033   5.105   0.408   6.367
 5045SOL    HW116034   5.102   0.368   6.459
 5045SOL    HW216035   5.085   0.506   6.372
 5046SOL     OW16036   3.371   4.143   2.510
 5046SOL    HW116037   3.391   4.220   2.448
 5046SOL    HW216038   3.443   4.136   2.579
 5047SOL     OW16039   1.208   4.343   2.459
 5047SOL    HW116040   1.177   4.337   2.364
 5047SOL    HW216041   1.131   4.326   2.521
 5048SOL     OW16042   0.961   1.632   2.527
 5048SOL    HW116043   0.955   1.539   2.564
 5048SOL    HW216044   0.949   1.628   2.427
 5049SOL     OW16045   5.493   2.085   6.503
 5049SOL    HW116046   5.589   2.058   6.503
 5049SOL    HW216047   5.471   2.129   6.590
 5050SOL     OW16048   1.579   1.422   1.515
 5050SOL    HW116049   1.657   1.475   1.550
 5050SOL    HW216050   1.577   1.333   1.559
 5051SOL     OW16051   4.451   4.466   0.900
 5051SOL    HW116052   4.365   4.516   0.899
 5051SOL    HW216053   4.481   4.449   0.806
 5052SOL     OW16054   2.141   1.040   6.013
 5052SOL    HW116055   2.213   1.081   6.069
 5052SOL    HW216056   2.069   1.005   6.073
 5053SOL     OW16057   2.136   3.864   3.595
 5053SOL    HW116058   2.115   3.940   3.533
 5053SOL    HW216059   2.158   3.782   3.542
 5054SOL     OW16060   3.430   5.634   5.218
 5054SOL    HW116061   3.493   5.685   5.161
 5054SOL    HW216062   3.468   5.623   5.309
 5055SOL     OW16063   2.198   2.078   5.849
 5055SOL    HW116064   2.199   2.111   5.754
 5055SOL    HW216065   2.205   2.156   5.911
 5056SOL     OW16066   6.125   4.048   6.871
 5056SOL    HW116067   6.183   4.128   6.888
 5056SOL    HW216068   6.031   4.077   6.859
 5057SOL     OW16069   6.805   5.835   3.918
 5057SOL    HW116070   6.885   5.785   3.950
 5057SOL    HW216071   6.829   5.931   3.903
 5058SOL     OW16072   2.679   3.286   5.613
 5058SOL    HW116073   2.623   3.282   5.530
 5058SOL    HW216074   2.661   3.205   5.669
 5059SOL     OW16075   6.101   1.358   3.692
 5059SOL    HW116076   6.046   1.327   3.615
 5059SOL    HW216077   6.048   1.423   3.747
 5060SOL     OW16078   0.859   2.107   5.621
 5060SOL    HW116079   0.955   2.087   5.641
 5060SOL    HW216080   0.815   2.026   5.583
 5061SOL     OW16081   4.272   2.514   1.810
 5061SOL    HW116082   4.297   2.600   1.765
 5061SOL    HW216083   4.206   2.465   1.753
 5062SOL     OW16084   5.288   0.669   3.002
 5062SOL    HW116085   5.342   0.627   3.075
 5062SOL    HW216086   5.345   0.732   2.950
 5063SOL     OW16087   1.076   6.692   1.837
 5063SOL    HW116088   1.133   6.637   1.897
 5063SOL    HW216089   1.015   6.750   1.892
 5064SOL     OW16090   4.863   3.982   1.472
 5064SOL    HW116091   4.874   4.055   1.540
 5064SOL    HW216092   4.910   4.008   1.388
 5065SOL     OW16093   2.120   0.383   3.649
 5065SOL    HW116094   2.037   0.330   3.665
 5065SOL    HW216095   2.198   0.321   3.638
 5066SOL     OW16096   4.938   5.140   1.989
 5066SOL    HW116097   4.867   5.200   2.027
 5066SOL    HW216098   5.027   5.166   2.025
 5067SOL     OW16099   4.805   0.846   1.450
 5067SOL    HW116100   4.840   0.813   1.537
 5067SOL    HW216101   4.785   0.944   1.457
 5068SOL     OW16102   3.727   4.617   0.542
 5068SOL    HW116103   3.668   4.547   0.502
 5068SOL    HW216104   3.769   4.581   0.625
 5069SOL     OW16105   2.003   3.621   5.633
 5069SOL    HW116106   1.964   3.713   5.637
 5069SOL    HW216107   2.039   3.603   5.542
 5070SOL     OW16108   4.731   4.571   4.101
 5070SOL    HW116109   4.742   4.660   4.146
 5070SOL    HW216110   4.660   4.578   4.030
 5071SOL     OW16111   4.143   2.143   3.213
 5071SOL    HW116112   4.194   2.185   3.288
 5071SOL    HW216113   4.045   2.142   3.236
 5072SOL     OW16114   1.115   0.267   1.208
 5072SOL    HW116115   1.047   0.336   1.183
 5072SOL    HW216116   1.178   0.253   1.131
 5073SOL     OW16117   0.273   5.777   2.040
 5073SOL    HW116118   0.358   5.724   2.032
 5073SOL    HW216119   0.296   5.874   2.051
 5074SOL     OW16120   3.558   2.837   1.278
 5074SOL    HW116121   3.635   2.859   1.337
 5074SOL    HW216122   3.492   2.781   1.328
 5075SOL     OW16123   1.071   2.236   6.774
 5075SOL    HW116124   1.008   2.205   6.845
 5075SOL    HW216125   1.018   2.261   6.692
 5076SOL     OW16126   4.123   1.101   0.782
 5076SOL    HW116127   4.049   1.084   0.717
 5076SOL    HW216128   4.189   1.164   0.743
 5077SOL     OW16129   1.385   4.716   5.564
 5077SOL    HW116130   1.449   4.642   5.583
 5077SOL    HW216131   1.435   4.799   5.538
 5078SOL     OW16132   1.421   0.427   4.109
 5078SOL    HW116133   1.356   0.408   4.036
 5078SOL    HW216134   1.414   0.355   4.179
 5079SOL     OW16135   2.362   3.249   6.355
 5079SOL    HW116136   2.386   3.207   6.267
 5079SOL    HW216137   2.444   3.258   6.411
 5080SOL     OW16138   6.262   6.717   6.365
 5080SOL    HW116139   6.344   6.743   6.415
 5080SOL    HW216140   6.287   6.659   6.287
 5081SOL     OW16141   3.310   3.158   4.329
 5081SOL    HW116142   3.392   3.212   4.344
 5081SOL    HW216143   3.248   3.171   4.406
 5082SOL     OW16144   4.726   6.159   0.099
 5082SOL    HW116145   4.816   6.163   0.057
 5082SOL    HW216146   4.698   6.250   0.128
 5083SOL     OW16147   2.332   0.083   2.691
 5083SOL    HW116148   2.342   0.164   2.749
 5083SOL    HW216149   2.281   0.012   2.740
 5084SOL     OW16150   0.287   4.882   4.563
 5084SOL    HW116151   0.261   4.792   4.526
 5084SOL    HW216152   0.328   4.937   4.491
 5085SOL     OW16153   5.011   3.210   6.777
 5085SOL    HW116154   5.060   3.150   6.714
 5085SOL    HW216155   5.016   3.304   6.744
 5086SOL     OW16156   0.351   5.455   3.333
 5086SOL    HW116157   0.335   5.425   3.427
 5086SOL    HW216158   0.293   5.403   3.271
 5087SOL     OW16159   1.298   5.078   2.130
 5087SOL    HW116160   1.271   5.040   2.219
 5087SOL    HW216161   1.250   5.165   2.115
 5088SOL     OW16162   6.711   1.211   5.241
 5088SOL    HW116163   6.639   1.256   5.188
 5088SOL    HW216164   6.782   1.176   5.179
 5089SOL     OW16165   4.907   3.590   4.294
 5089SOL    HW116166   5.002   3.594   4.263
 5089SOL    HW216167   4.852   3.544   4.224
 5090SOL     OW16168   2.175   3.790   2.906
 5090SOL    HW116169   2.174   3.768   2.809
 5090SOL    HW216170   2.242   3.863   2.923
 5091SOL     OW16171   0.636   6.950   2.270
 5091SOL    HW116172   0.586   6.931   2.354
 5091SOL    HW216173   0.674   6.865   2.234
 5092SOL     OW16174   4.065   3.119   1.609
 5092SOL    HW116175   4.018   3.032   1.624
 5092SOL    HW216176   4.110   3.148   1.693
 5093SOL     OW16177   2.785   1.368   1.664
 5093SOL    HW116178   2.745   1.455   1.632
 5093SOL    HW216179   2.744   1.292   1.613
 5094SOL     OW16180   2.164   5.638   5.704
 5094SOL    HW116181   2.261   5.621   5.718
 5094SOL    HW216182   2.152   5.700   5.627
 5095SOL     OW16183   6.183   2.327   4.884
 5095SOL    HW116184   6.257   2.389   4.908
 5095SOL    HW216185   6.106   2.380   4.848
 5096SOL     OW16186   4.381   4.173   0.709
 5096SOL    HW116187   4.476   4.175   0.678
 5096SOL    HW216188   4.361   4.085   0.751
 5097SOL     OW16189   1.240   0.630   6.541
 5097SOL    HW116190   1.147   0.629   6.505
 5097SOL    HW216191   1.281   0.540   6.530
 5098SOL     OW16192   1.393   0.741   1.735
 5098SOL    HW116193   1.343   0.684   1.801
 5098SOL    HW216194   1.334   0.814   1.703
 5099SOL     OW16195   0.433   6.410   6.887
 5099SOL    HW116196   0.501   6.336   6.879
 5099SOL    HW216197   0.342   6.371   6.896
 5100SOL     OW16198   3.911   5.428   5.576
 5100SOL    HW116199   3.981   5.378   5.525
 5100SOL    HW216200   3.862   5.364   5.636
 5101SOL     OW16201   4.892   6.464   0.281
 5101SOL    HW116202   4.806   6.430   0.244
 5101SOL    HW216203   4.900   6.562   0.263
 5102SOL     OW16204   5.166   0.694   3.936
 5102SOL    HW116205   5.258   0.714   3.969
 5102SOL    HW216206   5.170   0.669   3.839
 5103SOL     OW16207   0.418   1.778   3.920
 5103SOL    HW116208   0.319   1.786   3.932
 5103SOL    HW216209   0.464   1.787   4.008
 5104SOL     OW16210   1.306   6.763   2.863
 5104SOL    HW116211   1.257   6.747   2.948
 5104SOL    HW216212   1.330   6.675   2.821
 5105SOL     OW16213   3.636   2.648   0.434
 5105SOL    HW116214   3.604   2.714   0.366
 5105SOL    HW216215   3.707   2.591   0.393
 5106SOL     OW16216   3.121   0.810   0.445
 5106SOL    HW116217   3.169   0.740   0.497
 5106SOL    HW216218   3.180   0.844   0.371
 5107SOL     OW16219   3.635   0.694   0.304
 5107SOL    HW116220   3.734   0.711   0.305
 5107SOL    HW216221   3.605   0.684   0.209
 5108SOL     OW16222   2.882   3.791   4.813
 5108SOL    HW116223   2.855   3.713   4.758
 5108SOL    HW216224   2.850   3.876   4.771
 5109SOL     OW16225   1.286   0.886   0.684
 5109SOL    HW116226   1.371   0.845   0.717
 5109SOL    HW216227   1.292   0.900   0.586
 5110SOL     OW16228   0.648   0.314   6.705
 5110SOL    HW116229   0.677   0.404   6.675
 5110SOL    HW216230   0.713   0.278   6.772
 5111SOL     OW16231   2.725   1.329   5.272
 5111SOL    HW116232   2.718   1.293   5.365
 5111SOL    HW216233   2.692   1.424   5.271
 5112SOL     OW16234   0.673   6.606   2.635
 5112SOL    HW116235   0.668   6.527   2.572
 5112SOL    HW216236   0.743   6.589   2.704
 5113SOL     OW16237   2.299   6.757   1.795
 5113SOL    HW116238   2.330   6.711   1.711
 5113SOL    HW216239   2.200   6.745   1.804
 5114SOL     OW16240   3.109   2.063   0.771
 5114SOL    HW116241   3.130   1.971   0.804
 5114SOL    HW216242   3.015   2.086   0.794
 5115SOL     OW16243   2.093   5.288   4.849
 5115SOL    HW116244   2.183   5.252   4.826
 5115SOL    HW216245   2.091   5.317   4.944
 5116SOL     OW16246   5.734   6.700   6.613
 5116SOL    HW116247   5.764   6.623   6.558
 5116SOL    HW216248   5.812   6.761   6.629
 5117SOL     OW16249   3.020   4.833   4.939
 5117SOL    HW116250   2.976   4.748   4.970
 5117SOL    HW216251   2.982   4.859   4.850
 5118SOL     OW16252   4.927   0.625   0.521
 5118SOL    HW116253   4.876   0.612   0.435
 5118SOL    HW216254   4.909   0.717   0.556
 5119SOL     OW16255   5.482   1.093   1.844
 5119SOL    HW116256   5.442   1.002   1.857
 5119SOL    HW216257   5.518   1.126   1.930
 5120SOL     OW16258   4.021   1.547   4.044
 5120SOL    HW116259   4.059   1.480   3.981
 5120SOL    HW216260   4.004   1.633   3.996
 5121SOL     OW16261   2.528   1.793   0.296
 5121SOL    HW116262   2.563   1.712   0.342
 5121SOL    HW216263   2.564   1.796   0.202
 5122SOL     OW16264   3.100   6.922   3.338
 5122SOL    HW116265   3.032   6.981   3.381
 5122SOL    HW216266   3.087   6.827   3.369
 5123SOL     OW16267   5.532   1.817   5.289
 5123SOL    HW116268   5.558   1.729   5.249
 5123SOL    HW216269   5.611   1.878   5.288
 5124SOL     OW16270   3.130   5.292   4.801
 5124SOL    HW116271   3.072   5.255   4.874
 5124SOL    HW216272   3.112   5.389   4.790
 5125SOL     OW16273   6.467   3.036   4.023
 5125SOL    HW116274   6.535   2.984   4.076
 5125SOL    HW216275   6.447   3.122   4.070
 5126SOL     OW16276   6.125   5.439   5.858
 5126SOL    HW116277   6.065   5.359   5.858
 5126SOL    HW216278   6.205   5.421   5.916
 5127SOL     OW16279   0.028   4.166   0.078
 5127SOL    HW116280   0.084   4.177   7.017
 5127SOL    HW216281   0.030   4.071   0.108
 5128SOL     OW16282   6.983   0.724   6.619
 5128SOL    HW116283   0.050   0.715   6.664
 5128SOL    HW216284   6.950   0.634   6.592
 5129SOL     OW16285   4.793   7.018   3.030
 5129SOL    HW116286   4.748   6.940   2.987
 5129SOL    HW216287   4.780   0.078   2.974
 5130SOL     OW16288   1.340   5.881   4.271
 5130SOL    HW116289   1.307   5.855   4.361
 5130SOL    HW216290   1.298   5.968   4.243
 5131SOL     OW16291   2.756   4.893   3.751
 5131SOL    HW116292   2.697   4.922   3.827
 5131SOL    HW216293   2.799   4.973   3.710
 5132SOL     OW16294   3.655   1.803   6.370
 5132SOL    HW116295   3.608   1.774   6.286
 5132SOL    HW216296   3.691   1.722   6.417
 5133SOL     OW16297   2.453   5.188   6.607
 5133SOL    HW116298   2.445   5.180   6.707
 5133SOL    HW216299   2.482   5.100   6.569
 5134SOL     OW16300   6.555   0.930   2.221
 5134SOL    HW116301   6.604   0.857   2.269
 5134SOL    HW216302   6.471   0.952   2.270
 5135SOL     OW16303   4.870   3.308   3.958
 5135SOL    HW116304   4.839   3.398   3.928
 5135SOL    HW216305   4.965   3.294   3.931
 5136SOL     OW16306   5.231   0.635   6.525
 5136SOL    HW116307   5.150   0.693   6.534
 5136SOL    HW216308   5.257   0.600   6.615
 5137SOL     OW16309   5.146   3.370   5.180
 5137SOL    HW116310   5.077   3.351   5.111
 5137SOL    HW216311   5.125   3.320   5.264
 5138SOL     OW16312   3.598   4.080   4.599
 5138SOL    HW116313   3.525   4.054   4.535
 5138SOL    HW216314   3.557   4.116   4.683
 5139SOL     OW16315   0.673   6.918   4.604
 5139SOL    HW116316   0.665   6.999   4.546
 5139SOL    HW216317   0.582   6.889   4.634
 5140SOL     OW16318   3.935   1.598   5.710
 5140SOL    HW116319   3.866   1.604   5.638
 5140SOL    HW216320   3.994   1.679   5.705
 5141SOL     OW16321   6.739   3.728   1.729
 5141SOL    HW116322   6.776   3.730   1.822
 5141SOL    HW216323   6.679   3.648   1.719
 5142SOL     OW16324   5.479   6.586   4.311
 5142SOL    HW116325   5.461   6.555   4.218
 5142SOL    HW216326   5.539   6.666   4.309
 5143SOL     OW16327   0.307   4.059   4.274
 5143SOL    HW116328   0.261   4.117   4.207
 5143SOL    HW216329   0.312   3.965   4.239
 5144SOL     OW16330   1.508   4.959   5.506
 5144SOL    HW116331   1.473   5.048   5.476
 5144SOL    HW216332   1.581   4.973   5.573
 5145SOL     OW16333   3.456   6.019   5.971
 5145SOL    HW116334   3.537   6.014   5.914
 5145SOL    HW216335   3.473   6.079   6.049
 5146SOL     OW16336   3.232   3.765   5.404
 5146SOL    HW116337   3.243   3.845   5.345
 5146SOL    HW216338   3.232   3.682   5.349
 5147SOL     OW16339   6.308   5.647   4.060
 5147SOL    HW116340   6.404   5.668   4.080
 5147SOL    HW216341   6.303   5.560   4.011
 5148SOL     OW16342   6.858   1.059   2.277
 5148SOL    HW116343   6.897   1.008   2.355
 5148SOL    HW216344   6.869   1.004   2.194
 5149SOL     OW16345   6.109   5.755   4.744
 5149SOL    HW116346   6.130   5.667   4.788
 5149SOL    HW216347   6.011   5.760   4.724
 5150SOL     OW16348   2.165   4.782   4.131
 5150SOL    HW116349   2.068   4.805   4.116
 5150SOL    HW216350   2.172   4.717   4.206
 5151SOL     OW16351   0.595   4.030   2.043
 5151SOL    HW116352   0.627   3.936   2.058
 5151SOL    HW216353   0.670   4.085   2.007
 5152SOL     OW16354   1.936   5.225   6.992
 5152SOL    HW116355   1.974   5.170   0.045
 5152SOL    HW216356   1.985   5.312   6.987
 5153SOL     OW16357   0.371   1.926   1.165
 5153SOL    HW116358   0.428   1.858   1.212
 5153SOL    HW216359   0.413   2.016   1.174
 5154SOL     OW16360   1.273   2.795   5.889
 5154SOL    HW116361   1.194   2.833   5.937
 5154SOL    HW216362   1.347   2.862   5.886
 5155SOL     OW16363   3.949   6.989   2.326
 5155SOL    HW116364   4.037   0.014   2.335
 5155SOL    HW216365   3.882   0.010   2.387
 5156SOL     OW16366   5.618   4.672   5.301
 5156SOL    HW116367   5.578   4.698   5.389
 5156SOL    HW216368   5.701   4.726   5.284
 5157SOL     OW16369   2.991   1.827   2.885
 5157SOL    HW116370   3.072   1.848   2.831
 5157SOL    HW216371   2.912   1.816   2.824
 5158SOL     OW16372   4.362   2.174   1.137
 5158SOL    HW116373   4.417   2.105   1.185
 5158SOL    HW216374   4.268   2.171   1.172
 5159SOL     OW16375   5.724   3.437   5.438
 5159SOL    HW116376   5.646   3.433   5.500
 5159SOL    HW216377   5.808   3.413   5.487
 5160SOL     OW16378   0.023   4.431   3.029
 5160SOL    HW116379   6.986   4.502   2.991
 5160SOL    HW216380   7.013   4.341   2.998
 5161SOL     OW16381   2.051   3.746   0.359
 5161SOL    HW116382   2.113   3.669   0.375
 5161SOL    HW216383   1.960   3.712   0.337
 5162SOL     OW16384   0.782   5.324   2.720
 5162SOL    HW116385   0.717   5.267   2.770
 5162SOL    HW216386   0.733   5.390   2.664
 5163SOL     OW16387   3.092   6.605   0.617
 5163SOL    HW116388   3.170   6.658   0.582
 5163SOL    HW216389   3.096   6.512   0.581
 5164SOL     OW16390   3.603   2.906   0.271
 5164SOL    HW116391   3.521   2.859   0.238
 5164SOL    HW216392   3.599   3.002   0.245
 5165SOL     OW16393   0.725   4.103   6.156
 5165SOL    HW116394   0.787   4.043   6.106
 5165SOL    HW216395   0.773   4.187   6.181
 5166SOL     OW16396   2.127   5.150   2.510
 5166SOL    HW116397   2.081   5.229   2.469
 5166SOL    HW216398   2.225   5.156   2.491
 5167SOL     OW16399   6.117   4.227   5.773
 5167SOL    HW116400   6.131   4.320   5.739
 5167SOL    HW216401   6.125   4.162   5.698
 5168SOL     OW16402   5.193   3.492   2.614
 5168SOL    HW116403   5.219   3.533   2.526
 5168SOL    HW216404   5.096   3.467   2.611
 5169SOL     OW16405   3.866   2.096   3.255
 5169SOL    HW116406   3.777   2.069   3.218
 5169SOL    HW216407   3.878   2.054   3.345
 5170SOL     OW16408   1.273   3.689   4.926
 5170SOL    HW116409   1.185   3.709   4.884
 5170SOL    HW216410   1.311   3.773   4.964
 5171SOL     OW16411   0.303   3.821   6.025
 5171SOL    HW116412   0.280   3.816   5.928
 5171SOL    HW216413   0.312   3.917   6.053
 5172SOL     OW16414   1.624   3.729   2.846
 5172SOL    HW116415   1.598   3.675   2.766
 5172SOL    HW216416   1.667   3.671   2.914
 5173SOL     OW16417   3.944   5.339   5.171
 5173SOL    HW116418   3.909   5.432   5.169
 5173SOL    HW216419   3.876   5.278   5.210
 5174SOL     OW16420   2.318   4.870   3.384
 5174SOL    HW116421   2.238   4.905   3.432
 5174SOL    HW216422   2.399   4.879   3.442
 5175SOL     OW16423   2.601   3.876   6.298
 5175SOL    HW116424   2.578   3.800   6.238
 5175SOL    HW216425   2.534   3.881   6.373
 5176SOL     OW16426   5.108   3.901   6.920
 5176SOL    HW116427   5.037   3.867   6.859
 5176SOL    HW216428   5.069   3.964   6.986
 5177SOL     OW16429   5.144   6.889   0.693
 5177SOL    HW116430   5.151   6.883   0.594
 5177SOL    HW216431   5.093   6.972   0.717
 5178SOL     OW16432   1.199   4.044   2.407
 5178SOL    HW116433   1.111   4.082   2.433
 5178SOL    HW216434   1.234   3.986   2.482
 5179SOL     OW16435   4.527   4.491   3.868
 5179SOL    HW116436   4.439   4.520   3.907
 5179SOL    HW216437   4.514   4.468   3.772
 5180SOL     OW16438   3.538   1.578   1.473
 5180SOL    HW116439   3.478   1.507   1.509
 5180SOL    HW216440   3.489   1.631   1.403
 5181SOL     OW16441   5.835   0.498   2.041
 5181SOL    HW116442   5.764   0.539   1.983
 5181SOL    HW216443   5.878   0.422   1.991
 5182SOL     OW16444   4.309   4.690   2.264
 5182SOL    HW116445   4.371   4.730   2.197
 5182SOL    HW216446   4.300   4.592   2.246
 5183SOL     OW16447   3.334   1.744   3.256
 5183SOL    HW116448   3.365   1.803   3.330
 5183SOL    HW216449   3.366   1.781   3.168
 5184SOL     OW16450   1.500   2.657   3.684
 5184SOL    HW116451   1.541   2.713   3.612
 5184SOL    HW216452   1.403   2.682   3.694
 5185SOL     OW16453   5.037   1.233   2.668
 5185SOL    HW116454   4.953   1.287   2.657
 5185SOL    HW216455   5.055   1.183   2.583
 5186SOL     OW16456   6.170   1.820   6.092
 5186SOL    HW116457   6.243   1.756   6.067
 5186SOL    HW216458   6.122   1.786   6.173
 5187SOL     OW16459   1.364   5.883   5.412
 5187SOL    HW116460   1.366   5.895   5.313
 5187SOL    HW216461   1.320   5.963   5.454
 5188SOL     OW16462   6.422   6.125   1.451
 5188SOL    HW116463   6.502   6.183   1.434
 5188SOL    HW216464   6.339   6.181   1.449
 5189SOL     OW16465   4.799   5.925   0.221
 5189SOL    HW116466   4.891   5.894   0.198
 5189SOL    HW216467   4.786   6.019   0.189
 5190SOL     OW16468   0.606   3.352   4.338
 5190SOL    HW116469   0.584   3.256   4.322
 5190SOL    HW216470   0.672   3.383   4.270
 5191SOL     OW16471   3.321   6.343   2.187
 5191SOL    HW116472   3.303   6.434   2.224
 5191SOL    HW216473   3.382   6.294   2.248
 5192SOL     OW16474   1.474   6.048   1.466
 5192SOL    HW116475   1.529   6.016   1.389
 5192SOL    HW216476   1.531   6.055   1.547
 5193SOL     OW16477   5.460   5.704   5.651
 5193SOL    HW116478   5.384   5.691   5.715
 5193SOL    HW216479   5.424   5.704   5.558
 5194SOL     OW16480   3.827   2.886   0.092
 5194SOL    HW116481   3.816   2.823   0.016
 5194SOL    HW216482   3.743   2.886   0.147
 5195SOL     OW16483   0.146   0.640   3.853
 5195SOL    HW116484   0.074   0.644   3.922
 5195SOL    HW216485   0.224   0.589   3.890
 5196SOL     OW16486   4.827   0.121   1.955
 5196SOL    HW116487   4.853   0.027   1.932
 5196SOL    HW216488   4.875   0.149   2.038
 5197SOL     OW16489   2.388   3.874   6.532
 5197SOL    HW116490   2.331   3.851   6.453
 5197SOL    HW216491   2.381   3.972   6.550
 5198SOL     OW16492   4.609   5.897   2.919
 5198SOL    HW116493   4.680   5.903   2.989
 5198SOL    HW216494   4.543   5.826   2.944
 5199SOL     OW16495   1.119   6.034   0.523
 5199SOL    HW116496   1.134   5.966   0.452
 5199SOL    HW216497   1.137   5.994   0.613
 5200SOL     OW16498   6.884   3.959   5.237
 5200SOL    HW116499   6.788   3.961   5.262
 5200SOL    HW216500   6.895   3.997   5.145
 5201SOL     OW16501   0.400   6.509   2.741
 5201SOL    HW116502   0.383   6.587   2.802
 5201SOL    HW216503   0.483   6.461   2.771
 5202SOL     OW16504   4.707   2.792   6.130
 5202SOL    HW116505   4.611   2.766   6.141
 5202SOL    HW216506   4.763   2.739   6.194
 5203SOL     OW16507   2.057   2.162   6.784
 5203SOL    HW116508   2.106   2.175   6.870
 5203SOL    HW216509   2.008   2.246   6.760
 5204SOL     OW16510   3.471   5.117   6.789
 5204SOL    HW116511   3.547   5.181   6.801
 5204SOL    HW216512   3.484   5.064   6.706
 5205SOL     OW16513   0.809   6.595   0.318
 5205SOL    HW116514   0.896   6.546   0.311
 5205SOL    HW216515   0.794   6.623   0.413
 5206SOL     OW16516   6.968   4.381   5.137
 5206SOL    HW116517   7.002   4.294   5.103
 5206SOL    HW216518   7.004   4.398   5.229
 5207SOL     OW16519   1.095   6.150   3.667
 5207SOL    HW116520   1.178   6.206   3.674
 5207SOL    HW216521   1.042   6.159   3.751
 5208SOL     OW16522   3.070   1.810   6.549
 5208SOL    HW116523   3.062   1.906   6.577
 5208SOL    HW216524   3.158   1.774   6.580
 5209SOL     OW16525   5.668   6.108   3.647
 5209SOL    HW116526   5.756   6.065   3.624
 5209SOL    HW216527   5.612   6.116   3.564
 5210SOL     OW16528   5.354   2.199   5.429
 5210SOL    HW116529   5.452   2.200   5.452
 5210SOL    HW216530   5.333   2.119   5.374
 5211SOL     OW16531   3.385   2.923   4.463
 5211SOL    HW116532   3.362   2.944   4.558
 5211SOL    HW216533   3.343   2.990   4.403
 5212SOL     OW16534   6.065   1.898   0.484
 5212SOL    HW116535   6.017   1.823   0.438
 5212SOL    HW216536   6.075   1.877   0.581
 5213SOL     OW16537   4.443   4.064   6.859
 5213SOL    HW116538   4.497   4.061   6.943
 5213SOL    HW216539   4.505   4.065   6.780
 5214SOL     OW16540   4.836   1.566   5.801
 5214SOL    HW116541   4.838   1.533   5.896
 5214SOL    HW216542   4.807   1.492   5.741
 5215SOL     OW16543   6.027   5.170   3.095
 5215SOL    HW116544   6.053   5.250   3.150
 5215SOL    HW216545   6.034   5.088   3.150
 5216SOL     OW16546   4.573   5.270   1.901
 5216SOL    HW116547   4.646   5.291   1.966
 5216SOL    HW216548   4.526   5.355   1.875
 5217SOL     OW16549   3.165   5.166   4.103
 5217SOL    HW116550   3.239   5.186   4.167
 5217SOL    HW216551   3.131   5.073   4.120
 5218SOL     OW16552   0.877   0.810   3.949
 5218SOL    HW116553   0.954   0.803   4.012
 5218SOL    HW216554   0.841   0.719   3.931
 5219SOL     OW16555   4.488   0.566   5.775
 5219SOL    HW116556   4.459   0.535   5.685
 5219SOL    HW216557   4.545   0.647   5.766
 5220SOL     OW16558   1.256   5.673   2.414
 5220SOL    HW116559   1.327   5.698   2.480
 5220SOL    HW216560   1.297   5.661   2.324
 5221SOL     OW16561   5.416   2.055   3.646
 5221SOL    HW116562   5.408   2.103   3.559
 5221SOL    HW216563   5.470   2.109   3.710
 5222SOL     OW16564   3.244   5.959   3.439
 5222SOL    HW116565   3.261   5.875   3.491
 5222SOL    HW216566   3.228   5.936   3.343
 5223SOL     OW16567   5.560   1.437   0.696
 5223SOL    HW116568   5.526   1.515   0.643
 5223SOL    HW216569   5.659   1.444   0.706
 5224SOL     OW16570   0.145   2.358   4.030
 5224SOL    HW116571   0.097   2.430   3.980
 5224SOL    HW216572   0.178   2.394   4.117
 5225SOL     OW16573   0.423   0.121   2.932
 5225SOL    HW116574   0.374   0.184   2.872
 5225SOL    HW216575   0.466   0.049   2.877
 5226SOL     OW16576   0.107   5.565   4.928
 5226SOL    HW116577   0.049   5.559   5.009
 5226SOL    HW216578   0.151   5.655   4.925
 5227SOL     OW16579   1.268   3.983   4.098
 5227SOL    HW116580   1.350   4.040   4.089
 5227SOL    HW216581   1.232   3.962   4.007
 5228SOL     OW16582   6.700   2.044   1.509
 5228SOL    HW116583   6.621   2.044   1.447
 5228SOL    HW216584   6.738   2.136   1.514
 5229SOL     OW16585   2.138   4.765   0.280
 5229SOL    HW116586   2.237   4.782   0.275
 5229SOL    HW216587   2.101   4.757   0.187
 5230SOL     OW16588   0.573   6.078   0.844
 5230SOL    HW116589   0.566   5.985   0.879
 5230SOL    HW216590   0.483   6.122   0.847
 5231SOL     OW16591   4.070   3.429   4.936
 5231SOL    HW116592   4.041   3.510   4.987
 5231SOL    HW216593   4.095   3.356   5.000
 5232SOL     OW16594   3.184   2.108   5.714
 5232SOL    HW116595   3.089   2.137   5.719
 5232SOL    HW216596   3.234   2.144   5.793
 5233SOL     OW16597   5.919   0.253   1.870
 5233SOL    HW116598   5.991   0.196   1.829
 5233SOL    HW216599   5.829   0.215   1.848
 5234SOL     OW16600   2.593   0.492   0.067
 5234SOL    HW116601   2.560   0.434   7.014
 5234SOL    HW216602   2.608   0.585   0.033
 5235SOL     OW16603   1.631   3.038   1.135
 5235SOL    HW116604   1.648   3.132   1.163
 5235SOL    HW216605   1.652   2.976   1.211
 5236SOL     OW16606   6.063   4.146   2.488
 5236SOL    HW116607   5.983   4.205   2.501
 5236SOL    HW216608   6.077   4.131   2.390
 5237SOL     OW16609   1.845   0.624   5.308
 5237SOL    HW116610   1.893   0.649   5.225
 5237SOL    HW216611   1.850   0.700   5.374
 5238SOL     OW16612   1.473   4.738   0.885
 5238SOL    HW116613   1.429   4.779   0.965
 5238SOL    HW216614   1.552   4.684   0.915
 5239SOL     OW16615   3.968   3.540   4.475
 5239SOL    HW116616   4.053   3.543   4.528
 5239SOL    HW216617   3.890   3.544   4.536
 5240SOL     OW16618   3.114   2.081   6.604
 5240SOL    HW116619   3.207   2.111   6.584
 5240SOL    HW216620   3.049   2.153   6.577
 5241SOL     OW16621   0.569   5.562   5.681
 5241SOL    HW116622   0.482   5.543   5.636
 5241SOL    HW216623   0.642   5.566   5.613
 5242SOL     OW16624   6.514   6.344   6.205
 5242SOL    HW116625   6.606   6.357   6.241
 5242SOL    HW216626   6.491   6.421   6.145
 5243SOL     OW16627   1.276   5.530   1.836
 5243SOL    HW116628   1.191   5.522   1.784
 5243SOL    HW216629   1.303   5.439   1.869
 5244SOL     OW16630   3.109   4.008   5.876
 5244SOL    HW116631   3.160   3.991   5.960
 5244SOL    HW216632   3.015   4.034   5.899
 5245SOL     OW16633   4.753   4.481   0.362
 5245SOL    HW116634   4.816   4.554   0.389
 5245SOL    HW216635   4.678   4.520   0.309
 5246SOL     OW16636   5.808   4.269   2.515
 5246SOL    HW116637   5.732   4.208   2.538
 5246SOL    HW216638   5.773   4.350   2.469
 5247SOL     OW16639   1.178   6.708   0.297
 5247SOL    HW116640   1.254   6.704   0.361
 5247SOL    HW216641   1.114   6.634   0.317
 5248SOL     OW16642   5.714   0.593   4.230
 5248SOL    HW116643   5.706   0.593   4.330
 5248SOL    HW216644   5.809   0.577   4.204
 5249SOL     OW16645   6.885   4.803   4.773
 5249SOL    HW116646   6.918   4.871   4.708
 5249SOL    HW216647   6.911   4.712   4.742
 5250SOL     OW16648   0.949   1.137   5.576
 5250SOL    HW116649   0.906   1.152   5.665
 5250SOL    HW216650   0.903   1.061   5.529
 5251SOL     OW16651   0.641   3.461   0.339
 5251SOL    HW116652   0.544   3.487   0.343
 5251SOL    HW216653   0.697   3.543   0.327
 5252SOL     OW16654   2.304   5.750   0.908
 5252SOL    HW116655   2.268   5.661   0.938
 5252SOL    HW216656   2.258   5.778   0.824
 5253SOL     OW16657   5.408   3.870   4.705
 5253SOL    HW116658   5.423   3.902   4.798
 5253SOL    HW216659   5.330   3.808   4.703
 5254SOL     OW16660   4.838   1.008   3.247
 5254SOL    HW116661   4.881   0.919   3.232
 5254SOL    HW216662   4.738   0.999   3.239
 5255SOL     OW16663   4.444   0.447   6.026
 5255SOL    HW116664   4.469   0.477   5.934
 5255SOL    HW216665   4.477   0.515   6.092
 5256SOL     OW16666   4.210   0.856   3.657
 5256SOL    HW116667   4.267   0.813   3.587
 5256SOL    HW216668   4.242   0.830   3.748
 5257SOL     OW16669   4.528   6.935   2.214
 5257SOL    HW116670   4.608   6.904   2.265
 5257SOL    HW216671   4.455   6.958   2.278
 5258SOL     OW16672   5.112   3.223   1.286
 5258SOL    HW116673   5.189   3.161   1.305
 5258SOL    HW216674   5.147   3.315   1.273
 5259SOL     OW16675   4.632   5.938   0.890
 5259SOL    HW116676   4.645   5.880   0.809
 5259SOL    HW216677   4.622   5.881   0.971
 5260SOL     OW16678   5.317   3.507   0.926
 5260SOL    HW116679   5.220   3.484   0.912
 5260SOL    HW216680   5.340   3.586   0.870
 5261SOL     OW16681   1.900   3.385   6.686
 5261SOL    HW116682   1.845   3.468   6.686
 5261SOL    HW216683   1.842   3.306   6.705
 5262SOL     OW16684   2.399   0.460   2.591
 5262SOL    HW116685   2.483   0.409   2.571
 5262SOL    HW216686   2.366   0.504   2.508
 5263SOL     OW16687   1.155   1.262   5.709
 5263SOL    HW116688   1.171   1.191   5.778
 5263SOL    HW216689   1.090   1.228   5.642
 5264SOL     OW16690   6.054   0.968   2.531
 5264SOL    HW116691   5.960   0.988   2.559
 5264SOL    HW216692   6.116   0.987   2.607
 5265SOL     OW16693   5.403   4.567   3.262
 5265SOL    HW116694   5.317   4.536   3.221
 5265SOL    HW216695   5.476   4.503   3.239
 5266SOL     OW16696   2.878   0.217   2.074
 5266SOL    HW116697   2.809   0.176   2.014
 5266SOL    HW216698   2.873   0.174   2.164
 5267SOL     OW16699   5.008   4.735   6.051
 5267SOL    HW116700   5.045   4.796   6.121
 5267SOL    HW216701   4.971   4.789   5.976
 5268SOL     OW16702   6.056   6.870   6.251
 5268SOL    HW116703   6.128   6.820   6.298
 5268SOL    HW216704   6.095   6.953   6.211
 5269SOL     OW16705   2.199   0.098   4.219
 5269SOL    HW116706   2.160   0.182   4.182
 5269SOL    HW216707   2.297   0.111   4.233
 5270SOL     OW16708   5.323   1.827   2.233
 5270SOL    HW116709   5.259   1.752   2.254
 5270SOL    HW216710   5.329   1.888   2.312
 5271SOL     OW16711   5.429   4.998   5.161
 5271SOL    HW116712   5.477   4.911   5.146
 5271SOL    HW216713   5.484   5.073   5.125
 5272SOL     OW16714   1.915   6.277   2.452
 5272SOL    HW116715   1.958   6.345   2.392
 5272SOL    HW216716   1.872   6.206   2.395
 5273SOL     OW16717   6.852   3.008   3.267
 5273SOL    HW116718   6.926   2.942   3.261
 5273SOL    HW216719   6.764   2.961   3.262
 5274SOL     OW16720   6.071   6.186   2.364
 5274SOL    HW116721   5.996   6.138   2.410
 5274SOL    HW216722   6.089   6.144   2.276
 5275SOL     OW16723   3.363   2.173   6.580
 5275SOL    HW116724   3.441   2.111   6.585
 5275SOL    HW216725   3.368   2.238   6.656
 5276SOL     OW16726   1.211   0.744   1.334
 5276SOL    HW116727   1.158   0.659   1.336
 5276SOL    HW216728   1.298   0.731   1.381
 5277SOL     OW16729   1.690   2.583   3.252
 5277SOL    HW116730   1.742   2.511   3.298
 5277SOL    HW216731   1.750   2.629   3.186
 5278SOL     OW16732   4.584   0.245   4.329
 5278SOL    HW116733   4.659   0.178   4.323
 5278SOL    HW216734   4.621   0.332   4.360
 5279SOL     OW16735   1.537   5.167   6.879
 5279SOL    HW116736   1.629   5.192   6.852
 5279SOL    HW216737   1.478   5.164   6.798
 5280SOL     OW16738   3.065   6.350   5.605
 5280SOL    HW116739   3.078   6.449   5.601
 5280SOL    HW216740   3.122   6.306   5.537
 5281SOL     OW16741   0.854   1.420   3.059
 5281SOL    HW116742   0.952   1.414   3.076
 5281SOL    HW216743   0.816   1.496   3.110
 5282SOL     OW16744   2.031   1.591   3.305
 5282SOL    HW116745   2.020   1.646   3.388
 5282SOL    HW216746   2.071   1.502   3.330
 5283SOL     OW16747   3.102   0.003   1.911
 5283SOL    HW116748   3.031   6.977   1.963
 5283SOL    HW216749   3.189   6.975   1.920
 5284SOL     OW16750   5.088   2.954   3.039
 5284SOL    HW116751   5.087   2.918   2.946
 5284SOL    HW216752   4.994   2.968   3.070
 5285SOL     OW16753   1.488   4.188   4.477
 5285SOL    HW116754   1.408   4.173   4.536
 5285SOL    HW216755   1.510   4.104   4.428
 5286SOL     OW16756   0.145   4.021   1.367
 5286SOL    HW116757   0.115   3.973   1.284
 5286SOL    HW216758   0.170   4.115   1.345
 5287SOL     OW16759   1.618   6.000   1.725
 5287SOL    HW116760   1.564   6.001   1.809
 5287SOL    HW216761   1.714   5.982   1.748
 5288SOL     OW16762   4.003   0.932   2.657
 5288SOL    HW116763   4.035   0.970   2.570
 5288SOL    HW216764   4.080   0.918   2.718
 5289SOL     OW16765   1.493   5.542   6.350
 5289SOL    HW116766   1.476   5.594   6.266
 5289SOL    HW216767   1.490   5.444   6.330
 5290SOL     OW16768   1.563   4.291   5.329
 5290SOL    HW116769   1.522   4.380   5.346
 5290SOL    HW216770   1.620   4.265   5.406
 5291SOL     OW16771   3.074   5.142   5.693
 5291SOL    HW116772   2.982   5.113   5.721
 5291SOL    HW216773   3.076   5.242   5.685
 5292SOL     OW16774   6.367   5.123   6.835
 5292SOL    HW116775   6.389   5.201   6.776
 5292SOL    HW216776   6.430   5.119   6.912
 5293SOL     OW16777   1.333   0.224   4.330
 5293SOL    HW116778   1.258   0.286   4.353
 5293SOL    HW216779   1.358   0.171   4.410
 5294SOL     OW16780   6.135   2.995   4.179
 5294SOL    HW116781   6.189   2.931   4.235
 5294SOL    HW216782   6.050   2.951   4.152
 5295SOL     OW16783   4.218   0.869   2.814
 5295SOL    HW116784   4.307   0.914   2.810
 5295SOL    HW216785   4.225   0.787   2.872
 5296SOL     OW16786   2.497   5.082   0.425
 5296SOL    HW116787   2.588   5.116   0.401
 5296SOL    HW216788   2.454   5.042   0.344
 5297SOL     OW16789   2.837   2.435   0.812
 5297SOL    HW116790   2.815   2.524   0.852
 5297SOL    HW216791   2.927   2.440   0.769
 5298SOL     OW16792   1.134   5.688   7.010
 5298SOL    HW116793   1.161   5.608   6.956
 5298SOL    HW216794   1.133   5.665   0.085
 5299SOL     OW16795   2.231   2.534   0.803
 5299SOL    HW116796   2.158   2.541   0.735
 5299SOL    HW216797   2.315   2.502   0.760
 5300SOL     OW16798   0.923   6.216   1.104
 5300SOL    HW116799   0.837   6.263   1.084
 5300SOL    HW216800   0.958   6.245   1.193
 5301SOL     OW16801   3.626   2.583   6.494
 5301SOL    HW116802   3.653   2.679   6.480
 5301SOL    HW216803   3.559   2.577   6.568
 5302SOL     OW16804   5.783   5.580   4.055
 5302SOL    HW116805   5.701   5.619   4.013
 5302SOL    HW216806   5.818   5.643   4.125
 5303SOL     OW16807   6.587   5.878   3.129
 5303SOL    HW116808   6.557   5.879   3.224
 5303SOL    HW216809   6.628   5.966   3.105
 5304SOL     OW16810   5.630   1.340   6.345
 5304SOL    HW116811   5.550   1.397   6.367
 5304SOL    HW216812   5.714   1.392   6.365
 5305SOL     OW16813   0.742   5.272   3.061
 5305SOL    HW116814   0.679   5.302   3.134
 5305SOL    HW216815   0.751   5.172   3.064
 5306SOL     OW16816   0.524   4.264   4.771
 5306SOL    HW116817   0.522   4.340   4.706
 5306SOL    HW216818   0.614   4.219   4.767
 5307SOL     OW16819   4.306   0.511   0.560
 5307SOL    HW116820   4.279   0.540   0.652
 5307SOL    HW216821   4.283   0.584   0.495
 5308SOL     OW16822   0.662   6.108   3.687
 5308SOL    HW116823   0.564   6.121   3.675
 5308SOL    HW216824   0.678   6.045   3.762
 5309SOL     OW16825   4.086   4.603   1.384
 5309SOL    HW116826   4.024   4.604   1.306
 5309SOL    HW216827   4.062   4.678   1.446
 5310SOL     OW16828   6.388   3.582   2.442
 5310SOL    HW116829   6.388   3.612   2.538
 5310SOL    HW216830   6.308   3.621   2.396
 5311SOL     OW16831   6.175   5.840   0.294
 5311SOL    HW116832   6.170   5.842   0.394
 5311SOL    HW216833   6.260   5.885   0.265
 5312SOL     OW16834   0.329   5.183   2.059
 5312SOL    HW116835   0.331   5.084   2.047
 5312SOL    HW216836   0.422   5.219   2.059
 5313SOL     OW16837   1.825   4.271   6.258
 5313SOL    HW116838   1.843   4.329   6.178
 5313SOL    HW216839   1.911   4.252   6.305
 5314SOL     OW16840   3.146   6.424   6.935
 5314SOL    HW116841   3.104   6.494   6.992
 5314SOL    HW216842   3.190   6.355   6.993
 5315SOL     OW16843   4.959   3.305   1.533
 5315SOL    HW116844   4.923   3.223   1.578
 5315SOL    HW216845   4.994   3.280   1.443
 5316SOL     OW16846   0.217   4.483   4.777
 5316SOL    HW116847   0.199   4.568   4.827
 5316SOL    HW216848   0.290   4.433   4.823
 5317SOL     OW16849   6.751   0.016   5.211
 5317SOL    HW116850   6.657   7.006   5.201
 5317SOL    HW216851   6.791   0.029   5.120
 5318SOL     OW16852   6.502   2.468   6.392
 5318SOL    HW116853   6.519   2.471   6.293
 5318SOL    HW216854   6.508   2.560   6.430
 5319SOL     OW16855   4.137   6.634   6.696
 5319SOL    HW116856   4.167   6.549   6.739
 5319SOL    HW216857   4.045   6.657   6.727
 5320SOL     OW16858   6.310   5.142   0.186
 5320SOL    HW116859   6.254   5.224   0.198
 5320SOL    HW216860   6.390   5.164   0.129
 5321SOL     OW16861   0.895   4.016   3.607
 5321SOL    HW116862   0.972   3.973   3.559
 5321SOL    HW216863   0.899   4.115   3.595
 5322SOL     OW16864   4.422   6.005   6.526
 5322SOL    HW116865   4.357   5.947   6.575
 5322SOL    HW216866   4.375   6.051   6.451
 5323SOL     OW16867   3.507   2.391   0.049
 5323SOL    HW116868   3.428   2.389   0.110
 5323SOL    HW216869   3.516   2.482   0.009
 5324SOL     OW16870   4.456   2.348   0.910
 5324SOL    HW116871   4.428   2.304   0.996
 5324SOL    HW216872   4.388   2.330   0.839
 5325SOL     OW16873   4.376   0.605   4.818
 5325SOL    HW116874   4.404   0.575   4.727
 5325SOL    HW216875   4.333   0.695   4.812
 5326SOL     OW16876   0.212   5.456   3.996
 5326SOL    HW116877   0.190   5.492   4.086
 5326SOL    HW216878   0.130   5.417   3.954
 5327SOL     OW16879   5.365   3.552   5.234
 5327SOL    HW116880   5.302   3.476   5.220
 5327SOL    HW216881   5.454   3.530   5.196
 5328SOL     OW16882   4.388   2.715   5.585
 5328SOL    HW116883   4.290   2.736   5.583
 5328SOL    HW216884   4.403   2.623   5.549
 5329SOL     OW16885   0.065   4.747   6.739
 5329SOL    HW116886   7.004   4.781   6.784
 5329SOL    HW216887   0.039   4.682   6.668
 5330SOL     OW16888   3.665   4.147   5.449
 5330SOL    HW116889   3.584   4.091   5.434
 5330SOL    HW216890   3.678   4.208   5.371
 5331SOL     OW16891   4.858   1.164   0.809
 5331SOL    HW116892   4.765   1.135   0.831
 5331SOL    HW216893   4.923   1.097   0.844
 5332SOL     OW16894   0.425   3.936   1.196
 5332SOL    HW116895   0.368   3.856   1.217
 5332SOL    HW216896   0.438   3.990   1.279
 5333SOL     OW16897   1.254   0.982   3.261
 5333SOL    HW116898   1.304   0.987   3.347
 5333SOL    HW216899   1.276   0.896   3.214
 5334SOL     OW16900   3.970   6.573   4.241
 5334SOL    HW116901   4.039   6.641   4.266
 5334SOL    HW216902   3.880   6.606   4.266
 5335SOL     OW16903   6.029   5.536   2.254
 5335SOL    HW116904   6.059   5.545   2.349
 5335SOL    HW216905   5.970   5.613   2.230
 5336SOL     OW16906   1.934   2.139   3.220
 5336SOL    HW116907   1.998   2.115   3.293
 5336SOL    HW216908   1.978   2.201   3.155
 5337SOL     OW16909   5.424   4.370   2.401
 5337SOL    HW116910   5.353   4.411   2.458
 5337SOL    HW216911   5.399   4.379   2.304
 5338SOL     OW16912   5.843   0.565   5.473
 5338SOL    HW116913   5.900   0.498   5.521
 5338SOL    HW216914   5.901   0.619   5.412
 5339SOL     OW16915   6.674   2.197   3.628
 5339SOL    HW116916   6.594   2.218   3.572
 5339SOL    HW216917   6.755   2.239   3.587
 5340SOL     OW16918   5.431   2.744   1.009
 5340SOL    HW116919   5.346   2.780   1.048
 5340SOL    HW216920   5.476   2.686   1.077
 5341SOL     OW16921   3.543   4.567   6.043
 5341SOL    HW116922   3.639   4.576   6.019
 5341SOL    HW216923   3.492   4.535   5.963
 5342SOL     OW16924   4.433   6.328   4.255
 5342SOL    HW116925   4.348   6.304   4.301
 5342SOL    HW216926   4.495   6.374   4.319
 5343SOL     OW16927   3.412   3.291   4.693
 5343SOL    HW116928   3.504   3.258   4.676
 5343SOL    HW216929   3.378   3.252   4.779
 5344SOL     OW16930   2.031   1.844   1.361
 5344SOL    HW116931   2.118   1.891   1.378
 5344SOL    HW216932   1.956   1.900   1.397
 5345SOL     OW16933   3.478   6.532   0.627
 5345SOL    HW116934   3.512   6.613   0.580
 5345SOL    HW216935   3.427   6.559   0.708
 5346SOL     OW16936   3.273   5.782   3.998
 5346SOL    HW116937   3.248   5.877   4.017
 5346SOL    HW216938   3.361   5.780   3.951
 5347SOL     OW16939   0.074   2.747   1.883
 5347SOL    HW116940   0.081   2.846   1.869
 5347SOL    HW216941   7.000   2.723   1.900
 5348SOL     OW16942   6.541   1.964   1.079
 5348SOL    HW116943   6.448   1.939   1.053
 5348SOL    HW216944   6.573   2.040   1.023
 5349SOL     OW16945   2.204   2.881   0.594
 5349SOL    HW116946   2.236   2.934   0.515
 5349SOL    HW216947   2.131   2.820   0.565
 5350SOL     OW16948   1.533   6.972   5.060
 5350SOL    HW116949   1.439   6.989   5.031
 5350SOL    HW216950   1.548   6.873   5.066
 5351SOL     OW16951   6.418   5.109   2.465
 5351SOL    HW116952   6.403   5.125   2.563
 5351SOL    HW216953   6.477   5.181   2.429
 5352SOL     OW16954   1.746   5.390   3.275
 5352SOL    HW116955   1.708   5.464   3.219
 5352SOL    HW216956   1.689   5.309   3.265
 5353SOL     OW16957   3.657   5.236   4.172
 5353SOL    HW116958   3.690   5.160   4.228
 5353SOL    HW216959   3.664   5.211   4.076
 5354SOL     OW16960   2.346   5.012   1.242
 5354SOL    HW116961   2.253   5.031   1.272
 5354SOL    HW216962   2.411   5.046   1.309
 5355SOL     OW16963   6.419   4.625   4.671
 5355SOL    HW116964   6.488   4.625   4.744
 5355SOL    HW216965   6.330   4.648   4.710
 5356SOL     OW16966   6.248   4.290   2.615
 5356SOL    HW116967   6.209   4.344   2.689
 5356SOL    HW216968   6.176   4.238   2.569
 5357SOL     OW16969   3.082   6.248   0.154
 5357SOL    HW116970   3.013   6.176   0.162
 5357SOL    HW216971   3.040   6.337   0.168
 5358SOL     OW16972   4.849   1.108   0.041
 5358SOL    HW116973   4.804   1.165   0.110
 5358SOL    HW216974   4.946   1.102   0.060
 5359SOL     OW16975   1.538   0.867   5.728
 5359SOL    HW116976   1.575   0.858   5.820
 5359SOL    HW216977   1.608   0.843   5.661
 5360SOL     OW16978   3.227   6.054   3.721
 5360SOL    HW116979   3.285   5.983   3.760
 5360SOL    HW216980   3.209   6.033   3.625
 5361SOL     OW16981   3.146   1.253   4.811
 5361SOL    HW116982   3.115   1.325   4.873
 5361SOL    HW216983   3.069   1.222   4.755
 5362SOL     OW16984   6.313   6.222   2.742
 5362SOL    HW116985   6.400   6.271   2.735
 5362SOL    HW216986   6.306   6.157   2.667
 5363SOL     OW16987   6.781   0.089   5.661
 5363SOL    HW116988   6.802   0.067   5.756
 5363SOL    HW216989   6.686   0.120   5.655
 5364SOL     OW16990   6.889   6.798   2.270
 5364SOL    HW116991   6.839   6.862   2.212
 5364SOL    HW216992   6.841   6.711   2.274
 5365SOL     OW16993   4.153   3.183   1.111
 5365SOL    HW116994   4.092   3.153   1.183
 5365SOL    HW216995   4.103   3.188   1.024
 5366SOL     OW16996   5.932   5.895   1.413
 5366SOL    HW116997   5.970   5.885   1.505
 5366SOL    HW216998   5.936   5.991   1.386
 5367SOL     OW16999   0.704   6.554   0.666
 5367SOL    HW117000   0.700   6.636   0.724
 5367SOL    HW217001   0.798   6.540   0.635
 5368SOL     OW17002   5.521   0.292   2.547
 5368SOL    HW117003   5.435   0.271   2.594
 5368SOL    HW217004   5.588   0.221   2.566
 5369SOL     OW17005   2.696   6.602   0.901
 5369SOL    HW117006   2.777   6.543   0.899
 5369SOL    HW217007   2.725   6.697   0.910
 5370SOL     OW17008   4.545   2.415   1.704
 5370SOL    HW117009   4.531   2.347   1.776
 5370SOL    HW217010   4.562   2.368   1.617
 5371SOL     OW17011   0.444   3.689   5.115
 5371SOL    HW117012   0.356   3.735   5.126
 5371SOL    HW217013   0.469   3.644   5.200
 5372SOL     OW17014   1.686   6.174   3.297
 5372SOL    HW117015   1.658   6.079   3.308
 5372SOL    HW217016   1.761   6.180   3.231
 5373SOL     OW17017   3.412   6.488   4.395
 5373SOL    HW117018   3.415   6.406   4.338
 5373SOL    HW217019   3.495   6.495   4.450
 5374SOL     OW17020   2.120   4.560   0.887
 5374SOL    HW117021   2.094   4.468   0.858
 5374SOL    HW217022   2.038   4.611   0.913
 5375SOL     OW17023   0.472   5.530   4.412
 5375SOL    HW117024   0.405   5.601   4.388
 5375SOL    HW217025   0.514   5.553   4.500
 5376SOL     OW17026   1.726   2.615   1.279
 5376SOL    HW117027   1.820   2.617   1.312
 5376SOL    HW217028   1.689   2.708   1.275
 5377SOL     OW17029   0.107   6.791   2.082
 5377SOL    HW117030   0.176   6.861   2.061
 5377SOL    HW217031   0.072   6.806   2.174
 5378SOL     OW17032   6.980   0.541   2.562
 5378SOL    HW117033   6.952   0.457   2.609
 5378SOL    HW217034   0.005   0.601   2.627
 5379SOL     OW17035   0.717   4.902   4.725
 5379SOL    HW117036   0.800   4.856   4.693
 5379SOL    HW217037   0.685   4.857   4.809
 5380SOL     OW17038   2.894   1.049   2.967
 5380SOL    HW117039   2.984   1.018   2.996
 5380SOL    HW217040   2.824   0.982   2.995
 5381SOL     OW17041   6.395   4.849   2.344
 5381SOL    HW117042   6.307   4.808   2.366
 5381SOL    HW217043   6.402   4.938   2.388
 5382SOL     OW17044   2.822   1.430   2.271
 5382SOL    HW117045   2.796   1.428   2.174
 5382SOL    HW217046   2.909   1.476   2.282
 5383SOL     OW17047   1.988   2.062   5.280
 5383SOL    HW117048   1.936   1.996   5.225
 5383SOL    HW217049   2.075   2.080   5.235
 5384SOL     OW17050   5.886   7.005   5.322
 5384SOL    HW117051   5.985   6.992   5.320
 5384SOL    HW217052   5.865   0.080   5.338
 5385SOL     OW17053   3.549   3.493   4.035
 5385SOL    HW117054   3.647   3.491   4.014
 5385SOL    HW217055   3.525   3.411   4.087
 5386SOL     OW17056   4.764   1.256   3.919
 5386SOL    HW117057   4.810   1.225   4.002
 5386SOL    HW217058   4.728   1.348   3.933
 5387SOL     OW17059   1.983   7.013   3.307
 5387SOL    HW117060   2.021   6.925   3.335
 5387SOL    HW217061   1.976   0.052   3.386
 5388SOL     OW17062   0.265   1.732   3.382
 5388SOL    HW117063   0.364   1.717   3.383
 5388SOL    HW217064   0.222   1.669   3.447
 5389SOL     OW17065   3.760   1.522   3.305
 5389SOL    HW117066   3.699   1.442   3.311
 5389SOL    HW217067   3.709   1.600   3.270
 5390SOL     OW17068   4.626   4.309   3.199
 5390SOL    HW117069   4.614   4.328   3.296
 5390SOL    HW217070   4.689   4.233   3.187
 5391SOL     OW17071   2.597   1.248   1.042
 5391SOL    HW117072   2.623   1.340   1.012
 5391SOL    HW217073   2.591   1.188   0.962
 5392SOL     OW17074   5.368   3.621   1.199
 5392SOL    HW117075   5.289   3.588   1.250
 5392SOL    HW217076   5.391   3.557   1.126
 5393SOL     OW17077   4.966   0.241   5.529
 5393SOL    HW117078   5.019   0.297   5.466
 5393SOL    HW217079   5.022   0.165   5.562
 5394SOL     OW17080   0.525   5.396   0.864
 5394SOL    HW117081   0.551   5.303   0.889
 5394SOL    HW217082   0.427   5.410   0.883
 5395SOL     OW17083   4.566   1.103   1.270
 5395SOL    HW117084   4.524   1.015   1.293
 5395SOL    HW217085   4.646   1.117   1.328
 5396SOL     OW17086   5.209   4.308   1.891
 5396SOL    HW117087   5.126   4.355   1.920
 5396SOL    HW217088   5.281   4.322   1.959
 5397SOL     OW17089   0.606   2.780   1.265
 5397SOL    HW117090   0.666   2.725   1.323
 5397SOL    HW217091   0.643   2.784   1.173
 5398SOL     OW17092   2.969   2.255   3.844
 5398SOL    HW117093   3.067   2.244   3.828
 5398SOL    HW217094   2.921   2.175   3.808
 5399SOL     OW17095   2.431   6.545   0.857
 5399SOL    HW117096   2.521   6.583   0.878
 5399SOL    HW217097   2.372   6.552   0.938
 5400SOL     OW17098   3.414   3.596   6.952
 5400SOL    HW117099   3.482   3.634   7.016
 5400SOL    HW217100   3.326   3.640   6.967
 5401SOL     OW17101   6.090   4.273   2.235
 5401SOL    HW117102   6.090   4.248   2.138
 5401SOL    HW217103   6.038   4.356   2.248
 5402SOL     OW17104   1.999   6.197   1.727
 5402SOL    HW117105   2.014   6.099   1.739
 5402SOL    HW217106   2.086   6.243   1.710
 5403SOL     OW17107   5.964   2.853   5.372
 5403SOL    HW117108   5.880   2.907   5.365
 5403SOL    HW217109   5.950   2.765   5.328
 5404SOL     OW17110   0.879   0.124   3.023
 5404SOL    HW117111   0.813   0.157   3.091
 5404SOL    HW217112   0.922   0.203   2.979
 5405SOL     OW17113   5.573   6.056   0.384
 5405SOL    HW117114   5.523   6.012   0.310
 5405SOL    HW217115   5.671   6.055   0.363
 5406SOL     OW17116   1.980   0.109   5.503
 5406SOL    HW117117   1.999   0.196   5.457
 5406SOL    HW217118   1.914   0.057   5.450
 5407SOL     OW17119   3.783   1.592   1.747
 5407SOL    HW117120   3.864   1.541   1.775
 5407SOL    HW217121   3.711   1.527   1.722
 5408SOL     OW17122   2.993   0.757   5.586
 5408SOL    HW117123   3.051   0.799   5.655
 5408SOL    HW217124   2.897   0.777   5.605
 5409SOL     OW17125   0.082   1.974   3.061
 5409SOL    HW117126   7.015   1.928   3.068
 5409SOL    HW217127   0.084   2.052   3.123
 5410SOL     OW17128   1.511   2.555   6.968
 5410SOL    HW117129   1.424   2.505   6.965
 5410SOL    HW217130   1.494   2.653   6.971
 5411SOL     OW17131   6.202   4.837   5.548
 5411SOL    HW117132   6.239   4.806   5.460
 5411SOL    HW217133   6.277   4.860   5.610
 5412SOL     OW17134   3.960   1.166   6.673
 5412SOL    HW117135   3.866   1.149   6.705
 5412SOL    HW217136   3.957   1.201   6.579
 5413SOL     OW17137   0.554   0.233   1.063
 5413SOL    HW117138   0.508   0.185   0.989
 5413SOL    HW217139   0.650   0.207   1.065
 5414SOL     OW17140   6.391   3.323   5.222
 5414SOL    HW117141   6.480   3.352   5.187
 5414SOL    HW217142   6.319   3.378   5.179
 5415SOL     OW17143   0.991   6.023   1.465
 5415SOL    HW117144   0.991   6.029   1.565
 5415SOL    HW217145   1.083   6.038   1.430
 5416SOL     OW17146   3.405   4.769   6.171
 5416SOL    HW117147   3.453   4.693   6.128
 5416SOL    HW217148   3.352   4.736   6.249
 5417SOL     OW17149   4.289   6.522   4.571
 5417SOL    HW117150   4.265   6.452   4.638
 5417SOL    HW217151   4.273   6.487   4.479
 5418SOL     OW17152   4.835   0.986   4.229
 5418SOL    HW117153   4.846   1.085   4.236
 5418SOL    HW217154   4.911   0.947   4.177
 5419SOL     OW17155   3.855   5.247   6.912
 5419SOL    HW117156   3.796   5.309   6.862
 5419SOL    HW217157   3.852   5.156   6.870
 5420SOL     OW17158   2.000   3.317   1.630
 5420SOL    HW117159   1.907   3.349   1.612
 5420SOL    HW217160   2.005   3.218   1.614
 5421SOL     OW17161   2.576   4.582   3.366
 5421SOL    HW117162   2.616   4.620   3.450
 5421SOL    HW217163   2.624   4.621   3.287
 5422SOL     OW17164   0.957   5.873   5.314
 5422SOL    HW117165   0.885   5.805   5.304
 5422SOL    HW217166   0.930   5.940   5.383
 5423SOL     OW17167   6.323   3.738   0.026
 5423SOL    HW117168   6.334   3.830   0.063
 5423SOL    HW217169   6.298   3.744   6.951
 5424SOL     OW17170   6.080   3.583   4.183
 5424SOL    HW117171   6.070   3.549   4.090
 5424SOL    HW217172   6.130   3.516   4.238
 5425SOL     OW17173   5.210   2.098   4.275
 5425SOL    HW117174   5.118   2.083   4.239
 5425SOL    HW217175   5.220   2.048   4.361
 5426SOL     OW17176   6.287   4.993   3.821
 5426SOL    HW117177   6.227   4.918   3.850
 5426SOL    HW217178   6.304   5.054   3.898
 5427SOL     OW17179   5.343   4.681   0.573
 5427SOL    HW117180   5.278   4.646   0.507
 5427SOL    HW217181   5.432   4.639   0.558
 5428SOL     OW17182   6.318   6.910   1.839
 5428SOL    HW117183   6.248   6.980   1.825
 5428SOL    HW217184   6.409   6.953   1.842
 5429SOL     OW17185   1.134   0.827   5.257
 5429SOL    HW117186   1.115   0.782   5.344
 5429SOL    HW217187   1.209   0.892   5.269
 5430SOL     OW17188   2.527   2.145   6.523
 5430SOL    HW117189   2.440   2.183   6.555
 5430SOL    HW217190   2.517   2.048   6.504
 5431SOL     OW17191   3.102   4.428   6.324
 5431SOL    HW117192   3.146   4.339   6.314
 5431SOL    HW217193   3.043   4.445   6.244
 5432SOL     OW17194   3.543   5.715   6.064
 5432SOL    HW117195   3.585   5.694   6.153
 5432SOL    HW217196   3.539   5.814   6.052
 5433SOL     OW17197   0.457   1.060   2.897
 5433SOL    HW117198   0.460   0.974   2.949
 5433SOL    HW217199   0.536   1.116   2.923
 5434SOL     OW17200   4.424   1.403   4.835
 5434SOL    HW117201   4.511   1.451   4.851
 5434SOL    HW217202   4.349   1.456   4.875
 5435SOL     OW17203   6.270   2.202   1.515
 5435SOL    HW117204   6.335   2.142   1.469
 5435SOL    HW217205   6.187   2.151   1.536
 5436SOL     OW17206   5.597   4.406   4.502
 5436SOL    HW117207   5.622   4.502   4.490
 5436SOL    HW217208   5.639   4.351   4.430
 5437SOL     OW17209   2.828   5.031   5.737
 5437SOL    HW117210   2.760   5.104   5.744
 5437SOL    HW217211   2.793   4.948   5.779
 5438SOL     OW17212   6.522   3.853   2.534
 5438SOL    HW117213   6.462   3.869   2.456
 5438SOL    HW217214   6.615   3.836   2.501
 5439SOL     OW17215   6.893   2.625   6.988
 5439SOL    HW117216   6.939   2.617   0.055
 5439SOL    HW217217   6.880   2.534   6.950
 5440SOL     OW17218   6.827   0.076   3.203
 5440SOL    HW117219   6.750   0.066   3.139
 5440SOL    HW217220   6.823   0.166   3.246
 5441SOL     OW17221   4.646   2.718   3.388
 5441SOL    HW117222   4.662   2.654   3.463
 5441SOL    HW217223   4.590   2.674   3.318
 5442SOL     OW17224   3.030   6.696   3.482
 5442SOL    HW117225   3.084   6.618   3.515
 5442SOL    HW217226   3.046   6.775   3.541
 5443SOL     OW17227   3.037   5.804   4.210
 5443SOL    HW117228   3.039   5.890   4.160
 5443SOL    HW217229   3.090   5.813   4.294
 5444SOL     OW17230   6.969   0.660   3.254
 5444SOL    HW117231   6.995   0.565   3.242
 5444SOL    HW217232   0.020   0.719   3.217
 5445SOL     OW17233   6.598   4.216   4.188
 5445SOL    HW117234   6.565   4.169   4.270
 5445SOL    HW217235   6.614   4.312   4.208
 5446SOL     OW17236   5.882   5.151   5.041
 5446SOL    HW117237   5.973   5.131   5.078
 5446SOL    HW217238   5.891   5.187   4.947
 5447SOL     OW17239   1.202   1.736   0.825
 5447SOL    HW117240   1.156   1.825   0.819
 5447SOL    HW217241   1.136   1.666   0.848
 5448SOL     OW17242   5.751   4.339   4.158
 5448SOL    HW117243   5.698   4.360   4.076
 5448SOL    HW217244   5.737   4.243   4.183
 5449SOL     OW17245   1.806   1.525   0.931
 5449SOL    HW117246   1.752   1.568   1.004
 5449SOL    HW217247   1.861   1.594   0.885
 5450SOL     OW17248   3.243   0.127   0.848
 5450SOL    HW117249   3.236   0.144   0.946
 5450SOL    HW217250   3.152   0.114   0.809
 5451SOL     OW17251   2.249   5.967   3.904
 5451SOL    HW117252   2.227   5.875   3.871
 5451SOL    HW217253   2.332   5.999   3.858
 5452SOL     OW17254   2.965   4.045   6.964
 5452SOL    HW117255   2.867   4.032   6.977
 5452SOL    HW217256   3.000   3.974   6.903
 5453SOL     OW17257   5.500   4.150   1.820
 5453SOL    HW117258   5.502   4.085   1.896
 5453SOL    HW217259   5.471   4.104   1.737
 5454SOL     OW17260   5.456   5.194   5.791
 5454SOL    HW117261   5.531   5.174   5.728
 5454SOL    HW217262   5.377   5.138   5.769
 5455SOL     OW17263   0.088   2.302   2.931
 5455SOL    HW117264   0.067   2.234   2.860
 5455SOL    HW217265   0.109   2.255   3.017
 5456SOL     OW17266   2.736   0.118   0.370
 5456SOL    HW117267   2.738   0.149   0.275
 5456SOL    HW217268   2.790   0.035   0.379
 5457SOL     OW17269   0.318   2.019   1.823
 5457SOL    HW117270   0.266   2.001   1.739
 5457SOL    HW217271   0.267   1.984   1.901
 5458SOL     OW17272   0.552   4.970   0.377
 5458SOL    HW117273   0.523   4.881   0.341
 5458SOL    HW217274   0.475   5.015   0.422
 5459SOL     OW17275   3.418   3.761   6.619
 5459SOL    HW117276   3.423   3.714   6.707
 5459SOL    HW217277   3.505   3.752   6.571
 5460SOL     OW17278   3.677   6.458   2.711
 5460SOL    HW117279   3.722   6.444   2.799
 5460SOL    HW217280   3.730   6.521   2.654
 5461SOL     OW17281   0.404   0.939   5.472
 5461SOL    HW117282   0.374   0.865   5.412
 5461SOL    HW217283   0.345   1.019   5.457
 5462SOL     OW17284   5.723   6.849   0.788
 5462SOL    HW117285   5.657   6.894   0.727
 5462SOL    HW217286   5.684   6.762   0.821
 5463SOL     OW17287   0.147   1.362   6.865
 5463SOL    HW117288   0.071   1.400   6.917
 5463SOL    HW217289   0.190   1.288   6.917
 5464SOL     OW17290   6.702   0.415   4.586
 5464SOL    HW117291   6.700   0.320   4.555
 5464SOL    HW217292   6.618   0.435   4.637
 5465SOL     OW17293   4.731   0.681   4.585
 5465SOL    HW117294   4.672   0.610   4.624
 5465SOL    HW217295   4.693   0.709   4.496
 5466SOL     OW17296   5.184   2.984   4.832
 5466SOL    HW117297   5.232   2.931   4.902
 5466SOL    HW217298   5.086   2.975   4.844
 5467SOL     OW17299   5.181   4.176   3.231
 5467SOL    HW117300   5.242   4.101   3.260
 5467SOL    HW217301   5.206   4.205   3.138
 5468SOL     OW17302   6.945   2.781   3.810
 5468SOL    HW117303   6.927   2.868   3.764
 5468SOL    HW217304   6.864   2.723   3.806
 5469SOL     OW17305   2.940   6.548   5.860
 5469SOL    HW117306   3.009   6.478   5.842
 5469SOL    HW217307   2.974   6.637   5.830
 5470SOL     OW17308   3.688   5.390   3.222
 5470SOL    HW117309   3.647   5.480   3.235
 5470SOL    HW217310   3.634   5.338   3.156
 5471SOL     OW17311   5.986   0.078   3.285
 5471SOL    HW117312   6.052   0.009   3.315
 5471SOL    HW217313   5.893   0.044   3.301
 5472SOL     OW17314   2.597   3.799   6.718
 5472SOL    HW117315   2.543   3.762   6.794
 5472SOL    HW217316   2.538   3.814   6.639
 5473SOL     OW17317   1.419   3.437   1.722
 5473SOL    HW117318   1.442   3.340   1.733
 5473SOL    HW217319   1.486   3.481   1.663
 5474SOL     OW17320   1.202   4.299   3.987
 5474SOL    HW117321   1.123   4.298   4.048
 5474SOL    HW217322   1.286   4.308   4.040
 5475SOL     OW17323   1.869   2.545   0.838
 5475SOL    HW117324   1.923   2.527   0.756
 5475SOL    HW217325   1.926   2.592   0.905
 5476SOL     OW17326   2.096   4.208   5.041
 5476SOL    HW117327   2.181   4.157   5.041
 5476SOL    HW217328   2.045   4.187   5.125
 5477SOL     OW17329   2.105   4.560   2.315
 5477SOL    HW117330   2.099   4.592   2.410
 5477SOL    HW217331   2.046   4.480   2.303
 5478SOL     OW17332   3.115   6.379   4.309
 5478SOL    HW117333   3.125   6.356   4.212
 5478SOL    HW217334   3.146   6.473   4.325
 5479SOL     OW17335   5.684   1.036   6.023
 5479SOL    HW117336   5.762   0.992   5.978
 5479SOL    HW217337   5.601   0.983   6.003
 5480SOL     OW17338   5.974   5.348   4.199
 5480SOL    HW117339   6.035   5.423   4.225
 5480SOL    HW217340   5.889   5.386   4.161
 5481SOL     OW17341   4.615   1.576   4.523
 5481SOL    HW117342   4.581   1.486   4.551
 5481SOL    HW217343   4.542   1.625   4.475
 5482SOL     OW17344   3.751   4.656   1.616
 5482SOL    HW117345   3.700   4.648   1.702
 5482SOL    HW217346   3.831   4.714   1.631
 5483SOL     OW17347   6.998   2.038   5.259
 5483SOL    HW117348   6.904   2.059   5.231
 5483SOL    HW217349   0.031   2.122   5.258
 5484SOL     OW17350   3.894   1.220   3.704
 5484SOL    HW117351   3.874   1.290   3.772
 5484SOL    HW217352   3.882   1.258   3.612
 5485SOL     OW17353   3.899   0.159   4.179
 5485SOL    HW117354   3.884   0.061   4.192
 5485SOL    HW217355   3.980   0.187   4.230
 5486SOL     OW17356   1.986   6.259   5.065
 5486SOL    HW117357   1.978   6.160   5.051
 5486SOL    HW217358   2.083   6.283   5.076
 5487SOL     OW17359   5.858   2.945   6.804
 5487SOL    HW117360   5.933   2.926   6.867
 5487SOL    HW217361   5.877   3.030   6.754
 5488SOL     OW17362   6.083   0.307   1.446
 5488SOL    HW117363   6.000   0.254   1.464
 5488SOL    HW217364   6.058   0.400   1.420
 5489SOL     OW17365   0.362   4.397   1.850
 5489SOL    HW117366   0.270   4.403   1.811
 5489SOL    HW217367   0.359   4.341   1.932
 5490SOL     OW17368   3.099   0.052   1.399
 5490SOL    HW117369   3.093   7.003   1.327
 5490SOL    HW217370   3.190   0.047   1.441
 5491SOL     OW17371   1.461   4.402   1.029
 5491SOL    HW117372   1.387   4.452   0.985
 5491SOL    HW217373   1.434   4.375   1.121
 5492SOL     OW17374   0.131   3.065   5.917
 5492SOL    HW117375   0.225   3.064   5.952
 5492SOL    HW217376   0.103   2.972   5.894
 5493SOL     OW17377   2.985   3.771   4.500
 5493SOL    HW117378   2.956   3.708   4.429
 5493SOL    HW217379   3.029   3.851   4.459
 5494SOL     OW17380   0.133   2.938   6.200
 5494SOL    HW117381   0.171   3.001   6.133
 5494SOL    HW217382   0.092   2.990   6.275
 5495SOL     OW17383   3.858   1.207   1.375
 5495SOL    HW117384   3.943   1.186   1.327
 5495SOL    HW217385   3.791   1.241   1.308
 5496SOL     OW17386   3.584   1.098   3.795
 5496SOL    HW117387   3.639   1.182   3.799
 5496SOL    HW217388   3.489   1.119   3.816
 5497SOL     OW17389   0.045   1.614   4.780
 5497SOL    HW117390   6.983   1.664   4.807
 5497SOL    HW217391   0.094   1.586   4.863
 5498SOL     OW17392   6.431   5.857   0.845
 5498SOL    HW117393   6.362   5.908   0.896
 5498SOL    HW217394   6.512   5.913   0.833
 5499SOL     OW17395   0.266   0.639   4.868
 5499SOL    HW117396   0.295   0.691   4.948
 5499SOL    HW217397   0.318   0.554   4.863
 5500SOL     OW17398   1.062   0.674   0.625
 5500SOL    HW117399   1.150   0.701   0.664
 5500SOL    HW217400   0.989   0.692   0.691
 5501SOL     OW17401   3.332   1.181   0.222
 5501SOL    HW117402   3.309   1.257   0.282
 5501SOL    HW217403   3.423   1.196   0.183
 5502SOL     OW17404   5.329   3.708   6.946
 5502SOL    HW117405   5.247   3.763   6.931
 5502SOL    HW217406   5.335   3.638   6.874
 5503SOL     OW17407   0.104   4.830   2.006
 5503SOL    HW117408   0.058   4.894   1.944
 5503SOL    HW217409   0.189   4.799   1.964
 5504SOL     OW17410   4.727   1.349   5.636
 5504SOL    HW117411   4.651   1.357   5.571
 5504SOL    HW217412   4.796   1.286   5.599
 5505SOL     OW17413   2.259   5.277   4.507
 5505SOL    HW117414   2.323   5.205   4.477
 5505SOL    HW217415   2.173   5.267   4.457
 5506SOL     OW17416   0.965   3.303   0.280
 5506SOL    HW117417   0.927   3.291   0.372
 5506SOL    HW217418   1.016   3.389   0.276
 5507SOL     OW17419   3.725   1.121   4.963
 5507SOL    HW117420   3.673   1.205   4.978
 5507SOL    HW217421   3.798   1.138   4.897
 5508SOL     OW17422   1.681   1.328   0.325
 5508SOL    HW117423   1.696   1.426   0.311
 5508SOL    HW217424   1.604   1.298   0.269
 5509SOL     OW17425   0.179   6.308   6.893
 5509SOL    HW117426   0.115   6.353   6.955
 5509SOL    HW217427   0.184   6.210   6.915
 5510SOL     OW17428   4.934   5.420   0.295
 5510SOL    HW117429   4.969   5.501   0.342
 5510SOL    HW217430   5.010   5.367   0.257
 5511SOL     OW17431   1.716   0.842   3.404
 5511SOL    HW117432   1.646   0.781   3.366
 5511SOL    HW217433   1.800   0.790   3.421
 5512SOL     OW17434   5.065   2.410   0.982
 5512SOL    HW117435   5.000   2.335   1.000
 5512SOL    HW217436   5.158   2.376   0.991
 5513SOL     OW17437   4.027   4.782   5.795
 5513SOL    HW117438   4.051   4.685   5.789
 5513SOL    HW217439   4.110   4.837   5.803
 5514SOL     OW17440   3.855   6.899   4.248
 5514SOL    HW117441   3.916   6.916   4.325
 5514SOL    HW217442   3.814   6.809   4.258
 5515SOL     OW17443   0.780   5.906   2.082
 5515SOL    HW117444   0.803   5.885   1.987
 5515SOL    HW217445   0.862   5.936   2.131
 5516SOL     OW17446   1.625   4.105   6.212
 5516SOL    HW117447   1.604   4.043   6.288
 5516SOL    HW217448   1.707   4.158   6.234
 5517SOL     OW17449   2.035   3.311   1.911
 5517SOL    HW117450   2.022   3.299   1.813
 5517SOL    HW217451   2.114   3.372   1.927
 5518SOL     OW17452   5.720   6.317   6.297
 5518SOL    HW117453   5.781   6.254   6.345
 5518SOL    HW217454   5.661   6.265   6.235
 5519SOL     OW17455   5.652   3.708   3.287
 5519SOL    HW117456   5.629   3.801   3.257
 5519SOL    HW217457   5.683   3.710   3.382
 5520SOL     OW17458   6.643   0.005   2.539
 5520SOL    HW117459   6.603   0.077   2.482
 5520SOL    HW217460   6.642   6.940   2.489
 5521SOL     OW17461   5.375   6.353   1.919
 5521SOL    HW117462   5.345   6.337   1.826
 5521SOL    HW217463   5.420   6.442   1.925
 5522SOL     OW17464   6.152   5.086   1.110
 5522SOL    HW117465   6.234   5.031   1.094
 5522SOL    HW217466   6.100   5.093   1.025
 5523SOL     OW17467   3.821   0.856   1.861
 5523SOL    HW117468   3.736   0.909   1.863
 5523SOL    HW217469   3.882   0.895   1.792
 5524SOL     OW17470   4.847   0.496   4.210
 5524SOL    HW117471   4.933   0.509   4.258
 5524SOL    HW217472   4.840   0.562   4.135
 5525SOL     OW17473   0.428   2.319   0.927
 5525SOL    HW117474   0.334   2.305   0.897
 5525SOL    HW217475   0.435   2.298   1.025
 5526SOL     OW17476   4.993   5.822   3.550
 5526SOL    HW117477   4.895   5.817   3.572
 5526SOL    HW217478   5.006   5.812   3.452
 5527SOL     OW17479   5.135   3.379   3.928
 5527SOL    HW117480   5.204   3.307   3.925
 5527SOL    HW217481   5.178   3.467   3.911
 5528SOL     OW17482   1.198   0.695   0.050
 5528SOL    HW117483   1.239   0.698   0.141
 5528SOL    HW217484   1.101   0.673   0.058
 5529SOL     OW17485   3.413   6.757   3.609
 5529SOL    HW117486   3.466   6.706   3.677
 5529SOL    HW217487   3.436   6.723   3.518
 5530SOL     OW17488   5.599   2.355   1.108
 5530SOL    HW117489   5.504   2.373   1.083
 5530SOL    HW217490   5.642   2.300   1.037
 5531SOL     OW17491   3.423   3.680   2.060
 5531SOL    HW117492   3.480   3.751   2.101
 5531SOL    HW217493   3.448   3.591   2.098
 5532SOL     OW17494   1.264   3.708   1.069
 5532SOL    HW117495   1.255   3.617   1.028
 5532SOL    HW217496   1.326   3.704   1.146
 5533SOL     OW17497   3.366   1.865   3.005
 5533SOL    HW117498   3.405   1.828   2.921
 5533SOL    HW217499   3.300   1.936   2.983
 5534SOL     OW17500   0.502   1.707   6.771
 5534SOL    HW117501   0.432   1.742   6.833
 5534SOL    HW217502   0.459   1.663   6.692
 5535SOL     OW17503   0.596   2.897   3.102
 5535SOL    HW117504   0.616   2.862   3.193
 5535SOL    HW217505   0.533   2.835   3.055
 5536SOL     OW17506   3.096   1.026   4.240
 5536SOL    HW117507   3.165   1.082   4.287
 5536SOL    HW217508   3.092   1.051   4.144
 5537SOL     OW17509   2.693   1.027   2.697
 5537SOL    HW117510   2.778   1.044   2.748
 5537SOL    HW217511   2.687   0.930   2.674
 5538SOL     OW17512   2.403   5.926   5.417
 5538SOL    HW117513   2.359   6.009   5.382
 5538SOL    HW217514   2.472   5.895   5.352
 5539SOL     OW17515   1.334   3.692   1.338
 5539SOL    HW117516   1.342   3.741   1.425
 5539SOL    HW217517   1.302   3.599   1.356
 5540SOL     OW17518   4.454   4.548   3.590
 5540SOL    HW117519   4.409   4.580   3.507
 5540SOL    HW217520   4.545   4.513   3.568
 5541SOL     OW17521   5.178   6.935   6.402
 5541SOL    HW117522   5.179   6.838   6.424
 5541SOL    HW217523   5.264   6.977   6.432
 5542SOL     OW17524   4.607   3.607   6.109
 5542SOL    HW117525   4.641   3.519   6.142
 5542SOL    HW217526   4.653   3.681   6.159
 5543SOL     OW17527   3.340   5.144   5.724
 5543SOL    HW117528   3.375   5.058   5.761
 5543SOL    HW217529   3.240   5.142   5.721
 5544SOL     OW17530   4.825   5.785   6.416
 5544SOL    HW117531   4.901   5.731   6.452
 5544SOL    HW217532   4.771   5.730   6.353
 5545SOL     OW17533   4.575   1.271   2.275
 5545SOL    HW117534   4.656   1.266   2.334
 5545SOL    HW217535   4.493   1.282   2.332
 5546SOL     OW17536   0.513   4.984   4.405
 5546SOL    HW117537   0.478   5.076   4.389
 5546SOL    HW217538   0.557   4.980   4.494
 5547SOL     OW17539   2.521   6.485   5.319
 5547SOL    HW117540   2.614   6.507   5.346
 5547SOL    HW217541   2.519   6.392   5.282
 5548SOL     OW17542   6.728   1.918   5.019
 5548SOL    HW117543   6.726   2.004   5.069
 5548SOL    HW217544   6.637   1.900   4.979
 5549SOL     OW17545   4.801   4.342   6.499
 5549SOL    HW117546   4.884   4.397   6.490
 5549SOL    HW217547   4.814   4.254   6.453
 5550SOL     OW17548   2.478   5.853   2.213
 5550SOL    HW117549   2.426   5.907   2.279
 5550SOL    HW217550   2.488   5.904   2.128
 5551SOL     OW17551   2.470   0.558   2.999
 5551SOL    HW117552   2.475   0.460   3.015
 5551SOL    HW217553   2.468   0.606   3.087
 5552SOL     OW17554   6.523   0.639   6.699
 5552SOL    HW117555   6.482   0.578   6.630
 5552SOL    HW217556   6.597   0.691   6.657
 5553SOL     OW17557   4.006   6.301   6.967
 5553SOL    HW117558   4.026   6.220   7.021
 5553SOL    HW217559   3.967   6.372   0.004
 5554SOL     OW17560   3.289   1.667   5.508
 5554SOL    HW117561   3.347   1.593   5.473
 5554SOL    HW217562   3.339   1.719   5.577
 5555SOL     OW17563   0.273   4.770   3.967
 5555SOL    HW117564   0.320   4.701   4.022
 5555SOL    HW217565   0.208   4.819   4.024
 5556SOL     OW17566   0.472   2.545   4.213
 5556SOL    HW117567   0.486   2.583   4.122
 5556SOL    HW217568   0.381   2.503   4.218
 5557SOL     OW17569   3.804   5.578   2.692
 5557SOL    HW117570   3.900   5.557   2.710
 5557SOL    HW217571   3.756   5.594   2.778
 5558SOL     OW17572   5.191   3.597   6.410
 5558SOL    HW117573   5.107   3.543   6.417
 5558SOL    HW217574   5.180   3.683   6.461
 5559SOL     OW17575   2.647   6.963   2.058
 5559SOL    HW117576   2.628   6.926   2.149
 5559SOL    HW217577   2.564   6.963   2.003
 5560SOL     OW17578   0.602   6.820   3.510
 5560SOL    HW117579   0.547   6.879   3.451
 5560SOL    HW217580   0.627   6.737   3.461
 5561SOL     OW17581   2.424   1.943   3.831
 5561SOL    HW117582   2.435   1.867   3.767
 5561SOL    HW217583   2.514   1.969   3.868
 5562SOL     OW17584   2.310   2.741   0.126
 5562SOL    HW117585   2.336   2.736   0.223
 5562SOL    HW217586   2.235   2.806   0.116
 5563SOL     OW17587   4.966   6.393   2.532
 5563SOL    HW117588   5.010   6.332   2.597
 5563SOL    HW217589   5.015   6.480   2.529
 5564SOL     OW17590   4.616   1.809   1.692
 5564SOL    HW117591   4.625   1.710   1.698
 5564SOL    HW217592   4.705   1.848   1.668
 5565SOL     OW17593   4.738   1.328   6.556
 5565SOL    HW117594   4.806   1.257   6.535
 5565SOL    HW217595   4.728   1.337   6.655
 5566SOL     OW17596   1.778   5.397   0.813
 5566SOL    HW117597   1.717   5.319   0.818
 5566SOL    HW217598   1.734   5.477   0.854
 5567SOL     OW17599   1.115   4.583   1.712
 5567SOL    HW117600   1.198   4.638   1.708
 5567SOL    HW217601   1.066   4.603   1.797
 5568SOL     OW17602   5.002   2.527   2.719
 5568SOL    HW117603   4.902   2.534   2.722
 5568SOL    HW217604   5.028   2.458   2.651
 5569SOL     OW17605   3.636   1.821   1.631
 5569SOL    HW117606   3.543   1.840   1.664
 5569SOL    HW217607   3.676   1.747   1.684
 5570SOL     OW17608   5.997   4.332   4.544
 5570SOL    HW117609   5.967   4.426   4.563
 5570SOL    HW217610   5.955   4.270   4.611
 5571SOL     OW17611   0.362   6.908   6.706
 5571SOL    HW117612   0.413   6.966   6.642
 5571SOL    HW217613   0.416   6.825   6.725
 5572SOL     OW17614   2.201   2.894   6.274
 5572SOL    HW117615   2.236   2.983   6.245
 5572SOL    HW217616   2.119   2.872   6.222
 5573SOL     OW17617   1.835   3.186   0.042
 5573SOL    HW117618   1.889   3.143   6.992
 5573SOL    HW217619   1.765   3.122   0.074
 5574SOL     OW17620   0.001   1.231   3.918
 5574SOL    HW117621   6.989   1.205   4.009
 5574SOL    HW217622   6.956   1.202   3.849
 5575SOL     OW17623   0.930   1.175   2.006
 5575SOL    HW117624   0.933   1.088   1.957
 5575SOL    HW217625   0.841   1.217   1.992
 5576SOL     OW17626   6.468   5.971   1.714
 5576SOL    HW117627   6.392   5.997   1.775
 5576SOL    HW217628   6.457   6.016   1.626
 5577SOL     OW17629   2.828   2.652   6.284
 5577SOL    HW117630   2.832   2.638   6.383
 5577SOL    HW217631   2.917   2.685   6.252
 5578SOL     OW17632   4.327   3.273   0.714
 5578SOL    HW117633   4.400   3.225   0.665
 5578SOL    HW217634   4.265   3.206   0.755
 5579SOL     OW17635   6.396   3.640   6.295
 5579SOL    HW117636   6.488   3.616   6.266
 5579SOL    HW217637   6.350   3.688   6.220
 5580SOL     OW17638   4.709   1.737   6.863
 5580SOL    HW117639   4.675   1.711   6.954
 5580SOL    HW217640   4.775   1.669   6.831
 5581SOL     OW17641   2.527   0.060   0.899
 5581SOL    HW117642   2.483   0.104   0.820
 5581SOL    HW217643   2.610   0.109   0.923
 5582SOL     OW17644   3.246   3.376   3.606
 5582SOL    HW117645   3.330   3.330   3.634
 5582SOL    HW217646   3.168   3.314   3.617
 5583SOL     OW17647   3.923   6.638   2.604
 5583SOL    HW117648   3.900   6.622   2.508
 5583SOL    HW217649   3.995   6.574   2.632
 5584SOL     OW17650   5.450   3.854   4.150
 5584SOL    HW117651   5.432   3.951   4.139
 5584SOL    HW217652   5.398   3.818   4.228
 5585SOL     OW17653   4.780   0.844   3.609
 5585SOL    HW117654   4.755   0.941   3.605
 5585SOL    HW217655   4.866   0.830   3.561
 5586SOL     OW17656   1.192   2.777   0.011
 5586SOL    HW117657   1.189   2.677   0.008
 5586SOL    HW217658   1.150   2.808   0.097
 5587SOL     OW17659   4.384   6.970   2.468
 5587SOL    HW117660   4.403   7.010   2.558
 5587SOL    HW217661   4.309   6.904   2.476
 5588SOL     OW17662   0.849   6.712   4.334
 5588SOL    HW117663   0.750   6.715   4.320
 5588SOL    HW217664   0.887   6.632   4.287
 5589SOL     OW17665   5.189   3.113   6.538
 5589SOL    HW117666   5.128   3.130   6.461
 5589SOL    HW217667   5.260   3.184   6.542
 5590SOL     OW17668   6.800   5.394   2.904
 5590SOL    HW117669   6.837   5.476   2.949
 5590SOL    HW217670   6.763   5.419   2.815
 5591SOL     OW17671   5.648   0.419   6.601
 5591SOL    HW117672   5.593   0.400   6.682
 5591SOL    HW217673   5.673   0.516   6.600
 5592SOL     OW17674   2.613   4.540   2.877
 5592SOL    HW117675   2.684   4.491   2.927
 5592SOL    HW217676   2.632   4.639   2.880
 5593SOL     OW17677   0.016   2.835   5.436
 5593SOL    HW117678   0.008   2.865   5.341
 5593SOL    HW217679   7.005   2.908   5.496
 5594SOL     OW17680   2.391   1.148   6.838
 5594SOL    HW117681   2.371   1.166   6.934
 5594SOL    HW217682   2.307   1.121   6.791
 5595SOL     OW17683   6.245   0.816   4.934
 5595SOL    HW117684   6.303   0.753   4.986
 5595SOL    HW217685   6.187   0.868   4.997
 5596SOL     OW17686   5.145   0.410   3.325
 5596SOL    HW117687   5.148   0.488   3.262
 5596SOL    HW217688   5.222   0.415   3.388
 5597SOL     OW17689   4.947   2.749   5.330
 5597SOL    HW117690   5.020   2.692   5.368
 5597SOL    HW217691   4.859   2.720   5.368
 5598SOL     OW17692   4.980   2.365   4.027
 5598SOL    HW117693   4.968   2.284   3.968
 5598SOL    HW217694   5.066   2.357   4.077
 5599SOL     OW17695   5.885   4.065   2.083
 5599SOL    HW117696   5.905   4.162   2.066
 5599SOL    HW217697   5.943   4.031   2.156
 5600SOL     OW17698   2.722   0.472   2.225
 5600SOL    HW117699   2.755   0.514   2.141
 5600SOL    HW217700   2.629   0.440   2.212
 5601SOL     OW17701   4.724   2.359   5.565
 5601SOL    HW117702   4.808   2.413   5.556
 5601SOL    HW217703   4.705   2.343   5.662
 5602SOL     OW17704   6.905   1.087   3.085
 5602SOL    HW117705   6.958   1.102   3.168
 5602SOL    HW217706   6.810   1.110   3.102
 5603SOL     OW17707   4.621   2.623   5.027
 5603SOL    HW117708   4.635   2.550   5.094
 5603SOL    HW217709   4.545   2.680   5.056
 5604SOL     OW17710   1.144   1.857   4.489
 5604SOL    HW117711   1.112   1.879   4.581
 5604SOL    HW217712   1.130   1.759   4.472
 5605SOL     OW17713   1.044   6.933   5.101
 5605SOL    HW117714   1.040   7.020   5.053
 5605SOL    HW217715   1.051   6.858   5.035
 5606SOL     OW17716   4.316   1.188   0.443
 5606SOL    HW117717   4.350   1.269   0.491
 5606SOL    HW217718   4.217   1.192   0.436
 5607SOL     OW17719   5.985   2.315   3.563
 5607SOL    HW117720   5.942   2.287   3.477
 5607SOL    HW217721   6.024   2.235   3.609
 5608SOL     OW17722   6.219   1.114   3.190
 5608SOL    HW117723   6.245   1.055   3.266
 5608SOL    HW217724   6.299   1.164   3.158
 5609SOL     OW17725   4.649   6.403   0.181
 5609SOL    HW117726   4.573   6.380   0.242
 5609SOL    HW217727   4.615   6.414   0.088
 5610SOL     OW17728   5.459   4.028   0.762
 5610SOL    HW117729   5.444   3.948   0.704
 5610SOL    HW217730   5.372   4.069   0.787
 5611SOL     OW17731   0.922   5.133   2.047
 5611SOL    HW117732   0.905   5.149   2.144
 5611SOL    HW217733   0.993   5.195   2.014
 5612SOL     OW17734   2.954   2.794   0.730
 5612SOL    HW117735   2.926   2.763   0.821
 5612SOL    HW217736   3.053   2.779   0.719
 5613SOL     OW17737   6.683   4.224   4.986
 5613SOL    HW117738   6.690   4.321   4.960
 5613SOL    HW217739   6.769   4.178   4.964
 5614SOL     OW17740   6.398   1.938   4.455
 5614SOL    HW117741   6.486   1.968   4.493
 5614SOL    HW217742   6.327   2.003   4.481
 5615SOL     OW17743   7.017   1.421   2.612
 5615SOL    HW117744   7.021   1.498   2.676
 5615SOL    HW217745   6.928   1.422   2.566
 5616SOL     OW17746   2.600   1.931   5.450
 5616SOL    HW117747   2.534   1.997   5.414
 5616SOL    HW217748   2.568   1.839   5.432
 5617SOL     OW17749   1.586   4.429   4.411
 5617SOL    HW117750   1.547   4.355   4.464
 5617SOL    HW217751   1.513   4.482   4.367
 5618SOL     OW17752   6.396   5.180   3.190
 5618SOL    HW117753   6.464   5.117   3.151
 5618SOL    HW217754   6.338   5.130   3.254
 5619SOL     OW17755   3.766   2.888   3.573
 5619SOL    HW117756   3.842   2.912   3.513
 5619SOL    HW217757   3.760   2.953   3.648
 5620SOL     OW17758   4.616   4.407   5.630
 5620SOL    HW117759   4.662   4.456   5.555
 5620SOL    HW217760   4.579   4.321   5.595
 5621SOL     OW17761   1.193   3.270   6.460
 5621SOL    HW117762   1.282   3.313   6.477
 5621SOL    HW217763   1.203   3.201   6.388
 5622SOL     OW17764   4.335   6.352   5.487
 5622SOL    HW117765   4.328   6.443   5.446
 5622SOL    HW217766   4.267   6.291   5.446
 5623SOL     OW17767   4.631   6.587   5.221
 5623SOL    HW117768   4.550   6.641   5.196
 5623SOL    HW217769   4.608   6.528   5.298
 5624SOL     OW17770   0.960   5.210   3.580
 5624SOL    HW117771   1.033   5.179   3.520
 5624SOL    HW217772   0.990   5.204   3.675
 5625SOL     OW17773   0.552   5.111   4.657
 5625SOL    HW117774   0.459   5.096   4.689
 5625SOL    HW217775   0.609   5.033   4.683
 5626SOL     OW17776   2.144   4.622   4.380
 5626SOL    HW117777   2.123   4.690   4.451
 5626SOL    HW217778   2.059   4.576   4.352
 5627SOL     OW17779   6.753   6.022   6.209
 5627SOL    HW117780   6.757   6.033   6.308
 5627SOL    HW217781   6.662   5.990   6.183
 5628SOL     OW17782   3.076   2.881   1.315
 5628SOL    HW117783   3.158   2.934   1.297
 5628SOL    HW217784   3.099   2.801   1.371
 5629SOL     OW17785   4.028   3.174   1.360
 5629SOL    HW117786   3.936   3.142   1.337
 5629SOL    HW217787   4.050   3.148   1.454
 5630SOL     OW17788   1.716   3.912   6.052
 5630SOL    HW117789   1.811   3.926   6.023
 5630SOL    HW217790   1.680   3.996   6.091
 5631SOL     OW17791   5.249   1.050   1.708
 5631SOL    HW117792   5.345   1.061   1.736
 5631SOL    HW217793   5.245   0.999   1.622
 5632SOL     OW17794   5.089   1.672   5.857
 5632SOL    HW117795   5.092   1.684   5.956
 5632SOL    HW217796   5.123   1.581   5.833
 5633SOL     OW17797   0.031   5.130   4.931
 5633SOL    HW117798   0.057   5.147   5.026
 5633SOL    HW217799   6.958   5.097   4.928
 5634SOL     OW17800   1.897   4.873   4.121
 5634SOL    HW117801   1.911   4.972   4.110
 5634SOL    HW217802   1.882   4.852   4.218
 5635SOL     OW17803   2.928   6.699   6.814
 5635SOL    HW117804   2.957   6.749   6.896
 5635SOL    HW217805   2.999   6.704   6.745
 5636SOL     OW17806   5.831   0.990   5.231
 5636SOL    HW117807   5.873   1.022   5.316
 5636SOL    HW217808   5.844   1.059   5.160
 5637SOL     OW17809   4.947   0.304   3.924
 5637SOL    HW117810   5.010   0.278   3.851
 5637SOL    HW217811   4.852   0.296   3.892
 5638SOL     OW17812   5.616   5.519   1.065
 5638SOL    HW117813   5.654   5.560   0.982
 5638SOL    HW217814   5.542   5.456   1.040
 5639SOL     OW17815   1.022   0.896   1.929
 5639SOL    HW117816   1.009   0.844   1.845
 5639SOL    HW217817   0.967   0.856   2.002
 5640SOL     OW17818   2.921   6.894   2.067
 5640SOL    HW117819   2.826   6.925   2.061
 5640SOL    HW217820   2.929   6.825   2.139
 5641SOL     OW17821   0.431   4.546   5.855
 5641SOL    HW117822   0.474   4.492   5.783
 5641SOL    HW217823   0.453   4.506   5.944
 5642SOL     OW17824   1.299   4.914   5.834
 5642SOL    HW117825   1.261   4.909   5.742
 5642SOL    HW217826   1.300   4.823   5.875
 5643SOL     OW17827   3.345   0.905   5.109
 5643SOL    HW117828   3.273   0.942   5.051
 5643SOL    HW217829   3.384   0.978   5.165
 5644SOL     OW17830   4.278   0.454   3.827
 5644SOL    HW117831   4.339   0.420   3.898
 5644SOL    HW217832   4.242   0.544   3.852
 5645SOL     OW17833   6.736   4.322   3.156
 5645SOL    HW117834   6.805   4.354   3.221
 5645SOL    HW217835   6.673   4.396   3.134
 5646SOL     OW17836   2.009   5.287   3.333
 5646SOL    HW117837   1.917   5.326   3.337
 5646SOL    HW217838   2.046   5.300   3.241
 5647SOL     OW17839   6.181   6.752   0.032
 5647SOL    HW117840   6.274   6.782   0.010
 5647SOL    HW217841   6.115   6.816   7.015
 5648SOL     OW17842   1.803   1.184   2.968
 5648SOL    HW117843   1.792   1.183   2.869
 5648SOL    HW217844   1.824   1.091   3.000
 5649SOL     OW17845   1.011   6.429   6.093
 5649SOL    HW117846   0.953   6.356   6.131
 5649SOL    HW217847   1.011   6.507   6.156
 5650SOL     OW17848   0.504   5.532   1.409
 5650SOL    HW117849   0.436   5.523   1.481
 5650SOL    HW217850   0.490   5.462   1.340
 5651SOL     OW17851   6.999   1.166   2.011
 5651SOL    HW117852   0.000   1.263   2.011
 5651SOL    HW217853   6.915   1.151   1.958
 5652SOL     OW17854   5.770   6.316   1.708
 5652SOL    HW117855   5.859   6.360   1.695
 5652SOL    HW217856   5.781   6.229   1.756
 5653SOL     OW17857   0.301   6.621   6.294
 5653SOL    HW117858   0.245   6.691   6.337
 5653SOL    HW217859   0.394   6.625   6.330
 5654SOL     OW17860   6.669   6.072   5.734
 5654SOL    HW117861   6.622   6.128   5.802
 5654SOL    HW217862   6.746   6.123   5.696
 5655SOL     OW17863   1.425   3.337   4.234
 5655SOL    HW117864   1.375   3.320   4.320
 5655SOL    HW217865   1.375   3.296   4.158
 5656SOL     OW17866   2.028   4.746   0.696
 5656SOL    HW117867   2.070   4.686   0.764
 5656SOL    HW217868   2.023   4.698   0.608
 5657SOL     OW17869   5.546   0.430   1.038
 5657SOL    HW117870   5.473   0.363   1.022
 5657SOL    HW217871   5.547   0.455   1.135
 5658SOL     OW17872   3.199   5.896   5.941
 5658SOL    HW117873   3.205   5.858   5.849
 5658SOL    HW217874   3.285   5.940   5.964
 5659SOL     OW17875   3.180   4.101   3.167
 5659SOL    HW117876   3.110   4.131   3.101
 5659SOL    HW217877   3.142   4.030   3.226
 5660SOL     OW17878   5.717   0.102   5.746
 5660SOL    HW117879   5.659   0.104   5.828
 5660SOL    HW217880   5.809   0.071   5.772
 5661SOL     OW17881   6.991   4.623   6.085
 5661SOL    HW117882   0.006   4.546   6.032
 5661SOL    HW217883   0.045   4.671   6.130
 5662SOL     OW17884   2.564   4.931   3.942
 5662SOL    HW117885   2.511   4.873   3.880
 5662SOL    HW217886   2.542   5.027   3.923
 5663SOL     OW17887   1.818   3.972   0.029
 5663SOL    HW117888   1.866   3.947   6.966
 5663SOL    HW217889   1.752   4.045   0.010
 5664SOL     OW17890   6.865   4.142   4.418
 5664SOL    HW117891   6.869   4.202   4.338
 5664SOL    HW217892   6.958   4.123   4.450
 5665SOL     OW17893   1.826   1.770   6.956
 5665SOL    HW117894   1.771   1.729   0.007
 5665SOL    HW217895   1.839   1.868   6.975
 5666SOL     OW17896   5.469   6.168   0.879
 5666SOL    HW117897   5.458   6.079   0.924
 5666SOL    HW217898   5.557   6.170   0.832
 5667SOL     OW17899   1.198   4.184   3.757
 5667SOL    HW117900   1.146   4.246   3.698
 5667SOL    HW217901   1.223   4.231   3.841
 5668SOL     OW17902   5.613   1.909   5.750
 5668SOL    HW117903   5.630   1.847   5.826
 5668SOL    HW217904   5.574   1.994   5.785
 5669SOL     OW17905   0.587   3.295   6.413
 5669SOL    HW117906   0.569   3.316   6.509
 5669SOL    HW217907   0.573   3.377   6.357
 5670SOL     OW17908   0.302   2.943   3.941
 5670SOL    HW117909   0.303   2.870   3.873
 5670SOL    HW217910   0.373   3.010   3.918
 5671SOL     OW17911   0.784   6.607   6.426
 5671SOL    HW117912   0.818   6.513   6.437
 5671SOL    HW217913   0.840   6.655   6.359
 5672SOL     OW17914   4.471   4.585   6.773
 5672SOL    HW117915   4.463   4.496   6.730
 5672SOL    HW217916   4.456   4.657   6.704
 5673SOL     OW17917   0.968   6.026   1.764
 5673SOL    HW117918   1.012   6.107   1.802
 5673SOL    HW217919   0.871   6.047   1.745
 5674SOL     OW17920   6.934   3.954   3.528
 5674SOL    HW117921   0.000   3.995   3.503
 5674SOL    HW217922   6.896   4.003   3.607
 5675SOL     OW17923   4.375   2.021   6.369
 5675SOL    HW117924   4.371   2.026   6.269
 5675SOL    HW217925   4.339   2.106   6.408
 5676SOL     OW17926   1.999   1.967   1.844
 5676SOL    HW117927   1.971   2.038   1.910
 5676SOL    HW217928   1.926   1.953   1.777
 5677SOL     OW17929   0.755   2.468   2.740
 5677SOL    HW117930   0.823   2.540   2.756
 5677SOL    HW217931   0.777   2.421   2.654
 5678SOL     OW17932   2.499   6.521   3.113
 5678SOL    HW117933   2.564   6.594   3.133
 5678SOL    HW217934   2.479   6.470   3.196
 5679SOL     OW17935   1.152   0.458   3.277
 5679SOL    HW117936   1.182   0.456   3.182
 5679SOL    HW217937   1.145   0.365   3.312
 5680SOL     OW17938   1.278   5.651   0.610
 5680SOL    HW117939   1.314   5.562   0.639
 5680SOL    HW217940   1.355   5.714   0.594
 5681SOL     OW17941   0.229   3.389   6.645
 5681SOL    HW117942   0.212   3.291   6.654
 5681SOL    HW217943   0.181   3.438   6.717
 5682SOL     OW17944   1.946   4.743   5.259
 5682SOL    HW117945   2.003   4.802   5.202
 5682SOL    HW217946   1.862   4.790   5.283
 5683SOL     OW17947   3.899   1.421   6.919
 5683SOL    HW117948   3.981   1.442   6.973
 5683SOL    HW217949   3.918   1.346   6.856
 5684SOL     OW17950   3.683   3.218   4.612
 5684SOL    HW117951   3.774   3.248   4.642
 5684SOL    HW217952   3.675   3.232   4.514
 5685SOL     OW17953   1.801   3.634   2.052
 5685SOL    HW117954   1.797   3.535   2.067
 5685SOL    HW217955   1.827   3.652   1.957
 5686SOL     OW17956   3.024   0.005   6.329
 5686SOL    HW117957   2.973   6.942   6.339
 5686SOL    HW217958   3.121   7.010   6.346
 5687SOL     OW17959   0.055   3.687   5.038
 5687SOL    HW117960   6.979   3.710   5.039
 5687SOL    HW217961   0.108   3.767   5.065
 5688SOL     OW17962   6.523   1.974   6.876
 5688SOL    HW117963   6.493   1.888   6.833
 5688SOL    HW217964   6.485   1.980   6.968
 5689SOL     OW17965   4.306   0.475   0.054
 5689SOL    HW117966   4.289   0.377   0.063
 5689SOL    HW217967   4.290   0.503   6.981
 5690SOL     OW17968   2.485   6.686   0.464
 5690SOL    HW117969   2.410   6.632   0.502
 5690SOL    HW217970   2.522   6.746   0.535
 5691SOL     OW17971   2.689   6.446   1.714
 5691SOL    HW117972   2.720   6.476   1.804
 5691SOL    HW217973   2.596   6.479   1.698
 5692SOL     OW17974   6.900   3.225   6.090
 5692SOL    HW117975   6.866   3.131   6.102
 5692SOL    HW217976   6.908   3.245   5.993
 5693SOL     OW17977   6.120   2.562   2.887
 5693SOL    HW117978   6.068   2.595   2.807
 5693SOL    HW217979   6.216   2.551   2.861
 5694SOL     OW17980   1.080   1.690   3.338
 5694SOL    HW117981   1.073   1.592   3.356
 5694SOL    HW217982   1.036   1.742   3.412
 5695SOL     OW17983   1.196   2.841   2.776
 5695SOL    HW117984   1.262   2.773   2.808
 5695SOL    HW217985   1.117   2.795   2.736
 5696SOL     OW17986   1.141   0.010   3.088
 5696SOL    HW117987   1.149   0.037   3.184
 5696SOL    HW217988   1.055   0.045   3.050
 5697SOL     OW17989   6.240   2.269   0.984
 5697SOL    HW117990   6.215   2.232   1.074
 5697SOL    HW217991   6.244   2.369   0.990
 5698SOL     OW17992   0.520   3.278   2.139
 5698SOL    HW117993   0.526   3.304   2.235
 5698SOL    HW217994   0.479   3.187   2.131
 5699SOL     OW17995   6.290   2.217   3.222
 5699SOL    HW117996   6.283   2.293   3.287
 5699SOL    HW217997   6.381   2.217   3.181
 5700SOL     OW17998   6.717   6.614   4.537
 5700SOL    HW117999   6.717   6.595   4.439
 5700SOL    HW218000   6.799   6.573   4.578
 5701SOL     OW18001   1.197   6.002   3.199
 5701SOL    HW118002   1.186   5.903   3.198
 5701SOL    HW218003   1.152   6.040   3.280
 5702SOL     OW18004   1.246   0.462   5.376
 5702SOL    HW118005   1.317   0.394   5.356
 5702SOL    HW218006   1.286   0.553   5.373
 5703SOL     OW18007   5.292   4.135   1.331
 5703SOL    HW118008   5.336   4.113   1.418
 5703SOL    HW218009   5.358   4.126   1.256
 5704SOL     OW18010   4.473   5.390   2.183
 5704SOL    HW118011   4.380   5.399   2.148
 5704SOL    HW218012   4.486   5.297   2.218
 5705SOL     OW18013   4.982   1.033   0.389
 5705SOL    HW118014   4.972   1.104   0.458
 5705SOL    HW218015   5.056   1.057   0.327
 5706SOL     OW18016   0.953   2.063   0.401
 5706SOL    HW118017   0.951   2.060   0.501
 5706SOL    HW218018   0.868   2.027   0.364
 5707SOL     OW18019   0.757   0.026   0.316
 5707SOL    HW118020   0.785   0.100   0.255
 5707SOL    HW218021   0.760   6.960   0.267
 5708SOL     OW18022   4.943   6.563   0.996
 5708SOL    HW118023   5.025   6.604   0.955
 5708SOL    HW218024   4.862   6.615   0.968
 5709SOL     OW18025   0.796   0.042   3.520
 5709SOL    HW118026   0.752   0.050   3.609
 5709SOL    HW218027   0.791   0.130   3.473
 5710SOL     OW18028   2.758   3.190   6.255
 5710SOL    HW118029   2.722   3.097   6.244
 5710SOL    HW218030   2.699   3.241   6.317
 5711SOL     OW18031   4.429   0.715   3.223
 5711SOL    HW118032   4.352   0.693   3.282
 5711SOL    HW218033   4.448   0.813   3.228
 5712SOL     OW18034   0.846   5.588   6.114
 5712SOL    HW118035   0.945   5.590   6.131
 5712SOL    HW218036   0.829   5.538   6.029
 5713SOL     OW18037   1.065   2.365   1.459
 5713SOL    HW118038   1.101   2.301   1.391
 5713SOL    HW218039   1.103   2.456   1.443
 5714SOL     OW18040   0.677   6.118   6.659
 5714SOL    HW118041   0.699   6.024   6.685
 5714SOL    HW218042   0.653   6.170   6.741
 5715SOL     OW18043   1.088   6.242   3.401
 5715SOL    HW118044   1.009   6.303   3.393
 5715SOL    HW218045   1.099   6.216   3.497
 5716SOL     OW18046   1.688   4.382   6.544
 5716SOL    HW118047   1.694   4.317   6.619
 5716SOL    HW218048   1.693   4.333   6.457
 5717SOL     OW18049   1.896   6.351   0.715
 5717SOL    HW118050   1.873   6.373   0.809
 5717SOL    HW218051   1.968   6.281   0.714
 5718SOL     OW18052   0.985   3.573   5.891
 5718SOL    HW118053   0.921   3.535   5.958
 5718SOL    HW218054   0.936   3.629   5.825
 5719SOL     OW18055   1.923   1.426   6.015
 5719SOL    HW118056   1.969   1.425   5.927
 5719SOL    HW218057   1.966   1.493   6.075
 5720SOL     OW18058   0.842   4.999   4.355
 5720SOL    HW118059   0.860   4.942   4.436
 5720SOL    HW218060   0.794   5.082   4.383
 5721SOL     OW18061   0.175   3.596   0.840
 5721SOL    HW118062   0.113   3.673   0.834
 5721SOL    HW218063   0.154   3.543   0.922
 5722SOL     OW18064   5.873   1.664   4.871
 5722SOL    HW118065   5.795   1.627   4.821
 5722SOL    HW218066   5.946   1.687   4.805
 5723SOL     OW18067   4.129   3.461   0.289
 5723SOL    HW118068   4.211   3.505   0.252
 5723SOL    HW218069   4.139   3.449   0.388
 5724SOL     OW18070   3.976   2.616   5.361
 5724SOL    HW118071   3.877   2.610   5.346
 5724SOL    HW218072   4.024   2.590   5.278
 5725SOL     OW18073   6.248   5.420   3.893
 5725SOL    HW118074   6.259   5.323   3.913
 5725SOL    HW218075   6.225   5.432   3.796
 5726SOL     OW18076   6.433   3.638   4.279
 5726SOL    HW118077   6.394   3.603   4.194
 5726SOL    HW218078   6.368   3.621   4.354
 5727SOL     OW18079   0.979   2.288   4.122
 5727SOL    HW118080   0.938   2.315   4.035
 5727SOL    HW218081   0.982   2.366   4.183
 5728SOL     OW18082   4.903   1.354   6.339
 5728SOL    HW118083   4.897   1.385   6.434
 5728SOL    HW218084   4.829   1.395   6.286
 5729SOL     OW18085   0.820   1.712   0.375
 5729SOL    HW118086   0.757   1.711   0.453
 5729SOL    HW218087   0.856   1.621   0.360
 5730SOL     OW18088   4.146   5.222   5.509
 5730SOL    HW118089   4.073   5.163   5.474
 5730SOL    HW218090   4.192   5.267   5.432
 5731SOL     OW18091   1.785   6.522   3.972
 5731SOL    HW118092   1.827   6.531   4.062
 5731SOL    HW218093   1.764   6.613   3.935
 5732SOL     OW18094   6.870   4.647   5.695
 5732SOL    HW118095   6.801   4.705   5.651
 5732SOL    HW218096   6.910   4.696   5.772
 5733SOL     OW18097   3.030   0.434   5.691
 5733SOL    HW118098   3.087   0.443   5.773
 5733SOL    HW218099   2.943   0.390   5.714
 5734SOL     OW18100   1.644   6.162   6.276
 5734SOL    HW118101   1.738   6.178   6.246
 5734SOL    HW218102   1.627   6.063   6.281
 5735SOL     OW18103   3.901   1.617   2.679
 5735SOL    HW118104   3.983   1.607   2.735
 5735SOL    HW218105   3.904   1.704   2.631
 5736SOL     OW18106   5.869   4.080   0.920
 5736SOL    HW118107   5.808   4.004   0.944
 5736SOL    HW218108   5.878   4.085   0.820
 5737SOL     OW18109   5.516   6.122   6.469
 5737SOL    HW118110   5.565   6.067   6.537
 5737SOL    HW218111   5.581   6.185   6.425
 5738SOL     OW18112   3.426   2.540   6.671
 5738SOL    HW118113   3.369   2.585   6.602
 5738SOL    HW218114   3.384   2.453   6.697
 5739SOL     OW18115   1.111   6.215   5.715
 5739SOL    HW118116   1.017   6.246   5.702
 5739SOL    HW218117   1.155   6.271   5.786
 5740SOL     OW18118   4.193   4.316   0.961
 5740SOL    HW118119   4.169   4.319   0.864
 5740SOL    HW218120   4.291   4.300   0.970
 5741SOL     OW18121   6.648   3.994   4.431
 5741SOL    HW118122   6.582   4.061   4.464
 5741SOL    HW218123   6.732   4.041   4.404
 5742SOL     OW18124   4.554   6.187   2.268
 5742SOL    HW118125   4.459   6.217   2.262
 5742SOL    HW218126   4.571   6.116   2.200
 5743SOL     OW18127   1.985   5.869   5.795
 5743SOL    HW118128   1.991   5.790   5.856
 5743SOL    HW218129   2.045   5.856   5.716
 5744SOL     OW18130   4.978   1.296   1.508
 5744SOL    HW118131   5.008   1.338   1.594
 5744SOL    HW218132   5.057   1.285   1.447
 5745SOL     OW18133   1.926   0.951   3.105
 5745SOL    HW118134   1.847   0.891   3.094
 5745SOL    HW218135   1.922   0.995   3.195
 5746SOL     OW18136   4.724   0.407   1.970
 5746SOL    HW118137   4.752   0.311   1.970
 5746SOL    HW218138   4.759   0.452   1.888
 5747SOL     OW18139   1.571   5.210   1.747
 5747SOL    HW118140   1.590   5.305   1.771
 5747SOL    HW218141   1.576   5.199   1.647
 5748SOL     OW18142   1.056   0.165   1.472
 5748SOL    HW118143   1.075   0.191   1.377
 5748SOL    HW218144   0.966   0.199   1.498
 5749SOL     OW18145   1.489   6.294   5.084
 5749SOL    HW118146   1.497   6.244   5.171
 5749SOL    HW218147   1.393   6.295   5.056
 5750SOL     OW18148   6.158   6.249   4.782
 5750SOL    HW118149   6.068   6.289   4.797
 5750SOL    HW218150   6.166   6.164   4.834
 5751SOL     OW18151   2.248   2.705   5.060
 5751SOL    HW118152   2.230   2.671   4.968
 5751SOL    HW218153   2.306   2.787   5.054
 5752SOL     OW18154   5.213   0.512   0.515
 5752SOL    HW118155   5.183   0.416   0.509
 5752SOL    HW218156   5.133   0.572   0.521
 5753SOL     OW18157   3.687   4.091   4.092
 5753SOL    HW118158   3.611   4.151   4.067
 5753SOL    HW218159   3.681   4.070   4.190
 5754SOL     OW18160   0.158   5.511   1.946
 5754SOL    HW118161   0.141   5.585   2.011
 5754SOL    HW218162   0.255   5.509   1.923
 5755SOL     OW18163   1.681   2.287   6.523
 5755SOL    HW118164   1.674   2.212   6.458
 5755SOL    HW218165   1.659   2.373   6.477
 5756SOL     OW18166   6.833   0.134   2.847
 5756SOL    HW118167   6.911   0.119   2.908
 5756SOL    HW218168   6.748   0.111   2.895
 5757SOL     OW18169   6.881   5.191   3.299
 5757SOL    HW118170   6.830   5.140   3.230
 5757SOL    HW218171   6.836   5.279   3.316
 5758SOL     OW18172   2.374   1.472   3.530
 5758SOL    HW118173   2.388   1.562   3.487
 5758SOL    HW218174   2.310   1.418   3.475
 5759SOL     OW18175   4.851   0.436   6.552
 5759SOL    HW118176   4.921   0.365   6.557
 5759SOL    HW218177   4.812   0.451   6.643
 5760SOL     OW18178   6.745   2.329   0.954
 5760SOL    HW118179   6.673   2.297   0.892
 5760SOL    HW218180   6.818   2.372   0.901
 5761SOL     OW18181   6.046   4.884   5.898
 5761SOL    HW118182   5.949   4.907   5.891
 5761SOL    HW218183   6.060   4.822   5.975
 5762SOL     OW18184   5.042   4.016   1.246
 5762SOL    HW118185   5.042   3.922   1.211
 5762SOL    HW218186   5.135   4.051   1.249
 5763SOL     OW18187   6.606   5.558   0.550
 5763SOL    HW118188   6.514   5.528   0.573
 5763SOL    HW218189   6.672   5.491   0.584
 5764SOL     OW18190   5.128   4.951   5.073
 5764SOL    HW118191   5.085   5.038   5.096
 5764SOL    HW218192   5.225   4.955   5.094
 5765SOL     OW18193   6.656   2.815   0.721
 5765SOL    HW118194   6.715   2.851   0.650
 5765SOL    HW218195   6.566   2.859   0.715
 5766SOL     OW18196   1.737   1.756   6.020
 5766SOL    HW118197   1.707   1.796   5.933
 5766SOL    HW218198   1.690   1.803   6.095
 5767SOL     OW18199   1.971   0.253   0.775
 5767SOL    HW118200   1.874   0.234   0.788
 5767SOL    HW218201   1.992   0.345   0.806
 5768SOL     OW18202   0.999   6.483   4.228
 5768SOL    HW118203   1.082   6.467   4.176
 5768SOL    HW218204   0.943   6.399   4.227
 5769SOL     OW18205   2.363   5.572   4.320
 5769SOL    HW118206   2.280   5.551   4.372
 5769SOL    HW218207   2.340   5.637   4.247
 5770SOL     OW18208   6.493   5.960   6.562
 5770SOL    HW118209   6.450   5.970   6.472
 5770SOL    HW218210   6.459   5.876   6.605
 5771SOL     OW18211   0.918   6.908   4.506
 5771SOL    HW118212   0.840   6.924   4.566
 5771SOL    HW218213   0.895   6.836   4.441
 5772SOL     OW18214   5.557   1.314   1.695
 5772SOL    HW118215   5.521   1.234   1.743
 5772SOL    HW218216   5.634   1.352   1.745
 5773SOL     OW18217   4.047   0.505   3.192
 5773SOL    HW118218   4.029   0.588   3.244
 5773SOL    HW218219   3.961   0.469   3.155
 5774SOL     OW18220   2.985   6.325   3.878
 5774SOL    HW118221   2.932   6.256   3.828
 5774SOL    HW218222   3.046   6.373   3.814
 5775SOL     OW18223   1.508   0.374   2.700
 5775SOL    HW118224   1.599   0.397   2.664
 5775SOL    HW218225   1.481   0.284   2.667
 5776SOL     OW18226   0.349   0.967   4.258
 5776SOL    HW118227   0.334   0.943   4.162
 5776SOL    HW218228   0.438   0.931   4.287
 5777SOL     OW18229   6.962   0.400   4.878
 5777SOL    HW118230   6.941   0.486   4.925
 5777SOL    HW218231   6.884   0.337   4.887
 5778SOL     OW18232   1.639   0.561   0.390
 5778SOL    HW118233   1.630   0.611   0.304
 5778SOL    HW218234   1.710   0.491   0.382
 5779SOL     OW18235   4.289   2.719   1.040
 5779SOL    HW118236   4.377   2.694   1.000
 5779SOL    HW218237   4.304   2.763   1.129
 5780SOL     OW18238   6.417   5.878   4.345
 5780SOL    HW118239   6.337   5.899   4.288
 5780SOL    HW218240   6.394   5.889   4.441
 5781SOL     OW18241   6.434   5.384   4.637
 5781SOL    HW118242   6.431   5.284   4.648
 5781SOL    HW218243   6.450   5.427   4.726
 5782SOL     OW18244   1.235   1.423   0.675
 5782SOL    HW118245   1.198   1.498   0.618
 5782SOL    HW218246   1.164   1.391   0.737
 5783SOL     OW18247   1.233   0.427   1.642
 5783SOL    HW118248   1.226   0.469   1.732
 5783SOL    HW218249   1.298   0.351   1.645
 5784SOL     OW18250   6.977   5.820   6.219
 5784SOL    HW118251   6.893   5.766   6.215
 5784SOL    HW218252   6.958   5.915   6.198
 5785SOL     OW18253   2.238   1.568   0.545
 5785SOL    HW118254   2.197   1.480   0.568
 5785SOL    HW218255   2.317   1.584   0.605
 5786SOL     OW18256   1.149   3.875   0.629
 5786SOL    HW118257   1.249   3.878   0.623
 5786SOL    HW218258   1.110   3.892   0.539
 5787SOL     OW18259   3.452   2.119   4.942
 5787SOL    HW118260   3.405   2.197   4.902
 5787SOL    HW218261   3.427   2.111   5.038
 5788SOL     OW18262   2.884   1.321   1.342
 5788SOL    HW118263   2.879   1.228   1.378
 5788SOL    HW218264   2.921   1.318   1.249
 5789SOL     OW18265   3.205   4.541   6.801
 5789SOL    HW118266   3.243   4.628   6.769
 5789SOL    HW218267   3.134   4.559   6.869
 5790SOL     OW18268   0.904   4.816   4.553
 5790SOL    HW118269   0.932   4.730   4.596
 5790SOL    HW218270   0.985   4.862   4.515
 5791SOL     OW18271   3.391   1.456   2.984
 5791SOL    HW118272   3.395   1.459   3.084
 5791SOL    HW218273   3.295   1.454   2.955
 5792SOL     OW18274   6.044   3.477   2.279
 5792SOL    HW118275   5.982   3.412   2.235
 5792SOL    HW218276   6.122   3.496   2.219
 5793SOL     OW18277   4.699   1.102   3.663
 5793SOL    HW118278   4.730   1.153   3.583
 5793SOL    HW218279   4.720   1.153   3.746
 5794SOL     OW18280   2.285   0.728   0.183
 5794SOL    HW118281   2.346   0.804   0.159
 5794SOL    HW218282   2.212   0.720   0.115
 5795SOL     OW18283   6.365   0.104   6.918
 5795SOL    HW118284   6.417   0.020   6.930
 5795SOL    HW218285   6.402   0.175   6.978
 5796SOL     OW18286   4.845   1.521   6.107
 5796SOL    HW118287   4.754   1.562   6.119
 5796SOL    HW218288   4.915   1.591   6.123
 5797SOL     OW18289   5.073   2.291   6.420
 5797SOL    HW118290   4.977   2.317   6.411
 5797SOL    HW218291   5.108   2.261   6.331
 5798SOL     OW18292   0.955   4.755   4.944
 5798SOL    HW118293   0.940   4.657   4.955
 5798SOL    HW218294   0.929   4.802   5.029
 5799SOL     OW18295   0.583   0.521   3.473
 5799SOL    HW118296   0.628   0.570   3.547
 5799SOL    HW218297   0.513   0.460   3.512
 5800SOL     OW18298   6.078   6.346   1.976
 5800SOL    HW118299   6.028   6.267   2.011
 5800SOL    HW218300   6.176   6.324   1.974
 5801SOL     OW18301   2.001   2.519   3.432
 5801SOL    HW118302   2.010   2.572   3.347
 5801SOL    HW218303   2.090   2.485   3.459
 5802SOL     OW18304   0.699   4.136   2.383
 5802SOL    HW118305   0.680   4.184   2.297
 5802SOL    HW218306   0.640   4.056   2.390
 5803SOL     OW18307   2.477   5.384   2.124
 5803SOL    HW118308   2.540   5.346   2.056
 5803SOL    HW218309   2.461   5.481   2.105
 5804SOL     OW18310   0.074   6.052   3.937
 5804SOL    HW118311   0.089   6.028   3.841
 5804SOL    HW218312   0.137   6.124   3.964
 5805SOL     OW18313   2.192   3.320   0.071
 5805SOL    HW118314   2.223   3.231   0.038
 5805SOL    HW218315   2.185   3.384   7.016
 5806SOL     OW18316   6.738   5.370   5.168
 5806SOL    HW118317   6.650   5.387   5.211
 5806SOL    HW218318   6.731   5.290   5.109
 5807SOL     OW18319   0.672   3.809   1.611
 5807SOL    HW118320   0.771   3.810   1.597
 5807SOL    HW218321   0.628   3.768   1.532
 5808SOL     OW18322   6.227   5.970   4.896
 5808SOL    HW118323   6.297   5.911   4.935
 5808SOL    HW218324   6.164   5.915   4.841
 5809SOL     OW18325   5.491   2.030   4.772
 5809SOL    HW118326   5.396   2.057   4.790
 5809SOL    HW218327   5.526   1.975   4.848
 5810SOL     OW18328   3.858   1.211   4.760
 5810SOL    HW118329   3.936   1.212   4.698
 5810SOL    HW218330   3.777   1.246   4.713
 5811SOL     OW18331   3.228   1.023   4.904
 5811SOL    HW118332   3.195   1.111   4.870
 5811SOL    HW218333   3.290   0.983   4.836
 5812SOL     OW18334   6.192   2.376   4.324
 5812SOL    HW118335   6.252   2.393   4.403
 5812SOL    HW218336   6.248   2.346   4.246
 5813SOL     OW18337   1.728   1.952   1.054
 5813SOL    HW118338   1.776   2.014   0.993
 5813SOL    HW218339   1.663   2.003   1.110
 5814SOL     OW18340   6.320   4.479   2.002
 5814SOL    HW118341   6.232   4.440   1.975
 5814SOL    HW218342   6.362   4.422   2.072
 5815SOL     OW18343   3.922   1.834   4.502
 5815SOL    HW118344   3.839   1.780   4.485
 5815SOL    HW218345   3.920   1.915   4.443
 5816SOL     OW18346   4.502   5.276   0.234
 5816SOL    HW118347   4.579   5.338   0.217
 5816SOL    HW218348   4.416   5.324   0.217
 5817SOL     OW18349   5.462   3.678   5.891
 5817SOL    HW118350   5.500   3.664   5.983
 5817SOL    HW218351   5.365   3.654   5.891
 5818SOL     OW18352   6.561   5.856   4.748
 5818SOL    HW118353   6.635   5.825   4.688
 5818SOL    HW218354   6.585   5.945   4.787
 5819SOL     OW18355   3.786   6.475   6.532
 5819SOL    HW118356   3.879   6.491   6.501
 5819SOL    HW218357   3.768   6.376   6.533
 5820SOL     OW18358   4.654   5.078   3.686
 5820SOL    HW118359   4.574   5.121   3.646
 5820SOL    HW218360   4.634   4.982   3.706
 5821SOL     OW18361   0.100   6.573   1.302
 5821SOL    HW118362   0.002   6.551   1.302
 5821SOL    HW218363   0.137   6.558   1.394
 5822SOL     OW18364   2.034   2.360   1.340
 5822SOL    HW118365   2.102   2.355   1.267
 5822SOL    HW218366   2.062   2.301   1.415
 5823SOL     OW18367   1.553   0.479   5.589
 5823SOL    HW118368   1.520   0.573   5.592
 5823SOL    HW218369   1.500   0.427   5.522
 5824SOL     OW18370   6.848   5.778   2.235
 5824SOL    HW118371   6.943   5.759   2.257
 5824SOL    HW218372   6.842   5.845   2.161
 5825SOL     OW18373   0.875   1.773   5.594
 5825SOL    HW118374   0.783   1.813   5.588
 5825SOL    HW218375   0.876   1.684   5.549
 5826SOL     OW18376   0.103   4.928   5.978
 5826SOL    HW118377   0.017   4.966   6.013
 5826SOL    HW218378   0.085   4.875   5.895
 5827SOL     OW18379   2.157   4.417   4.874
 5827SOL    HW118380   2.195   4.358   4.802
 5827SOL    HW218381   2.140   4.362   4.956
 5828SOL     OW18382   6.608   1.808   1.665
 5828SOL    HW118383   6.597   1.903   1.636
 5828SOL    HW218384   6.577   1.797   1.759
 5829SOL     OW18385   1.304   0.724   3.173
 5829SOL    HW118386   1.396   0.702   3.207
 5829SOL    HW218387   1.273   0.652   3.112
 5830SOL     OW18388   5.290   6.373   5.689
 5830SOL    HW118389   5.269   6.468   5.710
 5830SOL    HW218390   5.219   6.335   5.629
 5831SOL     OW18391   1.126   1.648   5.665
 5831SOL    HW118392   1.071   1.717   5.618
 5831SOL    HW218393   1.066   1.588   5.718
 5832SOL     OW18394   2.725   4.735   6.791
 5832SOL    HW118395   2.686   4.700   6.705
 5832SOL    HW218396   2.800   4.677   6.820
 5833SOL     OW18397   3.471   3.793   4.878
 5833SOL    HW118398   3.403   3.856   4.917
 5833SOL    HW218399   3.498   3.726   4.947
 5834SOL     OW18400   0.014   3.152   0.158
 5834SOL    HW118401   7.010   3.211   0.236
 5834SOL    HW218402   6.971   3.167   0.083
 5835SOL     OW18403   4.905   3.168   3.531
 5835SOL    HW118404   5.002   3.147   3.516
 5835SOL    HW218405   4.889   3.264   3.511
 5836SOL     OW18406   2.721   6.518   1.974
 5836SOL    HW118407   2.720   6.535   2.072
 5836SOL    HW218408   2.683   6.597   1.926
 5837SOL     OW18409   3.804   3.964   6.047
 5837SOL    HW118410   3.862   3.916   5.981
 5837SOL    HW218411   3.760   4.041   6.002
 5838SOL     OW18412   2.631   2.142   0.765
 5838SOL    HW118413   2.630   2.194   0.679
 5838SOL    HW218414   2.545   2.155   0.813
 5839SOL     OW18415   0.657   1.805   2.498
 5839SOL    HW118416   0.669   1.710   2.469
 5839SOL    HW218417   0.738   1.858   2.471
 5840SOL     OW18418   0.323   5.570   6.266
 5840SOL    HW118419   0.292   5.614   6.351
 5840SOL    HW218420   0.423   5.571   6.263
 5841SOL     OW18421   4.947   1.808   2.278
 5841SOL    HW118422   5.001   1.891   2.287
 5841SOL    HW218423   5.007   1.731   2.257
 5842SOL     OW18424   4.846   3.108   1.249
 5842SOL    HW118425   4.792   3.111   1.165
 5842SOL    HW218426   4.915   3.180   1.246
 5843SOL     OW18427   1.525   4.158   2.916
 5843SOL    HW118428   1.445   4.212   2.891
 5843SOL    HW218429   1.507   4.110   3.001
 5844SOL     OW18430   2.106   6.132   5.849
 5844SOL    HW118431   2.064   6.042   5.835
 5844SOL    HW218432   2.129   6.144   5.945
 5845SOL     OW18433   0.479   0.479   2.518
 5845SOL    HW118434   0.551   0.458   2.452
 5845SOL    HW218435   0.404   0.525   2.471
 5846SOL     OW18436   6.897   2.729   4.803
 5846SOL    HW118437   6.819   2.780   4.768
 5846SOL    HW218438   6.888   2.718   4.902
 5847SOL     OW18439   2.538   2.199   1.524
 5847SOL    HW118440   2.636   2.208   1.507
 5847SOL    HW218441   2.519   2.112   1.569
 5848SOL     OW18442   2.080   6.468   3.082
 5848SOL    HW118443   2.157   6.405   3.096
 5848SOL    HW218444   2.031   6.481   3.168
 5849SOL     OW18445   0.745   0.466   6.091
 5849SOL    HW118446   0.726   0.494   6.186
 5849SOL    HW218447   0.662   0.427   6.050
 5850SOL     OW18448   6.934   3.356   2.354
 5850SOL    HW118449   6.915   3.290   2.426
 5850SOL    HW218450   7.020   3.403   2.374
 5851SOL     OW18451   4.906   3.622   2.795
 5851SOL    HW118452   4.941   3.541   2.748
 5851SOL    HW218453   4.897   3.603   2.893
 5852SOL     OW18454   6.115   5.704   3.208
 5852SOL    HW118455   6.019   5.728   3.191
 5852SOL    HW218456   6.174   5.769   3.162
 5853SOL     OW18457   3.510   6.047   4.063
 5853SOL    HW118458   3.480   6.123   4.005
 5853SOL    HW218459   3.586   6.000   4.019
 5854SOL     OW18460   5.052   4.392   6.234
 5854SOL    HW118461   5.132   4.440   6.200
 5854SOL    HW218462   4.970   4.426   6.187
 5855SOL     OW18463   0.651   1.602   4.670
 5855SOL    HW118464   0.701   1.647   4.597
 5855SOL    HW218465   0.674   1.504   4.671
 5856SOL     OW18466   2.120   5.749   3.804
 5856SOL    HW118467   2.025   5.777   3.793
 5856SOL    HW218468   2.132   5.655   3.773
 5857SOL     OW18469   6.447   1.777   5.880
 5857SOL    HW118470   6.456   1.734   5.970
 5857SOL    HW218471   6.519   1.846   5.869
 5858SOL     OW18472   2.554   1.959   2.252
 5858SOL    HW118473   2.606   2.041   2.227
 5858SOL    HW218474   2.518   1.970   2.345
 5859SOL     OW18475   5.751   6.291   1.381
 5859SOL    HW118476   5.822   6.240   1.333
 5859SOL    HW218477   5.748   6.263   1.477
 5860SOL     OW18478   1.115   3.412   1.769
 5860SOL    HW118479   1.066   3.332   1.803
 5860SOL    HW218480   1.201   3.423   1.820
 5861SOL     OW18481   4.381   1.705   4.424
 5861SOL    HW118482   4.346   1.674   4.336
 5861SOL    HW218483   4.305   1.718   4.488
 5862SOL     OW18484   5.616   5.069   1.223
 5862SOL    HW118485   5.626   5.038   1.318
 5862SOL    HW218486   5.599   4.990   1.164
 5863SOL     OW18487   3.606   1.790   5.026
 5863SOL    HW118488   3.544   1.811   5.101
 5863SOL    HW218489   3.642   1.875   4.987
 5864SOL     OW18490   4.161   3.651   1.709
 5864SOL    HW118491   4.101   3.595   1.766
 5864SOL    HW218492   4.188   3.599   1.627
 5865SOL     OW18493   6.107   0.331   4.706
 5865SOL    HW118494   6.056   0.245   4.697
 5865SOL    HW218495   6.205   0.311   4.713
 5866SOL     OW18496   4.264   4.753   6.997
 5866SOL    HW118497   4.283   4.692   6.920
 5866SOL    HW218498   4.168   4.778   6.997
 5867SOL     OW18499   1.853   3.665   0.682
 5867SOL    HW118500   1.859   3.626   0.590
 5867SOL    HW218501   1.759   3.658   0.715
 5868SOL     OW18502   1.063   1.800   5.975
 5868SOL    HW118503   1.047   1.705   5.949
 5868SOL    HW218504   1.144   1.834   5.928
 5869SOL     OW18505   1.344   5.974   3.518
 5869SOL    HW118506   1.425   5.934   3.476
 5869SOL    HW218507   1.273   5.904   3.528
 5870SOL     OW18508   5.054   5.728   4.789
 5870SOL    HW118509   5.129   5.791   4.769
 5870SOL    HW218510   4.992   5.725   4.711
 5871SOL     OW18511   4.053   2.498   1.359
 5871SOL    HW118512   4.134   2.500   1.300
 5871SOL    HW218513   4.078   2.528   1.451
 5872SOL     OW18514   4.110   6.364   1.174
 5872SOL    HW118515   4.072   6.289   1.121
 5872SOL    HW218516   4.067   6.366   1.265
 5873SOL     OW18517   3.141   2.001   1.590
 5873SOL    HW118518   3.057   2.010   1.536
 5873SOL    HW218519   3.119   1.962   1.679
 5874SOL     OW18520   3.026   3.855   6.785
 5874SOL    HW118521   3.070   3.812   6.707
 5874SOL    HW218522   2.942   3.901   6.756
 5875SOL     OW18523   4.529   1.112   6.767
 5875SOL    HW118524   4.430   1.112   6.756
 5875SOL    HW218525   4.572   1.075   6.685
 5876SOL     OW18526   3.317   3.854   0.879
 5876SOL    HW118527   3.315   3.788   0.954
 5876SOL    HW218528   3.412   3.874   0.855
 5877SOL     OW18529   0.386   0.460   1.071
 5877SOL    HW118530   0.375   0.476   1.169
 5877SOL    HW218531   0.442   0.378   1.057
 5878SOL     OW18532   6.222   4.998   4.209
 5878SOL    HW118533   6.207   4.910   4.254
 5878SOL    HW218534   6.248   5.067   4.277
 5879SOL     OW18535   1.919   3.861   6.829
 5879SOL    HW118536   2.015   3.843   6.808
 5879SOL    HW218537   1.874   3.776   6.855
 5880SOL     OW18538   5.530   4.299   6.726
 5880SOL    HW118539   5.457   4.330   6.787
 5880SOL    HW218540   5.598   4.371   6.716
 5881SOL     OW18541   0.693   6.359   2.445
 5881SOL    HW118542   0.642   6.335   2.362
 5881SOL    HW218543   0.767   6.422   2.421
 5882SOL     OW18544   0.036   5.354   6.439
 5882SOL    HW118545   6.986   5.352   6.369
 5882SOL    HW218546   0.028   5.438   6.492
 5883SOL     OW18547   0.609   1.931   6.831
 5883SOL    HW118548   0.580   1.850   6.780
 5883SOL    HW218549   0.585   2.013   6.780
 5884SOL     OW18550   4.682   1.509   3.895
 5884SOL    HW118551   4.692   1.583   3.961
 5884SOL    HW218552   4.655   1.546   3.807
 5885SOL     OW18553   0.217   5.885   2.464
 5885SOL    HW118554   0.228   5.973   2.418
 5885SOL    HW218555   0.179   5.900   2.556
 5886SOL     OW18556   0.434   2.114   3.729
 5886SOL    HW118557   0.517   2.084   3.682
 5886SOL    HW218558   0.447   2.103   3.828
 5887SOL     OW18559   2.361   2.434   1.673
 5887SOL    HW118560   2.404   2.347   1.649
 5887SOL    HW218561   2.380   2.501   1.602
 5888SOL     OW18562   1.682   0.345   1.087
 5888SOL    HW118563   1.714   0.360   1.181
 5888SOL    HW218564   1.611   0.412   1.065
 5889SOL     OW18565   6.742   1.112   0.137
 5889SOL    HW118566   6.806   1.059   0.193
 5889SOL    HW218567   6.778   1.121   0.044
 5890SOL     OW18568   2.065   0.883   2.719
 5890SOL    HW118569   1.995   0.908   2.653
 5890SOL    HW218570   2.116   0.965   2.746
 5891SOL     OW18571   3.375   4.190   6.959
 5891SOL    HW118572   3.472   4.208   6.970
 5891SOL    HW218573   3.353   4.100   6.996
 5892SOL     OW18574   1.157   5.290   2.023
 5892SOL    HW118575   1.218   5.281   1.945
 5892SOL    HW218576   1.174   5.378   2.069
 5893SOL     OW18577   2.299   4.096   2.406
 5893SOL    HW118578   2.253   4.068   2.490
 5893SOL    HW218579   2.280   4.030   2.334
 5894SOL     OW18580   0.558   5.570   4.694
 5894SOL    HW118581   0.488   5.500   4.706
 5894SOL    HW218582   0.517   5.661   4.702
 5895SOL     OW18583   5.076   3.583   3.679
 5895SOL    HW118584   5.126   3.636   3.749
 5895SOL    HW218585   5.141   3.528   3.627
 5896SOL     OW18586   4.251   1.368   1.445
 5896SOL    HW118587   4.217   1.458   1.418
 5896SOL    HW218588   4.200   1.336   1.525
 5897SOL     OW18589   4.117   0.743   1.657
 5897SOL    HW118590   4.124   0.682   1.578
 5897SOL    HW218591   4.154   0.698   1.738
 5898SOL     OW18592   2.586   0.780   4.829
 5898SOL    HW118593   2.607   0.868   4.870
 5898SOL    HW218594   2.660   0.715   4.848
 5899SOL     OW18595   6.199   5.357   6.948
 5899SOL    HW118596   6.165   5.357   0.021
 5899SOL    HW218597   6.298   5.372   6.948
 5900SOL     OW18598   6.629   4.534   3.342
 5900SOL    HW118599   6.572   4.606   3.304
 5900SOL    HW218600   6.606   4.522   3.439
 5901SOL     OW18601   3.481   0.539   1.021
 5901SOL    HW118602   3.466   0.636   1.041
 5901SOL    HW218603   3.400   0.486   1.046
 5902SOL     OW18604   5.991   3.188   5.450
 5902SOL    HW118605   5.947   3.253   5.387
 5902SOL    HW218606   6.089   3.186   5.432
 5903SOL     OW18607   4.982   4.488   5.827
 5903SOL    HW118608   5.059   4.466   5.768
 5903SOL    HW218609   5.004   4.464   5.922
 5904SOL     OW18610   1.285   5.214   0.862
 5904SOL    HW118611   1.302   5.302   0.906
 5904SOL    HW218612   1.230   5.156   0.923
 5905SOL     OW18613   6.379   0.316   3.913
 5905SOL    HW118614   6.447   0.247   3.889
 5905SOL    HW218615   6.346   0.300   4.006
 5906SOL     OW18616   4.226   1.900   3.809
 5906SOL    HW118617   4.136   1.858   3.813
 5906SOL    HW218618   4.232   1.972   3.878
 5907SOL     OW18619   0.653   5.820   0.612
 5907SOL    HW118620   0.698   5.907   0.629
 5907SOL    HW218621   0.720   5.746   0.615
 5908SOL     OW18622   6.566   3.281   0.669
 5908SOL    HW118623   6.548   3.379   0.667
 5908SOL    HW218624   6.613   3.257   0.754
 5909SOL     OW18625   6.578   4.888   6.432
 5909SOL    HW118626   6.586   4.927   6.523
 5909SOL    HW218627   6.645   4.815   6.421
 5910SOL     OW18628   0.446   4.518   2.099
 5910SOL    HW118629   0.428   4.421   2.115
 5910SOL    HW218630   0.474   4.562   2.184
 5911SOL     OW18631   6.397   4.331   6.550
 5911SOL    HW118632   6.336   4.377   6.615
 5911SOL    HW218633   6.355   4.246   6.519
 5912SOL     OW18634   5.919   3.077   6.555
 5912SOL    HW118635   5.937   3.142   6.481
 5912SOL    HW218636   5.980   2.998   6.545
 5913SOL     OW18637   3.610   3.512   6.562
 5913SOL    HW118638   3.643   3.607   6.555
 5913SOL    HW218639   3.684   3.450   6.536
 5914SOL     OW18640   2.392   5.436   6.475
 5914SOL    HW118641   2.412   5.341   6.498
 5914SOL    HW218642   2.477   5.487   6.463
 5915SOL     OW18643   5.328   4.598   1.753
 5915SOL    HW118644   5.387   4.566   1.827
 5915SOL    HW218645   5.339   4.537   1.674
 5916SOL     OW18646   4.254   5.837   5.016
 5916SOL    HW118647   4.290   5.750   4.984
 5916SOL    HW218648   4.322   5.882   5.074
 5917SOL     OW18649   3.432   3.752   3.631
 5917SOL    HW118650   3.432   3.741   3.730
 5917SOL    HW218651   3.504   3.816   3.604
 5918SOL     OW18652   2.031   3.131   5.387
 5918SOL    HW118653   1.983   3.095   5.307
 5918SOL    HW218654   2.124   3.157   5.362
 5919SOL     OW18655   4.420   2.897   0.790
 5919SOL    HW118656   4.455   2.890   0.883
 5919SOL    HW218657   4.324   2.923   0.792
 5920SOL     OW18658   3.550   0.370   0.268
 5920SOL    HW118659   3.594   0.405   0.351
 5920SOL    HW218660   3.455   0.402   0.264
 5921SOL     OW18661   3.704   5.374   6.008
 5921SOL    HW118662   3.691   5.356   5.910
 5921SOL    HW218663   3.751   5.462   6.019
 5922SOL     OW18664   6.661   5.367   3.177
 5922SOL    HW118665   6.608   5.451   3.178
 5922SOL    HW218666   6.619   5.301   3.115
 5923SOL     OW18667   5.723   1.151   0.948
 5923SOL    HW118668   5.642   1.111   0.906
 5923SOL    HW218669   5.749   1.097   1.029
 5924SOL     OW18670   0.190   1.557   3.555
 5924SOL    HW118671   0.216   1.553   3.652
 5924SOL    HW218672   0.104   1.507   3.542
 5925SOL     OW18673   4.104   5.452   2.258
 5925SOL    HW118674   4.032   5.509   2.298
 5925SOL    HW218675   4.096   5.359   2.293
 5926SOL     OW18676   3.902   5.359   1.662
 5926SOL    HW118677   3.906   5.408   1.749
 5926SOL    HW218678   3.806   5.349   1.634
 5927SOL     OW18679   1.659   4.438   3.073
 5927SOL    HW118680   1.669   4.412   3.169
 5927SOL    HW218681   1.705   4.371   3.015
 5928SOL     OW18682   3.526   0.204   0.786
 5928SOL    HW118683   3.537   0.178   0.690
 5928SOL    HW218684   3.435   0.178   0.818
 5929SOL     OW18685   0.917   6.195   6.188
 5929SOL    HW118686   0.849   6.213   6.259
 5929SOL    HW218687   0.957   6.104   6.203
 5930SOL     OW18688   6.820   2.514   3.498
 5930SOL    HW118689   6.828   2.606   3.459
 5930SOL    HW218690   6.907   2.466   3.488
 5931SOL     OW18691   6.784   5.463   3.731
 5931SOL    HW118692   6.813   5.521   3.808
 5931SOL    HW218693   6.740   5.520   3.662
 5932SOL     OW18694   2.026   0.060   0.369
 5932SOL    HW118695   2.050   0.124   0.295
 5932SOL    HW218696   2.062   6.991   0.349
 5933SOL     OW18697   0.281   6.232   3.933
 5933SOL    HW118698   0.255   6.311   3.878
 5933SOL    HW218699   0.371   6.247   3.972
 5934SOL     OW18700   3.960   3.874   4.351
 5934SOL    HW118701   3.897   3.951   4.359
 5934SOL    HW218702   4.004   3.857   4.439
 5935SOL     OW18703   4.330   3.914   5.770
 5935SOL    HW118704   4.356   3.948   5.861
 5935SOL    HW218705   4.296   3.820   5.778
 5936SOL     OW18706   4.094   3.780   0.814
 5936SOL    HW118707   4.174   3.724   0.834
 5936SOL    HW218708   4.015   3.744   0.862
 5937SOL     OW18709   1.039   4.689   3.062
 5937SOL    HW118710   1.083   4.604   3.034
 5937SOL    HW218711   0.940   4.679   3.057
 5938SOL     OW18712   0.992   5.035   4.121
 5938SOL    HW118713   1.091   5.044   4.127
 5938SOL    HW218714   0.953   5.037   4.213
 5939SOL     OW18715   2.978   6.955   3.046
 5939SOL    HW118716   3.004   0.021   3.004
 5939SOL    HW218717   3.001   6.957   3.143
 5940SOL     OW18718   4.671   5.744   1.089
 5940SOL    HW118719   4.618   5.679   1.036
 5940SOL    HW218720   4.629   5.757   1.179
 5941SOL     OW18721   5.897   3.421   1.783
 5941SOL    HW118722   5.910   3.520   1.781
 5941SOL    HW218723   5.874   3.392   1.876
 5942SOL     OW18724   5.416   2.853   0.197
 5942SOL    HW118725   5.515   2.838   0.208
 5942SOL    HW218726   5.396   2.868   0.100
 5943SOL     OW18727   4.034   5.406   0.085
 5943SOL    HW118728   4.002   5.370   7.019
 5943SOL    HW218729   4.118   5.358   0.112
 5944SOL     OW18730   6.387   2.566   1.175
 5944SOL    HW118731   6.348   2.597   1.089
 5944SOL    HW218732   6.477   2.608   1.188
 5945SOL     OW18733   6.407   5.123   5.069
 5945SOL    HW118734   6.444   5.136   5.161
 5945SOL    HW218735   6.416   5.208   5.017
 5946SOL     OW18736   3.219   3.488   5.808
 5946SOL    HW118737   3.289   3.436   5.759
 5946SOL    HW218738   3.179   3.556   5.747
 5947SOL     OW18739   3.811   3.693   2.151
 5947SOL    HW118740   3.897   3.703   2.101
 5947SOL    HW218741   3.830   3.656   2.242
 5948SOL     OW18742   4.323   5.401   2.732
 5948SOL    HW118743   4.316   5.301   2.737
 5948SOL    HW218744   4.281   5.433   2.648
 5949SOL     OW18745   4.532   3.308   1.580
 5949SOL    HW118746   4.609   3.362   1.614
 5949SOL    HW218747   4.562   3.256   1.500
 5950SOL     OW18748   4.669   2.751   5.432
 5950SOL    HW118749   4.721   2.823   5.479
 5950SOL    HW218750   4.595   2.719   5.491
 5951SOL     OW18751   0.232   5.704   4.640
 5951SOL    HW118752   0.192   5.620   4.679
 5951SOL    HW218753   0.290   5.747   4.708
 5952SOL     OW18754   5.434   4.702   3.997
 5952SOL    HW118755   5.474   4.611   4.008
 5952SOL    HW218756   5.408   4.739   4.087
 5953SOL     OW18757   6.111   2.609   5.028
 5953SOL    HW118758   6.053   2.533   4.998
 5953SOL    HW218759   6.172   2.636   4.954
 5954SOL     OW18760   0.537   4.335   5.691
 5954SOL    HW118761   0.470   4.270   5.728
 5954SOL    HW218762   0.617   4.338   5.751
 5955SOL     OW18763   5.358   5.662   2.592
 5955SOL    HW118764   5.305   5.613   2.522
 5955SOL    HW218765   5.296   5.714   2.650
 5956SOL     OW18766   3.735   1.144   5.920
 5956SOL    HW118767   3.824   1.106   5.946
 5956SOL    HW218768   3.749   1.234   5.877
 5957SOL     OW18769   4.159   0.879   5.439
 5957SOL    HW118770   4.165   0.974   5.407
 5957SOL    HW218771   4.118   0.878   5.530
 5958SOL     OW18772   6.168   6.032   2.569
 5958SOL    HW118773   6.142   6.108   2.509
 5958SOL    HW218774   6.086   5.984   2.600
 5959SOL     OW18775   4.202   2.108   5.344
 5959SOL    HW118776   4.273   2.044   5.373
 5959SOL    HW218777   4.182   2.171   5.419
 5960SOL     OW18778   3.850   5.420   4.263
 5960SOL    HW118779   3.795   5.497   4.296
 5960SOL    HW218780   3.789   5.346   4.232
 5961SOL     OW18781   5.240   0.950   3.430
 5961SOL    HW118782   5.144   0.928   3.444
 5961SOL    HW218783   5.258   0.962   3.332
 5962SOL     OW18784   4.893   6.007   1.057
 5962SOL    HW118785   4.880   6.101   1.026
 5962SOL    HW218786   4.842   5.992   1.142
 5963SOL     OW18787   3.327   3.165   4.953
 5963SOL    HW118788   3.246   3.179   5.011
 5963SOL    HW218789   3.356   3.069   4.960
 5964SOL     OW18790   0.119   5.290   5.522
 5964SOL    HW118791   0.090   5.241   5.604
 5964SOL    HW218792   0.162   5.225   5.458
 5965SOL     OW18793   1.128   2.288   0.103
 5965SOL    HW118794   1.063   2.213   0.091
 5965SOL    HW218795   1.163   2.286   0.197
 5966SOL     OW18796   2.144   5.598   5.362
 5966SOL    HW118797   2.164   5.618   5.267
 5966SOL    HW218798   2.127   5.684   5.411
 5967SOL     OW18799   4.190   6.468   0.329
 5967SOL    HW118800   4.254   6.391   0.335
 5967SOL    HW218801   4.174   6.490   0.233
 5968SOL     OW18802   5.071   0.808   1.310
 5968SOL    HW118803   4.993   0.823   1.370
 5968SOL    HW218804   5.154   0.845   1.353
 5969SOL     OW18805   0.268   0.597   7.006
 5969SOL    HW118806   0.296   0.522   0.046
 5969SOL    HW218807   0.341   0.665   7.003
 5970SOL     OW18808   0.711   4.454   2.786
 5970SOL    HW118809   0.707   4.386   2.858
 5970SOL    HW218810   0.710   4.546   2.826
 5971SOL     OW18811   1.232   1.092   2.435
 5971SOL    HW118812   1.161   1.090   2.366
 5971SOL    HW218813   1.195   1.058   2.522
 5972SOL     OW18814   5.269   6.182   6.412
 5972SOL    HW118815   5.214   6.098   6.411
 5972SOL    HW218816   5.359   6.162   6.450
 5973SOL     OW18817   2.120   3.220   2.426
 5973SOL    HW118818   2.052   3.155   2.393
 5973SOL    HW218819   2.131   3.294   2.360
 5974SOL     OW18820   5.598   4.435   6.380
 5974SOL    HW118821   5.660   4.394   6.313
 5974SOL    HW218822   5.645   4.509   6.428
 5975SOL     OW18823   3.521   1.571   0.670
 5975SOL    HW118824   3.550   1.591   0.764
 5975SOL    HW218825   3.474   1.650   0.632
 5976SOL     OW18826   2.863   3.219   5.150
 5976SOL    HW118827   2.948   3.202   5.100
 5976SOL    HW218828   2.827   3.132   5.185
 5977SOL     OW18829   2.923   5.687   0.364
 5977SOL    HW118830   2.906   5.604   0.310
 5977SOL    HW218831   2.873   5.680   0.451
 5978SOL     OW18832   5.393   5.475   3.322
 5978SOL    HW118833   5.314   5.434   3.368
 5978SOL    HW218834   5.472   5.475   3.384
 5979SOL     OW18835   6.253   0.156   2.813
 5979SOL    HW118836   6.342   0.200   2.803
 5979SOL    HW218837   6.241   0.124   2.907
 5980SOL     OW18838   3.499   3.240   0.457
 5980SOL    HW118839   3.596   3.266   0.457
 5980SOL    HW218840   3.489   3.148   0.495
 5981SOL     OW18841   6.117   1.415   1.770
 5981SOL    HW118842   6.083   1.333   1.815
 5981SOL    HW218843   6.059   1.437   1.692
 5982SOL     OW18844   6.671   2.905   1.416
 5982SOL    HW118845   6.646   2.825   1.361
 5982SOL    HW218846   6.725   2.877   1.495
 5983SOL     OW18847   1.868   0.996   4.488
 5983SOL    HW118848   1.896   1.038   4.401
 5983SOL    HW218849   1.948   0.958   4.534
 5984SOL     OW18850   6.446   6.326   5.052
 5984SOL    HW118851   6.403   6.382   4.982
 5984SOL    HW218852   6.459   6.380   5.135
 5985SOL     OW18853   6.915   2.879   4.235
 5985SOL    HW118854   6.894   2.912   4.327
 5985SOL    HW218855   6.906   2.780   4.232
 5986SOL     OW18856   3.407   3.391   4.456
 5986SOL    HW118857   3.485   3.452   4.442
 5986SOL    HW218858   3.400   3.368   4.554
 5987SOL     OW18859   3.955   0.192   4.831
 5987SOL    HW118860   4.015   0.271   4.838
 5987SOL    HW218861   3.998   0.122   4.773
 5988SOL     OW18862   5.366   6.759   5.097
 5988SOL    HW118863   5.309   6.732   5.020
 5988SOL    HW218864   5.345   6.701   5.176
 5989SOL     OW18865   2.744   5.832   0.225
 5989SOL    HW118866   2.806   5.784   0.288
 5989SOL    HW218867   2.685   5.765   0.180
 5990SOL     OW18868   3.984   4.659   0.676
 5990SOL    HW118869   4.021   4.624   0.590
 5990SOL    HW218870   3.913   4.597   0.710
 5991SOL     OW18871   3.618   5.590   6.299
 5991SOL    HW118872   3.616   5.497   6.261
 5991SOL    HW218873   3.554   5.596   6.376
 5992SOL     OW18874   3.308   0.321   2.989
 5992SOL    HW118875   3.397   0.282   3.011
 5992SOL    HW218876   3.253   0.329   3.072
 5993SOL     OW18877   2.947   6.017   5.851
 5993SOL    HW118878   3.041   5.987   5.868
 5993SOL    HW218879   2.909   6.055   5.935
 5994SOL     OW18880   6.558   2.469   2.327
 5994SOL    HW118881   6.563   2.567   2.349
 5994SOL    HW218882   6.581   2.416   2.409
 5995SOL     OW18883   5.813   4.897   2.638
 5995SOL    HW118884   5.761   4.980   2.657
 5995SOL    HW218885   5.880   4.882   2.710
 5996SOL     OW18886   1.281   6.287   0.549
 5996SOL    HW118887   1.339   6.227   0.605
 5996SOL    HW218888   1.185   6.259   0.560
 5997SOL     OW18889   0.622   5.652   2.635
 5997SOL    HW118890   0.544   5.606   2.593
 5997SOL    HW218891   0.604   5.664   2.733
 5998SOL     OW18892   6.256   2.335   2.353
 5998SOL    HW118893   6.314   2.290   2.284
 5998SOL    HW218894   6.188   2.392   2.307
 5999SOL     OW18895   1.598   1.580   2.300
 5999SOL    HW118896   1.661   1.507   2.274
 5999SOL    HW218897   1.504   1.551   2.282
 6000SOL     OW18898   4.126   6.653   1.341
 6000SOL    HW118899   4.182   6.707   1.279
 6000SOL    HW218900   4.029   6.662   1.316
 6001SOL     OW18901   0.586   3.925   6.674
 6001SOL    HW118902   0.644   3.847   6.695
 6001SOL    HW218903   0.509   3.928   6.738
 6002SOL     OW18904   6.459   0.262   1.019
 6002SOL    HW118905   6.360   0.258   1.009
 6002SOL    HW218906   6.492   0.174   1.054
 6003SOL     OW18907   0.155   2.071   4.058
 6003SOL    HW118908   0.181   2.162   4.028
 6003SOL    HW218909   0.100   2.078   4.142
 6004SOL     OW18910   0.449   4.485   3.515
 6004SOL    HW118911   0.465   4.440   3.603
 6004SOL    HW218912   0.367   4.445   3.472
 6005SOL     OW18913   5.070   5.247   4.630
 6005SOL    HW118914   4.988   5.191   4.641
 6005SOL    HW218915   5.151   5.193   4.651
 6006SOL     OW18916   2.663   0.574   6.759
 6006SOL    HW118917   2.573   0.552   6.719
 6006SOL    HW218918   2.653   0.650   6.823
 6007SOL     OW18919   5.021   3.639   5.171
 6007SOL    HW118920   5.054   3.545   5.171
 6007SOL    HW218921   4.942   3.647   5.110
 6008SOL     OW18922   1.738   5.040   5.138
 6008SOL    HW118923   1.743   4.988   5.052
 6008SOL    HW218924   1.721   4.978   5.214
 6009SOL     OW18925   3.606   0.934   4.118
 6009SOL    HW118926   3.579   0.917   4.023
 6009SOL    HW218927   3.702   0.912   4.130
 6010SOL     OW18928   1.612   4.240   3.655
 6010SOL    HW118929   1.670   4.187   3.594
 6010SOL    HW218930   1.592   4.329   3.613
 6011SOL     OW18931   5.113   2.842   3.367
 6011SOL    HW118932   5.122   2.863   3.269
 6011SOL    HW218933   5.026   2.878   3.400
 6012SOL     OW18934   5.241   0.938   0.012
 6012SOL    HW118935   5.246   0.996   0.093
 6012SOL    HW218936   5.240   0.842   0.040
 6013SOL     OW18937   5.658   2.870   3.199
 6013SOL    HW118938   5.585   2.901   3.260
 6013SOL    HW218939   5.669   2.935   3.124
 6014SOL     OW18940   4.220   3.468   1.168
 6014SOL    HW118941   4.249   3.379   1.205
 6014SOL    HW218942   4.267   3.541   1.218
 6015SOL     OW18943   5.918   2.236   4.713
 6015SOL    HW118944   5.834   2.196   4.748
 6015SOL    HW218945   5.996   2.178   4.738
 6016SOL     OW18946   6.657   1.467   5.817
 6016SOL    HW118947   6.702   1.453   5.728
 6016SOL    HW218948   6.725   1.497   5.884
 6017SOL     OW18949   0.362   4.242   2.894
 6017SOL    HW118950   0.301   4.201   2.962
 6017SOL    HW218951   0.335   4.337   2.878
 6018SOL     OW18952   2.645   0.758   6.264
 6018SOL    HW118953   2.716   0.798   6.321
 6018SOL    HW218954   2.555   0.776   6.306
 6019SOL     OW18955   6.609   1.732   4.058
 6019SOL    HW118956   6.544   1.713   3.984
 6019SOL    HW218957   6.560   1.770   4.136
 6020SOL     OW18958   2.163   5.718   1.504
 6020SOL    HW118959   2.254   5.731   1.543
 6020SOL    HW218960   2.115   5.647   1.556
 6021SOL     OW18961   4.241   0.736   2.428
 6021SOL    HW118962   4.228   0.782   2.340
 6021SOL    HW218963   4.309   0.785   2.482
 6022SOL     OW18964   4.705   1.923   3.793
 6022SOL    HW118965   4.676   1.832   3.821
 6022SOL    HW218966   4.671   1.990   3.858
 6023SOL     OW18967   6.386   0.858   1.693
 6023SOL    HW118968   6.301   0.813   1.666
 6023SOL    HW218969   6.453   0.849   1.619
 6024SOL     OW18970   0.626   5.030   3.156
 6024SOL    HW118971   0.551   5.071   3.208
 6024SOL    HW218972   0.706   5.021   3.214
 6025SOL     OW18973   3.438   1.780   2.763
 6025SOL    HW118974   3.398   1.764   2.672
 6025SOL    HW218975   3.520   1.725   2.773
 6026SOL     OW18976   6.871   3.956   4.794
 6026SOL    HW118977   6.821   3.873   4.819
 6026SOL    HW218978   6.915   3.943   4.705
 6027SOL     OW18979   1.484   3.861   6.337
 6027SOL    HW118980   1.453   3.766   6.336
 6027SOL    HW218981   1.425   3.916   6.278
 6028SOL     OW18982   0.941   4.391   0.225
 6028SOL    HW118983   1.020   4.393   0.164
 6028SOL    HW218984   0.906   4.483   0.237
 6029SOL     OW18985   2.474   6.245   4.896
 6029SOL    HW118986   2.513   6.198   4.817
 6029SOL    HW218987   2.514   6.337   4.903
 6030SOL     OW18988   4.109   6.119   2.610
 6030SOL    HW118989   4.099   6.186   2.537
 6030SOL    HW218990   4.026   6.063   2.617
 6031SOL     OW18991   3.669   5.233   2.851
 6031SOL    HW118992   3.645   5.137   2.831
 6031SOL    HW218993   3.605   5.270   2.918
 6032SOL     OW18994   2.371   4.479   2.983
 6032SOL    HW118995   2.315   4.561   2.992
 6032SOL    HW218996   2.456   4.502   2.934
 6033SOL     OW18997   2.741   1.460   2.549
 6033SOL    HW118998   2.826   1.444   2.599
 6033SOL    HW218999   2.759   1.463   2.451
 6034SOL     OW19000   0.648   5.349   4.123
 6034SOL    HW119001   0.631   5.308   4.212
 6034SOL    HW219002   0.616   5.444   4.123
 6035SOL     OW19003   6.717   0.532   2.801
 6035SOL    HW119004   6.756   0.509   2.712
 6035SOL    HW219005   6.781   0.504   2.873
 6036SOL     OW19006   5.866   6.085   4.485
 6036SOL    HW119007   5.868   6.021   4.562
 6036SOL    HW219008   5.772   6.096   4.452
 6037SOL     OW19009   4.517   4.980   6.455
 6037SOL    HW119010   4.490   5.015   6.365
 6037SOL    HW219011   4.609   5.014   6.478
 6038SOL     OW19012   1.412   2.877   6.394
 6038SOL    HW119013   1.394   2.808   6.464
 6038SOL    HW219014   1.473   2.839   6.325
 6039SOL     OW19015   3.075   2.989   2.568
 6039SOL    HW119016   3.057   3.084   2.544
 6039SOL    HW219017   3.012   2.929   2.519
 6040SOL     OW19018   0.570   2.242   6.130
 6040SOL    HW119019   0.642   2.197   6.077
 6040SOL    HW219020   0.612   2.306   6.195
 6041SOL     OW19021   2.002   0.607   4.860
 6041SOL    HW119022   2.083   0.643   4.812
 6041SOL    HW219023   1.924   0.666   4.840
 6042SOL     OW19024   5.505   5.951   2.511
 6042SOL    HW119025   5.457   5.891   2.446
 6042SOL    HW219026   5.554   5.895   2.578
 6043SOL     OW19027   0.957   4.828   5.755
 6043SOL    HW119028   1.049   4.840   5.718
 6043SOL    HW219029   0.943   4.892   5.830
 6044SOL     OW19030   1.537   1.843   1.334
 6044SOL    HW119031   1.521   1.807   1.242
 6044SOL    HW219032   1.513   1.773   1.401
 6045SOL     OW19033   6.688   5.041   1.269
 6045SOL    HW119034   6.592   5.021   1.285
 6045SOL    HW219035   6.737   4.957   1.249
 6046SOL     OW19036   3.283   1.751   6.716
 6046SOL    HW119037   3.378   1.769   6.689
 6046SOL    HW219038   3.265   1.795   6.804
 6047SOL     OW19039   6.025   2.508   2.259
 6047SOL    HW119040   5.980   2.471   2.340
 6047SOL    HW219041   5.987   2.464   2.177
 6048SOL     OW19042   4.607   5.896   4.144
 6048SOL    HW119043   4.674   5.957   4.100
 6048SOL    HW219044   4.581   5.933   4.233
 6049SOL     OW19045   5.734   2.972   5.763
 6049SOL    HW119046   5.802   2.962   5.691
 6049SOL    HW219047   5.726   3.069   5.788
 6050SOL     OW19048   2.991   5.132   4.478
 6050SOL    HW119049   3.068   5.195   4.473
 6050SOL    HW219050   2.930   5.147   4.400
 6051SOL     OW19051   2.682   1.608   4.371
 6051SOL    HW119052   2.615   1.551   4.323
 6051SOL    HW219053   2.726   1.668   4.305
 6052SOL     OW19054   6.171   0.044   0.827
 6052SOL    HW119055   6.090   7.012   0.801
 6052SOL    HW219056   6.253   7.009   0.817
 6053SOL     OW19057   3.293   0.902   6.625
 6053SOL    HW119058   3.229   0.838   6.582
 6053SOL    HW219059   3.256   0.995   6.619
 6054SOL     OW19060   2.933   3.859   0.256
 6054SOL    HW119061   3.032   3.858   0.268
 6054SOL    HW219062   2.895   3.942   0.298
 6055SOL     OW19063   4.952   1.191   5.575
 6055SOL    HW119064   4.988   1.125   5.508
 6055SOL    HW219065   4.913   1.141   5.652
 6056SOL     OW19066   5.090   2.827   4.527
 6056SOL    HW119067   5.158   2.824   4.453
 6056SOL    HW219068   5.072   2.923   4.551
 6057SOL     OW19069   4.965   2.558   4.571
 6057SOL    HW119070   5.044   2.612   4.600
 6057SOL    HW219071   4.892   2.619   4.539
 6058SOL     OW19072   4.830   2.520   1.832
 6058SOL    HW119073   4.756   2.456   1.813
 6058SOL    HW219074   4.792   2.612   1.846
 6059SOL     OW19075   5.162   4.768   4.856
 6059SOL    HW119076   5.238   4.711   4.887
 6059SOL    HW219077   5.123   4.816   4.934
 6060SOL     OW19078   3.428   4.145   6.200
 6060SOL    HW119079   3.329   4.130   6.193
 6060SOL    HW219080   3.472   4.114   6.116
 6061SOL     OW19081   3.935   2.044   1.473
 6061SOL    HW119082   3.936   2.059   1.572
 6061SOL    HW219083   3.921   1.947   1.454
 6062SOL     OW19084   2.101   1.829   4.744
 6062SOL    HW119085   2.105   1.830   4.644
 6062SOL    HW219086   2.060   1.914   4.776
 6063SOL     OW19087   3.710   1.422   6.563
 6063SOL    HW119088   3.634   1.480   6.536
 6063SOL    HW219089   3.688   1.375   6.648
 6064SOL     OW19090   2.389   6.001   0.999
 6064SOL    HW119091   2.488   5.998   0.992
 6064SOL    HW219092   2.350   5.915   0.966
 6065SOL     OW19093   5.581   6.844   2.241
 6065SOL    HW119094   5.673   6.883   2.243
 6065SOL    HW219095   5.523   6.899   2.181
 6066SOL     OW19096   4.714   2.129   6.575
 6066SOL    HW119097   4.771   2.067   6.629
 6066SOL    HW219098   4.691   2.086   6.487
 6067SOL     OW19099   5.443   1.543   5.979
 6067SOL    HW119100   5.485   1.566   5.891
 6067SOL    HW219101   5.414   1.447   5.978
 6068SOL     OW19102   5.555   2.853   4.722
 6068SOL    HW119103   5.497   2.932   4.704
 6068SOL    HW219104   5.606   2.867   4.807
 6069SOL     OW19105   6.632   3.230   4.869
 6069SOL    HW119106   6.554   3.284   4.902
 6069SOL    HW219107   6.702   3.225   4.940
 6070SOL     OW19108   2.244   2.404   0.548
 6070SOL    HW119109   2.271   2.451   0.464
 6070SOL    HW219110   2.277   2.310   0.546
 6071SOL     OW19111   5.872   4.833   4.777
 6071SOL    HW119112   5.923   4.852   4.861
 6071SOL    HW219113   5.796   4.772   4.797
 6072SOL     OW19114   0.211   6.606   1.571
 6072SOL    HW119115   0.200   6.696   1.614
 6072SOL    HW219116   0.282   6.555   1.619
 6073SOL     OW19117   6.381   4.072   0.663
 6073SOL    HW119118   6.345   3.995   0.716
 6073SOL    HW219119   6.345   4.157   0.700
 6074SOL     OW19120   1.270   6.135   4.252
 6074SOL    HW119121   1.333   6.203   4.290
 6074SOL    HW219122   1.244   6.162   4.159
 6075SOL     OW19123   0.214   2.120   6.735
 6075SOL    HW119124   0.274   2.041   6.732
 6075SOL    HW219125   0.263   2.199   6.773
 6076SOL     OW19126   1.893   6.083   4.394
 6076SOL    HW119127   1.855   6.069   4.486
 6076SOL    HW219128   1.987   6.116   4.402
 6077SOL     OW19129   5.006   5.796   1.863
 6077SOL    HW119130   4.954   5.720   1.824
 6077SOL    HW219131   4.985   5.804   1.960
 6078SOL     OW19132   3.824   5.224   1.078
 6078SOL    HW119133   3.902   5.220   1.140
 6078SOL    HW219134   3.742   5.248   1.129
 6079SOL     OW19135   3.283   2.902   6.367
 6079SOL    HW119136   3.264   2.968   6.294
 6079SOL    HW219137   3.246   2.935   6.454
 6080SOL     OW19138   0.233   0.618   1.722
 6080SOL    HW119139   0.243   0.674   1.804
 6080SOL    HW219140   0.231   0.677   1.642
 6081SOL     OW19141   6.109   3.167   4.608
 6081SOL    HW119142   6.075   3.080   4.572
 6081SOL    HW219143   6.178   3.149   4.678
 6082SOL     OW19144   2.229   1.755   3.554
 6082SOL    HW119145   2.297   1.731   3.484
 6082SOL    HW219146   2.271   1.747   3.644
 6083SOL     OW19147   0.317   5.100   7.018
 6083SOL    HW119148   0.302   5.007   0.031
 6083SOL    HW219149   0.411   5.128   0.016
 6084SOL     OW19150   0.145   5.641   3.758
 6084SOL    HW119151   0.092   5.679   3.834
 6084SOL    HW219152   0.084   5.627   3.680
 6085SOL     OW19153   0.687   4.148   0.151
 6085SOL    HW119154   0.717   4.244   0.153
 6085SOL    HW219155   0.656   4.122   0.242
 6086SOL     OW19156   3.404   1.324   5.634
 6086SOL    HW119157   3.427   1.229   5.613
 6086SOL    HW219158   3.428   1.382   5.557
 6087SOL     OW19159   4.579   5.996   0.391
 6087SOL    HW119160   4.657   5.937   0.370
 6087SOL    HW219161   4.510   5.944   0.440
 6088SOL     OW19162   5.877   6.376   4.483
 6088SOL    HW119163   5.902   6.283   4.508
 6088SOL    HW219164   5.783   6.378   4.449
 6089SOL     OW19165   6.528   3.333   1.470
 6089SOL    HW119166   6.447   3.299   1.422
 6089SOL    HW219167   6.609   3.321   1.412
 6090SOL     OW19168   2.292   6.185   5.303
 6090SOL    HW119169   2.342   6.234   5.231
 6090SOL    HW219170   2.241   6.109   5.264
 6091SOL     OW19171   1.847   1.770   2.109
 6091SOL    HW119172   1.835   1.794   2.206
 6091SOL    HW219173   1.944   1.761   2.089
 6092SOL     OW19174   3.479   0.013   3.397
 6092SOL    HW119175   3.528   0.073   3.460
 6092SOL    HW219176   3.439   6.958   3.447
 6093SOL     OW19177   1.807   3.352   2.575
 6093SOL    HW119178   1.836   3.266   2.533
 6093SOL    HW219179   1.826   3.349   2.674
 6094SOL     OW19180   3.861   0.830   1.343
 6094SOL    HW119181   3.801   0.897   1.298
 6094SOL    HW219182   3.805   0.769   1.399
 6095SOL     OW19183   4.171   3.602   6.601
 6095SOL    HW119184   4.236   3.677   6.585
 6095SOL    HW219185   4.217   3.515   6.586
 6096SOL     OW19186   5.780   0.585   3.933
 6096SOL    HW119187   5.792   0.538   4.021
 6096SOL    HW219188   5.771   0.683   3.949
 6097SOL     OW19189   1.887   0.228   2.162
 6097SOL    HW119190   1.881   0.251   2.064
 6097SOL    HW219191   1.817   0.277   2.212
 6098SOL     OW19192   1.294   2.686   6.531
 6098SOL    HW119193   1.235   2.640   6.598
 6098SOL    HW219194   1.331   2.618   6.467
 6099SOL     OW19195   6.922   5.962   0.492
 6099SOL    HW119196   6.981   5.928   0.419
 6099SOL    HW219197   6.929   5.902   0.572
 6100SOL     OW19198   5.089   3.349   0.154
 6100SOL    HW119199   5.163   3.361   0.220
 6100SOL    HW219200   5.104   3.265   0.102
 6101SOL     OW19201   6.026   1.979   4.607
 6101SOL    HW119202   5.962   1.912   4.571
 6101SOL    HW219203   6.041   2.051   4.539
 6102SOL     OW19204   3.296   6.508   3.291
 6102SOL    HW119205   3.328   6.603   3.285
 6102SOL    HW219206   3.273   6.486   3.385
 6103SOL     OW19207   0.828   2.345   2.498
 6103SOL    HW119208   0.734   2.315   2.478
 6103SOL    HW219209   0.877   2.362   2.412
 6104SOL     OW19210   5.719   1.262   5.385
 6104SOL    HW119211   5.796   1.248   5.323
 6104SOL    HW219212   5.725   1.196   5.461
 6105SOL     OW19213   1.472   0.675   5.315
 6105SOL    HW119214   1.513   0.610   5.251
 6105SOL    HW219215   1.506   0.767   5.295
 6106SOL     OW19216   1.584   3.881   5.575
 6106SOL    HW119217   1.648   3.839   5.639
 6106SOL    HW219218   1.611   3.976   5.558
 6107SOL     OW19219   2.640   4.617   4.531
 6107SOL    HW119220   2.600   4.540   4.480
 6107SOL    HW219221   2.596   4.702   4.502
 6108SOL     OW19222   0.969   2.525   1.809
 6108SOL    HW119223   0.989   2.513   1.906
 6108SOL    HW219224   0.870   2.534   1.797
 6109SOL     OW19225   4.960   3.181   6.339
 6109SOL    HW119226   4.964   3.218   6.246
 6109SOL    HW219227   4.915   3.091   6.337
 6110SOL     OW19228   4.017   3.253   6.806
 6110SOL    HW119229   4.076   3.290   6.878
 6110SOL    HW219230   3.922   3.276   6.825
 6111SOL     OW19231   2.341   4.277   2.196
 6111SOL    HW119232   2.307   4.232   2.114
 6111SOL    HW219233   2.354   4.209   2.269
 6112SOL     OW19234   3.289   7.021   3.192
 6112SOL    HW119235   3.212   6.982   3.242
 6112SOL    HW219236   3.355   0.039   3.257
 6113SOL     OW19237   1.356   0.996   6.144
 6113SOL    HW119238   1.318   1.044   6.223
 6113SOL    HW219239   1.424   0.929   6.174
 6114SOL     OW19240   4.964   5.093   1.008
 6114SOL    HW119241   4.928   5.067   1.098
 6114SOL    HW219242   4.921   5.178   0.979
 6115SOL     OW19243   4.754   0.213   3.607
 6115SOL    HW119244   4.752   0.115   3.627
 6115SOL    HW219245   4.703   0.231   3.523
 6116SOL     OW19246   2.952   0.564   0.498
 6116SOL    HW119247   2.978   0.660   0.506
 6116SOL    HW219248   2.865   0.557   0.450
 6117SOL     OW19249   6.999   0.584   5.984
 6117SOL    HW119250   7.011   0.577   6.083
 6117SOL    HW219251   0.022   0.506   5.940
 6118SOL     OW19252   6.232   0.525   1.834
 6118SOL    HW119253   6.160   0.464   1.799
 6118SOL    HW219254   6.313   0.472   1.856
 6119SOL     OW19255   0.790   3.790   5.391
 6119SOL    HW119256   0.850   3.726   5.342
 6119SOL    HW219257   0.845   3.862   5.432
 6120SOL     OW19258   4.385   6.832   4.238
 6120SOL    HW119259   4.439   6.801   4.316
 6120SOL    HW219260   4.428   6.802   4.153
 6121SOL     OW19261   0.781   3.372   5.074
 6121SOL    HW119262   0.703   3.432   5.054
 6121SOL    HW219263   0.865   3.413   5.038
 6122SOL     OW19264   3.678   6.974   1.505
 6122SOL    HW119265   3.716   6.891   1.545
 6122SOL    HW219266   3.634   0.006   1.577
 6123SOL     OW19267   6.423   0.466   6.497
 6123SOL    HW119268   6.335   0.489   6.455
 6123SOL    HW219269   6.409   0.395   6.566
 6124SOL     OW19270   2.132   1.108   6.792
 6124SOL    HW119271   2.106   1.185   6.850
 6124SOL    HW219272   2.051   1.072   6.746
 6125SOL     OW19273   2.216   5.731   0.196
 6125SOL    HW119274   2.130   5.738   0.144
 6125SOL    HW219275   2.241   5.822   0.229
 6126SOL     OW19276   7.007   6.677   4.277
 6126SOL    HW119277   6.923   6.622   4.279
 6126SOL    HW219278   6.983   6.774   4.282
 6127SOL     OW19279   3.103   0.053   2.250
 6127SOL    HW119280   3.083   7.010   2.176
 6127SOL    HW219281   3.142   0.003   2.328
 6128SOL     OW19282   6.511   3.539   0.682
 6128SOL    HW119283   6.484   3.624   0.637
 6128SOL    HW219284   6.596   3.554   0.733
 6129SOL     OW19285   6.640   3.607   2.893
 6129SOL    HW119286   6.604   3.530   2.947
 6129SOL    HW219287   6.667   3.681   2.954
 6130SOL     OW19288   6.578   2.263   3.905
 6130SOL    HW119289   6.598   2.203   3.828
 6130SOL    HW219290   6.663   2.304   3.938
 6131SOL     OW19291   0.281   1.775   5.303
 6131SOL    HW119292   0.237   1.749   5.388
 6131SOL    HW219293   0.333   1.859   5.316
 6132SOL     OW19294   4.915   1.312   0.554
 6132SOL    HW119295   4.963   1.261   0.625
 6132SOL    HW219296   4.817   1.308   0.569
 6133SOL     OW19297   1.169   2.282   2.452
 6133SOL    HW119298   1.182   2.326   2.363
 6133SOL    HW219299   1.098   2.331   2.503
 6134SOL     OW19300   3.880   4.334   6.527
 6134SOL    HW119301   3.897   4.314   6.430
 6134SOL    HW219302   3.958   4.384   6.565
 6135SOL     OW19303   0.483   6.958   1.862
 6135SOL    HW119304   0.461   0.012   1.800
 6135SOL    HW219305   0.582   6.941   1.860
 6136SOL     OW19306   1.050   2.912   2.096
 6136SOL    HW119307   1.108   2.993   2.088
 6136SOL    HW219308   0.957   2.935   2.070
 6137SOL     OW19309   5.489   2.238   3.922
 6137SOL    HW119310   5.504   2.321   3.976
 6137SOL    HW219311   5.577   2.194   3.904
 6138SOL     OW19312   4.611   6.284   1.832
 6138SOL    HW119313   4.533   6.327   1.876
 6138SOL    HW219314   4.629   6.328   1.744
 6139SOL     OW19315   2.201   1.842   5.353
 6139SOL    HW119316   2.105   1.834   5.380
 6139SOL    HW219317   2.255   1.773   5.401
 6140SOL     OW19318   0.490   6.240   1.601
 6140SOL    HW119319   0.441   6.159   1.634
 6140SOL    HW219320   0.437   6.285   1.529
 6141SOL     OW19321   5.877   5.248   6.595
 6141SOL    HW119322   5.828   5.326   6.558
 6141SOL    HW219323   5.824   5.165   6.580
 6142SOL     OW19324   0.101   4.987   0.840
 6142SOL    HW119325   0.162   4.936   0.901
 6142SOL    HW219326   0.013   5.001   0.885
 6143SOL     OW19327   6.267   4.544   0.416
 6143SOL    HW119328   6.340   4.562   0.350
 6143SOL    HW219329   6.185   4.596   0.390
 6144SOL     OW19330   6.579   5.034   3.041
 6144SOL    HW119331   6.673   5.049   3.009
 6144SOL    HW219332   6.515   5.053   2.967
 6145SOL     OW19333   4.650   5.348   3.849
 6145SOL    HW119334   4.716   5.321   3.920
 6145SOL    HW219335   4.565   5.298   3.863
 6146SOL     OW19336   3.424   0.289   3.681
 6146SOL    HW119337   3.389   0.368   3.731
 6146SOL    HW219338   3.350   0.224   3.666
 6147SOL     OW19339   1.527   3.792   4.545
 6147SOL    HW119340   1.523   3.863   4.475
 6147SOL    HW219341   1.608   3.736   4.531
 6148SOL     OW19342   0.069   0.149   4.850
 6148SOL    HW119343   0.075   0.249   4.855
 6148SOL    HW219344   0.067   0.121   4.754
 6149SOL     OW19345   3.271   5.187   1.369
 6149SOL    HW119346   3.263   5.144   1.459
 6149SOL    HW219347   3.267   5.117   1.298
 6150SOL     OW19348   4.085   4.682   6.578
 6150SOL    HW119349   4.045   4.635   6.657
 6150SOL    HW219350   4.095   4.617   6.502
 6151SOL     OW19351   5.957   3.840   5.502
 6151SOL    HW119352   5.939   3.873   5.594
 6151SOL    HW219353   5.995   3.914   5.446
 6152SOL     OW19354   5.828   5.859   5.054
 6152SOL    HW119355   5.827   5.901   4.963
 6152SOL    HW219356   5.841   5.930   5.124
 6153SOL     OW19357   4.901   3.925   2.057
 6153SOL    HW119358   4.946   3.992   1.998
 6153SOL    HW219359   4.950   3.838   2.052
 6154SOL     OW19360   5.661   1.568   2.732
 6154SOL    HW119361   5.743   1.619   2.756
 6154SOL    HW219362   5.592   1.630   2.696
 6155SOL     OW19363   1.794   2.436   4.675
 6155SOL    HW119364   1.872   2.459   4.734
 6155SOL    HW219365   1.758   2.520   4.635
 6156SOL     OW19366   4.664   4.981   2.106
 6156SOL    HW119367   4.589   4.987   2.040
 6156SOL    HW219368   4.653   4.899   2.162
 6157SOL     OW19369   1.067   1.321   4.567
 6157SOL    HW119370   1.094   1.246   4.507
 6157SOL    HW219371   1.085   1.296   4.662
 6158SOL     OW19372   4.719   0.757   5.843
 6158SOL    HW119373   4.780   0.697   5.791
 6158SOL    HW219374   4.732   0.741   5.941
 6159SOL     OW19375   4.874   1.899   1.603
 6159SOL    HW119376   4.938   1.968   1.637
 6159SOL    HW219377   4.916   1.809   1.607
 6160SOL     OW19378   4.784   6.998   6.267
 6160SOL    HW119379   4.822   6.936   6.198
 6160SOL    HW219380   4.714   0.034   6.226
 6161SOL     OW19381   5.472   1.162   4.723
 6161SOL    HW119382   5.413   1.119   4.791
 6161SOL    HW219383   5.555   1.108   4.712
 6162SOL     OW19384   1.331   6.321   3.655
 6162SOL    HW119385   1.358   6.286   3.565
 6162SOL    HW219386   1.398   6.293   3.724
 6163SOL     OW19387   5.705   6.003   1.579
 6163SOL    HW119388   5.770   5.934   1.547
 6163SOL    HW219389   5.714   6.014   1.678
 6164SOL     OW19390   3.157   2.415   1.684
 6164SOL    HW119391   3.148   2.377   1.592
 6164SOL    HW219392   3.098   2.364   1.747
 6165SOL     OW19393   4.673   0.363   6.355
 6165SOL    HW119394   4.729   0.335   6.278
 6165SOL    HW219395   4.731   0.379   6.435
 6166SOL     OW19396   4.267   1.150   6.693
 6166SOL    HW119397   4.250   1.224   6.628
 6166SOL    HW219398   4.196   1.081   6.686
 6167SOL     OW19399   0.702   3.824   3.530
 6167SOL    HW119400   0.774   3.890   3.553
 6167SOL    HW219401   0.743   3.737   3.503
 6168SOL     OW19402   0.915   3.606   0.926
 6168SOL    HW119403   0.958   3.614   0.837
 6168SOL    HW219404   0.975   3.556   0.988
 6169SOL     OW19405   1.898   3.076   1.570
 6169SOL    HW119406   1.853   3.137   1.505
 6169SOL    HW219407   1.896   2.982   1.535
 6170SOL     OW19408   1.271   3.719   5.459
 6170SOL    HW119409   1.176   3.748   5.467
 6170SOL    HW219410   1.324   3.791   5.414
 6171SOL     OW19411   7.002   2.559   0.214
 6171SOL    HW119412   0.051   2.491   0.193
 6171SOL    HW219413   0.023   2.638   0.259
 6172SOL     OW19414   1.735   3.071   2.108
 6172SOL    HW119415   1.812   3.024   2.150
 6172SOL    HW219416   1.653   3.013   2.112
 6173SOL     OW19417   6.598   5.321   2.407
 6173SOL    HW119418   6.646   5.235   2.388
 6173SOL    HW219419   6.639   5.395   2.353
 6174SOL     OW19420   5.370   6.065   4.082
 6174SOL    HW119421   5.405   6.100   3.996
 6174SOL    HW219422   5.346   5.969   4.072
 6175SOL     OW19423   3.884   0.845   4.091
 6175SOL    HW119424   3.941   0.763   4.088
 6175SOL    HW219425   3.870   0.880   3.998
 6176SOL     OW19426   5.448   4.673   5.786
 6176SOL    HW119427   5.535   4.721   5.779
 6176SOL    HW219428   5.408   4.662   5.695
 6177SOL     OW19429   5.621   1.785   1.663
 6177SOL    HW119430   5.688   1.755   1.731
 6177SOL    HW219431   5.588   1.877   1.688
 6178SOL     OW19432   5.392   5.096   2.070
 6178SOL    HW119433   5.441   5.014   2.099
 6178SOL    HW219434   5.355   5.143   2.150
 6179SOL     OW19435   6.891   4.326   3.390
 6179SOL    HW119436   6.970   4.266   3.377
 6179SOL    HW219437   6.898   4.370   3.480
 6180SOL     OW19438   2.516   4.776   1.240
 6180SOL    HW119439   2.560   4.782   1.150
 6180SOL    HW219440   2.441   4.842   1.245
 6181SOL     OW19441   4.642   6.022   5.887
 6181SOL    HW119442   4.691   6.042   5.971
 6181SOL    HW219443   4.640   6.103   5.829
 6182SOL     OW19444   4.351   2.932   5.920
 6182SOL    HW119445   4.366   2.932   5.821
 6182SOL    HW219446   4.255   2.951   5.939
 6183SOL     OW19447   1.755   2.202   3.794
 6183SOL    HW119448   1.841   2.216   3.844
 6183SOL    HW219449   1.717   2.290   3.767
 6184SOL     OW19450   2.992   6.423   6.546
 6184SOL    HW119451   3.022   6.516   6.565
 6184SOL    HW219452   3.065   6.372   6.502
 6185SOL     OW19453   0.092   3.762   6.741
 6185SOL    HW119454   0.034   3.818   6.800
 6185SOL    HW219455   0.047   3.674   6.724
 6186SOL     OW19456   6.333   1.464   0.446
 6186SOL    HW119457   6.345   1.515   0.531
 6186SOL    HW219458   6.368   1.518   0.369
 6187SOL     OW19459   5.147   3.621   4.173
 6187SOL    HW119460   5.194   3.603   4.087
 6187SOL    HW219461   5.191   3.697   4.220
 6188SOL     OW19462   1.413   1.314   6.169
 6188SOL    HW119463   1.375   1.223   6.157
 6188SOL    HW219464   1.493   1.325   6.110
 6189SOL     OW19465   4.226   5.157   2.733
 6189SOL    HW119466   4.296   5.086   2.745
 6189SOL    HW219467   4.137   5.114   2.719
 6190SOL     OW19468   0.353   4.091   4.882
 6190SOL    HW119469   0.371   3.998   4.852
 6190SOL    HW219470   0.422   4.153   4.844
 6191SOL     OW19471   2.825   2.633   6.557
 6191SOL    HW119472   2.760   2.567   6.519
 6191SOL    HW219473   2.883   2.588   6.625
 6192SOL     OW19474   2.444   1.887   6.433
 6192SOL    HW119475   2.349   1.879   6.464
 6192SOL    HW219476   2.501   1.823   6.483
 6193SOL     OW19477   4.846   6.079   1.496
 6193SOL    HW119478   4.829   6.143   1.421
 6193SOL    HW219479   4.908   6.007   1.464
 6194SOL     OW19480   6.915   0.470   6.545
 6194SOL    HW119481   6.977   0.401   6.506
 6194SOL    HW219482   6.851   0.425   6.607
 6195SOL     OW19483   4.633   5.321   4.452
 6195SOL    HW119484   4.707   5.258   4.430
 6195SOL    HW219485   4.572   5.279   4.519
 6196SOL     OW19486   4.997   4.291   2.146
 6196SOL    HW119487   4.913   4.237   2.138
 6196SOL    HW219488   4.986   4.377   2.095
 6197SOL     OW19489   2.277   6.003   1.612
 6197SOL    HW119490   2.344   6.067   1.651
 6197SOL    HW219491   2.294   5.993   1.514
 6198SOL     OW19492   4.518   0.090   0.978
 6198SOL    HW119493   4.492   0.122   1.070
 6198SOL    HW219494   4.610   0.122   0.956
 6199SOL     OW19495   0.472   1.096   0.360
 6199SOL    HW119496   0.411   1.176   0.358
 6199SOL    HW219497   0.516   1.090   0.450
 6200SOL     OW19498   0.744   1.509   5.642
 6200SOL    HW119499   0.686   1.571   5.695
 6200SOL    HW219500   0.833   1.500   5.687
 6201SOL     OW19501   0.758   3.258   5.682
 6201SOL    HW119502   0.832   3.246   5.616
 6201SOL    HW219503   0.721   3.351   5.675
 6202SOL     OW19504   5.113   1.305   2.163
 6202SOL    HW119505   5.049   1.228   2.162
 6202SOL    HW219506   5.192   1.282   2.221
 6203SOL     OW19507   6.030   6.071   2.055
 6203SOL    HW119508   6.121   6.073   2.096
 6203SOL    HW219509   6.016   5.983   2.009
 6204SOL     OW19510   0.984   5.985   4.612
 6204SOL    HW119511   0.998   6.076   4.651
 6204SOL    HW219512   0.982   5.918   4.686
 6205SOL     OW19513   6.318   4.959   1.546
 6205SOL    HW119514   6.228   4.969   1.588
 6205SOL    HW219515   6.316   4.997   1.454
 6206SOL     OW19516   6.200   1.473   2.155
 6206SOL    HW119517   6.207   1.402   2.085
 6206SOL    HW219518   6.287   1.481   2.203
 6207SOL     OW19519   2.122   5.825   5.513
 6207SOL    HW119520   2.038   5.877   5.495
 6207SOL    HW219521   2.201   5.885   5.502
 6208SOL     OW19522   3.690   2.316   5.437
 6208SOL    HW119523   3.773   2.324   5.493
 6208SOL    HW219524   3.614   2.283   5.494
 6209SOL     OW19525   3.029   5.586   6.862
 6209SOL    HW119526   3.051   5.597   6.766
 6209SOL    HW219527   2.971   5.663   6.891
 6210SOL     OW19528   4.765   4.032   2.890
 6210SOL    HW119529   4.772   3.972   2.970
 6210SOL    HW219530   4.736   4.123   2.920
 6211SOL     OW19531   2.749   6.527   5.650
 6211SOL    HW119532   2.811   6.517   5.728
 6211SOL    HW219533   2.785   6.478   5.571
 6212SOL     OW19534   2.710   4.716   4.767
 6212SOL    HW119535   2.681   4.686   4.677
 6212SOL    HW219536   2.792   4.773   4.759
 6213SOL     OW19537   4.835   6.516   6.775
 6213SOL    HW119538   4.828   6.550   6.869
 6213SOL    HW219539   4.774   6.568   6.716
 6214SOL     OW19540   5.528   5.724   5.360
 6214SOL    HW119541   5.600   5.771   5.410
 6214SOL    HW219542   5.535   5.625   5.375
 6215SOL     OW19543   3.517   3.114   6.792
 6215SOL    HW119544   3.544   3.088   6.699
 6215SOL    HW219545   3.507   3.214   6.797
 6216SOL     OW19546   6.294   2.605   2.630
 6216SOL    HW119547   6.211   2.622   2.576
 6216SOL    HW219548   6.328   2.692   2.666
 6217SOL     OW19549   0.899   4.208   2.925
 6217SOL    HW119550   0.913   4.137   2.993
 6217SOL    HW219551   0.833   4.176   2.857
 6218SOL     OW19552   3.631   6.992   6.878
 6218SOL    HW119553   3.664   6.954   6.792
 6218SOL    HW219554   3.706   7.000   6.943
 6219SOL     OW19555   1.073   1.233   4.838
 6219SOL    HW119556   1.064   1.157   4.903
 6219SOL    HW219557   1.066   1.319   4.888
 6220SOL     OW19558   3.141   1.282   5.545
 6220SOL    HW119559   3.214   1.304   5.610
 6220SOL    HW219560   3.054   1.275   5.594
 6221SOL     OW19561   5.991   0.381   6.966
 6221SOL    HW119562   6.008   0.299   7.020
 6221SOL    HW219563   5.893   0.400   6.964
 6222SOL     OW19564   1.008   0.527   2.382
 6222SOL    HW119565   0.992   0.475   2.298
 6222SOL    HW219566   0.961   0.483   2.459
 6223SOL     OW19567   1.194   5.181   2.881
 6223SOL    HW119568   1.133   5.102   2.873
 6223SOL    HW219569   1.239   5.179   2.971
 6224SOL     OW19570   3.973   1.020   6.033
 6224SOL    HW119571   4.001   1.108   6.072
 6224SOL    HW219572   4.051   0.958   6.029
 6225SOL     OW19573   3.497   2.619   6.930
 6225SOL    HW119574   3.492   2.716   6.954
 6225SOL    HW219575   3.464   2.606   6.837
 6226SOL     OW19576   1.225   1.619   4.261
 6226SOL    HW119577   1.323   1.638   4.269
 6226SOL    HW219578   1.184   1.617   4.352
 6227SOL     OW19579   3.559   5.363   5.360
 6227SOL    HW119580   3.630   5.351   5.291
 6227SOL    HW219581   3.561   5.286   5.424
 6228SOL     OW19582   1.034   2.742   2.317
 6228SOL    HW119583   1.027   2.800   2.236
 6228SOL    HW219584   1.000   2.650   2.296
 6229SOL     OW19585   1.012   2.974   5.388
 6229SOL    HW119586   1.055   2.945   5.303
 6229SOL    HW219587   1.054   2.924   5.465
 6230SOL     OW19588   1.031   2.251   3.512
 6230SOL    HW119589   1.044   2.225   3.416
 6230SOL    HW219590   1.080   2.186   3.571
 6231SOL     OW19591   5.601   4.802   0.366
 6231SOL    HW119592   5.590   4.707   0.397
 6231SOL    HW219593   5.697   4.819   0.344
 6232SOL     OW19594   6.298   1.537   6.991
 6232SOL    HW119595   6.341   1.501   6.908
 6232SOL    HW219596   6.357   1.518   0.048
 6233SOL     OW19597   5.916   2.610   1.774
 6233SOL    HW119598   5.921   2.621   1.675
 6233SOL    HW219599   5.858   2.531   1.796
 6234SOL     OW19600   6.850   0.211   5.376
 6234SOL    HW119601   6.798   0.177   5.454
 6234SOL    HW219602   6.848   0.144   5.302
 6235SOL     OW19603   0.224   0.306   1.456
 6235SOL    HW119604   0.227   0.207   1.449
 6235SOL    HW219605   0.161   0.333   1.528
 6236SOL     OW19606   0.280   4.276   0.772
 6236SOL    HW119607   0.314   4.205   0.833
 6236SOL    HW219608   0.336   4.279   0.689
 6237SOL     OW19609   3.832   0.341   0.162
 6237SOL    HW119610   3.733   0.338   0.178
 6237SOL    HW219611   3.874   0.260   0.204
 6238SOL     OW19612   4.708   6.400   2.848
 6238SOL    HW119613   4.653   6.317   2.844
 6238SOL    HW219614   4.805   6.376   2.854
 6239SOL     OW19615   3.728   1.035   1.149
 6239SOL    HW119616   3.754   1.123   1.188
 6239SOL    HW219617   3.676   1.050   1.065
 6240SOL     OW19618   3.094   3.691   5.631
 6240SOL    HW119619   3.016   3.629   5.620
 6240SOL    HW219620   3.122   3.726   5.542
 6241SOL     OW19621   3.676   0.689   3.500
 6241SOL    HW119622   3.757   0.729   3.456
 6241SOL    HW219623   3.662   0.596   3.466
 6242SOL     OW19624   3.728   0.163   3.171
 6242SOL    HW119625   3.757   0.193   3.262
 6242SOL    HW219626   3.694   0.069   3.176
 6243SOL     OW19627   6.887   0.115   5.947
 6243SOL    HW119628   6.867   0.020   5.973
 6243SOL    HW219629   6.876   0.174   6.027
 6244SOL     OW19630   5.246   3.428   3.535
 6244SOL    HW119631   5.300   3.425   3.451
 6244SOL    HW219632   5.305   3.403   3.613
 6245SOL     OW19633   1.542   4.191   1.714
 6245SOL    HW119634   1.468   4.235   1.662
 6245SOL    HW219635   1.568   4.250   1.791
 6246SOL     OW19636   1.105   1.074   5.085
 6246SOL    HW119637   1.167   1.148   5.108
 6246SOL    HW219638   1.124   0.994   5.142
 6247SOL     OW19639   1.524   6.521   3.490
 6247SOL    HW119640   1.545   6.549   3.584
 6247SOL    HW219641   1.504   6.423   3.488
 6248SOL     OW19642   3.514   3.768   0.166
 6248SOL    HW119643   3.519   3.699   0.239
 6248SOL    HW219644   3.607   3.795   0.140
 6249SOL     OW19645   0.022   2.830   0.733
 6249SOL    HW119646   6.968   2.800   0.791
 6249SOL    HW219647   0.028   2.930   0.735
 6250SOL     OW19648   6.618   6.697   0.870
 6250SOL    HW119649   6.671   6.668   0.949
 6250SOL    HW219650   6.549   6.764   0.899
 6251SOL     OW19651   4.093   5.987   4.542
 6251SOL    HW119652   4.031   5.912   4.561
 6251SOL    HW219653   4.187   5.959   4.561
 6252SOL     OW19654   2.399   4.300   6.779
 6252SOL    HW119655   2.492   4.275   6.749
 6252SOL    HW219656   2.395   4.299   6.879
 6253SOL     OW19657   2.647   4.924   4.206
 6253SOL    HW119658   2.630   4.922   4.108
 6253SOL    HW219659   2.570   4.882   4.254
 6254SOL     OW19660   6.547   0.393   0.784
 6254SOL    HW119661   6.535   0.343   0.870
 6254SOL    HW219662   6.529   0.332   0.707
 6255SOL     OW19663   2.668   1.471   0.939
 6255SOL    HW119664   2.753   1.486   0.888
 6255SOL    HW219665   2.590   1.494   0.881
 6256SOL     OW19666   4.098   5.253   2.451
 6256SOL    HW119667   4.012   5.290   2.488
 6256SOL    HW219668   4.171   5.265   2.518
 6257SOL     OW19669   4.230   3.115   0.365
 6257SOL    HW119670   4.296   3.060   0.416
 6257SOL    HW219671   4.251   3.110   0.267
 6258SOL     OW19672   3.132   6.562   4.658
 6258SOL    HW119673   3.126   6.647   4.711
 6258SOL    HW219674   3.188   6.497   4.709
 6259SOL     OW19675   2.112   0.893   6.317
 6259SOL    HW119676   2.166   0.824   6.267
 6259SOL    HW219677   2.101   0.863   6.412
 6260SOL     OW19678   3.912   0.088   0.279
 6260SOL    HW119679   3.832   0.030   0.290
 6260SOL    HW219680   3.955   0.104   0.368
 6261SOL     OW19681   4.661   6.795   0.356
 6261SOL    HW119682   4.578   6.748   0.325
 6261SOL    HW219683   4.640   6.848   0.438
 6262SOL     OW19684   1.556   6.256   2.357
 6262SOL    HW119685   1.499   6.248   2.438
 6262SOL    HW219686   1.640   6.202   2.369
 6263SOL     OW19687   0.697   6.603   5.126
 6263SOL    HW119688   0.631   6.530   5.108
 6263SOL    HW219689   0.721   6.648   5.040
 6264SOL     OW19690   2.146   0.386   1.561
 6264SOL    HW119691   2.077   0.357   1.627
 6264SOL    HW219692   2.221   0.431   1.609
 6265SOL     OW19693   4.758   3.344   0.636
 6265SOL    HW119694   4.670   3.298   0.629
 6265SOL    HW219695   4.789   3.372   0.545
 6266SOL     OW19696   4.576   6.724   3.098
 6266SOL    HW119697   4.561   6.821   3.116
 6266SOL    HW219698   4.599   6.711   3.001
 6267SOL     OW19699   2.153   6.845   4.990
 6267SOL    HW119700   2.232   6.890   4.949
 6267SOL    HW219701   2.120   6.899   5.068
 6268SOL     OW19702   2.903   0.649   2.032
 6268SOL    HW119703   2.994   0.688   2.043
 6268SOL    HW219704   2.905   0.576   1.964
 6269SOL     OW19705   6.002   0.078   2.407
 6269SOL    HW119706   5.988   0.145   2.480
 6269SOL    HW219707   6.083   0.103   2.354
 6270SOL     OW19708   0.402   7.003   0.049
 6270SOL    HW119709   0.366   6.979   0.139
 6270SOL    HW219710   0.332   6.990   7.001
 6271SOL     OW19711   6.361   2.559   5.554
 6271SOL    HW119712   6.271   2.518   5.539
 6271SOL    HW219713   6.432   2.492   5.533
 6272SOL     OW19714   0.639   1.692   0.154
 6272SOL    HW119715   0.705   1.738   0.213
 6272SOL    HW219716   0.587   1.626   0.207
 6273SOL     OW19717   0.176   5.602   2.732
 6273SOL    HW119718   0.089   5.551   2.732
 6273SOL    HW219719   0.240   5.558   2.795
 6274SOL     OW19720   2.981   7.020   4.524
 6274SOL    HW119721   2.960   0.096   4.525
 6274SOL    HW219722   2.946   6.979   4.439
 6275SOL     OW19723   1.764   6.039   0.342
 6275SOL    HW119724   1.669   6.023   0.317
 6275SOL    HW219725   1.809   5.952   0.362
 6276SOL     OW19726   3.030   5.353   3.501
 6276SOL    HW119727   3.014   5.338   3.403
 6276SOL    HW219728   3.106   5.295   3.532
 6277SOL     OW19729   4.852   2.249   0.946
 6277SOL    HW119730   4.788   2.212   1.013
 6277SOL    HW219731   4.802   2.296   0.874
 6278SOL     OW19732   3.511   0.506   4.925
 6278SOL    HW119733   3.573   0.566   4.976
 6278SOL    HW219734   3.561   0.464   4.849
 6279SOL     OW19735   3.998   6.199   0.626
 6279SOL    HW119736   4.014   6.292   0.594
 6279SOL    HW219737   4.011   6.135   0.551
 6280SOL     OW19738   0.381   1.588   6.551
 6280SOL    HW119739   0.340   1.498   6.568
 6280SOL    HW219740   0.321   1.642   6.492
 6281SOL     OW19741   6.790   4.808   4.171
 6281SOL    HW119742   6.823   4.768   4.256
 6281SOL    HW219743   6.781   4.736   4.102
 6282SOL     OW19744   5.813   3.211   4.638
 6282SOL    HW119745   5.912   3.198   4.634
 6282SOL    HW219746   5.790   3.302   4.602
 6283SOL     OW19747   0.900   4.204   4.284
 6283SOL    HW119748   0.882   4.185   4.187
 6283SOL    HW219749   0.813   4.213   4.332
 6284SOL     OW19750   1.355   5.595   6.584
 6284SOL    HW119751   1.395   5.586   6.493
 6284SOL    HW219752   1.425   5.622   6.650
 6285SOL     OW19753   1.158   3.221   3.072
 6285SOL    HW119754   1.140   3.155   3.144
 6285SOL    HW219755   1.231   3.187   3.012
 6286SOL     OW19756   0.644   3.509   4.579
 6286SOL    HW119757   0.661   3.447   4.503
 6286SOL    HW219758   0.722   3.571   4.588
 6287SOL     OW19759   3.368   5.070   5.192
 6287SOL    HW119760   3.315   5.120   5.260
 6287SOL    HW219761   3.312   4.998   5.151
 6288SOL     OW19762   5.405   4.877   1.388
 6288SOL    HW119763   5.337   4.889   1.315
 6288SOL    HW219764   5.419   4.964   1.435
 6289SOL     OW19765   2.283   4.666   6.663
 6289SOL    HW119766   2.247   4.736   6.601
 6289SOL    HW219767   2.294   4.704   6.754
 6290SOL     OW19768   6.155   5.519   6.172
 6290SOL    HW119769   6.076   5.526   6.112
 6290SOL    HW219770   6.234   5.485   6.121
 6291SOL     OW19771   3.372   3.761   3.351
 6291SOL    HW119772   3.396   3.760   3.449
 6291SOL    HW219773   3.411   3.681   3.306
 6292SOL     OW19774   2.776   2.132   5.533
 6292SOL    HW119775   2.742   2.199   5.466
 6292SOL    HW219776   2.722   2.048   5.526
 6293SOL     OW19777   4.642   2.010   0.839
 6293SOL    HW119778   4.726   1.957   0.843
 6293SOL    HW219779   4.594   1.989   0.754
 6294SOL     OW19780   4.245   0.092   3.495
 6294SOL    HW119781   4.235   0.145   3.411
 6294SOL    HW219782   4.254   0.154   3.573
 6295SOL     OW19783   5.475   4.900   4.783
 6295SOL    HW119784   5.516   4.836   4.848
 6295SOL    HW219785   5.532   4.982   4.777
 6296SOL     OW19786   0.298   4.372   5.325
 6296SOL    HW119787   0.212   4.354   5.372
 6296SOL    HW219788   0.372   4.379   5.393
 6297SOL     OW19789   6.241   0.448   5.167
 6297SOL    HW119790   6.153   0.401   5.163
 6297SOL    HW219791   6.269   0.456   5.262
 6298SOL     OW19792   0.244   3.689   6.268
 6298SOL    HW119793   0.271   3.597   6.295
 6298SOL    HW219794   0.275   3.707   6.174
 6299SOL     OW19795   5.505   2.646   1.683
 6299SOL    HW119796   5.573   2.574   1.673
 6299SOL    HW219797   5.526   2.721   1.620
 6300SOL     OW19798   6.001   0.815   6.925
 6300SOL    HW119799   6.008   0.809   6.826
 6300SOL    HW219800   6.091   0.837   6.964
 6301SOL     OW19801   3.036   5.943   6.753
 6301SOL    HW119802   3.049   6.042   6.750
 6301SOL    HW219803   3.058   5.909   6.844
 6302SOL     OW19804   2.140   1.743   5.107
 6302SOL    HW119805   2.175   1.771   5.196
 6302SOL    HW219806   2.195   1.785   5.035
 6303SOL     OW19807   0.325   6.425   6.107
 6303SOL    HW119808   0.241   6.375   6.086
 6303SOL    HW219809   0.308   6.487   6.184
 6304SOL     OW19810   3.367   1.489   3.265
 6304SOL    HW119811   3.351   1.461   3.360
 6304SOL    HW219812   3.340   1.584   3.253
 6305SOL     OW19813   5.695   6.156   0.738
 6305SOL    HW119814   5.719   6.253   0.740
 6305SOL    HW219815   5.733   6.114   0.656
 6306SOL     OW19816   0.444   3.812   4.112
 6306SOL    HW119817   0.427   3.720   4.147
 6306SOL    HW219818   0.452   3.808   4.012
 6307SOL     OW19819   3.246   3.014   4.104
 6307SOL    HW119820   3.259   3.085   4.173
 6307SOL    HW219821   3.312   2.941   4.120
 6308SOL     OW19822   1.179   2.148   5.711
 6308SOL    HW119823   1.176   2.055   5.673
 6308SOL    HW219824   1.273   2.173   5.730
 6309SOL     OW19825   0.368   6.951   4.322
 6309SOL    HW119826   0.307   7.020   4.362
 6309SOL    HW219827   0.449   6.996   4.284
 6310SOL     OW19828   2.206   6.619   2.376
 6310SOL    HW119829   2.120   6.668   2.359
 6310SOL    HW219830   2.219   6.608   2.475
 6311SOL     OW19831   4.979   1.911   5.936
 6311SOL    HW119832   4.894   1.923   5.988
 6311SOL    HW219833   4.977   1.822   5.889
 6312SOL     OW19834   0.652   6.535   5.898
 6312SOL    HW119835   0.631   6.441   5.926
 6312SOL    HW219836   0.568   6.579   5.865
 6313SOL     OW19837   6.165   6.829   2.747
 6313SOL    HW119838   6.129   6.876   2.666
 6313SOL    HW219839   6.094   6.823   2.816
 6314SOL     OW19840   3.289   6.694   2.399
 6314SOL    HW119841   3.336   6.778   2.373
 6314SOL    HW219842   3.203   6.717   2.445
 6315SOL     OW19843   3.173   1.891   4.817
 6315SOL    HW119844   3.160   1.814   4.755
 6315SOL    HW219845   3.138   1.867   4.908
 6316SOL     OW19846   4.466   1.955   5.385
 6316SOL    HW119847   4.429   1.937   5.477
 6316SOL    HW219848   4.558   1.993   5.393
 6317SOL     OW19849   4.844   3.898   2.332
 6317SOL    HW119850   4.858   3.981   2.386
 6317SOL    HW219851   4.874   3.913   2.238
 6318SOL     OW19852   4.587   0.105   6.151
 6318SOL    HW119853   4.488   0.119   6.162
 6318SOL    HW219854   4.623   0.172   6.086
 6319SOL     OW19855   6.743   2.159   5.194
 6319SOL    HW119856   6.650   2.192   5.205
 6319SOL    HW219857   6.792   2.217   5.129
 6320SOL     OW19858   0.007   6.494   5.104
 6320SOL    HW119859   7.012   6.584   5.145
 6320SOL    HW219860   6.970   6.426   5.149
 6321SOL     OW19861   5.143   3.006   0.300
 6321SOL    HW119862   5.229   3.034   0.343
 6321SOL    HW219863   5.147   3.026   0.202
 6322SOL     OW19864   2.755   2.782   0.551
 6322SOL    HW119865   2.822   2.776   0.625
 6322SOL    HW219866   2.691   2.856   0.570
 6323SOL     OW19867   1.384   2.031   1.563
 6323SOL    HW119868   1.433   1.963   1.509
 6323SOL    HW219869   1.327   2.087   1.504
 6324SOL     OW19870   4.355   1.424   0.287
 6324SOL    HW119871   4.437   1.449   0.339
 6324SOL    HW219872   4.351   1.325   0.276
 6325SOL     OW19873   1.856   3.362   2.833
 6325SOL    HW119874   1.952   3.365   2.860
 6325SOL    HW219875   1.808   3.441   2.871
 6326SOL     OW19876   5.876   4.939   6.870
 6326SOL    HW119877   5.925   5.025   6.860
 6326SOL    HW219878   5.941   4.863   6.872
 6327SOL     OW19879   0.167   1.962   3.700
 6327SOL    HW119880   0.266   1.973   3.708
 6327SOL    HW219881   0.132   1.912   3.779
 6328SOL     OW19882   4.515   3.555   6.669
 6328SOL    HW119883   4.529   3.491   6.593
 6328SOL    HW219884   4.456   3.630   6.638
 6329SOL     OW19885   1.600   2.918   5.251
 6329SOL    HW119886   1.685   2.925   5.304
 6329SOL    HW219887   1.523   2.947   5.308
 6330SOL     OW19888   6.023   6.866   1.679
 6330SOL    HW119889   6.015   6.894   1.775
 6330SOL    HW219890   5.987   6.938   1.620
 6331SOL     OW19891   6.808   3.702   5.007
 6331SOL    HW119892   6.803   3.665   4.914
 6331SOL    HW219893   6.716   3.707   5.045
 6332SOL     OW19894   1.061   2.897   1.060
 6332SOL    HW119895   1.045   2.800   1.077
 6332SOL    HW219896   1.133   2.930   1.121
 6333SOL     OW19897   4.461   0.180   5.352
 6333SOL    HW119898   4.488   0.096   5.399
 6333SOL    HW219899   4.541   0.219   5.306
 6334SOL     OW19900   3.057   1.545   2.296
 6334SOL    HW119901   3.127   1.477   2.319
 6334SOL    HW219902   3.091   1.604   2.222
 6335SOL     OW19903   4.265   0.640   0.292
 6335SOL    HW119904   4.246   0.574   0.219
 6335SOL    HW219905   4.299   0.725   0.253
 6336SOL     OW19906   0.428   2.768   6.550
 6336SOL    HW119907   0.440   2.856   6.505
 6336SOL    HW219908   0.347   2.771   6.609
 6337SOL     OW19909   4.114   5.281   4.731
 6337SOL    HW119910   4.187   5.317   4.789
 6337SOL    HW219911   4.037   5.254   4.789
 6338SOL     OW19912   2.736   2.383   4.490
 6338SOL    HW119913   2.677   2.442   4.545
 6338SOL    HW219914   2.813   2.351   4.546
 6339SOL     OW19915   0.855   3.305   4.141
 6339SOL    HW119916   0.947   3.345   4.134
 6339SOL    HW219917   0.860   3.207   4.122
 6340SOL     OW19918   2.337   4.143   1.448
 6340SOL    HW119919   2.320   4.146   1.350
 6340SOL    HW219920   2.336   4.048   1.480
 6341SOL     OW19921   6.831   3.769   4.490
 6341SOL    HW119922   6.780   3.848   4.457
 6341SOL    HW219923   6.928   3.793   4.498
 6342SOL     OW19924   3.301   1.154   0.646
 6342SOL    HW119925   3.389   1.123   0.611
 6342SOL    HW219926   3.280   1.244   0.608
 6343SOL     OW19927   3.935   0.507   6.995
 6343SOL    HW119928   4.030   0.486   6.975
 6343SOL    HW219929   3.902   0.446   0.046
 6344SOL     OW19930   5.569   1.914   4.542
 6344SOL    HW119931   5.556   1.955   4.632
 6344SOL    HW219932   5.573   1.987   4.473
 6345SOL     OW19933   4.801   3.037   1.533
 6345SOL    HW119934   4.759   2.947   1.530
 6345SOL    HW219935   4.818   3.069   1.439
 6346SOL     OW19936   0.098   5.336   4.786
 6346SOL    HW119937   0.102   5.422   4.836
 6346SOL    HW219938   0.085   5.261   4.851
 6347SOL     OW19939   1.880   1.331   1.401
 6347SOL    HW119940   1.878   1.428   1.375
 6347SOL    HW219941   1.833   1.319   1.488
 6348SOL     OW19942   1.099   3.009   6.026
 6348SOL    HW119943   1.066   3.084   6.084
 6348SOL    HW219944   1.070   3.025   5.932
 6349SOL     OW19945   1.908   0.819   0.837
 6349SOL    HW119946   1.866   0.867   0.760
 6349SOL    HW219947   2.005   0.841   0.842
 6350SOL     OW19948   0.644   4.938   4.137
 6350SOL    HW119949   0.617   4.953   4.232
 6350SOL    HW219950   0.727   4.990   4.117
 6351SOL     OW19951   6.343   3.796   3.268
 6351SOL    HW119952   6.407   3.865   3.300
 6351SOL    HW219953   6.394   3.718   3.232
 6352SOL     OW19954   2.316   0.389   4.887
 6352SOL    HW119955   2.277   0.444   4.813
 6352SOL    HW219956   2.361   0.449   4.952
 6353SOL     OW19957   1.708   6.088   6.747
 6353SOL    HW119958   1.800   6.076   6.710
 6353SOL    HW219959   1.642   6.039   6.690
 6354SOL     OW19960   3.539   6.060   2.886
 6354SOL    HW119961   3.448   6.103   2.889
 6354SOL    HW219962   3.568   6.050   2.791
 6355SOL     OW19963   2.831   5.527   0.117
 6355SOL    HW119964   2.797   5.505   0.025
 6355SOL    HW219965   2.916   5.477   0.134
 6356SOL     OW19966   5.602   4.587   0.553
 6356SOL    HW119967   5.568   4.506   0.601
 6356SOL    HW219968   5.696   4.606   0.581
 6357SOL     OW19969   6.354   3.015   2.231
 6357SOL    HW119970   6.411   2.961   2.170
 6357SOL    HW219971   6.289   3.069   2.178
 6358SOL     OW19972   0.266   2.027   6.385
 6358SOL    HW119973   0.200   1.955   6.406
 6358SOL    HW219974   0.355   2.002   6.423
 6359SOL     OW19975   6.219   6.407   0.704
 6359SOL    HW119976   6.274   6.489   0.717
 6359SOL    HW219977   6.122   6.430   0.712
 6360SOL     OW19978   1.088   3.497   4.426
 6360SOL    HW119979   1.084   3.496   4.326
 6360SOL    HW219980   1.142   3.576   4.457
 6361SOL     OW19981   1.068   0.806   1.113
 6361SOL    HW119982   1.113   0.803   1.203
 6361SOL    HW219983   1.093   0.891   1.067
 6362SOL     OW19984   1.227   5.832   6.329
 6362SOL    HW119985   1.220   5.821   6.428
 6362SOL    HW219986   1.305   5.781   6.294
 6363SOL     OW19987   3.001   5.523   4.223
 6363SOL    HW119988   2.950   5.503   4.307
 6363SOL    HW219989   3.026   5.620   4.222
 6364SOL     OW19990   2.991   2.702   5.800
 6364SOL    HW119991   2.976   2.738   5.892
 6364SOL    HW219992   3.004   2.778   5.737
 6365SOL     OW19993   5.451   6.499   4.053
 6365SOL    HW119994   5.454   6.567   3.979
 6365SOL    HW219995   5.514   6.424   4.031
 6366SOL     OW19996   0.623   5.816   5.456
 6366SOL    HW119997   0.527   5.795   5.470
 6366SOL    HW219998   0.653   5.886   5.520
 6367SOL     OW19999   3.221   2.079   3.002
 6367SOL    HW120000   3.217   2.068   2.902
 6367SOL    HW220001   3.129   2.095   3.037
 6368SOL     OW20002   4.119   4.882   4.515
 6368SOL    HW120003   4.127   4.816   4.590
 6368SOL    HW220004   4.022   4.897   4.494
 6369SOL     OW20005   1.671   0.544   4.304
 6369SOL    HW120006   1.684   0.634   4.263
 6369SOL    HW220007   1.609   0.551   4.382
 6370SOL     OW20008   4.945   4.321   3.309
 6370SOL    HW120009   4.885   4.242   3.300
 6370SOL    HW220010   5.033   4.302   3.265
 6371SOL     OW20011   5.542   4.165   2.522
 6371SOL    HW120012   5.521   4.135   2.615
 6371SOL    HW220013   5.471   4.226   2.489
 6372SOL     OW20014   1.110   1.320   2.529
 6372SOL    HW120015   1.147   1.231   2.501
 6372SOL    HW220016   1.061   1.309   2.616
 6373SOL     OW20017   5.738   4.405   2.955
 6373SOL    HW120018   5.657   4.372   2.906
 6373SOL    HW220019   5.793   4.327   2.985
 6374SOL     OW20020   4.872   3.370   1.079
 6374SOL    HW120021   4.863   3.469   1.073
 6374SOL    HW220022   4.786   3.327   1.050
 6375SOL     OW20023   0.403   2.500   2.308
 6375SOL    HW120024   0.465   2.425   2.329
 6375SOL    HW220025   0.453   2.587   2.308
 6376SOL     OW20026   3.852   1.980   6.188
 6376SOL    HW120027   3.796   2.063   6.193
 6376SOL    HW220028   3.806   1.906   6.238
 6377SOL     OW20029   0.144   1.644   5.489
 6377SOL    HW120030   0.164   1.684   5.579
 6377SOL    HW220031   0.176   1.550   5.487
 6378SOL     OW20032   5.740   4.987   3.441
 6378SOL    HW120033   5.747   4.890   3.420
 6378SOL    HW220034   5.732   4.999   3.540
 6379SOL     OW20035   0.340   5.013   5.721
 6379SOL    HW120036   0.382   5.065   5.646
 6379SOL    HW220037   0.402   5.014   5.800
 6380SOL     OW20038   0.120   2.249   4.519
 6380SOL    HW120039   0.063   2.331   4.528
 6380SOL    HW220040   0.164   2.228   4.606
 6381SOL     OW20041   4.086   3.071   0.718
 6381SOL    HW120042   4.077   3.046   0.621
 6381SOL    HW220043   4.085   2.988   0.774
 6382SOL     OW20044   3.354   2.174   0.751
 6382SOL    HW120045   3.263   2.138   0.774
 6382SOL    HW220046   3.421   2.100   0.757
 6383SOL     OW20047   1.987   2.982   2.241
 6383SOL    HW120048   2.021   2.923   2.314
 6383SOL    HW220049   2.056   2.987   2.168
 6384SOL     OW20050   6.101   3.009   2.627
 6384SOL    HW120051   6.025   2.971   2.680
 6384SOL    HW220052   6.188   2.975   2.663
 6385SOL     OW20053   6.319   4.118   2.794
 6385SOL    HW120054   6.293   4.189   2.729
 6385SOL    HW220055   6.292   4.146   2.887
 6386SOL     OW20056   2.211   3.431   6.806
 6386SOL    HW120057   2.220   3.362   6.734
 6386SOL    HW220058   2.114   3.450   6.823
 6387SOL     OW20059   6.079   1.705   0.017
 6387SOL    HW120060   6.159   1.646   0.023
 6387SOL    HW220061   6.107   1.797   7.010
 6388SOL     OW20062   5.609   5.731   1.690
 6388SOL    HW120063   5.644   5.727   1.783
 6388SOL    HW220064   5.513   5.757   1.690
 6389SOL     OW20065   1.199   0.209   0.732
 6389SOL    HW120066   1.104   0.192   0.760
 6389SOL    HW220067   1.211   0.179   0.637
 6390SOL     OW20068   6.349   0.065   5.800
 6390SOL    HW120069   6.323   0.161   5.794
 6390SOL    HW220070   6.394   0.037   5.715
 6391SOL     OW20071   1.640   0.846   5.992
 6391SOL    HW120072   1.735   0.867   6.016
 6391SOL    HW220073   1.585   0.839   6.075
 6392SOL     OW20074   2.965   5.845   3.207
 6392SOL    HW120075   2.898   5.817   3.276
 6392SOL    HW220076   2.923   5.913   3.147
 6393SOL     OW20077   6.047   5.544   1.757
 6393SOL    HW120078   6.116   5.584   1.817
 6393SOL    HW220079   6.021   5.454   1.792
 6394SOL     OW20080   2.006   5.889   0.715
 6394SOL    HW120081   2.008   5.935   0.803
 6394SOL    HW220082   1.916   5.846   0.701
 6395SOL     OW20083   6.812   3.496   1.973
 6395SOL    HW120084   6.814   3.396   1.974
 6395SOL    HW220085   6.877   3.530   1.905
 6396SOL     OW20086   6.641   3.642   6.126
 6396SOL    HW120087   6.718   3.612   6.183
 6396SOL    HW220088   6.637   3.588   6.043
 6397SOL     OW20089   6.196   1.208   2.020
 6397SOL    HW120090   6.263   1.164   1.959
 6397SOL    HW220091   6.231   1.206   2.114
 6398SOL     OW20092   1.939   6.843   1.787
 6398SOL    HW120093   1.990   6.813   1.706
 6398SOL    HW220094   1.852   6.795   1.791
 6399SOL     OW20095   1.272   0.356   6.514
 6399SOL    HW120096   1.272   0.328   6.419
 6399SOL    HW220097   1.351   0.317   6.561
 6400SOL     OW20098   1.833   4.863   2.363
 6400SOL    HW120099   1.881   4.921   2.429
 6400SOL    HW220100   1.742   4.900   2.344
 6401SOL     OW20101   5.810   5.102   2.953
 6401SOL    HW120102   5.797   5.006   2.977
 6401SOL    HW220103   5.890   5.138   3.002
 6402SOL     OW20104   2.193   2.915   4.043
 6402SOL    HW120105   2.254   2.861   3.985
 6402SOL    HW220106   2.158   2.858   4.117
 6403SOL     OW20107   6.008   5.774   5.598
 6403SOL    HW120108   6.090   5.819   5.564
 6403SOL    HW220109   6.031   5.720   5.679
 6404SOL     OW20110   4.542   1.125   2.539
 6404SOL    HW120111   4.465   1.186   2.524
 6404SOL    HW220112   4.627   1.172   2.514
 6405SOL     OW20113   4.328   0.877   4.765
 6405SOL    HW120114   4.296   0.967   4.795
 6405SOL    HW220115   4.376   0.886   4.678
 6406SOL     OW20116   1.263   2.697   2.106
 6406SOL    HW120117   1.302   2.753   2.179
 6406SOL    HW220118   1.188   2.747   2.062
 6407SOL     OW20119   2.234   6.994   4.611
 6407SOL    HW120120   2.308   6.979   4.545
 6407SOL    HW220121   2.151   6.950   4.577
 6408SOL     OW20122   5.612   1.350   1.100
 6408SOL    HW120123   5.646   1.330   1.192
 6408SOL    HW220124   5.656   1.289   1.034
 6409SOL     OW20125   0.012   5.019   2.786
 6409SOL    HW120126   0.093   5.017   2.728
 6409SOL    HW220127   6.988   4.930   2.783
 6410SOL     OW20128   1.863   1.096   5.871
 6410SOL    HW120129   1.922   1.028   5.915
 6410SOL    HW220130   1.784   1.114   5.929
 6411SOL     OW20131   1.271   2.684   2.448
 6411SOL    HW120132   1.184   2.702   2.402
 6411SOL    HW220133   1.322   2.770   2.458
 6412SOL     OW20134   2.113   0.630   6.183
 6412SOL    HW120135   2.157   0.647   6.094
 6412SOL    HW220136   2.106   0.531   6.198
 6413SOL     OW20137   3.619   4.884   4.144
 6413SOL    HW120138   3.651   4.872   4.050
 6413SOL    HW220139   3.520   4.896   4.145
 6414SOL     OW20140   5.997   0.288   6.642
 6414SOL    HW120141   5.923   0.223   6.625
 6414SOL    HW220142   6.084   0.247   6.616
 6415SOL     OW20143   1.341   3.515   3.877
 6415SOL    HW120144   1.281   3.573   3.823
 6415SOL    HW220145   1.360   3.558   3.966
 6416SOL     OW20146   2.375   6.420   5.996
 6416SOL    HW120147   2.475   6.411   6.005
 6416SOL    HW220148   2.352   6.440   5.901
 6417SOL     OW20149   5.536   3.241   0.560
 6417SOL    HW120150   5.607   3.177   0.530
 6417SOL    HW220151   5.503   3.213   0.650
 6418SOL     OW20152   5.020   4.360   2.900
 6418SOL    HW120153   5.059   4.269   2.915
 6418SOL    HW220154   5.087   4.430   2.922
 6419SOL     OW20155   1.440   5.788   3.222
 6419SOL    HW120156   1.361   5.748   3.268
 6419SOL    HW220157   1.410   5.862   3.162
 6420SOL     OW20158   2.343   1.375   4.047
 6420SOL    HW120159   2.247   1.360   4.027
 6420SOL    HW220160   2.399   1.323   3.982
 6421SOL     OW20161   4.161   0.465   0.810
 6421SOL    HW120162   4.109   0.501   0.887
 6421SOL    HW220163   4.227   0.398   0.842
 6422SOL     OW20164   6.508   1.784   4.889
 6422SOL    HW120165   6.556   1.710   4.842
 6422SOL    HW220166   6.437   1.822   4.829
 6423SOL     OW20167   5.026   5.448   4.840
 6423SOL    HW120168   5.030   5.383   4.764
 6423SOL    HW220169   5.046   5.540   4.805
 6424SOL     OW20170   1.259   4.209   4.891
 6424SOL    HW120171   1.299   4.121   4.916
 6424SOL    HW220172   1.329   4.267   4.850
 6425SOL     OW20173   6.796   5.603   3.328
 6425SOL    HW120174   6.804   5.558   3.239
 6425SOL    HW220175   6.825   5.698   3.320
 6426SOL     OW20176   6.174   5.439   3.638
 6426SOL    HW120177   6.117   5.363   3.606
 6426SOL    HW220178   6.196   5.499   3.561
 6427SOL     OW20179   3.122   3.921   3.353
 6427SOL    HW120180   3.152   3.913   3.448
 6427SOL    HW220181   3.045   3.859   3.337
 6428SOL     OW20182   5.878   3.179   0.285
 6428SOL    HW120183   5.867   3.278   0.292
 6428SOL    HW220184   5.887   3.153   0.189
 6429SOL     OW20185   0.465   1.250   5.902
 6429SOL    HW120186   0.408   1.210   5.974
 6429SOL    HW220187   0.413   1.253   5.817
 6430SOL     OW20188   6.700   1.239   4.253
 6430SOL    HW120189   6.733   1.146   4.238
 6430SOL    HW220190   6.762   1.304   4.209
 6431SOL     OW20191   4.522   6.040   3.190
 6431SOL    HW120192   4.454   6.067   3.123
 6431SOL    HW220193   4.521   5.940   3.200
 6432SOL     OW20194   4.109   4.517   5.791
 6432SOL    HW120195   4.200   4.545   5.823
 6432SOL    HW220196   4.105   4.417   5.786
 6433SOL     OW20197   3.226   4.765   0.268
 6433SOL    HW120198   3.302   4.789   0.208
 6433SOL    HW220199   3.166   4.700   0.222
 6434SOL     OW20200   2.754   0.436   6.400
 6434SOL    HW120201   2.714   0.419   6.310
 6434SOL    HW220202   2.806   0.356   6.430
 6435SOL     OW20203   5.963   6.909   0.696
 6435SOL    HW120204   5.940   6.903   0.598
 6435SOL    HW220205   5.884   6.883   0.750
 6436SOL     OW20206   1.530   3.758   3.239
 6436SOL    HW120207   1.608   3.733   3.181
 6436SOL    HW220208   1.527   3.858   3.250
 6437SOL     OW20209   1.748   2.733   0.304
 6437SOL    HW120210   1.654   2.761   0.286
 6437SOL    HW220211   1.750   2.672   0.383
 6438SOL     OW20212   0.304   4.942   6.168
 6438SOL    HW120213   0.250   4.952   6.084
 6438SOL    HW220214   0.349   5.028   6.190
 6439SOL     OW20215   5.248   0.847   2.302
 6439SOL    HW120216   5.328   0.788   2.292
 6439SOL    HW220217   5.175   0.797   2.348
 6440SOL     OW20218   3.104   1.087   5.836
 6440SOL    HW120219   3.010   1.117   5.852
 6440SOL    HW220220   3.105   0.988   5.819
 6441SOL     OW20221   0.909   0.677   1.815
 6441SOL    HW120222   0.812   0.661   1.832
 6441SOL    HW220223   0.947   0.599   1.765
 6442SOL     OW20224   3.012   1.640   4.426
 6442SOL    HW120225   3.048   1.551   4.397
 6442SOL    HW220226   2.970   1.630   4.516
 6443SOL     OW20227   3.217   3.075   5.793
 6443SOL    HW120228   3.260   3.015   5.861
 6443SOL    HW220229   3.145   3.025   5.746
 6444SOL     OW20230   6.025   2.217   4.452
 6444SOL    HW120231   6.063   2.300   4.410
 6444SOL    HW220232   5.960   2.243   4.523
 6445SOL     OW20233   3.847   3.317   3.326
 6445SOL    HW120234   3.752   3.290   3.340
 6445SOL    HW220235   3.898   3.308   3.411
 6446SOL     OW20236   0.405   1.832   0.450
 6446SOL    HW120237   0.340   1.839   0.527
 6446SOL    HW220238   0.354   1.833   0.364
 6447SOL     OW20239   6.720   4.197   2.274
 6447SOL    HW120240   6.641   4.197   2.336
 6447SOL    HW220241   6.709   4.269   2.205
 6448SOL     OW20242   5.482   4.764   1.617
 6448SOL    HW120243   5.451   4.809   1.532
 6448SOL    HW220244   5.408   4.709   1.654
 6449SOL     OW20245   3.167   5.517   1.788
 6449SOL    HW120246   3.070   5.539   1.801
 6449SOL    HW220247   3.177   5.460   1.706
 6450SOL     OW20248   0.977   3.901   0.402
 6450SOL    HW120249   0.878   3.893   0.391
 6450SOL    HW220250   1.005   3.995   0.381
 6451SOL     OW20251   2.333   1.034   5.464
 6451SOL    HW120252   2.287   0.950   5.493
 6451SOL    HW220253   2.307   1.109   5.525
 6452SOL     OW20254   4.749   4.219   2.397
 6452SOL    HW120255   4.742   4.180   2.305
 6452SOL    HW220256   4.845   4.229   2.423
 6453SOL     OW20257   2.824   0.623   1.479
 6453SOL    HW120258   2.922   0.606   1.485
 6453SOL    HW220259   2.807   0.716   1.447
 6454SOL     OW20260   0.774   1.101   2.752
 6454SOL    HW120261   0.714   1.021   2.751
 6454SOL    HW220262   0.719   1.184   2.740
 6455SOL     OW20263   6.925   3.122   3.701
 6455SOL    HW120264   6.959   3.106   3.793
 6455SOL    HW220265   6.893   3.216   3.692
 6456SOL     OW20266   1.554   0.656   3.289
 6456SOL    HW120267   1.482   0.590   3.311
 6456SOL    HW220268   1.637   0.608   3.263
 6457SOL     OW20269   5.366   0.398   1.575
 6457SOL    HW120270   5.343   0.416   1.479
 6457SOL    HW220271   5.284   0.365   1.623
 6458SOL     OW20272   1.487   5.232   4.448
 6458SOL    HW120273   1.406   5.254   4.502
 6458SOL    HW220274   1.567   5.280   4.486
 6459SOL     OW20275   6.383   2.809   2.408
 6459SOL    HW120276   6.370   2.895   2.358
 6459SOL    HW220277   6.296   2.760   2.414
 6460SOL     OW20278   6.093   5.708   5.862
 6460SOL    HW120279   6.186   5.743   5.873
 6460SOL    HW220280   6.087   5.617   5.903
 6461SOL     OW20281   2.979   4.279   6.804
 6461SOL    HW120282   3.072   4.258   6.772
 6461SOL    HW220283   2.953   4.214   6.875
 6462SOL     OW20284   1.324   3.167   4.566
 6462SOL    HW120285   1.236   3.164   4.519
 6462SOL    HW220286   1.352   3.075   4.593
 6463SOL     OW20287   5.487   0.588   0.532
 6463SOL    HW120288   5.530   0.676   0.553
 6463SOL    HW220289   5.388   0.600   0.526
 6464SOL     OW20290   1.756   5.564   5.186
 6464SOL    HW120291   1.807   5.591   5.104
 6464SOL    HW220292   1.761   5.465   5.197
 6465SOL     OW20293   0.197   2.867   3.040
 6465SOL    HW120294   0.246   2.851   2.954
 6465SOL    HW220295   0.221   2.956   3.077
 6466SOL     OW20296   6.291   0.957   6.477
 6466SOL    HW120297   6.261   0.869   6.515
 6466SOL    HW220298   6.228   0.986   6.406
 6467SOL     OW20299   3.913   6.982   1.090
 6467SOL    HW120300   3.849   0.037   1.079
 6467SOL    HW220301   3.932   6.940   1.002
 6468SOL     OW20302   3.307   6.840   1.922
 6468SOL    HW120303   3.255   6.755   1.915
 6468SOL    HW220304   3.393   6.823   1.970
 6469SOL     OW20305   3.664   2.094   3.650
 6469SOL    HW120306   3.733   2.101   3.723
 6469SOL    HW220307   3.696   2.030   3.581
 6470SOL     OW20308   5.950   2.553   1.061
 6470SOL    HW120309   5.911   2.508   1.141
 6470SOL    HW220310   5.896   2.530   0.980
 6471SOL     OW20311   0.825   6.307   5.689
 6471SOL    HW120312   0.827   6.406   5.706
 6471SOL    HW220313   0.738   6.270   5.721
 6472SOL     OW20314   6.512   5.919   2.864
 6472SOL    HW120315   6.523   5.892   2.960
 6472SOL    HW220316   6.449   5.856   2.818
 6473SOL     OW20317   1.986   1.590   4.801
 6473SOL    HW120318   2.051   1.540   4.857
 6473SOL    HW220319   2.020   1.682   4.783
 6474SOL     OW20320   4.489   5.750   5.610
 6474SOL    HW120321   4.393   5.771   5.632
 6474SOL    HW220322   4.498   5.734   5.511
 6475SOL     OW20323   5.936   4.040   3.802
 6475SOL    HW120324   5.940   4.139   3.786
 6475SOL    HW220325   5.850   4.004   3.768
 6476SOL     OW20326   4.898   2.932   6.817
 6476SOL    HW120327   4.885   3.031   6.815
 6476SOL    HW220328   4.956   2.907   6.895
 6477SOL     OW20329   6.536   5.472   1.131
 6477SOL    HW120330   6.543   5.526   1.046
 6477SOL    HW220331   6.471   5.515   1.192
 6478SOL     OW20332   3.029   6.453   2.795
 6478SOL    HW120333   2.980   6.523   2.847
 6478SOL    HW220334   3.073   6.389   2.859
 6479SOL     OW20335   3.617   5.910   4.445
 6479SOL    HW120336   3.532   5.952   4.412
 6479SOL    HW220337   3.693   5.974   4.432
 6480SOL     OW20338   2.420   0.910   0.026
 6480SOL    HW120339   2.370   0.907   6.961
 6480SOL    HW220340   2.397   0.994   0.075
 6481SOL     OW20341   3.544   2.202   1.635
 6481SOL    HW120342   3.485   2.132   1.676
 6481SOL    HW220343   3.593   2.251   1.707
 6482SOL     OW20344   6.278   1.981   6.409
 6482SOL    HW120345   6.201   2.034   6.374
 6482SOL    HW220346   6.345   2.042   6.451
 6483SOL     OW20347   7.021   6.549   2.975
 6483SOL    HW120348   6.959   6.628   2.973
 6483SOL    HW220349   0.089   6.579   3.006
 6484SOL     OW20350   2.985   1.339   2.604
 6484SOL    HW120351   3.076   1.367   2.573
 6484SOL    HW220352   2.946   1.275   2.538
 6485SOL     OW20353   2.030   5.569   4.121
 6485SOL    HW120354   1.980   5.602   4.041
 6485SOL    HW220355   2.094   5.497   4.094
 6486SOL     OW20356   1.208   5.060   2.428
 6486SOL    HW120357   1.185   5.157   2.433
 6486SOL    HW220358   1.300   5.045   2.465
 6487SOL     OW20359   1.267   6.707   5.529
 6487SOL    HW120360   1.223   6.720   5.441
 6487SOL    HW220361   1.266   6.609   5.553
 6488SOL     OW20362   4.065   5.517   4.579
 6488SOL    HW120363   4.073   5.505   4.480
 6488SOL    HW220364   4.086   5.431   4.625
 6489SOL     OW20365   3.436   3.546   6.292
 6489SOL    HW120366   3.362   3.526   6.228
 6489SOL    HW220367   3.453   3.645   6.293
 6490SOL     OW20368   3.086   0.976   6.229
 6490SOL    HW120369   3.045   0.886   6.243
 6490SOL    HW220370   3.070   1.033   6.310
 6491SOL     OW20371   3.389   0.628   1.364
 6491SOL    HW120372   3.360   0.583   1.449
 6491SOL    HW220373   3.343   0.716   1.356
 6492SOL     OW20374   3.651   3.884   5.235
 6492SOL    HW120375   3.685   3.925   5.320
 6492SOL    HW220376   3.571   3.936   5.203
 6493SOL     OW20377   1.242   4.231   6.510
 6493SOL    HW120378   1.271   4.180   6.429
 6493SOL    HW220379   1.202   4.319   6.482
 6494SOL     OW20380   6.894   0.026   2.615
 6494SOL    HW120381   6.881   0.070   2.704
 6494SOL    HW220382   6.809   0.031   2.563
 6495SOL     OW20383   0.091   0.927   4.667
 6495SOL    HW120384   0.018   0.986   4.631
 6495SOL    HW220385   0.139   0.883   4.591
 6496SOL     OW20386   5.746   0.620   2.266
 6496SOL    HW120387   5.704   0.547   2.319
 6496SOL    HW220388   5.785   0.582   2.182
 6497SOL     OW20389   0.599   0.484   1.324
 6497SOL    HW120390   0.687   0.497   1.371
 6497SOL    HW220391   0.600   0.536   1.239
 6498SOL     OW20392   0.876   3.647   4.607
 6498SOL    HW120393   0.942   3.579   4.573
 6498SOL    HW220394   0.915   3.694   4.687
 6499SOL     OW20395   5.536   3.699   5.416
 6499SOL    HW120396   5.446   3.698   5.373
 6499SOL    HW220397   5.548   3.616   5.470
 6500SOL     OW20398   0.126   4.092   3.053
 6500SOL    HW120399   0.139   4.003   3.008
 6500SOL    HW220400   0.046   4.138   3.014
 6501SOL     OW20401   6.804   1.546   0.865
 6501SOL    HW120402   6.797   1.470   0.930
 6501SOL    HW220403   6.723   1.604   0.873
 6502SOL     OW20404   7.018   3.882   2.113
 6502SOL    HW120405   0.036   3.833   2.191
 6502SOL    HW220406   0.020   3.979   2.119
 6503SOL     OW20407   5.699   1.132   3.738
 6503SOL    HW120408   5.649   1.090   3.814
 6503SOL    HW220409   5.756   1.063   3.693
 6504SOL     OW20410   3.419   6.526   6.162
 6504SOL    HW120411   3.333   6.573   6.181
 6504SOL    HW220412   3.445   6.470   6.241
 6505SOL     OW20413   5.587   6.104   6.152
 6505SOL    HW120414   5.495   6.066   6.154
 6505SOL    HW220415   5.636   6.067   6.072
 6506SOL     OW20416   6.931   2.801   3.510
 6506SOL    HW120417   6.965   2.844   3.426
 6506SOL    HW220418   7.001   2.740   3.547
 6507SOL     OW20419   2.721   5.982   6.566
 6507SOL    HW120420   2.795   5.927   6.528
 6507SOL    HW220421   2.641   5.978   6.506
 6508SOL     OW20422   2.136   0.538   3.222
 6508SOL    HW120423   2.215   0.590   3.190
 6508SOL    HW220424   2.157   0.441   3.219
 6509SOL     OW20425   4.864   1.940   4.715
 6509SOL    HW120426   4.869   1.850   4.673
 6509SOL    HW220427   4.872   1.931   4.814
 6510SOL     OW20428   5.543   4.946   6.819
 6510SOL    HW120429   5.490   4.882   6.874
 6510SOL    HW220430   5.639   4.942   6.846
 6511SOL     OW20431   4.265   1.147   4.815
 6511SOL    HW120432   4.201   1.112   4.883
 6511SOL    HW220433   4.342   1.191   4.862
 6512SOL     OW20434   3.464   6.906   2.224
 6512SOL    HW120435   3.508   6.920   2.313
 6512SOL    HW220436   3.495   6.820   2.185
 6513SOL     OW20437   1.831   5.759   3.849
 6513SOL    HW120438   1.800   5.731   3.940
 6513SOL    HW220439   1.842   5.858   3.847
 6514SOL     OW20440   5.932   1.106   4.132
 6514SOL    HW120441   5.875   1.047   4.076
 6514SOL    HW220442   5.950   1.062   4.220
 6515SOL     OW20443   1.606   3.331   3.568
 6515SOL    HW120444   1.666   3.264   3.524
 6515SOL    HW220445   1.580   3.401   3.502
 6516SOL     OW20446   0.344   3.144   1.228
 6516SOL    HW120447   0.435   3.124   1.265
 6516SOL    HW220448   0.350   3.158   1.129
 6517SOL     OW20449   6.898   1.956   2.123
 6517SOL    HW120450   6.822   1.894   2.102
 6517SOL    HW220451   6.908   1.964   2.222
 6518SOL     OW20452   0.499   0.284   1.454
 6518SOL    HW120453   0.536   0.369   1.415
 6518SOL    HW220454   0.400   0.290   1.459
 6519SOL     OW20455   0.381   1.430   2.835
 6519SOL    HW120456   0.302   1.434   2.774
 6519SOL    HW220457   0.351   1.401   2.926
 6520SOL     OW20458   0.053   4.882   0.038
 6520SOL    HW120459   0.017   4.930   0.118
 6520SOL    HW220460   0.127   4.820   0.066
 6521SOL     OW20461   2.229   2.994   4.580
 6521SOL    HW120462   2.143   2.993   4.530
 6521SOL    HW220463   2.214   3.029   4.673
 6522SOL     OW20464   2.677   4.575   5.579
 6522SOL    HW120465   2.770   4.557   5.549
 6522SOL    HW220466   2.627   4.624   5.508
 6523SOL     OW20467   4.091   0.676   6.756
 6523SOL    HW120468   3.993   0.662   6.746
 6523SOL    HW220469   4.113   0.772   6.738
 6524SOL     OW20470   2.807   3.207   1.245
 6524SOL    HW120471   2.750   3.153   1.307
 6524SOL    HW220472   2.851   3.281   1.295
 6525SOL     OW20473   1.867   4.937   2.945
 6525SOL    HW120474   1.930   4.953   3.021
 6525SOL    HW220475   1.798   5.009   2.943
 6526SOL     OW20476   0.945   0.436   1.733
 6526SOL    HW120477   0.867   0.395   1.780
 6526SOL    HW220478   1.026   0.380   1.746
 6527SOL     OW20479   6.421   2.186   6.552
 6527SOL    HW120480   6.506   2.157   6.596
 6527SOL    HW220481   6.370   2.246   6.614
 6528SOL     OW20482   5.941   1.283   5.237
 6528SOL    HW120483   5.946   1.371   5.189
 6528SOL    HW220484   6.011   1.280   5.309
 6529SOL     OW20485   2.257   0.327   2.799
 6529SOL    HW120486   2.290   0.401   2.741
 6529SOL    HW220487   2.292   0.338   2.892
 6530SOL     OW20488   6.775   2.131   1.145
 6530SOL    HW120489   6.743   2.157   1.236
 6530SOL    HW220490   6.752   2.203   1.079
 6531SOL     OW20491   4.939   3.329   5.029
 6531SOL    HW120492   4.880   3.271   5.085
 6531SOL    HW220493   4.884   3.402   4.988
 6532SOL     OW20494   1.192   1.430   1.215
 6532SOL    HW120495   1.147   1.509   1.175
 6532SOL    HW220496   1.291   1.439   1.204
 6533SOL     OW20497   4.092   6.048   0.429
 6533SOL    HW120498   4.158   6.090   0.366
 6533SOL    HW220499   4.026   5.994   0.376
 6534SOL     OW20500   4.892   5.090   1.295
 6534SOL    HW120501   4.877   5.187   1.314
 6534SOL    HW220502   4.807   5.039   1.310
 6535SOL     OW20503   6.766   4.463   4.411
 6535SOL    HW120504   6.752   4.462   4.510
 6535SOL    HW220505   6.681   4.491   4.366
 6536SOL     OW20506   0.332   2.187   5.057
 6536SOL    HW120507   0.405   2.222   5.116
 6536SOL    HW220508   0.333   2.087   5.058
 6537SOL     OW20509   7.003   4.468   6.352
 6537SOL    HW120510   6.945   4.387   6.342
 6537SOL    HW220511   7.015   4.512   6.264
 6538SOL     OW20512   1.825   3.876   5.751
 6538SOL    HW120513   1.879   3.914   5.675
 6538SOL    HW220514   1.851   3.921   5.836
 6539SOL     OW20515   5.070   0.541   0.028
 6539SOL    HW120516   5.162   0.553   0.066
 6539SOL    HW220517   5.005   0.593   0.083
 6540SOL     OW20518   3.859   2.652   6.224
 6540SOL    HW120519   3.861   2.720   6.297
 6540SOL    HW220520   3.858   2.698   6.135
 6541SOL     OW20521   5.001   1.401   5.115
 6541SOL    HW120522   4.971   1.421   5.208
 6541SOL    HW220523   5.098   1.376   5.116
 6542SOL     OW20524   0.874   2.818   3.692
 6542SOL    HW120525   0.870   2.734   3.638
 6542SOL    HW220526   0.948   2.812   3.758
 6543SOL     OW20527   4.351   3.132   5.432
 6543SOL    HW120528   4.334   3.067   5.358
 6543SOL    HW220529   4.279   3.201   5.433
 6544SOL     OW20530   1.263   6.381   3.265
 6544SOL    HW120531   1.202   6.311   3.302
 6544SOL    HW220532   1.357   6.362   3.294
 6545SOL     OW20533   4.053   0.652   0.664
 6545SOL    HW120534   4.130   0.710   0.636
 6545SOL    HW220535   4.084   0.584   0.730
 6546SOL     OW20536   2.501   4.141   5.916
 6546SOL    HW120537   2.572   4.201   5.879
 6546SOL    HW220538   2.415   4.159   5.869
 6547SOL     OW20539   4.883   1.040   6.459
 6547SOL    HW120540   4.861   1.030   6.362
 6547SOL    HW220541   4.972   1.084   6.468
 6548SOL     OW20542   1.671   4.044   0.993
 6548SOL    HW120543   1.746   4.026   0.929
 6548SOL    HW220544   1.666   4.143   1.010
 6549SOL     OW20545   4.180   0.864   2.194
 6549SOL    HW120546   4.260   0.908   2.152
 6549SOL    HW220547   4.125   0.820   2.123
 6550SOL     OW20548   0.067   6.684   4.704
 6550SOL    HW120549   0.098   6.712   4.614
 6550SOL    HW220550   0.065   6.584   4.709
 6551SOL     OW20551   2.182   3.679   1.773
 6551SOL    HW120552   2.216   3.636   1.857
 6551SOL    HW220553   2.259   3.710   1.717
 6552SOL     OW20554   1.806   0.341   0.411
 6552SOL    HW120555   1.773   0.247   0.416
 6552SOL    HW220556   1.906   0.342   0.423
 6553SOL     OW20557   0.360   2.673   3.258
 6553SOL    HW120558   0.444   2.624   3.279
 6553SOL    HW220559   0.373   2.729   3.176
 6554SOL     OW20560   1.442   0.008   4.509
 6554SOL    HW120561   1.514   0.046   4.452
 6554SOL    HW220562   1.454   0.037   4.603
 6555SOL     OW20563   5.183   2.264   2.905
 6555SOL    HW120564   5.104   2.223   2.950
 6555SOL    HW220565   5.184   2.362   2.924
 6556SOL     OW20566   5.754   4.486   3.406
 6556SOL    HW120567   5.844   4.444   3.408
 6556SOL    HW220568   5.763   4.585   3.394
 6557SOL     OW20569   2.719   0.477   3.154
 6557SOL    HW120570   2.671   0.524   3.080
 6557SOL    HW220571   2.720   0.378   3.136
 6558SOL     OW20572   6.600   4.921   6.720
 6558SOL    HW120573   6.513   4.911   6.769
 6558SOL    HW220574   6.661   4.846   6.745
 6559SOL     OW20575   0.503   3.917   0.029
 6559SOL    HW120576   0.528   4.007   0.064
 6559SOL    HW220577   0.582   3.876   7.004
 6560SOL     OW20578   4.050   4.706   1.693
 6560SOL    HW120579   4.078   4.616   1.659
 6560SOL    HW220580   4.071   4.713   1.790
 6561SOL     OW20581   3.425   4.224   1.249
 6561SOL    HW120582   3.381   4.287   1.186
 6561SOL    HW220583   3.507   4.185   1.206
 6562SOL     OW20584   5.965   1.975   1.367
 6562SOL    HW120585   5.968   1.909   1.293
 6562SOL    HW220586   5.874   2.016   1.372
 6563SOL     OW20587   5.372   5.275   6.191
 6563SOL    HW120588   5.362   5.323   6.104
 6563SOL    HW220589   5.467   5.247   6.203
 6564SOL     OW20590   6.368   4.286   2.207
 6564SOL    HW120591   6.391   4.259   2.300
 6564SOL    HW220592   6.270   4.305   2.201
 6565SOL     OW20593   6.075   1.089   2.949
 6565SOL    HW120594   6.122   1.051   2.869
 6565SOL    HW220595   6.143   1.121   3.015
 6566SOL     OW20596   4.284   6.623   2.300
 6566SOL    HW120597   4.229   6.674   2.365
 6566SOL    HW220598   4.226   6.591   2.225
 6567SOL     OW20599   4.955   0.738   2.168
 6567SOL    HW120600   4.960   0.838   2.169
 6567SOL    HW220601   5.006   0.703   2.090
 6568SOL     OW20602   3.368   1.720   3.918
 6568SOL    HW120603   3.423   1.794   3.879
 6568SOL    HW220604   3.317   1.754   3.996
 6569SOL     OW20605   2.912   2.826   0.350
 6569SOL    HW120606   2.871   2.793   0.435
 6569SOL    HW220607   2.969   2.906   0.368
 6570SOL     OW20608   3.084   1.045   2.236
 6570SOL    HW120609   3.178   1.064   2.265
 6570SOL    HW220610   3.022   1.111   2.278
 6571SOL     OW20611   2.995   4.824   2.399
 6571SOL    HW120612   2.998   4.802   2.302
 6571SOL    HW220613   2.899   4.831   2.429
 6572SOL     OW20614   0.063   3.822   4.511
 6572SOL    HW120615   0.146   3.782   4.550
 6572SOL    HW220616   0.062   3.921   4.528
 6573SOL     OW20617   0.442   1.956   2.544
 6573SOL    HW120618   0.523   1.900   2.526
 6573SOL    HW220619   0.443   1.988   2.639
 6574SOL     OW20620   2.310   5.767   2.952
 6574SOL    HW120621   2.223   5.812   2.974
 6574SOL    HW220622   2.305   5.671   2.977
 6575SOL     OW20623   0.849   0.077   3.865
 6575SOL    HW120624   0.947   0.083   3.887
 6575SOL    HW220625   0.818   7.004   3.881
 6576SOL     OW20626   2.739   6.213   0.424
 6576SOL    HW120627   2.795   6.170   0.353
 6576SOL    HW220628   2.794   6.277   0.476
 6577SOL     OW20629   1.270   1.887   3.340
 6577SOL    HW120630   1.233   1.794   3.347
 6577SOL    HW220631   1.268   1.916   3.244
 6578SOL     OW20632   0.451   6.209   2.491
 6578SOL    HW120633   0.490   6.154   2.417
 6578SOL    HW220634   0.516   6.280   2.517
 6579SOL     OW20635   0.046   3.074   3.429
 6579SOL    HW120636   7.015   3.061   3.514
 6579SOL    HW220637   7.004   3.076   3.352
 6580SOL     OW20638   0.610   1.668   0.560
 6580SOL    HW120639   0.552   1.589   0.580
 6580SOL    HW220640   0.553   1.746   0.533
 6581SOL     OW20641   2.497   0.547   0.629
 6581SOL    HW120642   2.431   0.510   0.694
 6581SOL    HW220643   2.519   0.478   0.561
 6582SOL     OW20644   0.026   1.120   3.316
 6582SOL    HW120645   0.033   1.202   3.374
 6582SOL    HW220646   0.088   1.049   3.352
 6583SOL     OW20647   4.771   6.852   5.670
 6583SOL    HW120648   4.795   6.755   5.677
 6583SOL    HW220649   4.699   6.873   5.735
 6584SOL     OW20650   5.087   2.432   0.212
 6584SOL    HW120651   5.034   2.347   0.208
 6584SOL    HW220652   5.103   2.467   0.119
 6585SOL     OW20653   5.867   5.478   0.188
 6585SOL    HW120654   5.778   5.464   0.145
 6585SOL    HW220655   5.872   5.428   0.274
 6586SOL     OW20656   5.889   1.217   5.726
 6586SOL    HW120657   5.810   1.176   5.681
 6586SOL    HW220658   5.958   1.147   5.744
 6587SOL     OW20659   1.585   4.874   5.831
 6587SOL    HW120660   1.561   4.787   5.788
 6587SOL    HW220661   1.500   4.923   5.855
 6588SOL     OW20662   0.590   3.036   1.328
 6588SOL    HW120663   0.682   3.076   1.329
 6588SOL    HW220664   0.592   2.950   1.277
 6589SOL     OW20665   4.458   0.294   1.955
 6589SOL    HW120666   4.490   0.199   1.954
 6589SOL    HW220667   4.537   0.356   1.963
 6590SOL     OW20668   0.200   1.371   6.577
 6590SOL    HW120669   0.200   1.273   6.556
 6590SOL    HW220670   0.181   1.384   6.674
 6591SOL     OW20671   5.886   5.649   3.573
 6591SOL    HW120672   5.880   5.579   3.502
 6591SOL    HW220673   5.951   5.619   3.643
 6592SOL     OW20674   5.498   6.809   3.268
 6592SOL    HW120675   5.502   6.716   3.306
 6592SOL    HW220676   5.402   6.837   3.260
 6593SOL     OW20677   2.496   2.509   2.449
 6593SOL    HW120678   2.536   2.482   2.362
 6593SOL    HW220679   2.396   2.514   2.440
 6594SOL     OW20680   3.604   1.165   6.188
 6594SOL    HW120681   3.605   1.262   6.209
 6594SOL    HW220682   3.653   1.149   6.102
 6595SOL     OW20683   1.717   4.252   6.791
 6595SOL    HW120684   1.712   4.256   6.891
 6595SOL    HW220685   1.677   4.165   6.760
 6596SOL     OW20686   3.588   7.005   4.262
 6596SOL    HW120687   3.669   6.949   4.280
 6596SOL    HW220688   3.554   6.986   4.170
 6597SOL     OW20689   1.247   5.535   0.890
 6597SOL    HW120690   1.280   5.571   0.977
 6597SOL    HW220691   1.196   5.606   0.841
 6598SOL     OW20692   1.781   4.825   3.881
 6598SOL    HW120693   1.810   4.844   3.975
 6598SOL    HW220694   1.709   4.889   3.855
 6599SOL     OW20695   4.457   6.351   6.200
 6599SOL    HW120696   4.517   6.392   6.269
 6599SOL    HW220697   4.420   6.265   6.236
 6600SOL     OW20698   3.512   6.459   5.414
 6600SOL    HW120699   3.486   6.506   5.330
 6600SOL    HW220700   3.475   6.507   5.493
 6601SOL     OW20701   1.221   2.495   4.812
 6601SOL    HW120702   1.297   2.523   4.753
 6601SOL    HW220703   1.256   2.449   4.893
 6602SOL     OW20704   1.654   0.654   1.329
 6602SOL    HW120705   1.571   0.622   1.374
 6602SOL    HW220706   1.734   0.616   1.375
 6603SOL     OW20707   0.502   2.891   3.531
 6603SOL    HW120708   0.570   2.854   3.468
 6603SOL    HW220709   0.546   2.912   3.618
 6604SOL     OW20710   1.574   7.009   1.543
 6604SOL    HW120711   1.521   0.002   1.459
 6604SOL    HW220712   1.653   0.048   1.544
 6605SOL     OW20713   5.730   5.714   1.930
 6605SOL    HW120714   5.818   5.758   1.915
 6605SOL    HW220715   5.677   5.768   1.995
 6606SOL     OW20716   6.634   5.631   2.379
 6606SOL    HW120717   6.653   5.597   2.287
 6606SOL    HW220718   6.706   5.694   2.408
 6607SOL     OW20719   0.783   4.690   3.165
 6607SOL    HW120720   0.708   4.648   3.216
 6607SOL    HW220721   0.821   4.766   3.219
 6608SOL     OW20722   6.424   6.840   6.999
 6608SOL    HW120723   6.492   6.832   6.927
 6608SOL    HW220724   6.466   6.878   0.060
 6609SOL     OW20725   5.614   0.791   0.192
 6609SOL    HW120726   5.678   0.753   0.126
 6609SOL    HW220727   5.527   0.743   0.185
 6610SOL     OW20728   2.014   6.498   6.706
 6610SOL    HW120729   2.073   6.542   6.774
 6610SOL    HW220730   2.070   6.457   6.634
 6611SOL     OW20731   4.821   2.961   3.075
 6611SOL    HW120732   4.822   2.956   3.175
 6611SOL    HW220733   4.763   2.889   3.038
 6612SOL     OW20734   6.531   1.710   6.130
 6612SOL    HW120735   6.513   1.649   6.207
 6612SOL    HW220736   6.617   1.759   6.146
 6613SOL     OW20737   6.273   6.410   5.670
 6613SOL    HW120738   6.358   6.419   5.720
 6613SOL    HW220739   6.207   6.478   5.703
 6614SOL     OW20740   4.701   5.351   6.868
 6614SOL    HW120741   4.608   5.344   6.832
 6614SOL    HW220742   4.698   5.358   6.968
 6615SOL     OW20743   1.632   5.988   1.254
 6615SOL    HW120744   1.688   6.070   1.242
 6615SOL    HW220745   1.555   5.991   1.190
 6616SOL     OW20746   4.450   6.921   6.537
 6616SOL    HW120747   4.477   7.009   6.496
 6616SOL    HW220748   4.424   6.935   6.632
 6617SOL     OW20749   4.459   5.419   3.642
 6617SOL    HW120750   4.420   5.511   3.651
 6617SOL    HW220751   4.507   5.395   3.727
 6618SOL     OW20752   2.024   2.056   2.262
 6618SOL    HW120753   1.968   1.979   2.291
 6618SOL    HW220754   2.001   2.081   2.168
 6619SOL     OW20755   5.523   6.770   3.900
 6619SOL    HW120756   5.517   6.854   3.848
 6619SOL    HW220757   5.526   6.692   3.837
 6620SOL     OW20758   2.357   2.416   5.732
 6620SOL    HW120759   2.291   2.470   5.784
 6620SOL    HW220760   2.439   2.401   5.787
 6621SOL     OW20761   3.543   3.358   5.478
 6621SOL    HW120762   3.520   3.382   5.384
 6621SOL    HW220763   3.493   3.275   5.505
 6622SOL     OW20764   5.725   5.445   2.010
 6622SOL    HW120765   5.732   5.532   1.960
 6622SOL    HW220766   5.648   5.393   1.974
 6623SOL     OW20767   3.579   2.832   4.824
 6623SOL    HW120768   3.670   2.869   4.804
 6623SOL    HW220769   3.564   2.750   4.770
 6624SOL     OW20770   0.097   4.604   5.306
 6624SOL    HW120771   0.034   4.538   5.347
 6624SOL    HW220772   0.106   4.584   5.208
 6625SOL     OW20773   5.080   2.082   5.446
 6625SOL    HW120774   4.992   2.038   5.462
 6625SOL    HW220775   5.150   2.013   5.426
 6626SOL     OW20776   2.962   6.790   5.725
 6626SOL    HW120777   2.871   6.800   5.685
 6626SOL    HW220778   3.006   6.880   5.731
 6627SOL     OW20779   1.662   6.798   4.521
 6627SOL    HW120780   1.700   6.823   4.610
 6627SOL    HW220781   1.586   6.860   4.499
 6628SOL     OW20782   6.050   4.826   4.990
 6628SOL    HW120783   6.059   4.738   5.035
 6628SOL    HW220784   6.075   4.899   5.053
 6629SOL     OW20785   4.667   6.441   6.353
 6629SOL    HW120786   4.656   6.540   6.354
 6629SOL    HW220787   4.764   6.418   6.344
 6630SOL     OW20788   3.823   1.533   1.408
 6630SOL    HW120789   3.828   1.456   1.344
 6630SOL    HW220790   3.727   1.552   1.429
 6631SOL     OW20791   2.072   5.932   4.113
 6631SOL    HW120792   1.985   5.981   4.105
 6631SOL    HW220793   2.125   5.945   4.029
 6632SOL     OW20794   0.830   0.704   1.155
 6632SOL    HW120795   0.919   0.735   1.123
 6632SOL    HW220796   0.772   0.783   1.177
 6633SOL     OW20797   2.272   5.038   6.284
 6633SOL    HW120798   2.185   5.019   6.238
 6633SOL    HW220799   2.335   5.082   6.219
 6634SOL     OW20800   5.310   1.151   4.990
 6634SOL    HW120801   5.407   1.168   5.004
 6634SOL    HW220802   5.258   1.193   5.064
 6635SOL     OW20803   4.768   4.278   2.965
 6635SOL    HW120804   4.862   4.310   2.953
 6635SOL    HW220805   4.719   4.339   3.027
 6636SOL     OW20806   4.830   1.435   6.982
 6636SOL    HW120807   4.765   1.380   6.929
 6636SOL    HW220808   4.861   1.512   6.926
 6637SOL     OW20809   1.109   0.054   6.860
 6637SOL    HW120810   1.102   0.020   6.767
 6637SOL    HW220811   1.021   0.044   6.907
 6638SOL     OW20812   2.928   3.340   3.284
 6638SOL    HW120813   2.894   3.375   3.372
 6638SOL    HW220814   2.904   3.405   3.211
 6639SOL     OW20815   4.894   4.527   6.753
 6639SOL    HW120816   4.963   4.494   6.690
 6639SOL    HW220817   4.829   4.586   6.705
 6640SOL     OW20818   6.302   1.513   5.055
 6640SOL    HW120819   6.216   1.514   5.004
 6640SOL    HW220820   6.349   1.601   5.043
 6641SOL     OW20821   2.884   1.358   6.925
 6641SOL    HW120822   2.836   1.290   6.980
 6641SOL    HW220823   2.980   1.329   6.914
 6642SOL     OW20824   2.686   6.144   6.777
 6642SOL    HW120825   2.710   6.056   6.737
 6642SOL    HW220826   2.731   6.217   6.726
 6643SOL     OW20827   5.145   6.284   6.789
 6643SOL    HW120828   5.048   6.257   6.790
 6643SOL    HW220829   5.163   6.341   6.709
 6644SOL     OW20830   2.717   6.135   1.599
 6644SOL    HW120831   2.668   6.208   1.648
 6644SOL    HW220832   2.795   6.174   1.551
 6645SOL     OW20833   5.347   3.881   1.099
 6645SOL    HW120834   5.284   3.898   1.023
 6645SOL    HW220835   5.381   3.787   1.094
 6646SOL     OW20836   4.482   1.262   5.251
 6646SOL    HW120837   4.395   1.311   5.243
 6646SOL    HW220838   4.517   1.242   5.160
 6647SOL     OW20839   4.721   0.538   1.489
 6647SOL    HW120840   4.641   0.484   1.465
 6647SOL    HW220841   4.696   0.635   1.493
 6648SOL     OW20842   3.734   6.693   3.864
 6648SOL    HW120843   3.766   6.733   3.778
 6648SOL    HW220844   3.717   6.766   3.930
 6649SOL     OW20845   6.104   1.725   6.354
 6649SOL    HW120846   6.133   1.819   6.374
 6649SOL    HW220847   6.007   1.715   6.375
 6650SOL     OW20848   3.875   1.377   5.873
 6650SOL    HW120849   3.918   1.456   5.830
 6650SOL    HW220850   3.860   1.395   5.970
 6651SOL     OW20851   1.699   0.584   5.978
 6651SOL    HW120852   1.742   0.557   5.892
 6651SOL    HW220853   1.672   0.680   5.974
 6652SOL     OW20854   0.406   4.517   6.674
 6652SOL    HW120855   0.489   4.474   6.710
 6652SOL    HW220856   0.330   4.501   6.737
 6653SOL     OW20857   3.916   3.906   1.332
 6653SOL    HW120858   3.939   3.983   1.391
 6653SOL    HW220859   3.929   3.820   1.382
 6654SOL     OW20860   1.502   5.742   1.634
 6654SOL    HW120861   1.434   5.796   1.684
 6654SOL    HW220862   1.574   5.803   1.600
 6655SOL     OW20863   0.599   6.756   3.762
 6655SOL    HW120864   0.598   6.788   3.667
 6655SOL    HW220865   0.512   6.779   3.806
 6656SOL     OW20866   6.049   2.247   2.807
 6656SOL    HW120867   6.025   2.243   2.710
 6656SOL    HW220868   6.031   2.340   2.841
 6657SOL     OW20869   5.378   4.413   5.441
 6657SOL    HW120870   5.307   4.344   5.430
 6657SOL    HW220871   5.407   4.445   5.350
 6658SOL     OW20872   4.882   1.164   5.058
 6658SOL    HW120873   4.919   1.256   5.070
 6658SOL    HW220874   4.807   1.149   5.124
 6659SOL     OW20875   2.154   2.775   0.956
 6659SOL    HW120876   2.164   2.860   0.905
 6659SOL    HW220877   2.182   2.698   0.898
 6660SOL     OW20878   1.840   4.965   1.240
 6660SOL    HW120879   1.911   4.898   1.258
 6660SOL    HW220880   1.841   4.990   1.143
 6661SOL     OW20881   1.651   0.467   5.177
 6661SOL    HW120882   1.710   0.532   5.226
 6661SOL    HW220883   1.697   0.436   5.094
 6662SOL     OW20884   1.330   0.668   0.317
 6662SOL    HW120885   1.260   0.707   0.377
 6662SOL    HW220886   1.397   0.738   0.294
 6663SOL     OW20887   6.581   6.444   4.722
 6663SOL    HW120888   6.625   6.458   4.811
 6663SOL    HW220889   6.629   6.498   4.653
 6664SOL     OW20890   2.386   0.039   0.301
 6664SOL    HW120891   2.288   0.052   0.319
 6664SOL    HW220892   2.438   0.068   0.381
 6665SOL     OW20893   1.515   5.802   4.602
 6665SOL    HW120894   1.573   5.795   4.683
 6665SOL    HW220895   1.540   5.884   4.551
 6666SOL     OW20896   6.271   6.261   6.263
 6666SOL    HW120897   6.369   6.276   6.252
 6666SOL    HW220898   6.225   6.272   6.174
 6667SOL     OW20899   6.630   6.455   5.940
 6667SOL    HW120900   6.722   6.420   5.923
 6667SOL    HW220901   6.636   6.532   6.004
 6668SOL     OW20902   0.188   5.885   1.036
 6668SOL    HW120903   0.263   5.941   1.070
 6668SOL    HW220904   0.176   5.805   1.094
 6669SOL     OW20905   2.918   2.113   1.824
 6669SOL    HW120906   2.858   2.125   1.745
 6669SOL    HW220907   2.910   2.191   1.885
 6670SOL     OW20908   3.184   1.370   5.288
 6670SOL    HW120909   3.147   1.462   5.275
 6670SOL    HW220910   3.150   1.332   5.374
 6671SOL     OW20911   4.404   6.667   0.317
 6671SOL    HW120912   4.424   6.644   0.412
 6671SOL    HW220913   4.342   6.599   0.278
 6672SOL     OW20914   6.551   2.308   6.911
 6672SOL    HW120915   6.568   2.237   6.979
 6672SOL    HW220916   6.530   2.394   6.956
 6673SOL     OW20917   4.713   4.138   3.477
 6673SOL    HW120918   4.758   4.102   3.559
 6673SOL    HW220919   4.716   4.070   3.404
 6674SOL     OW20920   0.262   3.678   0.256
 6674SOL    HW120921   0.344   3.736   0.256
 6674SOL    HW220922   0.262   3.622   0.339
 6675SOL     OW20923   6.079   3.303   0.919
 6675SOL    HW120924   5.992   3.266   0.949
 6675SOL    HW220925   6.065   3.392   0.875
 6676SOL     OW20926   0.139   3.436   5.003
 6676SOL    HW120927   0.112   3.526   5.038
 6676SOL    HW220928   0.144   3.440   4.903
 6677SOL     OW20929   1.107   1.747   6.330
 6677SOL    HW120930   1.147   1.708   6.246
 6677SOL    HW220931   1.181   1.770   6.394
 6678SOL     OW20932   3.232   3.708   0.560
 6678SOL    HW120933   3.227   3.608   0.567
 6678SOL    HW220934   3.217   3.749   0.649
 6679SOL     OW20935   3.274   0.780   4.235
 6679SOL    HW120936   3.272   0.791   4.334
 6679SOL    HW220937   3.225   0.855   4.191
 6680SOL     OW20938   4.543   6.802   6.287
 6680SOL    HW120939   4.476   6.823   6.358
 6680SOL    HW220940   4.635   6.820   6.321
 6681SOL     OW20941   4.764   5.631   0.462
 6681SOL    HW120942   4.778   5.639   0.363
 6681SOL    HW220943   4.685   5.573   0.479
 6682SOL     OW20944   2.143   5.007   0.740
 6682SOL    HW120945   2.113   4.914   0.760
 6682SOL    HW220946   2.112   5.068   0.813
 6683SOL     OW20947   5.918   3.312   5.231
 6683SOL    HW120948   5.819   3.324   5.239
 6683SOL    HW220949   5.939   3.247   5.158
 6684SOL     OW20950   3.772   6.499   1.827
 6684SOL    HW120951   3.837   6.529   1.758
 6684SOL    HW220952   3.681   6.535   1.805
 6685SOL     OW20953   5.275   2.853   6.209
 6685SOL    HW120954   5.264   2.760   6.174
 6685SOL    HW220955   5.217   2.915   6.157
 6686SOL     OW20956   5.215   5.309   4.082
 6686SOL    HW120957   5.160   5.312   4.165
 6686SOL    HW220958   5.185   5.381   4.019
 6687SOL     OW20959   0.778   3.100   1.756
 6687SOL    HW120960   0.796   3.184   1.703
 6687SOL    HW220961   0.689   3.063   1.729
 6688SOL     OW20962   5.328   4.423   1.511
 6688SOL    HW120963   5.274   4.342   1.488
 6688SOL    HW220964   5.425   4.399   1.513
 6689SOL     OW20965   3.905   3.803   5.827
 6689SOL    HW120966   3.963   3.829   5.750
 6689SOL    HW220967   3.906   3.704   5.839
 6690SOL     OW20968   0.370   0.075   0.880
 6690SOL    HW120969   0.399   7.014   0.831
 6690SOL    HW220970   0.290   0.054   0.936
 6691SOL     OW20971   2.293   0.596   2.367
 6691SOL    HW120972   2.383   0.624   2.332
 6691SOL    HW220973   2.233   0.676   2.371
 6692SOL     OW20974   3.943   3.904   3.632
 6692SOL    HW120975   4.023   3.884   3.689
 6692SOL    HW220976   3.873   3.834   3.647
 6693SOL     OW20977   3.821   2.124   5.331
 6693SOL    HW120978   3.761   2.201   5.355
 6693SOL    HW220979   3.766   2.044   5.310
 6694SOL     OW20980   3.934   5.694   1.317
 6694SOL    HW120981   3.965   5.680   1.411
 6694SOL    HW220982   4.007   5.737   1.264
 6695SOL     OW20983   2.844   2.127   6.943
 6695SOL    HW120984   2.759   2.148   6.893
 6695SOL    HW220985   2.872   2.034   6.923
 6696SOL     OW20986   3.536   3.032   3.949
 6696SOL    HW120987   3.501   2.992   3.864
 6696SOL    HW220988   3.509   2.976   4.027
 6697SOL     OW20989   4.757   1.847   2.978
 6697SOL    HW120990   4.797   1.923   3.029
 6697SOL    HW220991   4.807   1.763   2.998
 6698SOL     OW20992   3.724   2.039   0.792
 6698SOL    HW120993   3.638   1.997   0.821
 6698SOL    HW220994   3.727   2.043   0.692
 6699SOL     OW20995   2.600   5.880   5.989
 6699SOL    HW120996   2.682   5.854   6.039
 6699SOL    HW220997   2.623   5.894   5.892
 6700SOL     OW20998   0.239   1.329   1.690
 6700SOL    HW120999   0.140   1.335   1.678
 6700SOL    HW221000   0.284   1.368   1.610
 6701SOL     OW21001   5.498   5.350   1.583
 6701SOL    HW121002   5.587   5.305   1.594
 6701SOL    HW221003   5.511   5.437   1.536
 6702SOL     OW21004   2.503   2.467   1.241
 6702SOL    HW121005   2.474   2.562   1.249
 6702SOL    HW221006   2.546   2.438   1.327
 6703SOL     OW21007   6.152   0.225   1.004
 6703SOL    HW121008   6.146   0.300   0.938
 6703SOL    HW221009   6.141   0.138   0.956
 6704SOL     OW21010   3.865   2.194   2.900
 6704SOL    HW121011   3.800   2.133   2.856
 6704SOL    HW221012   3.831   2.220   2.991
 6705SOL     OW21013   6.167   3.497   1.806
 6705SOL    HW121014   6.074   3.493   1.770
 6705SOL    HW221015   6.232   3.504   1.731
 6706SOL     OW21016   1.099   5.402   1.442
 6706SOL    HW121017   1.062   5.490   1.472
 6706SOL    HW221018   1.075   5.387   1.346
 6707SOL     OW21019   5.723   6.966   3.386
 6707SOL    HW121020   5.659   6.907   3.336
 6707SOL    HW221021   5.705   6.960   3.484
 6708SOL     OW21022   5.984   5.104   0.494
 6708SOL    HW121023   5.954   5.198   0.476
 6708SOL    HW221024   6.078   5.093   0.461
 6709SOL     OW21025   1.858   6.549   2.484
 6709SOL    HW121026   1.889   6.454   2.491
 6709SOL    HW221027   1.765   6.551   2.449
 6710SOL     OW21028   3.715   1.007   6.363
 6710SOL    HW121029   3.669   1.003   6.452
 6710SOL    HW221030   3.655   1.053   6.297
 6711SOL     OW21031   5.080   6.479   5.304
 6711SOL    HW121032   5.072   6.568   5.349
 6711SOL    HW221033   5.012   6.472   5.231
 6712SOL     OW21034   5.682   3.837   0.603
 6712SOL    HW121035   5.619   3.805   0.532
 6712SOL    HW221036   5.637   3.906   0.660
 6713SOL     OW21037   2.328   0.642   2.794
 6713SOL    HW121038   2.365   0.630   2.886
 6713SOL    HW221039   2.378   0.584   2.730
 6714SOL     OW21040   6.525   0.940   6.146
 6714SOL    HW121041   6.431   0.961   6.120
 6714SOL    HW221042   6.557   1.006   6.213
 6715SOL     OW21043   0.993   0.441   0.501
 6715SOL    HW121044   0.982   0.360   0.559
 6715SOL    HW221045   1.044   0.511   0.550
 6716SOL     OW21046   0.530   5.670   2.021
 6716SOL    HW121047   0.563   5.617   1.943
 6716SOL    HW221048   0.571   5.634   2.105
 6717SOL     OW21049   3.443   2.879   6.926
 6717SOL    HW121050   3.368   2.857   6.864
 6717SOL    HW221051   3.490   2.961   6.895
 6718SOL     OW21052   5.043   0.606   0.816
 6718SOL    HW121053   4.987   0.634   0.738
 6718SOL    HW221054   5.036   0.674   0.889
 6719SOL     OW21055   2.820   6.624   0.507
 6719SOL    HW121056   2.905   6.638   0.557
 6719SOL    HW221057   2.783   6.534   0.530
 6720SOL     OW21058   1.992   7.013   4.401
 6720SOL    HW121059   1.958   6.925   4.369
 6720SOL    HW221060   2.046   0.035   4.329
 6721SOL     OW21061   6.524   6.408   0.214
 6721SOL    HW121062   6.612   6.454   0.226
 6721SOL    HW221063   6.511   6.342   0.289
 6722SOL     OW21064   6.779   3.130   1.337
 6722SOL    HW121065   6.732   3.057   1.387
 6722SOL    HW221066   6.813   3.197   1.402
 6723SOL     OW21067   1.499   0.052   4.778
 6723SOL    HW121068   1.408   0.027   4.811
 6723SOL    HW221069   1.566   7.009   4.813
 6724SOL     OW21070   2.298   3.560   6.204
 6724SOL    HW121071   2.238   3.507   6.263
 6724SOL    HW221072   2.306   3.514   6.115
 6725SOL     OW21073   0.186   3.572   1.721
 6725SOL    HW121074   0.121   3.643   1.749
 6725SOL    HW221075   0.196   3.574   1.622
 6726SOL     OW21076   1.154   2.854   4.735
 6726SOL    HW121077   1.111   2.942   4.758
 6726SOL    HW221078   1.120   2.823   4.646
 6727SOL     OW21079   0.279   4.731   5.725
 6727SOL    HW121080   0.344   4.668   5.769
 6727SOL    HW221081   0.301   4.825   5.753
 6728SOL     OW21082   3.935   2.136   2.206
 6728SOL    HW121083   3.874   2.203   2.165
 6728SOL    HW221084   3.883   2.078   2.269
 6729SOL     OW21085   6.043   0.752   1.179
 6729SOL    HW121086   6.142   0.765   1.177
 6729SOL    HW221087   6.012   0.716   1.091
 6730SOL     OW21088   1.837   6.750   1.411
 6730SOL    HW121089   1.918   6.741   1.469
 6730SOL    HW221090   1.755   6.752   1.468
 6731SOL     OW21091   1.585   6.675   1.262
 6731SOL    HW121092   1.672   6.720   1.281
 6731SOL    HW221093   1.556   6.696   1.168
 6732SOL     OW21094   5.747   4.135   5.022
 6732SOL    HW121095   5.692   4.148   5.105
 6732SOL    HW221096   5.763   4.038   5.007
 6733SOL     OW21097   3.105   5.517   6.175
 6733SOL    HW121098   3.202   5.510   6.155
 6733SOL    HW221099   3.091   5.519   6.274
 6734SOL     OW21100   5.777   1.970   4.218
 6734SOL    HW121101   5.759   1.941   4.124
 6734SOL    HW221102   5.696   2.017   4.254
 6735SOL     OW21103   6.313   3.878   5.018
 6735SOL    HW121104   6.244   3.889   5.090
 6735SOL    HW221105   6.293   3.940   4.943
 6736SOL     OW21106   2.920   3.638   0.061
 6736SOL    HW121107   2.877   3.703   0.123
 6736SOL    HW221108   2.858   3.619   7.006
 6737SOL     OW21109   1.601   3.081   0.842
 6737SOL    HW121110   1.608   3.092   0.941
 6737SOL    HW221111   1.691   3.092   0.800
 6738SOL     OW21112   1.664   5.923   3.374
 6738SOL    HW121113   1.730   5.871   3.428
 6738SOL    HW221114   1.594   5.860   3.339
 6739SOL     OW21115   4.972   5.685   4.513
 6739SOL    HW121116   4.983   5.612   4.447
 6739SOL    HW221117   4.893   5.741   4.487
 6740SOL     OW21118   0.481   0.228   5.330
 6740SOL    HW121119   0.383   0.207   5.331
 6740SOL    HW221120   0.514   0.239   5.424
 6741SOL     OW21121   4.439   2.166   5.863
 6741SOL    HW121122   4.435   2.250   5.808
 6741SOL    HW221123   4.528   2.122   5.848
 6742SOL     OW21124   5.847   5.890   3.413
 6742SOL    HW121125   5.850   5.825   3.489
 6742SOL    HW221126   5.927   5.949   3.416
 6743SOL     OW21127   4.541   4.409   6.444
 6743SOL    HW121128   4.527   4.503   6.411
 6743SOL    HW221129   4.637   4.397   6.470
 6744SOL     OW21130   6.088   3.972   6.197
 6744SOL    HW121131   6.109   3.975   6.294
 6744SOL    HW221132   6.166   3.932   6.148
 6745SOL     OW21133   0.281   7.009   3.877
 6745SOL    HW121134   0.232   6.994   3.791
 6745SOL    HW221135   0.346   0.063   3.865
 6746SOL     OW21136   1.164   1.123   4.126
 6746SOL    HW121137   1.222   1.062   4.071
 6746SOL    HW221138   1.085   1.151   4.071
 6747SOL     OW21139   5.400   1.121   5.619
 6747SOL    HW121140   5.343   1.052   5.664
 6747SOL    HW221141   5.342   1.196   5.586
 6748SOL     OW21142   2.970   1.817   3.421
 6748SOL    HW121143   2.994   1.814   3.324
 6748SOL    HW221144   2.871   1.809   3.431
 6749SOL     OW21145   3.421   4.648   1.092
 6749SOL    HW121146   3.515   4.648   1.059
 6749SOL    HW221147   3.367   4.715   1.040
 6750SOL     OW21148   3.296   1.881   4.292
 6750SOL    HW121149   3.288   1.979   4.272
 6750SOL    HW221150   3.256   1.862   4.381
 6751SOL     OW21151   5.081   6.987   2.957
 6751SOL    HW121152   5.001   0.004   3.003
 6751SOL    HW221153   5.093   6.891   2.984
 6752SOL     OW21154   1.496   0.031   3.175
 6752SOL    HW121155   1.536   0.075   3.095
 6752SOL    HW221156   1.410   0.077   3.199
 6753SOL     OW21157   2.829   1.336   6.379
 6753SOL    HW121158   2.776   1.414   6.411
 6753SOL    HW221159   2.833   1.337   6.280
 6754SOL     OW21160   0.074   1.743   1.170
 6754SOL    HW121161   0.068   1.842   1.167
 6754SOL    HW221162   0.077   1.707   1.076
 6755SOL     OW21163   4.034   0.984   2.380
 6755SOL    HW121164   4.085   0.951   2.300
 6755SOL    HW221165   3.947   0.934   2.386
 6756SOL     OW21166   3.739   5.828   5.416
 6756SOL    HW121167   3.763   5.880   5.498
 6756SOL    HW221168   3.669   5.761   5.439
 6757SOL     OW21169   3.944   2.357   0.562
 6757SOL    HW121170   3.898   2.397   0.483
 6757SOL    HW221171   3.903   2.393   0.646
 6758SOL     OW21172   6.201   2.385   2.060
 6758SOL    HW121173   6.146   2.304   2.079
 6758SOL    HW221174   6.187   2.413   1.965
 6759SOL     OW21175   1.677   4.224   4.133
 6759SOL    HW121176   1.618   4.148   4.106
 6759SOL    HW221177   1.625   4.287   4.191
 6760SOL     OW21178   7.001   4.205   2.146
 6760SOL    HW121179   0.005   4.295   2.110
 6760SOL    HW221180   6.909   4.210   2.186
 6761SOL     OW21181   6.674   2.475   5.905
 6761SOL    HW121182   6.629   2.440   5.823
 6761SOL    HW221183   6.614   2.463   5.984
 6762SOL     OW21184   0.764   4.509   4.440
 6762SOL    HW121185   0.696   4.556   4.384
 6762SOL    HW221186   0.851   4.559   4.437
 6763SOL     OW21187   6.616   5.614   3.557
 6763SOL    HW121188   6.535   5.566   3.523
 6763SOL    HW221189   6.688   5.610   3.487
 6764SOL     OW21190   1.907   5.885   1.182
 6764SOL    HW121191   1.911   5.894   1.083
 6764SOL    HW221192   1.831   5.938   1.218
 6765SOL     OW21193   5.512   4.848   3.763
 6765SOL    HW121194   5.501   4.810   3.854
 6765SOL    HW221195   5.516   4.775   3.695
 6766SOL     OW21196   5.339   6.298   5.945
 6766SOL    HW121197   5.435   6.311   5.972
 6766SOL    HW221198   5.331   6.309   5.846
 6767SOL     OW21199   2.291   1.561   1.122
 6767SOL    HW121200   2.351   1.505   1.064
 6767SOL    HW221201   2.242   1.502   1.186
 6768SOL     OW21202   1.412   6.494   4.802
 6768SOL    HW121203   1.500   6.510   4.847
 6768SOL    HW221204   1.374   6.407   4.833
 6769SOL     OW21205   2.262   0.569   5.964
 6769SOL    HW121206   2.321   0.525   6.032
 6769SOL    HW221207   2.208   0.499   5.916
 6770SOL     OW21208   5.587   1.587   3.104
 6770SOL    HW121209   5.540   1.545   3.182
 6770SOL    HW221210   5.588   1.523   3.027
 6771SOL     OW21211   4.051   1.654   3.192
 6771SOL    HW121212   4.029   1.738   3.143
 6771SOL    HW221213   3.969   1.599   3.203
 6772SOL     OW21214   4.375   2.309   2.964
 6772SOL    HW121215   4.419   2.241   3.022
 6772SOL    HW221216   4.278   2.287   2.955
 6773SOL     OW21217   6.797   5.893   1.634
 6773SOL    HW121218   6.714   5.857   1.590
 6773SOL    HW221219   6.877   5.868   1.581
 6774SOL     OW21220   0.794   3.825   4.868
 6774SOL    HW121221   0.776   3.825   4.967
 6774SOL    HW221222   0.734   3.760   4.823
 6775SOL     OW21223   2.677   2.170   2.110
 6775SOL    HW121224   2.629   2.154   2.024
 6775SOL    HW221225   2.761   2.222   2.092
 6776SOL     OW21226   4.764   3.912   6.963
 6776SOL    HW121227   4.721   3.876   0.024
 6776SOL    HW221228   4.827   3.986   6.988
 6777SOL     OW21229   4.936   4.588   0.657
 6777SOL    HW121230   4.875   4.660   0.625
 6777SOL    HW221231   5.013   4.579   0.594
 6778SOL     OW21232   6.074   5.258   2.169
 6778SOL    HW121233   6.034   5.349   2.183
 6778SOL    HW221234   6.173   5.263   2.183
 6779SOL     OW21235   5.803   5.784   6.082
 6779SOL    HW121236   5.856   5.838   6.016
 6779SOL    HW221237   5.803   5.830   6.170
 6780SOL     OW21238   1.869   2.681   2.369
 6780SOL    HW121239   1.801   2.754   2.362
 6780SOL    HW221240   1.858   2.633   2.456
 6781SOL     OW21241   6.873   2.329   4.257
 6781SOL    HW121242   6.799   2.315   4.323
 6781SOL    HW221243   6.927   2.245   4.250
 6782SOL     OW21244   0.591   0.880   2.660
 6782SOL    HW121245   0.534   0.946   2.610
 6782SOL    HW221246   0.634   0.818   2.594
 6783SOL     OW21247   6.251   1.098   5.352
 6783SOL    HW121248   6.340   1.070   5.317
 6783SOL    HW221249   6.219   1.178   5.301
 6784SOL     OW21250   1.471   3.444   1.104
 6784SOL    HW121251   1.380   3.435   1.063
 6784SOL    HW221252   1.524   3.511   1.053
 6785SOL     OW21253   5.867   5.793   4.567
 6785SOL    HW121254   5.919   5.767   4.485
 6785SOL    HW221255   5.774   5.818   4.541
 6786SOL     OW21256   1.829   2.258   0.903
 6786SOL    HW121257   1.875   2.346   0.896
 6786SOL    HW221258   1.897   2.186   0.918
 6787SOL     OW21259   2.513   2.832   6.980
 6787SOL    HW121260   2.426   2.803   7.020
 6787SOL    HW221261   2.585   2.824   0.027
 6788SOL     OW21262   1.395   4.407   1.301
 6788SOL    HW121263   1.320   4.344   1.280
 6788SOL    HW221264   1.361   4.501   1.301
 6789SOL     OW21265   0.630   5.344   3.301
 6789SOL    HW121266   0.632   5.288   3.383
 6789SOL    HW221267   0.540   5.387   3.292
 6790SOL     OW21268   0.317   3.679   0.626
 6790SOL    HW121269   0.411   3.652   0.649
 6790SOL    HW221270   0.257   3.657   0.703
 6791SOL     OW21271   3.943   1.706   2.202
 6791SOL    HW121272   4.039   1.697   2.229
 6791SOL    HW221273   3.937   1.746   2.111
 6792SOL     OW21274   6.081   6.990   4.625
 6792SOL    HW121275   6.103   6.925   4.552
 6792SOL    HW221276   6.148   6.981   4.698
 6793SOL     OW21277   2.089   1.353   0.688
 6793SOL    HW121278   2.018   1.390   0.629
 6793SOL    HW221279   2.069   1.377   0.783
 6794SOL     OW21280   5.303   0.475   5.725
 6794SOL    HW121281   5.226   0.457   5.786
 6794SOL    HW221282   5.268   0.506   5.637
 6795SOL     OW21283   1.980   6.407   0.438
 6795SOL    HW121284   2.006   6.343   0.366
 6795SOL    HW221285   1.951   6.356   0.519
 6796SOL     OW21286   5.807   0.459   3.058
 6796SOL    HW121287   5.758   0.547   3.056
 6796SOL    HW221288   5.876   0.461   3.130
 6797SOL     OW21289   6.854   2.647   1.840
 6797SOL    HW121290   6.809   2.603   1.918
 6797SOL    HW221291   6.855   2.583   1.763
 6798SOL     OW21292   5.599   6.610   1.903
 6798SOL    HW121293   5.660   6.557   1.962
 6798SOL    HW221294   5.610   6.708   1.924
 6799SOL     OW21295   0.055   0.351   2.197
 6799SOL    HW121296   0.149   0.318   2.182
 6799SOL    HW221297   0.007   0.353   2.110
 6800SOL     OW21298   2.135   3.064   2.009
 6800SOL    HW121299   2.098   3.154   1.986
 6800SOL    HW221300   2.234   3.069   2.014
 6801SOL     OW21301   0.544   6.948   2.797
 6801SOL    HW121302   0.539   6.908   2.706
 6801SOL    HW221303   0.638   6.945   2.831
 6802SOL     OW21304   3.511   5.646   1.628
 6802SOL    HW121305   3.465   5.696   1.555
 6802SOL    HW221306   3.487   5.686   1.716
 6803SOL     OW21307   4.067   3.502   5.576
 6803SOL    HW121308   4.070   3.404   5.555
 6803SOL    HW221309   3.971   3.532   5.579
 6804SOL     OW21310   3.350   4.917   4.063
 6804SOL    HW121311   3.366   4.947   3.968
 6804SOL    HW221312   3.260   4.876   4.070
 6805SOL     OW21313   0.464   4.827   6.565
 6805SOL    HW121314   0.461   4.732   6.533
 6805SOL    HW221315   0.372   4.857   6.589
 6806SOL     OW21316   6.503   0.439   3.283
 6806SOL    HW121317   6.517   0.510   3.214
 6806SOL    HW221318   6.467   0.480   3.366
 6807SOL     OW21319   3.280   3.716   1.340
 6807SOL    HW121320   3.242   3.807   1.326
 6807SOL    HW221321   3.354   3.720   1.406
 6808SOL     OW21322   6.828   2.228   5.847
 6808SOL    HW121323   6.849   2.150   5.906
 6808SOL    HW221324   6.777   2.296   5.900
 6809SOL     OW21325   0.826   3.159   1.335
 6809SOL    HW121326   0.850   3.256   1.336
 6809SOL    HW221327   0.871   3.113   1.411
 6810SOL     OW21328   1.909   1.005   2.551
 6810SOL    HW121329   1.875   1.081   2.606
 6810SOL    HW221330   1.834   0.969   2.495
 6811SOL     OW21331   5.265   3.575   1.888
 6811SOL    HW121332   5.288   3.532   1.801
 6811SOL    HW221333   5.297   3.518   1.964
 6812SOL     OW21334   3.150   3.710   4.871
 6812SOL    HW121335   3.205   3.785   4.906
 6812SOL    HW221336   3.060   3.743   4.846
 6813SOL     OW21337   5.204   3.204   3.238
 6813SOL    HW121338   5.207   3.164   3.329
 6813SOL    HW221339   5.111   3.198   3.201
 6814SOL     OW21340   3.693   1.776   5.947
 6814SOL    HW121341   3.654   1.715   5.879
 6814SOL    HW221342   3.722   1.861   5.903
 6815SOL     OW21343   3.909   5.919   0.977
 6815SOL    HW121344   3.863   5.854   1.037
 6815SOL    HW221345   3.843   5.986   0.944
 6816SOL     OW21346   6.707   0.746   6.244
 6816SOL    HW121347   6.632   0.806   6.215
 6816SOL    HW221348   6.771   0.734   6.169
 6817SOL     OW21349   2.261   2.575   2.710
 6817SOL    HW121350   2.221   2.563   2.619
 6817SOL    HW221351   2.361   2.567   2.704
 6818SOL     OW21352   2.452   6.648   1.587
 6818SOL    HW121353   2.495   6.725   1.540
 6818SOL    HW221354   2.444   6.571   1.525
 6819SOL     OW21355   3.972   1.877   3.107
 6819SOL    HW121356   4.008   1.909   3.020
 6819SOL    HW221357   3.948   1.955   3.164
 6820SOL     OW21358   2.071   6.435   1.904
 6820SOL    HW121359   1.978   6.433   1.867
 6820SOL    HW221360   2.079   6.506   1.974
 6821SOL     OW21361   3.966   2.097   5.101
 6821SOL    HW121362   3.937   2.103   5.197
 6821SOL    HW221363   3.889   2.065   5.045
 6822SOL     OW21364   5.817   2.379   5.866
 6822SOL    HW121365   5.782   2.439   5.938
 6822SOL    HW221366   5.739   2.336   5.818
 6823SOL     OW21367   4.936   3.603   5.726
 6823SOL    HW121368   4.994   3.637   5.651
 6823SOL    HW221369   4.844   3.639   5.716
 6824SOL     OW21370   1.456   2.144   0.336
 6824SOL    HW121371   1.403   2.080   0.280
 6824SOL    HW221372   1.418   2.148   0.428
 6825SOL     OW21373   5.486   7.010   0.995
 6825SOL    HW121374   5.439   0.076   1.007
 6825SOL    HW221375   5.546   7.016   0.914
 6826SOL     OW21376   2.128   3.374   3.481
 6826SOL    HW121377   2.163   3.296   3.534
 6826SOL    HW221378   2.113   3.345   3.386
 6827SOL     OW21379   4.362   4.985   6.691
 6827SOL    HW121380   4.432   4.994   6.620
 6827SOL    HW221381   4.378   5.055   6.761
 6828SOL     OW21382   2.966   1.330   1.843
 6828SOL    HW121383   3.027   1.403   1.872
 6828SOL    HW221384   2.923   1.354   1.756
 6829SOL     OW21385   5.232   5.917   5.052
 6829SOL    HW121386   5.295   5.984   5.091
 6829SOL    HW221387   5.275   5.873   4.974
 6830SOL     OW21388   5.005   0.751   3.482
 6830SOL    HW121389   4.998   0.726   3.385
 6830SOL    HW221390   5.042   0.674   3.534
 6831SOL     OW21391   1.118   0.410   6.958
 6831SOL    HW121392   1.120   0.358   6.872
 6831SOL    HW221393   1.209   0.446   6.977
 6832SOL     OW21394   2.740   4.431   0.734
 6832SOL    HW121395   2.768   4.369   0.808
 6832SOL    HW221396   2.681   4.382   0.670
 6833SOL     OW21397   3.469   4.427   6.259
 6833SOL    HW121398   3.512   4.464   6.177
 6833SOL    HW221399   3.450   4.330   6.245
 6834SOL     OW21400   4.885   6.949   0.432
 6834SOL    HW121401   4.810   6.887   0.405
 6834SOL    HW221402   4.954   6.951   0.359
 6835SOL     OW21403   4.094   0.863   4.637
 6835SOL    HW121404   4.108   0.845   4.540
 6835SOL    HW221405   4.182   0.854   4.685
 6836SOL     OW21406   2.729   4.820   0.504
 6836SOL    HW121407   2.630   4.805   0.497
 6836SOL    HW221408   2.777   4.750   0.452
 6837SOL     OW21409   0.690   2.127   2.215
 6837SOL    HW121410   0.600   2.089   2.233
 6837SOL    HW221411   0.758   2.080   2.272
 6838SOL     OW21412   3.474   6.252   0.001
 6838SOL    HW121413   3.536   6.183   0.036
 6838SOL    HW221414   3.509   6.343   0.023
 6839SOL     OW21415   6.081   1.053   6.336
 6839SOL    HW121416   6.057   1.132   6.392
 6839SOL    HW221417   6.002   1.026   6.281
 6840SOL     OW21418   3.482   0.668   4.494
 6840SOL    HW121419   3.384   0.683   4.504
 6840SOL    HW221420   3.500   0.570   4.490
 6841SOL     OW21421   4.307   4.279   0.299
 6841SOL    HW121422   4.334   4.284   0.203
 6841SOL    HW221423   4.309   4.370   0.340
 6842SOL     OW21424   2.723   3.958   0.571
 6842SOL    HW121425   2.668   3.989   0.648
 6842SOL    HW221426   2.687   3.999   0.486
 6843SOL     OW21427   6.096   6.360   1.297
 6843SOL    HW121428   6.072   6.454   1.321
 6843SOL    HW221429   6.119   6.355   1.200
 6844SOL     OW21430   4.885   0.606   3.733
 6844SOL    HW121431   4.978   0.575   3.711
 6844SOL    HW221432   4.853   0.667   3.660
 6845SOL     OW21433   6.549   4.182   3.616
 6845SOL    HW121434   6.607   4.262   3.601
 6845SOL    HW221435   6.469   4.209   3.670
 6846SOL     OW21436   3.762   3.309   0.464
 6846SOL    HW121437   3.810   3.228   0.430
 6846SOL    HW221438   3.828   3.380   0.488
 6847SOL     OW21439   0.434   3.550   4.224
 6847SOL    HW121440   0.520   3.541   4.174
 6847SOL    HW221441   0.447   3.521   4.319
 6848SOL     OW21442   4.599   6.464   3.491
 6848SOL    HW121443   4.544   6.393   3.448
 6848SOL    HW221444   4.576   6.470   3.589
 6849SOL     OW21445   4.165   4.980   4.955
 6849SOL    HW121446   4.204   5.069   4.933
 6849SOL    HW221447   4.077   4.969   4.908
 6850SOL     OW21448   5.732   4.352   2.092
 6850SOL    HW121449   5.691   4.290   2.158
 6850SOL    HW221450   5.785   4.422   2.141
 6851SOL     OW21451   0.717   2.401   3.000
 6851SOL    HW121452   0.729   2.438   2.908
 6851SOL    HW221453   0.651   2.326   2.998
 6852SOL     OW21454   2.896   5.011   0.602
 6852SOL    HW121455   2.991   4.981   0.599
 6852SOL    HW221456   2.836   4.936   0.574
 6853SOL     OW21457   6.040   4.442   0.542
 6853SOL    HW121458   6.041   4.366   0.607
 6853SOL    HW221459   6.132   4.456   0.505
 6854SOL     OW21460   4.614   1.866   6.413
 6854SOL    HW121461   4.597   1.788   6.472
 6854SOL    HW221462   4.528   1.915   6.396
 6855SOL     OW21463   4.163   5.468   3.510
 6855SOL    HW121464   4.258   5.476   3.541
 6855SOL    HW221465   4.140   5.546   3.452
 6856SOL     OW21466   5.734   3.002   5.387
 6856SOL    HW121467   5.665   2.930   5.397
 6856SOL    HW221468   5.696   3.078   5.334
 6857SOL     OW21469   3.213   2.813   6.812
 6857SOL    HW121470   3.136   2.773   6.861
 6857SOL    HW221471   3.189   2.828   6.716
 6858SOL     OW21472   4.029   3.680   3.193
 6858SOL    HW121473   3.930   3.666   3.192
 6858SOL    HW221474   4.053   3.739   3.271
 6859SOL     OW21475   0.250   1.571   1.319
 6859SOL    HW121476   0.181   1.619   1.265
 6859SOL    HW221477   0.256   1.612   1.410
 6860SOL     OW21478   6.857   4.959   0.934
 6860SOL    HW121479   6.813   4.913   0.857
 6860SOL    HW221480   6.830   4.914   1.020
 6861SOL     OW21481   4.276   5.405   0.294
 6861SOL    HW121482   4.243   5.311   0.307
 6861SOL    HW221483   4.235   5.464   0.364
 6862SOL     OW21484   1.289   5.274   6.436
 6862SOL    HW121485   1.249   5.200   6.382
 6862SOL    HW221486   1.228   5.353   6.435
 6863SOL     OW21487   5.854   6.842   6.004
 6863SOL    HW121488   5.900   6.785   6.071
 6863SOL    HW221489   5.755   6.828   6.010
 6864SOL     OW21490   2.639   5.268   4.470
 6864SOL    HW121491   2.687   5.198   4.416
 6864SOL    HW221492   2.670   5.264   4.565
 6865SOL     OW21493   1.271   6.190   3.980
 6865SOL    HW121494   1.173   6.178   3.961
 6865SOL    HW221495   1.324   6.127   3.923
 6866SOL     OW21496   6.117   4.792   3.898
 6866SOL    HW121497   6.126   4.696   3.872
 6866SOL    HW221498   6.038   4.803   3.958
 6867SOL     OW21499   2.269   4.669   1.423
 6867SOL    HW121500   2.317   4.581   1.420
 6867SOL    HW221501   2.265   4.708   1.331
 6868SOL     OW21502   1.130   5.518   6.479
 6868SOL    HW121503   1.206   5.553   6.534
 6868SOL    HW221504   1.045   5.562   6.507
 6869SOL     OW21505   5.899   0.924   5.900
 6869SOL    HW121506   5.975   0.919   5.834
 6869SOL    HW221507   5.856   0.834   5.907
 6870SOL     OW21508   0.598   5.213   1.774
 6870SOL    HW121509   0.679   5.224   1.716
 6870SOL    HW221510   0.521   5.183   1.717
 6871SOL     OW21511   6.192   4.101   3.382
 6871SOL    HW121512   6.160   4.045   3.459
 6871SOL    HW221513   6.266   4.161   3.413
 6872SOL     OW21514   0.413   2.296   1.192
 6872SOL    HW121515   0.354   2.262   1.265
 6872SOL    HW221516   0.501   2.325   1.231
 6873SOL     OW21517   6.684   3.572   4.341
 6873SOL    HW121518   6.591   3.600   4.314
 6873SOL    HW221519   6.737   3.654   4.364
 6874SOL     OW21520   6.881   5.676   2.561
 6874SOL    HW121521   6.980   5.677   2.548
 6874SOL    HW221522   6.858   5.725   2.646
 6875SOL     OW21523   2.610   2.401   2.238
 6875SOL    HW121524   2.594   2.448   2.151
 6875SOL    HW221525   2.623   2.304   2.221
 6876SOL     OW21526   3.722   0.045   3.618
 6876SOL    HW121527   3.775   6.990   3.656
 6876SOL    HW221528   3.640   0.060   3.674
 6877SOL     OW21529   2.430   4.062   0.695
 6877SOL    HW121530   2.389   3.976   0.724
 6877SOL    HW221531   2.452   4.058   0.597
 6878SOL     OW21532   3.298   1.122   4.414
 6878SOL    HW121533   3.383   1.076   4.388
 6878SOL    HW221534   3.298   1.138   4.513
 6879SOL     OW21535   0.799   2.612   0.649
 6879SOL    HW121536   0.707   2.652   0.643
 6879SOL    HW221537   0.843   2.641   0.734
 6880SOL     OW21538   2.340   5.661   5.078
 6880SOL    HW121539   2.380   5.751   5.092
 6880SOL    HW221540   2.274   5.665   5.003
 6881SOL     OW21541   1.407   4.894   1.130
 6881SOL    HW121542   1.473   4.943   1.188
 6881SOL    HW221543   1.347   4.959   1.085
 6882SOL     OW21544   2.755   0.502   0.282
 6882SOL    HW121545   2.824   0.550   0.228
 6882SOL    HW221546   2.674   0.486   0.227
 6883SOL     OW21547   4.915   1.579   6.758
 6883SOL    HW121548   4.925   1.619   6.667
 6883SOL    HW221549   4.973   1.497   6.765
 6884SOL     OW21550   1.930   4.531   3.440
 6884SOL    HW121551   1.937   4.614   3.496
 6884SOL    HW221552   2.015   4.518   3.389
 6885SOL     OW21553   4.169   5.034   4.100
 6885SOL    HW121554   4.121   5.118   4.075
 6885SOL    HW221555   4.259   5.056   4.136
 6886SOL     OW21556   6.973   1.169   4.212
 6886SOL    HW121557   6.927   1.092   4.257
 6886SOL    HW221558   0.049   1.166   4.232
 6887SOL     OW21559   4.995   5.536   6.181
 6887SOL    HW121560   4.919   5.592   6.147
 6887SOL    HW221561   5.025   5.571   6.270
 6888SOL     OW21562   5.723   5.581   6.569
 6888SOL    HW121563   5.687   5.564   6.661
 6888SOL    HW221564   5.757   5.495   6.531
 6889SOL     OW21565   1.992   2.569   5.266
 6889SOL    HW121566   1.985   2.474   5.234
 6889SOL    HW221567   1.927   2.626   5.216
 6890SOL     OW21568   4.483   6.609   1.890
 6890SOL    HW121569   4.442   6.700   1.883
 6890SOL    HW221570   4.495   6.586   1.986
 6891SOL     OW21571   2.405   4.356   3.227
 6891SOL    HW121572   2.418   4.435   3.288
 6891SOL    HW221573   2.407   4.386   3.132
 6892SOL     OW21574   3.053   2.077   3.536
 6892SOL    HW121575   3.035   1.979   3.520
 6892SOL    HW221576   3.150   2.089   3.558
 6893SOL     OW21577   4.669   4.557   6.983
 6893SOL    HW121578   4.752   4.613   6.990
 6893SOL    HW221579   4.627   4.572   6.894
 6894SOL     OW21580   6.048   5.128   0.863
 6894SOL    HW121581   5.962   5.089   0.830
 6894SOL    HW221582   6.120   5.113   0.796
 6895SOL     OW21583   3.304   5.026   0.697
 6895SOL    HW121584   3.381   5.068   0.648
 6895SOL    HW221585   3.227   5.014   0.634
 6896SOL     OW21586   2.259   6.876   4.087
 6896SOL    HW121587   2.279   6.900   3.992
 6896SOL    HW221588   2.229   6.958   4.136
 6897SOL     OW21589   4.695   3.567   5.417
 6897SOL    HW121590   4.692   3.566   5.317
 6897SOL    HW221591   4.603   3.582   5.453
 6898SOL     OW21592   4.331   1.457   2.192
 6898SOL    HW121593   4.305   1.444   2.097
 6898SOL    HW221594   4.400   1.390   2.218
 6899SOL     OW21595   5.236   6.145   1.423
 6899SOL    HW121596   5.249   6.235   1.380
 6899SOL    HW221597   5.178   6.155   1.503
 6900SOL     OW21598   6.146   5.914   5.288
 6900SOL    HW121599   6.221   5.941   5.227
 6900SOL    HW221600   6.175   5.837   5.344
 6901SOL     OW21601   6.764   6.370   6.289
 6901SOL    HW121602   6.836   6.403   6.228
 6901SOL    HW221603   6.805   6.321   6.366
 6902SOL     OW21604   5.584   5.917   6.636
 6902SOL    HW121605   5.578   5.871   6.725
 6902SOL    HW221606   5.551   5.855   6.564
 6903SOL     OW21607   2.902   5.009   5.102
 6903SOL    HW121608   2.932   4.945   5.031
 6903SOL    HW221609   2.819   4.973   5.146
 6904SOL     OW21610   6.451   0.946   4.750
 6904SOL    HW121611   6.545   0.981   4.759
 6904SOL    HW221612   6.434   0.879   4.822
 6905SOL     OW21613   5.905   6.557   6.425
 6905SOL    HW121614   5.977   6.569   6.493
 6905SOL    HW221615   5.937   6.495   6.353
 6906SOL     OW21616   4.448   1.152   4.131
 6906SOL    HW121617   4.455   1.221   4.059
 6906SOL    HW221618   4.477   1.193   4.218
 6907SOL     OW21619   5.095   2.967   1.750
 6907SOL    HW121620   5.069   2.909   1.827
 6907SOL    HW221621   5.019   3.026   1.725
 6908SOL     OW21622   0.661   4.922   6.395
 6908SOL    HW121623   0.745   4.960   6.434
 6908SOL    HW221624   0.601   4.892   6.469
 6909SOL     OW21625   5.014   4.393   1.608
 6909SOL    HW121626   5.100   4.436   1.633
 6909SOL    HW221627   4.981   4.336   1.683
 6910SOL     OW21628   0.684   2.760   3.332
 6910SOL    HW121629   0.778   2.792   3.318
 6910SOL    HW221630   0.668   2.677   3.280
 6911SOL     OW21631   4.343   6.171   3.824
 6911SOL    HW121632   4.412   6.191   3.893
 6911SOL    HW221633   4.359   6.079   3.786
 6912SOL     OW21634   3.918   4.037   6.287
 6912SOL    HW121635   3.832   4.073   6.322
 6912SOL    HW221636   3.908   4.017   6.189
 6913SOL     OW21637   5.625   5.836   3.966
 6913SOL    HW121638   5.559   5.904   3.998
 6913SOL    HW221639   5.576   5.759   3.926
 6914SOL     OW21640   6.120   3.914   3.619
 6914SOL    HW121641   6.068   3.948   3.697
 6914SOL    HW221642   6.215   3.899   3.646
 6915SOL     OW21643   5.996   2.796   1.948
 6915SOL    HW121644   5.981   2.740   1.866
 6915SOL    HW221645   6.074   2.761   1.999
 6916SOL     OW21646   5.979   2.122   0.115
 6916SOL    HW121647   5.912   2.049   0.130
 6916SOL    HW221648   6.060   2.085   0.070
 6917SOL     OW21649   3.350   0.068   1.495
 6917SOL    HW121650   3.391   7.005   1.528
 6917SOL    HW221651   3.420   0.127   1.455
 6918SOL     OW21652   0.459   2.717   4.739
 6918SOL    HW121653   0.533   2.682   4.796
 6918SOL    HW221654   0.472   2.816   4.725
 6919SOL     OW21655   6.468   5.772   3.768
 6919SOL    HW121656   6.527   5.718   3.708
 6919SOL    HW221657   6.478   5.740   3.862
 6920SOL     OW21658   4.019   5.985   5.543
 6920SOL    HW121659   3.949   5.933   5.591
 6920SOL    HW221660   4.029   6.075   5.584
 6921SOL     OW21661   5.115   5.477   3.896
 6921SOL    HW121662   5.024   5.516   3.883
 6921SOL    HW221663   5.181   5.528   3.842
 6922SOL     OW21664   1.624   6.215   4.822
 6922SOL    HW121665   1.558   6.217   4.896
 6922SOL    HW221666   1.576   6.220   4.734
 6923SOL     OW21667   4.761   5.502   3.640
 6923SOL    HW121668   4.714   5.586   3.612
 6923SOL    HW221669   4.704   5.451   3.704
 6924SOL     OW21670   2.350   4.144   6.532
 6924SOL    HW121671   2.387   4.195   6.610
 6924SOL    HW221672   2.330   4.208   6.457
 6925SOL     OW21673   4.975   6.070   3.768
 6925SOL    HW121674   4.973   6.085   3.670
 6925SOL    HW221675   4.991   6.157   3.815
 6926SOL     OW21676   2.911   2.398   1.134
 6926SOL    HW121677   2.900   2.468   1.063
 6926SOL    HW221678   2.992   2.343   1.115
 6927SOL     OW21679   4.085   2.639   5.966
 6927SOL    HW121680   4.076   2.738   5.965
 6927SOL    HW221681   4.111   2.608   6.057
 6928SOL     OW21682   5.662   5.698   0.855
 6928SOL    HW121683   5.616   5.675   0.768
 6928SOL    HW221684   5.648   5.795   0.875
 6929SOL     OW21685   5.472   5.558   1.388
 6929SOL    HW121686   5.380   5.591   1.371
 6929SOL    HW221687   5.520   5.621   1.449
 6930SOL     OW21688   0.856   0.440   2.584
 6930SOL    HW121689   0.793   0.373   2.543
 6930SOL    HW221690   0.821   0.532   2.569
 6931SOL     OW21691   1.953   0.647   2.435
 6931SOL    HW121692   2.022   0.592   2.482
 6931SOL    HW221693   1.873   0.589   2.415
 6932SOL     OW21694   4.489   6.253   0.352
 6932SOL    HW121695   4.507   6.296   0.440
 6932SOL    HW221696   4.524   6.159   0.353
 6933SOL     OW21697   3.246   6.227   5.443
 6933SOL    HW121698   3.232   6.147   5.385
 6933SOL    HW221699   3.332   6.217   5.492
 6934SOL     OW21700   4.855   3.796   6.394
 6934SOL    HW121701   4.947   3.819   6.427
 6934SOL    HW221702   4.788   3.816   6.466
 6935SOL     OW21703   4.946   5.407   2.301
 6935SOL    HW121704   4.869   5.371   2.353
 6935SOL    HW221705   4.998   5.471   2.358
 6936SOL     OW21706   5.899   1.538   3.093
 6936SOL    HW121707   5.933   1.623   3.131
 6936SOL    HW221708   5.799   1.537   3.097
 6937SOL     OW21709   6.255   6.181   0.148
 6937SOL    HW121710   6.284   6.266   0.105
 6937SOL    HW221711   6.194   6.201   0.225
 6938SOL     OW21712   5.742   3.075   4.854
 6938SOL    HW121713   5.814   3.007   4.867
 6938SOL    HW221714   5.759   3.124   4.768
 6939SOL     OW21715   1.299   5.240   1.787
 6939SOL    HW121716   1.397   5.243   1.768
 6939SOL    HW221717   1.259   5.158   1.746
 6940SOL     OW21718   3.802   0.827   6.152
 6940SOL    HW121719   3.778   0.848   6.246
 6940SOL    HW221720   3.877   0.887   6.122
 6941SOL     OW21721   3.406   4.149   1.770
 6941SOL    HW121722   3.371   4.127   1.679
 6941SOL    HW221723   3.347   4.107   1.839
 6942SOL     OW21724   6.155   7.018   1.162
 6942SOL    HW121725   6.104   6.994   1.244
 6942SOL    HW221726   6.142   0.094   1.141
 6943SOL     OW21727   3.355   5.723   6.972
 6943SOL    HW121728   3.293   5.732   6.894
 6943SOL    HW221729   3.302   5.690   0.030
 6944SOL     OW21730   0.663   4.153   6.513
 6944SOL    HW121731   0.756   4.116   6.510
 6944SOL    HW221732   0.606   4.097   6.574
 6945SOL     OW21733   6.241   1.117   6.734
 6945SOL    HW121734   6.275   1.208   6.710
 6945SOL    HW221735   6.273   1.051   6.667
 6946SOL     OW21736   4.630   6.939   0.600
 6946SOL    HW121737   4.566   7.013   0.581
 6946SOL    HW221738   4.588   6.874   0.664
 6947SOL     OW21739   2.907   5.785   6.468
 6947SOL    HW121740   2.935   5.843   6.391
 6947SOL    HW221741   2.926   5.690   6.446
 6948SOL     OW21742   0.625   0.522   0.756
 6948SOL    HW121743   0.669   0.517   0.666
 6948SOL    HW221744   0.578   0.436   0.774
 6949SOL     OW21745   3.941   6.958   3.195
 6949SOL    HW121746   3.980   6.867   3.203
 6949SOL    HW221747   3.841   6.951   3.188
 6950SOL     OW21748   1.639   2.173   4.552
 6950SOL    HW121749   1.702   2.239   4.593
 6950SOL    HW221750   1.549   2.214   4.542
 6951SOL     OW21751   6.365   5.362   5.988
 6951SOL    HW121752   6.339   5.265   5.981
 6951SOL    HW221753   6.439   5.371   6.055
 6952SOL     OW21754   0.304   5.993   3.097
 6952SOL    HW121755   0.249   5.920   3.139
 6952SOL    HW221756   0.361   5.954   3.024
 6953SOL     OW21757   4.332   6.499   1.099
 6953SOL    HW121758   4.265   6.434   1.133
 6953SOL    HW221759   4.303   6.592   1.120
 6954SOL     OW21760   0.007   3.743   2.591
 6954SOL    HW121761   0.081   3.711   2.650
 6954SOL    HW221762   6.941   3.707   2.625
 6955SOL     OW21763   6.148   0.301   2.161
 6955SOL    HW121764   6.120   0.396   2.170
 6955SOL    HW221765   6.202   0.289   2.078
 6956SOL     OW21766   5.834   6.300   3.786
 6956SOL    HW121767   5.791   6.216   3.754
 6956SOL    HW221768   5.805   6.318   3.880
 6957SOL     OW21769   6.301   5.506   0.513
 6957SOL    HW121770   6.326   5.412   0.491
 6957SOL    HW221771   6.327   5.566   0.437
 6958SOL     OW21772   3.934   3.103   4.204
 6958SOL    HW121773   3.898   3.150   4.123
 6958SOL    HW221774   3.912   3.006   4.197
 6959SOL     OW21775   2.004   3.094   3.988
 6959SOL    HW121776   2.063   3.015   4.006
 6959SOL    HW221777   2.025   3.167   4.053
 6960SOL     OW21778   2.139   4.968   1.413
 6960SOL    HW121779   2.078   4.910   1.359
 6960SOL    HW221780   2.194   4.910   1.474
 6961SOL     OW21781   5.803   1.355   4.101
 6961SOL    HW121782   5.865   1.278   4.117
 6961SOL    HW221783   5.714   1.335   4.144
 6962SOL     OW21784   5.078   6.392   1.878
 6962SOL    HW121785   5.137   6.321   1.918
 6962SOL    HW221786   4.984   6.376   1.907
 6963SOL     OW21787   5.246   6.015   0.771
 6963SOL    HW121788   5.183   5.992   0.845
 6963SOL    HW221789   5.314   6.080   0.805
 6964SOL     OW21790   3.042   1.003   5.451
 6964SOL    HW121791   3.086   1.086   5.484
 6964SOL    HW221792   3.046   0.932   5.522
 6965SOL     OW21793   0.900   1.379   0.601
 6965SOL    HW121794   0.854   1.293   0.622
 6965SOL    HW221795   0.945   1.414   0.683
 6966SOL     OW21796   1.134   2.152   3.101
 6966SOL    HW121797   1.097   2.135   3.010
 6966SOL    HW221798   1.088   2.232   3.141
 6967SOL     OW21799   2.590   1.005   5.570
 6967SOL    HW121800   2.497   0.990   5.536
 6967SOL    HW221801   2.655   0.961   5.508
 6968SOL     OW21802   3.809   6.922   2.891
 6968SOL    HW121803   3.771   6.842   2.938
 6968SOL    HW221804   3.856   6.980   2.958
 6969SOL     OW21805   3.396   2.492   1.593
 6969SOL    HW121806   3.316   2.479   1.651
 6969SOL    HW221807   3.392   2.428   1.516
 6970SOL     OW21808   4.458   4.643   5.375
 6970SOL    HW121809   4.407   4.580   5.433
 6970SOL    HW221810   4.503   4.712   5.432
 6971SOL     OW21811   6.787   4.738   1.515
 6971SOL    HW121812   6.854   4.696   1.453
 6971SOL    HW221813   6.710   4.774   1.462
 6972SOL     OW21814   5.556   4.813   3.124
 6972SOL    HW121815   5.579   4.860   3.039
 6972SOL    HW221816   5.511   4.726   3.102
 6973SOL     OW21817   1.143   3.071   3.319
 6973SOL    HW121818   1.210   3.018   3.372
 6973SOL    HW221819   1.096   3.134   3.380
 6974SOL     OW21820   2.889   3.557   3.104
 6974SOL    HW121821   2.845   3.602   3.026
 6974SOL    HW221822   2.963   3.614   3.138
 6975SOL     OW21823   2.157   6.369   6.294
 6975SOL    HW121824   2.202   6.317   6.222
 6975SOL    HW221825   2.063   6.390   6.267
 6976SOL     OW21826   5.728   5.138   5.276
 6976SOL    HW121827   5.669   5.219   5.266
 6976SOL    HW221828   5.786   5.129   5.196
 6977SOL     OW21829   3.901   2.900   1.727
 6977SOL    HW121830   3.807   2.903   1.694
 6977SOL    HW221831   3.904   2.930   1.822
 6978SOL     OW21832   6.067   1.653   1.957
 6978SOL    HW121833   6.075   1.572   1.899
 6978SOL    HW221834   6.126   1.642   2.037
 6979SOL     OW21835   0.979   4.413   1.328
 6979SOL    HW121836   1.004   4.355   1.407
 6979SOL    HW221837   0.975   4.356   1.246
 6980SOL     OW21838   2.141   0.762   3.957
 6980SOL    HW121839   2.206   0.830   3.923
 6980SOL    HW221840   2.169   0.671   3.927
 6981SOL     OW21841   3.877   2.536   5.786
 6981SOL    HW121842   3.964   2.574   5.818
 6981SOL    HW221843   3.810   2.541   5.859
 6982SOL     OW21844   1.465   0.896   4.818
 6982SOL    HW121845   1.486   0.977   4.873
 6982SOL    HW221846   1.441   0.820   4.879
 6983SOL     OW21847   3.299   2.042   3.682
 6983SOL    HW121848   3.387   2.039   3.729
 6983SOL    HW221849   3.270   1.950   3.658
 6984SOL     OW21850   1.777   1.502   3.469
 6984SOL    HW121851   1.754   1.414   3.512
 6984SOL    HW221852   1.840   1.553   3.527
 6985SOL     OW21853   5.775   5.307   1.671
 6985SOL    HW121854   5.805   5.271   1.582
 6985SOL    HW221855   5.844   5.288   1.740
 6986SOL     OW21856   2.270   0.257   6.270
 6986SOL    HW121857   2.343   0.319   6.243
 6986SOL    HW221858   2.183   0.291   6.237
 6987SOL     OW21859   5.888   1.310   6.245
 6987SOL    HW121860   5.856   1.216   6.254
 6987SOL    HW221861   5.842   1.355   6.168
 6988SOL     OW21862   0.593   6.925   5.927
 6988SOL    HW121863   0.528   6.860   5.966
 6988SOL    HW221864   0.668   6.874   5.884
 6989SOL     OW21865   0.913   3.585   3.243
 6989SOL    HW121866   0.977   3.658   3.265
 6989SOL    HW221867   0.869   3.553   3.326
 6990SOL     OW21868   5.051   2.647   1.408
 6990SOL    HW121869   4.962   2.689   1.388
 6990SOL    HW221870   5.052   2.618   1.504
 6991SOL     OW21871   4.115   4.784   3.048
 6991SOL    HW121872   4.163   4.719   2.989
 6991SOL    HW221873   4.179   4.822   3.114
 6992SOL     OW21874   5.321   6.613   6.248
 6992SOL    HW121875   5.286   6.521   6.226
 6992SOL    HW221876   5.332   6.622   6.347
 6993SOL     OW21877   5.489   0.318   3.237
 6993SOL    HW121878   5.541   0.292   3.318
 6993SOL    HW221879   5.500   0.249   3.166
 6994SOL     OW21880   0.216   2.411   4.276
 6994SOL    HW121881   0.164   2.492   4.302
 6994SOL    HW221882   0.209   2.342   4.348
 6995SOL     OW21883   0.117   4.804   6.298
 6995SOL    HW121884   0.158   4.737   6.361
 6995SOL    HW221885   0.189   4.859   6.256
 6996SOL     OW21886   1.725   6.977   6.323
 6996SOL    HW121887   1.762   7.011   6.237
 6996SOL    HW221888   1.626   6.970   6.316
 6997SOL     OW21889   6.867   6.028   5.520
 6997SOL    HW121890   6.815   6.102   5.477
 6997SOL    HW221891   6.804   5.962   5.561
 6998SOL     OW21892   2.321   0.530   1.729
 6998SOL    HW121893   2.410   0.546   1.687
 6998SOL    HW221894   2.333   0.497   1.822
 6999SOL     OW21895   2.185   2.068   0.082
 6999SOL    HW121896   2.242   2.090   0.162
 6999SOL    HW221897   2.159   2.152   0.036
 7000SOL     OW21898   4.996   0.115   1.356
 7000SOL    HW121899   5.084   0.133   1.311
 7000SOL    HW221900   4.982   0.182   1.429
 7001SOL     OW21901   1.744   2.990   5.996
 7001SOL    HW121902   1.693   3.049   5.933
 7001SOL    HW221903   1.842   3.009   5.988
 7002SOL     OW21904   1.714   5.461   3.833
 7002SOL    HW121905   1.719   5.493   3.738
 7002SOL    HW221906   1.716   5.540   3.894
 7003SOL     OW21907   4.513   5.513   0.483
 7003SOL    HW121908   4.487   5.438   0.422
 7003SOL    HW221909   4.475   5.599   0.449
 7004SOL     OW21910   0.827   5.450   2.115
 7004SOL    HW121911   0.868   5.523   2.168
 7004SOL    HW221912   0.779   5.387   2.176
 7005SOL     OW21913   0.875   6.829   0.760
 7005SOL    HW121914   0.955   6.851   0.817
 7005SOL    HW221915   0.883   6.877   0.673
 7006SOL     OW21916   5.266   4.991   3.944
 7006SOL    HW121917   5.228   5.080   3.970
 7006SOL    HW221918   5.277   4.934   4.026
 7007SOL     OW21919   4.432   0.664   4.162
 7007SOL    HW121920   4.433   0.600   4.085
 7007SOL    HW221921   4.410   0.756   4.129
 7008SOL     OW21922   0.086   4.084   4.534
 7008SOL    HW121923   0.150   4.122   4.467
 7008SOL    HW221924   0.109   4.118   4.625
 7009SOL     OW21925   5.394   6.141   2.332
 7009SOL    HW121926   5.349   6.213   2.385
 7009SOL    HW221927   5.457   6.091   2.391
 7010SOL     OW21928   5.401   4.028   3.801
 7010SOL    HW121929   5.418   4.062   3.893
 7010SOL    HW221930   5.316   3.975   3.801
 7011SOL     OW21931   2.834   6.629   0.160
 7011SOL    HW121932   2.776   6.631   0.242
 7011SOL    HW221933   2.792   6.684   0.088
 7012SOL     OW21934   0.515   1.743   1.972
 7012SOL    HW121935   0.566   1.827   1.951
 7012SOL    HW221936   0.429   1.743   1.919
 7013SOL     OW21937   0.728   0.213   0.103
 7013SOL    HW121938   0.787   0.292   0.091
 7013SOL    HW221939   0.696   0.181   0.014
 7014SOL     OW21940   4.279   3.566   0.908
 7014SOL    HW121941   4.283   3.544   1.005
 7014SOL    HW221942   4.249   3.485   0.857
 7015SOL     OW21943   6.473   4.299   1.529
 7015SOL    HW121944   6.456   4.396   1.549
 7015SOL    HW221945   6.444   4.280   1.435
 7016SOL     OW21946   3.258   4.998   1.190
 7016SOL    HW121947   3.193   4.924   1.208
 7016SOL    HW221948   3.253   5.023   1.093
 7017SOL     OW21949   2.566   4.993   3.165
 7017SOL    HW121950   2.616   4.958   3.244
 7017SOL    HW221951   2.520   5.078   3.190
 7018SOL     OW21952   5.577   3.180   4.211
 7018SOL    HW121953   5.520   3.219   4.283
 7018SOL    HW221954   5.672   3.177   4.241
 7019SOL     OW21955   3.902   4.296   0.657
 7019SOL    HW121956   3.931   4.203   0.680
 7019SOL    HW221957   3.981   4.349   0.626
 7020SOL     OW21958   6.651   4.646   6.020
 7020SOL    HW121959   6.709   4.713   6.066
 7020SOL    HW221960   6.647   4.562   6.074
 7021SOL     OW21961   1.676   1.909   5.789
 7021SOL    HW121962   1.764   1.956   5.781
 7021SOL    HW221963   1.631   1.907   5.699
 7022SOL     OW21964   4.429   6.357   5.747
 7022SOL    HW121965   4.396   6.359   5.652
 7022SOL    HW221966   4.511   6.414   5.755
 7023SOL     OW21967   0.670   2.606   3.680
 7023SOL    HW121968   0.703   2.687   3.728
 7023SOL    HW221969   0.747   2.561   3.634
 7024SOL     OW21970   2.811   3.679   5.261
 7024SOL    HW121971   2.788   3.601   5.318
 7024SOL    HW221972   2.881   3.652   5.194
 7025SOL     OW21973   3.486   0.776   0.525
 7025SOL    HW121974   3.497   0.732   0.436
 7025SOL    HW221975   3.392   0.763   0.557
 7026SOL     OW21976   3.219   2.124   2.309
 7026SOL    HW121977   3.180   2.035   2.336
 7026SOL    HW221978   3.316   2.112   2.287
 7027SOL     OW21979   2.493   4.812   4.430
 7027SOL    HW121980   2.434   4.832   4.508
 7027SOL    HW221981   2.474   4.719   4.397
 7028SOL     OW21982   3.255   1.784   3.631
 7028SOL    HW121983   3.237   1.739   3.719
 7028SOL    HW221984   3.222   1.727   3.556
 7029SOL     OW21985   4.996   4.810   4.629
 7029SOL    HW121986   4.929   4.749   4.588
 7029SOL    HW221987   5.050   4.760   4.696
 7030SOL     OW21988   1.303   0.710   4.979
 7030SOL    HW121989   1.268   0.643   5.044
 7030SOL    HW221990   1.230   0.736   4.915
 7031SOL     OW21991   3.905   5.678   5.974
 7031SOL    HW121992   4.003   5.659   5.964
 7031SOL    HW221993   3.862   5.676   5.884
 7032SOL     OW21994   4.172   1.382   3.853
 7032SOL    HW121995   4.170   1.288   3.819
 7032SOL    HW221996   4.262   1.400   3.894
 7033SOL     OW21997   1.379   2.270   3.361
 7033SOL    HW121998   1.419   2.242   3.448
 7033SOL    HW221999   1.422   2.218   3.287
 7034SOL     OW22000   6.986   0.749   3.539
 7034SOL    HW122001   0.057   0.711   3.545
 7034SOL    HW222002   6.952   0.739   3.446
 7035SOL     OW22003   1.612   6.989   0.652
 7035SOL    HW122004   1.645   0.047   0.703
 7035SOL    HW222005   1.517   6.970   0.679
 7036SOL     OW22006   0.038   0.131   3.041
 7036SOL    HW122007   7.000   0.125   3.121
 7036SOL    HW222008   0.110   0.198   3.058
 7037SOL     OW22009   1.547   1.222   6.583
 7037SOL    HW122010   1.636   1.199   6.622
 7037SOL    HW222011   1.476   1.167   6.627
 7038SOL     OW22012   2.161   3.561   5.117
 7038SOL    HW122013   2.177   3.633   5.050
 7038SOL    HW222014   2.102   3.491   5.078
 7039SOL     OW22015   1.930   5.590   2.411
 7039SOL    HW122016   1.959   5.548   2.497
 7039SOL    HW222017   1.999   5.571   2.340
 7040SOL     OW22018   5.525   2.174   5.757
 7040SOL    HW122019   5.435   2.142   5.787
 7040SOL    HW222020   5.522   2.272   5.742
 7041SOL     OW22021   6.600   1.326   1.901
 7041SOL    HW122022   6.670   1.387   1.863
 7041SOL    HW222023   6.628   1.295   1.992
 7042SOL     OW22024   4.341   5.513   5.065
 7042SOL    HW122025   4.439   5.530   5.075
 7042SOL    HW222026   4.325   5.454   4.987
 7043SOL     OW22027   2.056   4.853   2.780
 7043SOL    HW122028   2.125   4.925   2.779
 7043SOL    HW222029   1.993   4.868   2.856
 7044SOL     OW22030   5.998   4.851   4.527
 7044SOL    HW122031   5.951   4.852   4.615
 7044SOL    HW222032   6.063   4.927   4.523
 7045SOL     OW22033   4.797   5.338   2.849
 7045SOL    HW122034   4.742   5.411   2.810
 7045SOL    HW222035   4.823   5.273   2.778
 7046SOL     OW22036   2.664   0.999   3.589
 7046SOL    HW122037   2.591   1.067   3.595
 7046SOL    HW222038   2.686   0.983   3.492
 7047SOL     OW22039   6.330   1.127   2.396
 7047SOL    HW122040   6.318   1.103   2.492
 7047SOL    HW222041   6.242   1.125   2.349
 7048SOL     OW22042   5.238   0.165   3.603
 7048SOL    HW122043   5.162   0.223   3.572
 7048SOL    HW222044   5.229   0.147   3.701
 7049SOL     OW22045   3.256   1.483   0.729
 7049SOL    HW122046   3.345   1.494   0.686
 7049SOL    HW222047   3.267   1.468   0.828
 7050SOL     OW22048   4.012   3.922   1.705
 7050SOL    HW122049   4.068   3.847   1.669
 7050SOL    HW222050   3.972   3.894   1.792
 7051SOL     OW22051   6.448   6.186   1.093
 7051SOL    HW122052   6.400   6.098   1.091
 7051SOL    HW222053   6.490   6.199   1.183
 7052SOL     OW22054   6.041   1.851   3.549
 7052SOL    HW122055   6.036   1.908   3.467
 7052SOL    HW222056   5.948   1.825   3.576
 7053SOL     OW22057   1.873   2.944   5.150
 7053SOL    HW122058   1.971   2.963   5.148
 7053SOL    HW222059   1.823   3.030   5.143
 7054SOL     OW22060   6.866   0.016   0.516
 7054SOL    HW122061   6.879   6.944   0.483
 7054SOL    HW222062   6.956   0.059   0.527
 7055SOL     OW22063   2.981   6.775   6.363
 7055SOL    HW122064   2.953   6.740   6.273
 7055SOL    HW222065   2.907   6.763   6.428
 7056SOL     OW22066   0.159   5.014   1.383
 7056SOL    HW122067   0.171   5.011   1.482
 7056SOL    HW222068   0.108   5.097   1.358
 7057SOL     OW22069   2.612   4.592   4.073
 7057SOL    HW122070   2.578   4.507   4.114
 7057SOL    HW222071   2.576   4.601   3.980
 7058SOL     OW22072   5.616   4.118   5.327
 7058SOL    HW122073   5.660   4.029   5.325
 7058SOL    HW222074   5.519   4.108   5.306
 7059SOL     OW22075   0.638   1.433   3.625
 7059SOL    HW122076   0.726   1.393   3.600
 7059SOL    HW222077   0.610   1.397   3.714
 7060SOL     OW22078   3.289   0.156   1.744
 7060SOL    HW122079   3.235   0.097   1.803
 7060SOL    HW222080   3.274   0.131   1.648
 7061SOL     OW22081   0.197   2.916   4.187
 7061SOL    HW122082   0.238   2.915   4.096
 7061SOL    HW222083   0.099   2.938   4.178
 7062SOL     OW22084   3.451   2.214   5.548
 7062SOL    HW122085   3.470   2.209   5.646
 7062SOL    HW222086   3.423   2.307   5.524
 7063SOL     OW22087   1.429   6.729   1.847
 7063SOL    HW122088   1.410   6.675   1.765
 7063SOL    HW222089   1.400   6.678   1.928
 7064SOL     OW22090   3.836   2.183   6.827
 7064SOL    HW122091   3.886   2.168   6.912
 7064SOL    HW222092   3.895   2.162   6.749
 7065SOL     OW22093   4.723   3.815   5.895
 7065SOL    HW122094   4.667   3.736   5.869
 7065SOL    HW222095   4.741   3.871   5.814
 7066SOL     OW22096   4.078   0.026   6.540
 7066SOL    HW122097   4.036   6.993   6.467
 7066SOL    HW222098   4.011   0.045   6.611
 7067SOL     OW22099   1.837   2.824   5.398
 7067SOL    HW122100   1.920   2.842   5.451
 7067SOL    HW222101   1.860   2.823   5.300
 7068SOL     OW22102   6.196   4.741   4.763
 7068SOL    HW122103   6.176   4.782   4.852
 7068SOL    HW222104   6.120   4.682   4.735
 7069SOL     OW22105   5.254   2.292   4.741
 7069SOL    HW122106   5.183   2.220   4.735
 7069SOL    HW222107   5.230   2.355   4.815
 7070SOL     OW22108   0.194   6.740   4.453
 7070SOL    HW122109   0.106   6.721   4.408
 7070SOL    HW222110   0.245   6.806   4.399
 7071SOL     OW22111   3.587   6.184   5.533
 7071SOL    HW122112   3.644   6.196   5.615
 7071SOL    HW222113   3.568   6.273   5.492
 7072SOL     OW22114   2.022   5.757   6.944
 7072SOL    HW122115   1.923   5.752   6.961
 7072SOL    HW222116   2.039   5.779   6.848
 7073SOL     OW22117   5.320   0.308   4.059
 7073SOL    HW122118   5.330   0.272   4.152
 7073SOL    HW222119   5.244   0.373   4.057
 7074SOL     OW22120   6.131   2.438   1.795
 7074SOL    HW122121   6.064   2.507   1.821
 7074SOL    HW222122   6.168   2.460   1.705
 7075SOL     OW22123   1.658   4.631   4.679
 7075SOL    HW122124   1.679   4.616   4.582
 7075SOL    HW222125   1.742   4.631   4.732
 7076SOL     OW22126   5.731   2.849   0.181
 7076SOL    HW122127   5.755   2.940   0.147
 7076SOL    HW222128   5.815   2.801   0.209
 7077SOL     OW22129   2.107   4.508   3.783
 7077SOL    HW122130   2.053   4.434   3.742
 7077SOL    HW222131   2.076   4.596   3.747
 7078SOL     OW22132   6.648   6.380   2.102
 7078SOL    HW122133   6.706   6.303   2.130
 7078SOL    HW222134   6.690   6.426   2.024
 7079SOL     OW22135   0.778   6.967   4.175
 7079SOL    HW122136   0.739   6.964   4.083
 7079SOL    HW222137   0.802   6.874   4.204
 7080SOL     OW22138   3.495   1.243   5.011
 7080SOL    HW122139   3.548   1.325   4.989
 7080SOL    HW222140   3.445   1.213   4.930
 7081SOL     OW22141   2.073   5.989   0.048
 7081SOL    HW122142   2.026   5.909   0.009
 7081SOL    HW222143   2.053   6.069   7.014
 7082SOL     OW22144   6.576   4.663   6.961
 7082SOL    HW122145   6.675   4.657   6.948
 7082SOL    HW222146   6.530   4.663   6.872
 7083SOL     OW22147   1.874   0.541   1.696
 7083SOL    HW122148   1.795   0.597   1.673
 7083SOL    HW222149   1.945   0.553   1.627
 7084SOL     OW22150   0.619   5.264   5.034
 7084SOL    HW122151   0.666   5.283   5.120
 7084SOL    HW222152   0.547   5.332   5.020
 7085SOL     OW22153   0.332   1.697   2.549
 7085SOL    HW122154   0.330   1.795   2.528
 7085SOL    HW222155   0.427   1.665   2.546
 7086SOL     OW22156   5.953   0.611   5.859
 7086SOL    HW122157   5.872   0.655   5.898
 7086SOL    HW222158   5.937   0.512   5.852
 7087SOL     OW22159   6.107   3.715   3.418
 7087SOL    HW122160   6.169   3.748   3.346
 7087SOL    HW222161   6.092   3.788   3.485
 7088SOL     OW22162   4.964   2.649   4.000
 7088SOL    HW122163   4.961   2.549   4.001
 7088SOL    HW222164   5.009   2.682   4.083
 7089SOL     OW22165   2.811   2.325   4.786
 7089SOL    HW122166   2.860   2.335   4.873
 7089SOL    HW222167   2.713   2.341   4.800
 7090SOL     OW22168   1.531   1.321   0.744
 7090SOL    HW122169   1.560   1.417   0.745
 7090SOL    HW222170   1.434   1.315   0.766
 7091SOL     OW22171   0.349   1.843   0.898
 7091SOL    HW122172   0.383   1.923   0.849
 7091SOL    HW222173   0.357   1.858   0.996
 7092SOL     OW22174   4.088   2.875   5.298
 7092SOL    HW122175   4.045   2.791   5.329
 7092SOL    HW222176   4.187   2.864   5.294
 7093SOL     OW22177   3.118   4.015   1.913
 7093SOL    HW122178   3.153   3.922   1.904
 7093SOL    HW222179   3.112   4.038   2.010
 7094SOL     OW22180   0.041   6.189   5.653
 7094SOL    HW122181   0.127   6.139   5.641
 7094SOL    HW222182   6.988   6.135   5.614
 7095SOL     OW22183   3.216   4.628   5.634
 7095SOL    HW122184   3.190   4.569   5.557
 7095SOL    HW222185   3.180   4.720   5.618
 7096SOL     OW22186   6.659   0.749   2.371
 7096SOL    HW122187   6.755   0.748   2.396
 7096SOL    HW222188   6.605   0.707   2.444
 7097SOL     OW22189   4.898   0.800   1.734
 7097SOL    HW122190   4.934   0.886   1.770
 7097SOL    HW222191   4.810   0.779   1.777
 7098SOL     OW22192   2.419   5.529   5.484
 7098SOL    HW122193   2.464   5.441   5.473
 7098SOL    HW222194   2.341   5.535   5.421
 7099SOL     OW22195   3.661   1.472   5.228
 7099SOL    HW122196   3.644   1.457   5.130
 7099SOL    HW222197   3.752   1.438   5.252
 7100SOL     OW22198   6.720   3.609   6.948
 7100SOL    HW122199   6.695   3.671   0.000
 7100SOL    HW222200   6.644   3.602   6.883
 7101SOL     OW22201   2.888   1.773   5.311
 7101SOL    HW122202   2.833   1.771   5.394
 7101SOL    HW222203   2.832   1.745   5.233
 7102SOL     OW22204   5.264   0.146   1.283
 7102SOL    HW122205   5.342   0.108   1.333
 7102SOL    HW222206   5.262   0.245   1.294
 7103SOL     OW22207   5.947   5.332   1.906
 7103SOL    HW122208   5.986   5.259   1.963
 7103SOL    HW222209   5.877   5.381   1.958
 7104SOL     OW22210   6.371   3.597   2.776
 7104SOL    HW122211   6.334   3.689   2.786
 7104SOL    HW222212   6.456   3.590   2.828
 7105SOL     OW22213   2.781   3.409   5.337
 7105SOL    HW122214   2.822   3.352   5.265
 7105SOL    HW222215   2.690   3.375   5.359
 7106SOL     OW22216   3.683   3.195   2.121
 7106SOL    HW122217   3.696   3.157   2.213
 7106SOL    HW222218   3.621   3.273   2.125
 7107SOL     OW22219   4.858   0.362   0.542
 7107SOL    HW122220   4.772   0.353   0.593
 7107SOL    HW222221   4.882   0.459   0.534
 7108SOL     OW22222   3.168   5.849   2.904
 7108SOL    HW122223   3.166   5.905   2.821
 7108SOL    HW222224   3.221   5.767   2.887
 7109SOL     OW22225   1.780   6.741   5.271
 7109SOL    HW122226   1.813   6.646   5.272
 7109SOL    HW222227   1.832   6.796   5.336
 7110SOL     OW22228   2.839   5.532   4.446
 7110SOL    HW122229   2.872   5.578   4.528
 7110SOL    HW222230   2.793   5.447   4.472
 7111SOL     OW22231   0.994   2.500   5.177
 7111SOL    HW122232   0.974   2.403   5.164
 7111SOL    HW222233   0.967   2.528   5.268
 7112SOL     OW22234   1.826   5.445   4.291
 7112SOL    HW122235   1.897   5.501   4.248
 7112SOL    HW222236   1.781   5.390   4.221
 7113SOL     OW22237   3.353   4.126   4.783
 7113SOL    HW122238   3.326   4.070   4.862
 7113SOL    HW222239   3.279   4.127   4.716
 7114SOL     OW22240   5.366   5.598   0.730
 7114SOL    HW122241   5.421   5.527   0.773
 7114SOL    HW222242   5.296   5.629   0.794
 7115SOL     OW22243   4.635   2.930   6.969
 7115SOL    HW122244   4.717   2.927   6.911
 7115SOL    HW222245   4.595   2.839   6.976
 7116SOL     OW22246   5.807   4.663   2.985
 7116SOL    HW122247   5.807   4.729   2.910
 7116SOL    HW222248   5.776   4.574   2.952
 7117SOL     OW22249   0.819   6.216   5.092
 7117SOL    HW122250   0.771   6.168   5.019
 7117SOL    HW222251   0.765   6.213   5.176
 7118SOL     OW22252   3.343   4.759   6.627
 7118SOL    HW122253   3.322   4.730   6.533
 7118SOL    HW222254   3.438   4.736   6.649
 7119SOL     OW22255   5.188   1.167   4.104
 7119SOL    HW122256   5.140   1.120   4.029
 7119SOL    HW222257   5.121   1.218   4.159
 7120SOL     OW22258   3.558   2.065   2.223
 7120SOL    HW122259   3.500   2.003   2.170
 7120SOL    HW222260   3.600   2.132   2.162
 7121SOL     OW22261   0.829   6.837   3.904
 7121SOL    HW122262   0.892   6.770   3.944
 7121SOL    HW222263   0.767   6.792   3.840
 7122SOL     OW22264   1.259   0.759   6.004
 7122SOL    HW122265   1.324   0.834   6.023
 7122SOL    HW222266   1.299   0.697   5.937
 7123SOL     OW22267   1.263   5.063   3.612
 7123SOL    HW122268   1.253   5.132   3.540
 7123SOL    HW222269   1.302   4.980   3.573
 7124SOL     OW22270   0.167   2.304   1.608
 7124SOL    HW122271   0.154   2.399   1.635
 7124SOL    HW222272   0.149   2.244   1.687
 7125SOL     OW22273   0.928   0.207   0.773
 7125SOL    HW122274   0.866   0.161   0.710
 7125SOL    HW222275   0.887   0.212   0.864
 7126SOL     OW22276   3.467   5.216   0.588
 7126SOL    HW122277   3.495   5.240   0.681
 7126SOL    HW222278   3.406   5.286   0.552
 7127SOL     OW22279   2.433   5.712   6.684
 7127SOL    HW122280   2.451   5.761   6.599
 7127SOL    HW222281   2.359   5.756   6.734
 7128SOL     OW22282   3.604   4.166   6.645
 7128SOL    HW122283   3.547   4.248   6.646
 7128SOL    HW222284   3.658   4.164   6.561
 7129SOL     OW22285   2.150   1.314   0.312
 7129SOL    HW122286   2.088   1.258   0.257
 7129SOL    HW222287   2.180   1.393   0.258
 7130SOL     OW22288   3.477   5.867   3.790
 7130SOL    HW122289   3.478   5.791   3.726
 7130SOL    HW222290   3.566   5.875   3.834
 7131SOL     OW22291   2.846   1.076   1.482
 7131SOL    HW122292   2.810   0.989   1.449
 7131SOL    HW222293   2.879   1.065   1.576
 7132SOL     OW22294   3.963   4.327   0.375
 7132SOL    HW122295   4.046   4.273   0.386
 7132SOL    HW222296   3.982   4.422   0.399
 7133SOL     OW22297   4.320   4.837   5.131
 7133SOL    HW122298   4.267   4.798   5.206
 7133SOL    HW222299   4.265   4.904   5.081
 7134SOL     OW22300   4.691   6.777   1.677
 7134SOL    HW122301   4.761   6.728   1.728
 7134SOL    HW222302   4.642   6.713   1.618
 7135SOL     OW22303   1.652   2.439   3.730
 7135SOL    HW122304   1.591   2.503   3.684
 7135SOL    HW222305   1.747   2.467   3.716
 7136SOL     OW22306   2.997   1.905   0.570
 7136SOL    HW122307   2.949   1.822   0.543
 7136SOL    HW222308   3.084   1.881   0.613
 7137SOL     OW22309   2.796   1.400   0.179
 7137SOL    HW122310   2.895   1.390   0.169
 7137SOL    HW222311   2.753   1.310   0.184
 7138SOL     OW22312   2.008   1.924   0.586
 7138SOL    HW122313   1.994   2.020   0.562
 7138SOL    HW222314   2.001   1.867   0.504
 7139SOL     OW22315   5.289   4.993   1.841
 7139SOL    HW122316   5.315   5.059   1.912
 7139SOL    HW222317   5.343   5.010   1.759
 7140SOL     OW22318   6.553   4.294   0.993
 7140SOL    HW122319   6.454   4.295   0.979
 7140SOL    HW222320   6.599   4.298   0.904
 7141SOL     OW22321   3.573   6.298   0.794
 7141SOL    HW122322   3.551   6.375   0.854
 7141SOL    HW222323   3.559   6.325   0.699
 7142SOL     OW22324   4.189   6.596   3.501
 7142SOL    HW122325   4.239   6.585   3.414
 7142SOL    HW222326   4.230   6.538   3.571
 7143SOL     OW22327   1.948   3.445   7.012
 7143SOL    HW122328   1.917   3.354   6.987
 7143SOL    HW222329   2.014   3.439   0.065
 7144SOL     OW22330   1.486   1.527   2.965
 7144SOL    HW122331   1.572   1.570   2.937
 7144SOL    HW222332   1.443   1.582   3.036
 7145SOL     OW22333   3.460   0.738   6.473
 7145SOL    HW122334   3.469   0.749   6.374
 7145SOL    HW222335   3.400   0.809   6.510
 7146SOL     OW22336   1.501   0.249   6.618
 7146SOL    HW122337   1.475   0.173   6.677
 7146SOL    HW222338   1.530   0.327   6.675
 7147SOL     OW22339   0.385   6.326   3.075
 7147SOL    HW122340   0.397   6.229   3.096
 7147SOL    HW222341   0.457   6.356   3.012
 7148SOL     OW22342   6.692   6.233   1.405
 7148SOL    HW122343   6.743   6.235   1.319
 7148SOL    HW222344   6.728   6.302   1.467
 7149SOL     OW22345   0.476   6.320   4.683
 7149SOL    HW122346   0.456   6.241   4.741
 7149SOL    HW222347   0.401   6.386   4.691
 7150SOL     OW22348   3.782   2.941   0.785
 7150SOL    HW122349   3.756   2.845   0.784
 7150SOL    HW222350   3.803   2.971   0.692
 7151SOL     OW22351   3.604   6.532   0.948
 7151SOL    HW122352   3.506   6.550   0.939
 7151SOL    HW222353   3.621   6.485   1.034
 7152SOL     OW22354   6.632   0.807   5.395
 7152SOL    HW122355   6.575   0.806   5.478
 7152SOL    HW222356   6.574   0.826   5.316
 7153SOL     OW22357   4.109   5.198   1.550
 7153SOL    HW122358   4.056   5.265   1.604
 7153SOL    HW222359   4.166   5.247   1.484
 7154SOL     OW22360   5.131   6.415   3.319
 7154SOL    HW122361   5.039   6.432   3.355
 7154SOL    HW222362   5.141   6.462   3.231
 7155SOL     OW22363   2.994   3.231   1.030
 7155SOL    HW122364   2.954   3.234   1.121
 7155SOL    HW222365   2.934   3.179   0.969
 7156SOL     OW22366   6.769   3.675   2.670
 7156SOL    HW122367   6.708   3.664   2.592
 7156SOL    HW222368   6.722   3.645   2.753
 7157SOL     OW22369   0.345   4.882   1.267
 7157SOL    HW122370   0.422   4.879   1.330
 7157SOL    HW222371   0.272   4.938   1.307
 7158SOL     OW22372   0.811   0.296   4.199
 7158SOL    HW122373   0.855   0.211   4.228
 7158SOL    HW222374   0.879   0.358   4.161
 7159SOL     OW22375   0.896   4.911   3.588
 7159SOL    HW122376   0.983   4.952   3.615
 7159SOL    HW222377   0.824   4.942   3.651
 7160SOL     OW22378   6.294   0.121   3.081
 7160SOL    HW122379   6.266   0.214   3.106
 7160SOL    HW222380   6.369   0.092   3.140
 7161SOL     OW22381   3.299   4.062   2.814
 7161SOL    HW122382   3.248   4.003   2.876
 7161SOL    HW222383   3.248   4.073   2.728
 7162SOL     OW22384   1.499   5.282   6.216
 7162SOL    HW122385   1.439   5.280   6.136
 7162SOL    HW222386   1.469   5.213   6.282
 7163SOL     OW22387   2.805   0.297   2.420
 7163SOL    HW122388   2.789   0.372   2.355
 7163SOL    HW222389   2.903   0.285   2.434
 7164SOL     OW22390   3.090   0.758   5.303
 7164SOL    HW122391   3.095   0.751   5.203
 7164SOL    HW222392   3.080   0.854   5.329
 7165SOL     OW22393   5.869   6.644   1.755
 7165SOL    HW122394   5.886   6.551   1.721
 7165SOL    HW222395   5.915   6.710   1.696
 7166SOL     OW22396   5.027   2.151   0.199
 7166SOL    HW122397   4.996   2.081   0.263
 7166SOL    HW222398   5.126   2.144   0.187
 7167SOL     OW22399   5.319   3.353   4.627
 7167SOL    HW122400   5.242   3.367   4.564
 7167SOL    HW222401   5.316   3.421   4.700
 7168SOL     OW22402   2.123   2.439   3.766
 7168SOL    HW122403   2.048   2.503   3.749
 7168SOL    HW222404   2.180   2.432   3.683
 7169SOL     OW22405   6.833   4.002   5.895
 7169SOL    HW122406   6.887   3.918   5.897
 7169SOL    HW222407   6.769   3.999   5.818
 7170SOL     OW22408   4.489   0.091   2.679
 7170SOL    HW122409   4.582   0.102   2.645
 7170SOL    HW222410   4.451   0.180   2.703
 7171SOL     OW22411   6.032   4.153   0.700
 7171SOL    HW122412   6.119   4.202   0.696
 7171SOL    HW222413   5.979   4.172   0.617
 7172SOL     OW22414   1.781   6.894   4.791
 7172SOL    HW122415   1.865   6.897   4.738
 7172SOL    HW222416   1.793   6.835   4.870
 7173SOL     OW22417   6.282   4.266   6.978
 7173SOL    HW122418   6.373   4.262   7.020
 7173SOL    HW222419   6.212   4.247   0.026
 7174SOL     OW22420   1.039   4.043   0.852
 7174SOL    HW122421   1.059   3.987   0.772
 7174SOL    HW222422   1.017   3.984   0.930
 7175SOL     OW22423   6.023   2.962   5.094
 7175SOL    HW122424   5.946   2.927   5.042
 7175SOL    HW222425   5.999   2.968   5.191
 7176SOL     OW22426   0.050   1.281   2.923
 7176SOL    HW122427   0.077   1.215   2.853
 7176SOL    HW222428   0.012   1.232   3.001
 7177SOL     OW22429   1.156   4.929   4.824
 7177SOL    HW122430   1.226   4.876   4.777
 7177SOL    HW222431   1.081   4.869   4.852
 7178SOL     OW22432   6.696   1.867   5.519
 7178SOL    HW122433   6.733   1.878   5.612
 7178SOL    HW222434   6.771   1.855   5.454
 7179SOL     OW22435   1.756   3.656   4.526
 7179SOL    HW122436   1.779   3.666   4.623
 7179SOL    HW222437   1.802   3.575   4.489
 7180SOL     OW22438   2.318   4.519   0.500
 7180SOL    HW122439   2.222   4.546   0.499
 7180SOL    HW222440   2.366   4.568   0.574
 7181SOL     OW22441   2.364   0.462   0.249
 7181SOL    HW122442   2.326   0.553   0.260
 7181SOL    HW222443   2.434   0.463   0.177
 7182SOL     OW22444   0.143   3.738   3.954
 7182SOL    HW122445   0.179   3.764   4.043
 7182SOL    HW222446   0.083   3.811   3.920
 7183SOL     OW22447   1.879   5.878   1.604
 7183SOL    HW122448   1.790   5.870   1.559
 7183SOL    HW222449   1.938   5.803   1.573
 7184SOL     OW22450   6.730   1.487   3.951
 7184SOL    HW122451   6.830   1.495   3.954
 7184SOL    HW222452   6.689   1.573   3.980
 7185SOL     OW22453   5.085   0.986   5.360
 7185SOL    HW122454   5.149   0.960   5.432
 7185SOL    HW222455   5.003   0.928   5.366
 7186SOL     OW22456   6.698   1.793   2.058
 7186SOL    HW122457   6.662   1.819   2.147
 7186SOL    HW222458   6.622   1.789   1.992
 7187SOL     OW22459   2.890   3.945   5.321
 7187SOL    HW122460   2.854   3.853   5.306
 7187SOL    HW222461   2.818   4.004   5.357
 7188SOL     OW22462   4.832   6.238   6.780
 7188SOL    HW122463   4.850   6.337   6.780
 7188SOL    HW222464   4.753   6.219   6.722
 7189SOL     OW22465   6.862   1.488   5.616
 7189SOL    HW122466   6.816   1.416   5.564
 7189SOL    HW222467   6.939   1.448   5.667
 7190SOL     OW22468   6.542   5.180   1.631
 7190SOL    HW122469   6.471   5.171   1.561
 7190SOL    HW222470   6.617   5.117   1.611
 7191SOL     OW22471   1.465   5.020   2.528
 7191SOL    HW122472   1.448   4.945   2.592
 7191SOL    HW222473   1.494   4.983   2.440
 7192SOL     OW22474   1.880   4.224   5.676
 7192SOL    HW122475   1.894   4.258   5.769
 7192SOL    HW222476   1.918   4.132   5.667
 7193SOL     OW22477   1.726   2.418   1.999
 7193SOL    HW122478   1.697   2.327   2.029
 7193SOL    HW222479   1.799   2.409   1.932
 7194SOL     OW22480   1.968   2.620   0.211
 7194SOL    HW122481   2.042   2.688   0.219
 7194SOL    HW222482   1.884   2.658   0.252
 7195SOL     OW22483   0.166   4.248   0.367
 7195SOL    HW122484   0.241   4.249   0.434
 7195SOL    HW222485   0.185   4.179   0.297
 7196SOL     OW22486   2.364   3.708   1.553
 7196SOL    HW122487   2.429   3.740   1.622
 7196SOL    HW222488   2.350   3.610   1.564
 7197SOL     OW22489   0.740   2.955   5.401
 7197SOL    HW122490   0.702   2.989   5.487
 7197SOL    HW222491   0.839   2.940   5.412
 7198SOL     OW22492   0.214   1.088   0.573
 7198SOL    HW122493   0.130   1.035   0.566
 7198SOL    HW222494   0.198   1.168   0.630
 7199SOL     OW22495   0.887   0.157   2.280
 7199SOL    HW122496   0.955   0.136   2.350
 7199SOL    HW222497   0.863   0.074   2.230
 7200SOL     OW22498   2.123   2.657   6.679
 7200SOL    HW122499   2.164   2.698   6.598
 7200SOL    HW222500   2.167   2.569   6.698
 7201SOL     OW22501   0.742   5.912   3.874
 7201SOL    HW122502   0.788   5.926   3.961
 7201SOL    HW222503   0.760   5.819   3.841
 7202SOL     OW22504   4.280   6.725   6.479
 7202SOL    HW122505   4.231   6.702   6.563
 7202SOL    HW222506   4.352   6.791   6.499
 7203SOL     OW22507   6.998   1.011   1.138
 7203SOL    HW122508   0.029   0.926   1.138
 7203SOL    HW222509   6.921   1.002   1.074
 7204SOL     OW22510   0.333   1.135   6.115
 7204SOL    HW122511   0.279   1.218   6.109
 7204SOL    HW222512   0.345   1.110   6.211
 7205SOL     OW22513   1.565   4.073   5.162
 7205SOL    HW122514   1.557   4.156   5.218
 7205SOL    HW222515   1.649   4.078   5.108
 7206SOL     OW22516   1.115   0.178   2.458
 7206SOL    HW122517   1.167   0.104   2.502
 7206SOL    HW222518   1.102   0.252   2.524
 7207SOL     OW22519   3.562   0.112   3.836
 7207SOL    HW122520   3.653   0.144   3.863
 7207SOL    HW222521   3.515   0.183   3.785
 7208SOL     OW22522   4.280   6.991   3.844
 7208SOL    HW122523   4.215   0.026   3.794
 7208SOL    HW222524   4.322   0.024   3.916
 7209SOL     OW22525   2.707   3.087   1.673
 7209SOL    HW122526   2.804   3.098   1.649
 7209SOL    HW222527   2.676   3.168   1.722
 7210SOL     OW22528   3.878   1.164   2.810
 7210SOL    HW122529   3.822   1.101   2.864
 7210SOL    HW222530   3.973   1.130   2.807
 7211SOL     OW22531   1.736   6.033   4.977
 7211SOL    HW122532   1.680   6.102   4.931
 7211SOL    HW222533   1.701   6.016   5.069
 7212SOL     OW22534   0.564   6.394   5.028
 7212SOL    HW122535   0.584   6.361   4.936
 7212SOL    HW222536   0.470   6.369   5.052
 7213SOL     OW22537   3.996   6.391   6.333
 7213SOL    HW122538   4.027   6.337   6.411
 7213SOL    HW222539   4.073   6.441   6.295
 7214SOL     OW22540   7.020   0.068   4.585
 7214SOL    HW122541   6.977   0.157   4.570
 7214SOL    HW222542   6.952   7.017   4.572
 7215SOL     OW22543   6.636   3.334   4.131
 7215SOL    HW122544   6.631   3.349   4.230
 7215SOL    HW222545   6.726   3.298   4.108
 7216SOL     OW22546   3.291   6.882   0.784
 7216SOL    HW122547   3.307   6.858   0.879
 7216SOL    HW222548   3.246   6.971   0.779
 7217SOL     OW22549   2.093   4.380   3.266
 7217SOL    HW122550   2.164   4.314   3.243
 7217SOL    HW222551   2.045   4.407   3.182
 7218SOL     OW22552   6.149   2.733   3.824
 7218SOL    HW122553   6.215   2.694   3.888
 7218SOL    HW222554   6.127   2.665   3.754
 7219SOL     OW22555   3.454   0.388   3.238
 7219SOL    HW122556   3.434   0.403   3.334
 7219SOL    HW222557   3.550   0.359   3.228
 7220SOL     OW22558   6.947   4.131   4.962
 7220SOL    HW122559   6.906   4.076   4.889
 7220SOL    HW222560   7.019   4.189   4.924
 7221SOL     OW22561   3.588   5.699   4.639
 7221SOL    HW122562   3.583   5.769   4.567
 7221SOL    HW222563   3.657   5.632   4.615
 7222SOL     OW22564   6.407   6.539   3.672
 7222SOL    HW122565   6.330   6.550   3.735
 7222SOL    HW222566   6.410   6.445   3.639
 7223SOL     OW22567   3.319   1.531   1.015
 7223SOL    HW122568   3.360   1.601   1.072
 7223SOL    HW222569   3.219   1.535   1.024
 7224SOL     OW22570   5.404   2.021   4.106
 7224SOL    HW122571   5.317   2.048   4.148
 7224SOL    HW222572   5.431   2.089   4.038
 7225SOL     OW22573   1.386   6.073   0.785
 7225SOL    HW122574   1.324   6.128   0.842
 7225SOL    HW222575   1.462   6.130   0.753
 7226SOL     OW22576   6.182   0.132   1.800
 7226SOL    HW122577   6.244   0.202   1.836
 7226SOL    HW222578   6.206   0.113   1.705
 7227SOL     OW22579   2.951   2.027   1.385
 7227SOL    HW122580   2.853   2.004   1.385
 7227SOL    HW222581   2.986   2.025   1.291
 7228SOL     OW22582   1.049   2.109   2.843
 7228SOL    HW122583   1.140   2.124   2.804
 7228SOL    HW222584   0.999   2.045   2.785
 7229SOL     OW22585   1.161   5.792   5.899
 7229SOL    HW122586   1.232   5.862   5.887
 7229SOL    HW222587   1.205   5.703   5.917
 7230SOL     OW22588   3.624   5.394   4.865
 7230SOL    HW122589   3.588   5.389   4.772
 7230SOL    HW222590   3.551   5.372   4.930
 7231SOL     OW22591   4.074   0.374   6.307
 7231SOL    HW122592   4.064   0.303   6.237
 7231SOL    HW222593   4.146   0.347   6.371
 7232SOL     OW22594   4.934   6.001   2.368
 7232SOL    HW122595   5.014   6.054   2.338
 7232SOL    HW222596   4.917   6.019   2.465
 7233SOL     OW22597   1.371   1.215   3.907
 7233SOL    HW122598   1.345   1.280   3.978
 7233SOL    HW222599   1.459   1.242   3.867
 7234SOL     OW22600   5.645   2.459   3.229
 7234SOL    HW122601   5.640   2.362   3.251
 7234SOL    HW222602   5.557   2.491   3.195
 7235SOL     OW22603   6.881   4.438   2.568
 7235SOL    HW122604   6.947   4.438   2.644
 7235SOL    HW222605   6.863   4.533   2.540
 7236SOL     OW22606   2.744   1.833   1.803
 7236SOL    HW122607   2.686   1.832   1.885
 7236SOL    HW222608   2.824   1.890   1.821
 7237SOL     OW22609   3.744   0.449   4.736
 7237SOL    HW122610   3.804   0.527   4.751
 7237SOL    HW222611   3.793   0.364   4.756
 7238SOL     OW22612   4.068   2.044   6.693
 7238SOL    HW122613   4.090   1.954   6.654
 7238SOL    HW222614   4.148   2.082   6.738
 7239SOL     OW22615   1.047   1.857   2.103
 7239SOL    HW122616   1.032   1.941   2.051
 7239SOL    HW222617   1.144   1.848   2.125
 7240SOL     OW22618   1.006   1.121   6.114
 7240SOL    HW122619   1.058   1.112   6.199
 7240SOL    HW222620   0.915   1.082   6.127
 7241SOL     OW22621   2.106   0.225   1.350
 7241SOL    HW122622   2.192   0.211   1.301
 7241SOL    HW222623   2.117   0.298   1.418
 7242SOL     OW22624   6.797   5.475   6.756
 7242SOL    HW122625   6.704   5.508   6.739
 7242SOL    HW222626   6.798   5.375   6.749
 7243SOL     OW22627   6.644   3.957   6.461
 7243SOL    HW122628   6.644   3.907   6.548
 7243SOL    HW222629   6.738   3.986   6.440
 7244SOL     OW22630   6.819   0.628   2.069
 7244SOL    HW122631   6.823   0.614   2.168
 7244SOL    HW222632   6.795   0.542   2.025
 7245SOL     OW22633   1.767   3.189   5.151
 7245SOL    HW122634   1.691   3.215   5.092
 7245SOL    HW222635   1.763   3.241   5.236
 7246SOL     OW22636   0.422   0.489   3.960
 7246SOL    HW122637   0.469   0.506   3.873
 7246SOL    HW222638   0.490   0.480   4.033
 7247SOL     OW22639   2.551   1.365   4.248
 7247SOL    HW122640   2.592   1.348   4.158
 7247SOL    HW222641   2.452   1.364   4.239
 7248SOL     OW22642   2.548   1.431   3.265
 7248SOL    HW122643   2.583   1.522   3.286
 7248SOL    HW222644   2.519   1.427   3.169
 7249SOL     OW22645   6.137   5.014   2.449
 7249SOL    HW122646   6.192   4.984   2.527
 7249SOL    HW222647   6.176   5.097   2.410
 7250SOL     OW22648   5.674   6.362   5.882
 7250SOL    HW122649   5.673   6.415   5.797
 7250SOL    HW222650   5.654   6.423   5.959
 7251SOL     OW22651   0.351   6.500   5.412
 7251SOL    HW122652   0.361   6.599   5.427
 7251SOL    HW222653   0.350   6.453   5.500
 7252SOL     OW22654   4.150   3.450   2.304
 7252SOL    HW122655   4.167   3.548   2.301
 7252SOL    HW222656   4.159   3.417   2.398
 7253SOL     OW22657   1.580   5.809   0.109
 7253SOL    HW122658   1.492   5.823   0.062
 7253SOL    HW222659   1.654   5.849   0.055
 7254SOL     OW22660   4.875   5.052   4.605
 7254SOL    HW122661   4.899   4.957   4.629
 7254SOL    HW222662   4.850   5.056   4.508
 7255SOL     OW22663   3.886   3.897   0.258
 7255SOL    HW122664   3.811   3.963   0.262
 7255SOL    HW222665   3.917   3.877   0.351
 7256SOL     OW22666   2.969   5.906   4.756
 7256SOL    HW122667   3.057   5.955   4.760
 7256SOL    HW222668   2.900   5.965   4.713
 7257SOL     OW22669   6.201   1.619   2.924
 7257SOL    HW122670   6.195   1.676   3.006
 7257SOL    HW222671   6.141   1.656   2.853
 7258SOL     OW22672   5.013   1.598   2.896
 7258SOL    HW122673   4.994   1.527   2.964
 7258SOL    HW222674   5.112   1.613   2.891
 7259SOL     OW22675   2.629   3.954   1.208
 7259SOL    HW122676   2.641   3.866   1.162
 7259SOL    HW222677   2.612   4.025   1.140
 7260SOL     OW22678   4.378   1.289   1.214
 7260SOL    HW122679   4.458   1.239   1.247
 7260SOL    HW222680   4.301   1.273   1.276
 7261SOL     OW22681   1.401   3.166   1.461
 7261SOL    HW122682   1.330   3.172   1.530
 7261SOL    HW222683   1.388   3.083   1.406
 7262SOL     OW22684   5.524   2.655   6.362
 7262SOL    HW122685   5.474   2.717   6.422
 7262SOL    HW222686   5.616   2.690   6.346
 7263SOL     OW22687   1.209   6.600   6.780
 7263SOL    HW122688   1.196   6.626   6.684
 7263SOL    HW222689   1.187   6.678   6.839
 7264SOL     OW22690   5.072   2.068   6.584
 7264SOL    HW122691   5.001   2.062   6.653
 7264SOL    HW222692   5.065   2.155   6.537
 7265SOL     OW22693   6.096   5.081   5.629
 7265SOL    HW122694   6.073   5.083   5.726
 7265SOL    HW222695   6.114   4.987   5.600
 7266SOL     OW22696   5.296   6.716   2.193
 7266SOL    HW122697   5.282   6.617   2.190
 7266SOL    HW222698   5.377   6.740   2.139
 7267SOL     OW22699   6.492   6.518   5.219
 7267SOL    HW122700   6.449   6.583   5.157
 7267SOL    HW222701   6.588   6.542   5.232
 7268SOL     OW22702   6.175   5.124   3.613
 7268SOL    HW122703   6.251   5.073   3.652
 7268SOL    HW222704   6.109   5.147   3.685
 7269SOL     OW22705   0.176   5.964   6.443
 7269SOL    HW122706   0.169   6.025   6.522
 7269SOL    HW222707   0.250   5.996   6.383
 7270SOL     OW22708   1.568   3.400   5.305
 7270SOL    HW122709   1.641   3.378   5.370
 7270SOL    HW222710   1.487   3.346   5.328
 7271SOL     OW22711   0.396   6.137   3.693
 7271SOL    HW122712   0.343   6.128   3.609
 7271SOL    HW222713   0.335   6.132   3.772
 7272SOL     OW22714   6.131   5.499   2.556
 7272SOL    HW122715   6.097   5.425   2.615
 7272SOL    HW222716   6.231   5.499   2.557
 7273SOL     OW22717   6.339   4.553   1.587
 7273SOL    HW122718   6.269   4.623   1.572
 7273SOL    HW222719   6.398   4.581   1.663
 7274SOL     OW22720   6.969   5.226   5.988
 7274SOL    HW122721   6.978   5.322   6.015
 7274SOL    HW222722   6.932   5.173   6.064
 7275SOL     OW22723   6.955   6.215   2.403
 7275SOL    HW122724   0.020   6.171   2.379
 7275SOL    HW222725   6.967   6.314   2.405
 7276SOL     OW22726   3.889   1.029   3.351
 7276SOL    HW122727   3.864   1.113   3.303
 7276SOL    HW222728   3.823   1.012   3.424
 7277SOL     OW22729   4.398   0.925   4.009
 7277SOL    HW122730   4.445   0.915   3.921
 7277SOL    HW222731   4.427   1.010   4.053
 7278SOL     OW22732   3.699   2.551   1.313
 7278SOL    HW122733   3.777   2.501   1.350
 7278SOL    HW222734   3.616   2.497   1.325
 7279SOL     OW22735   4.625   4.203   6.113
 7279SOL    HW122736   4.595   4.285   6.163
 7279SOL    HW222737   4.676   4.231   6.031
 7280SOL     OW22738   0.541   1.694   3.412
 7280SOL    HW122739   0.623   1.640   3.392
 7280SOL    HW222740   0.534   1.708   3.511
 7281SOL     OW22741   2.019   1.107   0.954
 7281SOL    HW122742   2.046   1.134   0.862
 7281SOL    HW222743   1.929   1.147   0.976
 7282SOL     OW22744   5.827   5.301   2.415
 7282SOL    HW122745   5.767   5.261   2.345
 7282SOL    HW222746   5.901   5.351   2.369
 7283SOL     OW22747   4.891   0.628   2.924
 7283SOL    HW122748   4.831   0.566   2.975
 7283SOL    HW222749   4.979   0.584   2.908
 7284SOL     OW22750   0.283   2.713   5.961
 7284SOL    HW122751   0.303   2.732   6.057
 7284SOL    HW222752   0.205   2.651   5.955
 7285SOL     OW22753   5.689   3.237   2.544
 7285SOL    HW122754   5.728   3.241   2.452
 7285SOL    HW222755   5.754   3.275   2.609
 7286SOL     OW22756   2.043   1.037   1.208
 7286SOL    HW122757   2.016   0.945   1.179
 7286SOL    HW222758   2.057   1.094   1.127
 7287SOL     OW22759   0.596   2.738   5.290
 7287SOL    HW122760   0.638   2.829   5.298
 7287SOL    HW222761   0.603   2.706   5.196
 7288SOL     OW22762   1.964   1.112   2.279
 7288SOL    HW122763   1.874   1.118   2.322
 7288SOL    HW222764   1.954   1.076   2.187
 7289SOL     OW22765   5.741   1.827   3.965
 7289SOL    HW122766   5.645   1.801   3.979
 7289SOL    HW222767   5.798   1.744   3.966
 7290SOL     OW22768   3.691   1.651   5.495
 7290SOL    HW122769   3.651   1.741   5.479
 7290SOL    HW222770   3.672   1.592   5.417
 7291SOL     OW22771   0.949   6.897   7.021
 7291SOL    HW122772   0.916   6.912   0.093
 7291SOL    HW222773   1.049   6.900   7.020
 7292SOL     OW22774   3.103   0.433   3.465
 7292SOL    HW122775   3.112   0.364   3.393
 7292SOL    HW222776   3.013   0.425   3.508
 7293SOL     OW22777   1.560   1.938   4.878
 7293SOL    HW122778   1.585   2.021   4.828
 7293SOL    HW222779   1.630   1.868   4.864
 7294SOL     OW22780   2.596   4.474   6.949
 7294SOL    HW122781   2.578   4.462   6.852
 7294SOL    HW222782   2.511   4.462   7.001
 7295SOL     OW22783   5.776   3.714   1.460
 7295SOL    HW122784   5.865   3.695   1.418
 7295SOL    HW222785   5.790   3.750   1.553
 7296SOL     OW22786   3.585   6.173   2.121
 7296SOL    HW122787   3.636   6.088   2.130
 7296SOL    HW222788   3.625   6.228   2.047
 7297SOL     OW22789   3.893   0.132   1.446
 7297SOL    HW122790   3.799   0.099   1.454
 7297SOL    HW222791   3.902   0.218   1.497
 7298SOL     OW22792   4.794   5.317   6.219
 7298SOL    HW122793   4.853   5.389   6.183
 7298SOL    HW222794   4.740   5.279   6.145
 7299SOL     OW22795   0.961   2.603   1.122
 7299SOL    HW122796   1.012   2.634   1.202
 7299SOL    HW222797   0.931   2.509   1.136
 7300SOL     OW22798   0.457   6.672   2.011
 7300SOL    HW122799   0.446   6.771   2.004
 7300SOL    HW222800   0.394   6.636   2.080
 7301SOL     OW22801   5.657   1.472   4.410
 7301SOL    HW122802   5.680   1.382   4.446
 7301SOL    HW222803   5.739   1.531   4.411
 7302SOL     OW22804   0.923   2.515   5.441
 7302SOL    HW122805   1.001   2.524   5.504
 7302SOL    HW222806   0.848   2.470   5.488
 7303SOL     OW22807   4.069   0.933   6.769
 7303SOL    HW122808   4.019   0.995   6.709
 7303SOL    HW222809   4.095   0.980   6.853
 7304SOL     OW22810   2.889   5.604   1.851
 7304SOL    HW122811   2.867   5.660   1.930
 7304SOL    HW222812   2.847   5.514   1.862
 7305SOL     OW22813   5.193   1.118   0.662
 7305SOL    HW122814   5.136   1.048   0.705
 7305SOL    HW222815   5.288   1.104   0.688
 7306SOL     OW22816   4.447   1.576   1.229
 7306SOL    HW122817   4.404   1.487   1.212
 7306SOL    HW222818   4.377   1.647   1.235
 7307SOL     OW22819   2.610   6.604   2.718
 7307SOL    HW122820   2.516   6.586   2.689
 7307SOL    HW222821   2.643   6.688   2.675
 7308SOL     OW22822   6.578   2.798   4.953
 7308SOL    HW122823   6.609   2.848   4.873
 7308SOL    HW222824   6.654   2.749   4.995
 7309SOL     OW22825   4.040   4.919   0.614
 7309SOL    HW122826   4.133   4.950   0.591
 7309SOL    HW222827   4.042   4.821   0.631
 7310SOL     OW22828   2.577   4.352   0.536
 7310SOL    HW122829   2.540   4.260   0.525
 7310SOL    HW222830   2.577   4.398   0.447
 7311SOL     OW22831   1.789   1.928   1.425
 7311SOL    HW122832   1.698   1.911   1.386
 7311SOL    HW222833   1.778   1.967   1.516
 7312SOL     OW22834   1.080   3.499   5.029
 7312SOL    HW122835   1.154   3.543   4.978
 7312SOL    HW222836   1.083   3.400   5.013
 7313SOL     OW22837   2.252   0.811   1.117
 7313SOL    HW122838   2.314   0.733   1.121
 7313SOL    HW222839   2.269   0.871   1.195
 7314SOL     OW22840   6.829   5.170   6.226
 7314SOL    HW122841   6.855   5.118   6.308
 7314SOL    HW222842   6.807   5.264   6.253
 7315SOL     OW22843   6.213   6.085   1.775
 7315SOL    HW122844   6.235   6.147   1.851
 7315SOL    HW222845   6.205   6.138   1.691
 7316SOL     OW22846   3.684   3.799   6.465
 7316SOL    HW122847   3.721   3.891   6.477
 7316SOL    HW222848   3.752   3.742   6.418
 7317SOL     OW22849   4.707   1.361   2.046
 7317SOL    HW122850   4.634   1.386   1.982
 7317SOL    HW222851   4.669   1.347   2.137
 7318SOL     OW22852   3.072   0.418   2.053
 7318SOL    HW122853   3.016   0.337   2.070
 7318SOL    HW222854   3.086   0.467   2.139
 7319SOL     OW22855   6.481   2.992   6.631
 7319SOL    HW122856   6.512   3.083   6.602
 7319SOL    HW222857   6.500   2.980   6.729
 7320SOL     OW22858   0.906   3.843   2.324
 7320SOL    HW122859   0.936   3.938   2.330
 7320SOL    HW222860   0.890   3.807   2.416
 7321SOL     OW22861   1.413   6.967   6.383
 7321SOL    HW122862   1.448   6.961   6.477
 7321SOL    HW222863   1.318   6.998   6.386
 7322SOL     OW22864   0.035   2.818   3.232
 7322SOL    HW122865   0.092   2.809   3.150
 7322SOL    HW222866   0.074   2.762   3.306
 7323SOL     OW22867   2.297   2.747   1.232
 7323SOL    HW122868   2.258   2.776   1.145
 7323SOL    HW222869   2.314   2.828   1.289
 7324SOL     OW22870   5.347   5.784   1.744
 7324SOL    HW122871   5.274   5.834   1.697
 7324SOL    HW222872   5.313   5.749   1.832
 7325SOL     OW22873   2.406   0.803   6.414
 7325SOL    HW122874   2.449   0.848   6.493
 7325SOL    HW222875   2.323   0.756   6.444
 7326SOL     OW22876   2.748   6.373   6.656
 7326SOL    HW122877   2.759   6.422   6.742
 7326SOL    HW222878   2.826   6.392   6.597
 7327SOL     OW22879   6.417   1.547   5.753
 7327SOL    HW122880   6.417   1.645   5.773
 7327SOL    HW222881   6.509   1.510   5.768
 7328SOL     OW22882   3.903   0.605   5.986
 7328SOL    HW122883   3.859   0.659   6.059
 7328SOL    HW222884   3.993   0.576   6.016
 7329SOL     OW22885   1.034   3.829   1.030
 7329SOL    HW122886   0.983   3.786   0.956
 7329SOL    HW222887   1.127   3.792   1.031
 7330SOL     OW22888   1.890   2.766   6.734
 7330SOL    HW122889   1.854   2.786   6.825
 7330SOL    HW222890   1.969   2.705   6.741
 7331SOL     OW22891   5.471   5.951   1.393
 7331SOL    HW122892   5.407   6.024   1.368
 7331SOL    HW222893   5.529   5.982   1.468
 7332SOL     OW22894   3.297   6.072   6.923
 7332SOL    HW122895   3.347   6.155   6.946
 7332SOL    HW222896   3.230   6.053   6.995
 7333SOL     OW22897   6.763   3.265   2.140
 7333SOL    HW122898   6.836   3.301   2.198
 7333SOL    HW222899   6.702   3.208   2.195
 7334SOL     OW22900   2.186   5.743   6.258
 7334SOL    HW122901   2.209   5.727   6.162
 7334SOL    HW222902   2.090   5.717   6.273
 7335SOL     OW22903   0.970   2.848   3.249
 7335SOL    HW122904   1.025   2.931   3.253
 7335SOL    HW222905   1.030   2.768   3.250
 7336SOL     OW22906   1.549   6.647   2.655
 7336SOL    HW122907   1.573   6.600   2.570
 7336SOL    HW222908   1.632   6.678   2.701
 7337SOL     OW22909   0.877   3.124   1.068
 7337SOL    HW122910   0.949   3.056   1.056
 7337SOL    HW222911   0.853   3.131   1.165
 7338SOL     OW22912   4.907   1.535   2.143
 7338SOL    HW122913   4.872   1.455   2.095
 7338SOL    HW222914   4.889   1.617   2.089
 7339SOL     OW22915   6.112   0.754   4.449
 7339SOL    HW122916   6.060   0.672   4.425
 7339SOL    HW222917   6.105   0.770   4.547
 7340SOL     OW22918   3.003   1.119   0.221
 7340SOL    HW122919   3.026   1.094   0.314
 7340SOL    HW222920   3.077   1.093   0.159
 7341SOL     OW22921   0.827   4.318   5.736
 7341SOL    HW122922   0.828   4.416   5.715
 7341SOL    HW222923   0.798   4.267   5.656
 7342SOL     OW22924   6.830   1.148   6.897
 7342SOL    HW122925   6.734   1.152   6.870
 7342SOL    HW222926   6.863   1.054   6.886
 7343SOL     OW22927   6.138   4.408   1.789
 7343SOL    HW122928   6.056   4.410   1.732
 7343SOL    HW222929   6.218   4.428   1.733
 7344SOL     OW22930   0.731   0.999   6.121
 7344SOL    HW122931   0.740   1.048   6.208
 7344SOL    HW222932   0.635   1.002   6.092
 7345SOL     OW22933   4.806   5.068   5.661
 7345SOL    HW122934   4.707   5.083   5.656
 7345SOL    HW222935   4.852   5.155   5.680
 7346SOL     OW22936   4.495   5.017   1.860
 7346SOL    HW122937   4.508   5.113   1.883
 7346SOL    HW222938   4.449   5.011   1.771
 7347SOL     OW22939   0.371   2.288   0.442
 7347SOL    HW122940   0.430   2.318   0.368
 7347SOL    HW222941   0.400   2.330   0.528
 7348SOL     OW22942   1.849   4.109   4.364
 7348SOL    HW122943   1.875   4.202   4.393
 7348SOL    HW222944   1.780   4.115   4.292
 7349SOL     OW22945   4.905   1.589   1.181
 7349SOL    HW122946   4.993   1.568   1.138
 7349SOL    HW222947   4.916   1.670   1.240
 7350SOL     OW22948   2.043   2.885   5.538
 7350SOL    HW122949   1.995   2.902   5.624
 7350SOL    HW222950   2.071   2.972   5.498
 7351SOL     OW22951   5.205   6.602   4.937
 7351SOL    HW122952   5.113   6.642   4.938
 7351SOL    HW222953   5.205   6.518   4.883
 7352SOL     OW22954   2.077   2.029   2.974
 7352SOL    HW122955   2.141   1.958   3.002
 7352SOL    HW222956   2.018   2.054   3.050
 7353SOL     OW22957   0.835   0.512   6.642
 7353SOL    HW122958   0.888   0.596   6.630
 7353SOL    HW222959   0.894   0.433   6.627
 7354SOL     OW22960   0.436   1.717   5.591
 7354SOL    HW122961   0.427   1.636   5.533
 7354SOL    HW222962   0.346   1.741   5.628
 7355SOL     OW22963   1.961   0.524   0.910
 7355SOL    HW122964   1.901   0.541   0.989
 7355SOL    HW222965   1.980   0.611   0.864
 7356SOL     OW22966   4.143   4.264   5.790
 7356SOL    HW122967   4.073   4.238   5.724
 7356SOL    HW222968   4.232   4.234   5.757
 7357SOL     OW22969   4.109   6.591   1.848
 7357SOL    HW122970   4.068   6.542   1.771
 7357SOL    HW222971   4.160   6.670   1.815
 7358SOL     OW22972   6.215   3.393   2.848
 7358SOL    HW122973   6.263   3.475   2.816
 7358SOL    HW222974   6.196   3.333   2.770
 7359SOL     OW22975   2.601   1.461   6.521
 7359SOL    HW122976   2.617   1.395   6.595
 7359SOL    HW222977   2.667   1.535   6.527
 7360SOL     OW22978   2.699   3.763   5.737
 7360SOL    HW122979   2.777   3.805   5.690
 7360SOL    HW222980   2.731   3.702   5.809
 7361SOL     OW22981   4.575   0.062   1.950
 7361SOL    HW122982   4.565   7.002   2.007
 7361SOL    HW222983   4.672   0.089   1.947
 7362SOL     OW22984   1.518   4.917   4.522
 7362SOL    HW122985   1.491   5.013   4.518
 7362SOL    HW222986   1.534   4.882   4.430
 7363SOL     OW22987   4.349   1.921   1.550
 7363SOL    HW122988   4.431   1.887   1.596
 7363SOL    HW222989   4.281   1.847   1.544
 7364SOL     OW22990   4.423   0.565   1.653
 7364SOL    HW122991   4.494   0.629   1.682
 7364SOL    HW222992   4.357   0.554   1.727
 7365SOL     OW22993   0.667   5.462   1.896
 7365SOL    HW122994   0.735   5.461   1.969
 7365SOL    HW222995   0.637   5.369   1.877
 7366SOL     OW22996   2.527   5.800   6.936
 7366SOL    HW122997   2.479   5.768   7.018
 7366SOL    HW222998   2.468   5.784   6.856
 7367SOL     OW22999   4.724   2.349   1.361
 7367SOL    HW123000   4.635   2.351   1.407
 7367SOL    HW223001   4.758   2.443   1.351
 7368SOL     OW23002   3.645   2.890   2.778
 7368SOL    HW123003   3.583   2.816   2.803
 7368SOL    HW223004   3.671   2.942   2.859
 7369SOL     OW23005   4.042   2.903   0.266
 7369SOL    HW123006   4.056   2.995   0.300
 7369SOL    HW223007   3.968   2.903   0.199
 7370SOL     OW23008   2.773   0.366   4.118
 7370SOL    HW123009   2.675   0.377   4.104
 7370SOL    HW223010   2.822   0.409   4.042
 7371SOL     OW23011   1.922   6.576   3.271
 7371SOL    HW123012   1.839   6.623   3.301
 7371SOL    HW223013   1.926   6.485   3.313
 7372SOL     OW23014   4.155   1.069   4.150
 7372SOL    HW123015   4.083   1.136   4.169
 7372SOL    HW223016   4.242   1.116   4.139
 7373SOL     OW23017   5.944   1.625   4.043
 7373SOL    HW123018   6.044   1.616   4.042
 7373SOL    HW223019   5.905   1.548   4.094
 7374SOL     OW23020   2.501   1.804   5.070
 7374SOL    HW123021   2.432   1.777   5.137
 7374SOL    HW223022   2.465   1.789   4.978
 7375SOL     OW23023   2.103   2.600   3.175
 7375SOL    HW123024   2.195   2.636   3.163
 7375SOL    HW223025   2.090   2.521   3.115
 7376SOL     OW23026   2.627   1.192   0.504
 7376SOL    HW123027   2.588   1.282   0.523
 7376SOL    HW223028   2.667   1.155   0.588
 7377SOL     OW23029   5.877   4.631   0.620
 7377SOL    HW123030   5.932   4.713   0.634
 7377SOL    HW223031   5.936   4.556   0.590
 7378SOL     OW23032   0.548   0.981   5.904
 7378SOL    HW123033   0.543   1.081   5.900
 7378SOL    HW223034   0.467   0.945   5.949
 7379SOL     OW23035   2.736   2.052   3.067
 7379SOL    HW123036   2.700   1.959   3.059
 7379SOL    HW223037   2.822   2.050   3.117
 7380SOL     OW23038   6.690   4.451   4.771
 7380SOL    HW123039   6.666   4.533   4.823
 7380SOL    HW223040   6.789   4.448   4.756
 7381SOL     OW23041   4.460   3.636   1.269
 7381SOL    HW123042   4.464   3.601   1.363
 7381SOL    HW223043   4.499   3.728   1.267
 7382SOL     OW23044   0.108   6.454   5.617
 7382SOL    HW123045   0.153   6.456   5.527
 7382SOL    HW223046   0.056   6.369   5.626
 7383SOL     OW23047   1.693   0.216   0.809
 7383SOL    HW123048   1.607   0.248   0.770
 7383SOL    HW223049   1.699   0.244   0.905
 7384SOL     OW23050   6.085   6.849   2.494
 7384SOL    HW123051   6.157   6.817   2.433
 7384SOL    HW223052   6.054   6.940   2.465
 7385SOL     OW23053   3.942   6.051   2.249
 7385SOL    HW123054   3.857   6.002   2.232
 7385SOL    HW223055   3.998   5.999   2.315
 7386SOL     OW23056   0.306   2.131   6.150
 7386SOL    HW123057   0.394   2.179   6.151
 7386SOL    HW223058   0.290   2.088   6.240
 7387SOL     OW23059   5.807   6.647   4.649
 7387SOL    HW123060   5.897   6.608   4.631
 7387SOL    HW223061   5.748   6.578   4.690
 7388SOL     OW23062   0.598   5.372   2.309
 7388SOL    HW123063   0.547   5.287   2.294
 7388SOL    HW223064   0.642   5.369   2.398
 7389SOL     OW23065   6.701   3.852   6.710
 7389SOL    HW123066   6.778   3.880   6.767
 7389SOL    HW223067   6.666   3.763   6.743
 7390SOL     OW23068   1.160   1.890   0.442
 7390SOL    HW123069   1.073   1.938   0.434
 7390SOL    HW223070   1.216   1.910   0.361
 7391SOL     OW23071   4.059   3.790   3.874
 7391SOL    HW123072   4.014   3.852   3.938
 7391SOL    HW223073   4.113   3.722   3.925
 7392SOL     OW23074   2.743   6.487   6.897
 7392SOL    HW123075   2.658   6.525   6.863
 7392SOL    HW223076   2.813   6.558   6.901
 7393SOL     OW23077   6.176   4.014   3.117
 7393SOL    HW123078   6.091   3.967   3.091
 7393SOL    HW223079   6.189   4.008   3.216
 7394SOL     OW23080   2.194   2.998   6.005
 7394SOL    HW123081   2.139   3.070   5.962
 7394SOL    HW223082   2.212   2.925   5.939
 7395SOL     OW23083   1.379   2.884   1.043
 7395SOL    HW123084   1.395   2.805   0.984
 7395SOL    HW223085   1.439   2.959   1.015
 7396SOL     OW23086   1.458   6.756   1.027
 7396SOL    HW123087   1.428   6.834   0.972
 7396SOL    HW223088   1.437   6.671   0.978
 7397SOL     OW23089   4.233   5.140   4.515
 7397SOL    HW123090   4.188   5.057   4.482
 7397SOL    HW223091   4.197   5.165   4.604
 7398SOL     OW23092   2.382   4.810   4.691
 7398SOL    HW123093   2.399   4.721   4.733
 7398SOL    HW223094   2.443   4.878   4.732
 7399SOL     OW23095   1.129   2.937   5.126
 7399SOL    HW123096   1.163   2.860   5.073
 7399SOL    HW223097   1.170   3.022   5.091
 7400SOL     OW23098   3.912   2.317   5.635
 7400SOL    HW123099   3.909   2.235   5.692
 7400SOL    HW223100   3.913   2.398   5.694
 7401SOL     OW23101   1.806   1.950   4.647
 7401SOL    HW123102   1.780   2.021   4.582
 7401SOL    HW223103   1.892   1.976   4.692
 7402SOL     OW23104   3.016   6.084   6.466
 7402SOL    HW123105   2.992   6.043   6.554
 7402SOL    HW223106   2.934   6.125   6.425
 7403SOL     OW23107   2.113   3.727   2.073
 7403SOL    HW123108   2.150   3.639   2.043
 7403SOL    HW223109   2.027   3.711   2.122
 7404SOL     OW23110   2.755   5.385   1.941
 7404SOL    HW123111   2.754   5.292   1.903
 7404SOL    HW223112   2.797   5.383   2.032
 7405SOL     OW23113   3.594   5.051   4.492
 7405SOL    HW123114   3.536   5.046   4.411
 7405SOL    HW223115   3.662   4.978   4.490
 7406SOL     OW23116   0.315   2.446   3.593
 7406SOL    HW123117   0.296   2.375   3.661
 7406SOL    HW223118   0.409   2.436   3.560
 7407SOL     OW23119   0.721   6.934   5.131
 7407SOL    HW123120   0.802   6.906   5.183
 7407SOL    HW223121   0.729   6.901   5.037
 7408SOL     OW23122   3.183   3.710   6.971
 7408SOL    HW123123   3.096   3.689   7.015
 7408SOL    HW223124   3.167   3.773   6.895
 7409SOL     OW23125   5.459   2.495   0.142
 7409SOL    HW123126   5.426   2.510   0.049
 7409SOL    HW223127   5.558   2.481   0.141
 7410SOL     OW23128   0.478   6.851   0.561
 7410SOL    HW123129   0.504   6.948   0.564
 7410SOL    HW223130   0.490   6.810   0.652
 7411SOL     OW23131   2.261   6.956   5.936
 7411SOL    HW123132   2.195   6.931   6.006
 7411SOL    HW223133   2.213   6.978   5.851
 7412SOL     OW23134   5.470   0.691   2.204
 7412SOL    HW123135   5.568   0.711   2.212
 7412SOL    HW223136   5.451   0.602   2.246
 7413SOL     OW23137   5.260   5.667   4.227
 7413SOL    HW123138   5.286   5.729   4.153
 7413SOL    HW223139   5.163   5.678   4.248
 7414SOL     OW23140   0.601   0.610   3.782
 7414SOL    HW123141   0.578   0.707   3.768
 7414SOL    HW223142   0.687   0.603   3.832
 7415SOL     OW23143   1.482   5.314   3.849
 7415SOL    HW123144   1.437   5.323   3.938
 7415SOL    HW223145   1.559   5.378   3.845
 7416SOL     OW23146   2.203   1.109   2.789
 7416SOL    HW123147   2.299   1.116   2.764
 7416SOL    HW223148   2.186   1.162   2.872
 7417SOL     OW23149   1.646   1.768   0.581
 7417SOL    HW123150   1.615   1.795   0.672
 7417SOL    HW223151   1.680   1.674   0.584
 7418SOL     OW23152   2.785   5.961   0.505
 7418SOL    HW123153   2.736   6.046   0.485
 7418SOL    HW223154   2.756   5.890   0.441
 7419SOL     OW23155   6.626   2.858   4.182
 7419SOL    HW123156   6.590   2.781   4.129
 7419SOL    HW223157   6.726   2.859   4.175
 7420SOL     OW23158   0.449   6.891   1.444
 7420SOL    HW123159   0.445   6.973   1.387
 7420SOL    HW223160   0.544   6.875   1.473
 7421SOL     OW23161   4.220   4.569   0.794
 7421SOL    HW123162   4.182   4.483   0.762
 7421SOL    HW223163   4.231   4.632   0.717
 7422SOL     OW23164   0.577   3.880   2.376
 7422SOL    HW123165   0.608   3.826   2.297
 7422SOL    HW223166   0.560   3.819   2.453
 7423SOL     OW23167   5.870   2.631   5.238
 7423SOL    HW123168   5.803   2.595   5.302
 7423SOL    HW223169   5.922   2.556   5.197
 7424SOL     OW23170   6.561   6.451   5.681
 7424SOL    HW123171   6.643   6.482   5.634
 7424SOL    HW223172   6.584   6.424   5.775
 7425SOL     OW23173   4.129   6.247   6.523
 7425SOL    HW123174   4.131   6.204   6.613
 7425SOL    HW223175   4.191   6.325   6.521
 7426SOL     OW23176   3.119   1.505   5.858
 7426SOL    HW123177   3.138   1.561   5.778
 7426SOL    HW223178   3.161   1.415   5.846
 7427SOL     OW23179   3.943   0.731   3.649
 7427SOL    HW123180   3.919   0.728   3.552
 7427SOL    HW223181   4.036   0.765   3.660
 7428SOL     OW23182   4.269   1.770   5.338
 7428SOL    HW123183   4.302   1.701   5.402
 7428SOL    HW223184   4.332   1.847   5.336
 7429SOL     OW23185   0.076   6.428   4.241
 7429SOL    HW123186   0.046   6.521   4.262
 7429SOL    HW223187   0.106   6.383   4.326
 7430SOL     OW23188   1.495   3.607   0.408
 7430SOL    HW123189   1.463   3.534   0.470
 7430SOL    HW223190   1.528   3.566   0.323
 7431SOL     OW23191   1.790   2.944   3.401
 7431SOL    HW123192   1.819   2.906   3.313
 7431SOL    HW223193   1.822   2.886   3.475
 7432SOL     OW23194   0.762   0.960   3.028
 7432SOL    HW123195   0.748   1.059   3.025
 7432SOL    HW223196   0.822   0.937   3.105
 7433SOL     OW23197   4.317   6.085   5.658
 7433SOL    HW123198   4.374   6.140   5.720
 7433SOL    HW223199   4.221   6.107   5.673
 7434SOL     OW23200   4.971   6.045   5.449
 7434SOL    HW123201   5.025   5.972   5.408
 7434SOL    HW223202   4.884   6.007   5.482
 7435SOL     OW23203   3.606   5.735   0.956
 7435SOL    HW123204   3.657   5.681   1.023
 7435SOL    HW223205   3.665   5.757   0.878
 7436SOL     OW23206   4.583   3.917   6.103
 7436SOL    HW123207   4.623   3.864   6.028
 7436SOL    HW223208   4.590   4.015   6.082
 7437SOL     OW23209   1.842   5.800   0.409
 7437SOL    HW123210   1.801   5.767   0.324
 7437SOL    HW223211   1.914   5.737   0.438
 7438SOL     OW23212   1.487   5.962   0.320
 7438SOL    HW123213   1.494   5.937   0.417
 7438SOL    HW223214   1.517   5.885   0.264
 7439SOL     OW23215   1.782   6.354   5.643
 7439SOL    HW123216   1.751   6.272   5.691
 7439SOL    HW223217   1.878   6.371   5.664
 7440SOL     OW23218   0.192   2.552   4.789
 7440SOL    HW123219   0.279   2.589   4.757
 7440SOL    HW223220   0.129   2.542   4.712
 7441SOL     OW23221   5.202   6.372   4.483
 7441SOL    HW123222   5.243   6.314   4.553
 7441SOL    HW223223   5.227   6.467   4.500
 7442SOL     OW23224   6.317   0.994   5.839
 7442SOL    HW123225   6.357   1.062   5.778
 7442SOL    HW223226   6.300   1.034   5.928
 7443SOL     OW23227   6.760   6.172   1.747
 7443SOL    HW123228   6.787   6.086   1.705
 7443SOL    HW223229   6.663   6.190   1.727
 7444SOL     OW23230   5.714   2.125   5.529
 7444SOL    HW123231   5.674   2.135   5.620
 7444SOL    HW223232   5.689   2.036   5.491
 7445SOL     OW23233   4.125   0.989   1.052
 7445SOL    HW123234   4.125   1.037   0.964
 7445SOL    HW223235   4.042   0.934   1.061
 7446SOL     OW23236   6.005   3.389   1.194
 7446SOL    HW123237   5.966   3.310   1.240
 7446SOL    HW223238   6.097   3.367   1.162
 7447SOL     OW23239   6.544   3.021   6.892
 7447SOL    HW123240   6.545   2.982   6.984
 7447SOL    HW223241   6.638   3.031   6.860
 7448SOL     OW23242   6.134   6.769   5.296
 7448SOL    HW123243   6.177   6.832   5.232
 7448SOL    HW223244   6.199   6.696   5.318
 7449SOL     OW23245   0.686   4.313   2.167
 7449SOL    HW123246   0.615   4.366   2.121
 7449SOL    HW223247   0.738   4.260   2.100
 7450SOL     OW23248   5.306   2.441   5.308
 7450SOL    HW123249   5.288   2.437   5.209
 7450SOL    HW223250   5.322   2.348   5.342
 7451SOL     OW23251   6.444   6.173   3.117
 7451SOL    HW123252   6.498   6.160   3.034
 7451SOL    HW223253   6.357   6.125   3.108
 7452SOL     OW23254   6.076   6.574   4.182
 7452SOL    HW123255   6.013   6.649   4.201
 7452SOL    HW223256   6.024   6.490   4.167
 7453SOL     OW23257   4.917   6.237   5.741
 7453SOL    HW123258   4.822   6.217   5.714
 7453SOL    HW223259   4.975   6.238   5.660
 7454SOL     OW23260   1.125   2.298   1.733
 7454SOL    HW123261   1.074   2.382   1.751
 7454SOL    HW223262   1.123   2.278   1.635
 7455SOL     OW23263   6.964   2.845   2.130
 7455SOL    HW123264   6.948   2.885   2.040
 7455SOL    HW223265   6.923   2.754   2.135
 7456SOL     OW23266   1.318   0.957   3.991
 7456SOL    HW123267   1.349   1.046   3.959
 7456SOL    HW223268   1.359   0.885   3.934
 7457SOL     OW23269   3.217   0.461   5.888
 7457SOL    HW123270   3.241   0.539   5.945
 7457SOL    HW223271   3.298   0.404   5.875
 7458SOL     OW23272   1.521   6.295   5.610
 7458SOL    HW123273   1.536   6.220   5.675
 7458SOL    HW223274   1.594   6.361   5.618
 7459SOL     OW23275   4.958   0.230   2.168
 7459SOL    HW123276   4.916   0.321   2.171
 7459SOL    HW223277   4.928   0.176   2.247
 7460SOL     OW23278   1.096   4.983   0.489
 7460SOL    HW123279   1.005   4.953   0.459
 7460SOL    HW223280   1.102   5.082   0.479
 7461SOL     OW23281   6.129   0.525   6.691
 7461SOL    HW123282   6.221   0.485   6.693
 7461SOL    HW223283   6.062   0.455   6.712
 7462SOL     OW23284   1.870   4.045   2.380
 7462SOL    HW123285   1.857   3.994   2.465
 7462SOL    HW223286   1.782   4.080   2.348
 7463SOL     OW23287   3.150   4.944   0.501
 7463SOL    HW123288   3.166   5.034   0.459
 7463SOL    HW223289   3.188   4.873   0.442
 7464SOL     OW23290   5.410   6.917   5.697
 7464SOL    HW123291   5.366   7.000   5.664
 7464SOL    HW223292   5.420   6.852   5.622
 7465SOL     OW23293   2.001   5.482   6.937
 7465SOL    HW123294   2.050   5.494   6.852
 7465SOL    HW223295   1.986   5.571   6.981
 7466SOL     OW23296   0.386   0.703   4.630
 7466SOL    HW123297   0.475   0.736   4.662
 7466SOL    HW223298   0.330   0.676   4.708
 7467SOL     OW23299   0.555   1.409   0.637
 7467SOL    HW123300   0.561   1.314   0.605
 7467SOL    HW223301   0.626   1.425   0.705
 7468SOL     OW23302   5.981   2.943   3.469
 7468SOL    HW123303   5.900   2.942   3.529
 7468SOL    HW223304   6.046   3.012   3.502
 7469SOL     OW23305   6.475   0.624   0.662
 7469SOL    HW123306   6.436   0.604   0.573
 7469SOL    HW223307   6.512   0.540   0.703
 7470SOL     OW23308   6.156   3.803   2.843
 7470SOL    HW123309   6.214   3.829   2.920
 7470SOL    HW223310   6.093   3.730   2.872
 7471SOL     OW23311   5.458   6.720   5.502
 7471SOL    HW123312   5.482   6.791   5.436
 7471SOL    HW223313   5.519   6.642   5.490
 7472SOL     OW23314   6.262   0.317   5.817
 7472SOL    HW123315   6.243   0.324   5.719
 7472SOL    HW223316   6.324   0.391   5.844
 7473SOL     OW23317   5.908   5.839   4.039
 7473SOL    HW123318   5.821   5.846   3.990
 7473SOL    HW223319   5.982   5.826   3.973
 7474SOL     OW23320   0.808   1.731   6.271
 7474SOL    HW123321   0.907   1.739   6.264
 7474SOL    HW223322   0.766   1.821   6.257
 7475SOL     OW23323   4.706   2.413   2.733
 7475SOL    HW123324   4.606   2.418   2.737
 7475SOL    HW223325   4.733   2.360   2.652
 7476SOL     OW23326   3.315   0.477   3.844
 7476SOL    HW123327   3.362   0.531   3.914
 7476SOL    HW223328   3.263   0.538   3.784
 7477SOL     OW23329   0.530   1.488   5.990
 7477SOL    HW123330   0.518   1.394   5.957
 7477SOL    HW223331   0.583   1.486   6.076
 7478SOL     OW23332   5.635   4.013   5.657
 7478SOL    HW123333   5.620   4.108   5.629
 7478SOL    HW223334   5.552   3.959   5.639
 7479SOL     OW23335   4.201   2.245   2.278
 7479SOL    HW123336   4.102   2.232   2.264
 7479SOL    HW223337   4.238   2.299   2.202
 7480SOL     OW23338   1.390   4.302   2.654
 7480SOL    HW123339   1.474   4.266   2.613
 7480SOL    HW223340   1.331   4.337   2.581
 7481SOL     OW23341   5.928   5.702   0.960
 7481SOL    HW123342   5.833   5.677   0.947
 7481SOL    HW223343   5.977   5.695   0.873
 7482SOL     OW23344   4.473   2.525   3.119
 7482SOL    HW123345   4.513   2.516   3.210
 7482SOL    HW223346   4.431   2.439   3.092
 7483SOL     OW23347   5.038   3.107   4.565
 7483SOL    HW123348   5.001   3.172   4.631
 7483SOL    HW223349   5.102   3.154   4.504
 7484SOL     OW23350   1.291   6.976   4.917
 7484SOL    HW123351   1.244   0.033   4.956
 7484SOL    HW223352   1.227   6.900   4.906
 7485SOL     OW23353   3.602   6.821   4.681
 7485SOL    HW123354   3.637   6.903   4.636
 7485SOL    HW223355   3.506   6.809   4.657
 7486SOL     OW23356   1.818   6.249   0.154
 7486SOL    HW123357   1.899   6.301   0.179
 7486SOL    HW223358   1.804   6.175   0.220
 7487SOL     OW23359   1.942   7.021   2.954
 7487SOL    HW123360   1.887   7.008   3.036
 7487SOL    HW223361   1.895   0.061   2.892
 7488SOL     OW23362   2.898   6.115   4.216
 7488SOL    HW123363   2.951   6.106   4.132
 7488SOL    HW223364   2.801   6.106   4.195
 7489SOL     OW23365   5.954   2.551   5.649
 7489SOL    HW123366   6.027   2.601   5.695
 7489SOL    HW223367   5.892   2.512   5.716
 7490SOL     OW23368   1.220   6.985   2.563
 7490SOL    HW123369   1.211   6.997   2.662
 7490SOL    HW223370   1.276   6.904   2.545
 7491SOL     OW23371   4.866   2.819   6.581
 7491SOL    HW123372   4.920   2.735   6.586
 7491SOL    HW223373   4.854   2.856   6.673
 7492SOL     OW23374   1.879   0.353   3.177
 7492SOL    HW123375   1.908   0.432   3.232
 7492SOL    HW223376   1.844   0.282   3.238
 7493SOL     OW23377   0.506   3.374   6.656
 7493SOL    HW123378   0.412   3.390   6.626
 7493SOL    HW223379   0.508   3.297   6.719
 7494SOL     OW23380   5.549   1.928   2.638
 7494SOL    HW123381   5.496   1.847   2.615
 7494SOL    HW223382   5.488   2.002   2.667
 7495SOL     OW23383   1.592   2.179   6.763
 7495SOL    HW123384   1.645   2.220   6.689
 7495SOL    HW223385   1.498   2.166   6.733
 7496SOL     OW23386   6.545   3.335   4.399
 7496SOL    HW123387   6.607   3.414   4.406
 7496SOL    HW223388   6.537   3.292   4.489
 7497SOL     OW23389   2.900   4.516   6.968
 7497SOL    HW123390   2.916   4.446   6.899
 7497SOL    HW223391   2.802   4.534   6.975
 7498SOL     OW23392   3.166   0.457   5.220
 7498SOL    HW123393   3.228   0.382   5.241
 7498SOL    HW223394   3.219   0.539   5.197
 7499SOL     OW23395   3.805   1.222   3.170
 7499SOL    HW123396   3.707   1.231   3.189
 7499SOL    HW223397   3.835   1.299   3.113
 7500SOL     OW23398   3.135   5.613   3.152
 7500SOL    HW123399   3.230   5.631   3.128
 7500SOL    HW223400   3.081   5.697   3.141
 7501SOL     OW23401   5.150   3.725   4.692
 7501SOL    HW123402   5.198   3.652   4.741
 7501SOL    HW223403   5.051   3.711   4.701
 7502SOL     OW23404   3.232   0.785   4.546
 7502SOL    HW123405   3.194   0.704   4.590
 7502SOL    HW223406   3.158   0.848   4.523
 7503SOL     OW23407   1.589   0.075   1.116
 7503SOL    HW123408   1.629   0.167   1.115
 7503SOL    HW223409   1.656   0.010   1.153
 7504SOL     OW23410   0.705   6.360   3.564
 7504SOL    HW123411   0.688   6.267   3.597
 7504SOL    HW223412   0.665   6.371   3.473
 7505SOL     OW23413   1.960   3.075   5.847
 7505SOL    HW123414   1.899   3.023   5.788
 7505SOL    HW223415   1.985   3.162   5.803
 7506SOL     OW23416   5.174   1.555   3.173
 7506SOL    HW123417   5.208   1.546   3.267
 7506SOL    HW223418   5.101   1.487   3.158
 7507SOL     OW23419   0.104   1.680   2.731
 7507SOL    HW123420   0.146   1.747   2.792
 7507SOL    HW223421   0.156   1.674   2.646
 7508SOL     OW23422   1.236   6.861   1.583
 7508SOL    HW123423   1.279   6.951   1.586
 7508SOL    HW223424   1.304   6.792   1.557
 7509SOL     OW23425   5.928   3.862   0.526
 7509SOL    HW123426   5.970   3.946   0.560
 7509SOL    HW223427   5.830   3.863   0.546
 7510SOL     OW23428   3.588   3.264   5.025
 7510SOL    HW123429   3.559   3.352   5.061
 7510SOL    HW223430   3.507   3.212   4.996
 7511SOL     OW23431   2.619   5.822   4.070
 7511SOL    HW123432   2.522   5.795   4.066
 7511SOL    HW223433   2.660   5.787   4.154
 7512SOL     OW23434   2.746   6.687   6.478
 7512SOL    HW123435   2.704   6.697   6.568
 7512SOL    HW223436   2.723   6.597   6.440
 7513SOL     OW23437   1.718   0.847   1.921
 7513SOL    HW123438   1.791   0.783   1.944
 7513SOL    HW223439   1.690   0.834   1.826
 7514SOL     OW23440   2.745   5.575   2.242
 7514SOL    HW123441   2.818   5.507   2.237
 7514SOL    HW223442   2.754   5.640   2.166
 7515SOL     OW23443   6.829   5.384   4.724
 7515SOL    HW123444   6.921   5.368   4.760
 7515SOL    HW223445   6.835   5.445   4.645
 7516SOL     OW23446   6.534   5.898   6.060
 7516SOL    HW123447   6.487   5.936   6.139
 7516SOL    HW223448   6.468   5.853   6.000
 7517SOL     OW23449   0.547   2.112   0.530
 7517SOL    HW123450   0.600   2.063   0.461
 7517SOL    HW223451   0.478   2.168   0.485
 7518SOL     OW23452   4.293   4.682   4.089
 7518SOL    HW123453   4.212   4.719   4.043
 7518SOL    HW223454   4.279   4.685   4.188
 7519SOL     OW23455   0.291   6.543   4.095
 7519SOL    HW123456   0.364   6.476   4.090
 7519SOL    HW223457   0.208   6.499   4.129
 7520SOL     OW23458   2.585   0.236   1.961
 7520SOL    HW123459   2.565   0.138   1.958
 7520SOL    HW223460   2.531   0.279   2.033
 7521SOL     OW23461   4.413   2.980   5.648
 7521SOL    HW123462   4.413   2.881   5.636
 7521SOL    HW223463   4.418   3.025   5.558
 7522SOL     OW23464   1.674   1.517   6.114
 7522SOL    HW123465   1.767   1.481   6.127
 7522SOL    HW223466   1.679   1.613   6.086
 7523SOL     OW23467   5.394   0.072   6.457
 7523SOL    HW123468   5.406   0.122   6.543
 7523SOL    HW223469   5.472   0.090   6.397
 7524SOL     OW23470   1.168   2.697   5.029
 7524SOL    HW123471   1.137   2.614   5.075
 7524SOL    HW223472   1.164   2.685   4.930
 7525SOL     OW23473   3.096   0.762   6.510
 7525SOL    HW123474   3.007   0.753   6.554
 7525SOL    HW223475   3.084   0.778   6.412
 7526SOL     OW23476   3.652   3.267   1.478
 7526SOL    HW123477   3.555   3.285   1.463
 7526SOL    HW223478   3.692   3.341   1.533
 7527SOL     OW23479   2.702   5.717   3.375
 7527SOL    HW123480   2.712   5.728   3.474
 7527SOL    HW223481   2.719   5.622   3.351
 7528SOL     OW23482   6.236   2.129   0.718
 7528SOL    HW123483   6.142   2.123   0.685
 7528SOL    HW223484   6.237   2.170   0.809
 7529SOL     OW23485   5.429   1.659   4.519
 7529SOL    HW123486   5.477   1.743   4.543
 7529SOL    HW223487   5.479   1.611   4.447
 7530SOL     OW23488   0.454   2.962   2.218
 7530SOL    HW123489   0.354   2.952   2.218
 7530SOL    HW223490   0.493   2.899   2.151
 7531SOL     OW23491   5.652   2.793   4.480
 7531SOL    HW123492   5.699   2.705   4.472
 7531SOL    HW223493   5.595   2.793   4.562
 7532SOL     OW23494   4.401   6.267   0.009
 7532SOL    HW123495   4.446   6.347   6.991
 7532SOL    HW223496   4.453   6.185   7.006
 7533SOL     OW23497   3.633   1.236   1.708
 7533SOL    HW123498   3.636   1.150   1.657
 7533SOL    HW223499   3.555   1.290   1.675
 7534SOL     OW23500   3.932   6.281   5.267
 7534SOL    HW123501   3.887   6.233   5.192
 7534SOL    HW223502   3.869   6.347   5.307
 7535SOL     OW23503   1.889   0.466   4.483
 7535SOL    HW123504   1.878   0.377   4.528
 7535SOL    HW223505   1.824   0.473   4.407
 7536SOL     OW23506   5.142   4.608   4.486
 7536SOL    HW123507   5.107   4.572   4.573
 7536SOL    HW223508   5.208   4.681   4.505
 7537SOL     OW23509   2.563   5.944   1.970
 7537SOL    HW123510   2.486   6.004   1.950
 7537SOL    HW223511   2.597   5.903   1.886
 7538SOL     OW23512   2.221   2.383   1.113
 7538SOL    HW123513   2.233   2.336   1.026
 7538SOL    HW223514   2.221   2.482   1.098
 7539SOL     OW23515   1.652   3.778   4.031
 7539SOL    HW123516   1.711   3.756   3.953
 7539SOL    HW223517   1.579   3.711   4.037
 7540SOL     OW23518   3.858   0.683   4.779
 7540SOL    HW123519   3.916   0.743   4.724
 7540SOL    HW223520   3.793   0.739   4.832
 7541SOL     OW23521   0.377   4.378   5.057
 7541SOL    HW123522   0.452   4.325   5.019
 7541SOL    HW223523   0.360   4.350   5.152
 7542SOL     OW23524   1.157   5.164   6.908
 7542SOL    HW123525   1.101   5.247   6.907
 7542SOL    HW223526   1.209   5.158   6.822
 7543SOL     OW23527   3.962   1.103   5.489
 7543SOL    HW123528   3.872   1.058   5.497
 7543SOL    HW223529   3.986   1.146   5.576
 7544SOL     OW23530   6.792   2.164   2.974
 7544SOL    HW123531   6.795   2.073   2.933
 7544SOL    HW223532   6.856   2.169   3.051
 7545SOL     OW23533   0.462   5.411   0.029
 7545SOL    HW123534   0.551   5.398   7.006
 7545SOL    HW223535   0.389   5.405   6.982
 7546SOL     OW23536   3.759   1.852   1.090
 7546SOL    HW123537   3.811   1.937   1.083
 7546SOL    HW223538   3.714   1.847   1.180
 7547SOL     OW23539   5.342   1.647   0.135
 7547SOL    HW123540   5.306   1.561   0.099
 7547SOL    HW223541   5.302   1.665   0.225
 7548SOL     OW23542   4.437   2.420   0.374
 7548SOL    HW123543   4.366   2.423   0.445
 7548SOL    HW223544   4.487   2.333   0.381
 7549SOL     OW23545   3.144   2.587   6.957
 7549SOL    HW123546   3.216   2.521   6.981
 7549SOL    HW223547   3.109   2.566   6.866
 7550SOL     OW23548   2.003   4.731   3.686
 7550SOL    HW123549   1.936   4.781   3.740
 7550SOL    HW223550   2.047   4.794   3.621
 7551SOL     OW23551   5.409   3.174   5.653
 7551SOL    HW123552   5.328   3.169   5.710
 7551SOL    HW223553   5.489   3.191   5.710
 7552SOL     OW23554   1.041   6.051   2.694
 7552SOL    HW123555   0.947   6.078   2.674
 7552SOL    HW223556   1.047   6.019   2.789
 7553SOL     OW23557   3.913   6.397   5.654
 7553SOL    HW123558   3.887   6.401   5.557
 7553SOL    HW223559   3.980   6.468   5.674
 7554SOL     OW23560   5.121   0.970   6.781
 7554SOL    HW123561   5.115   0.879   6.741
 7554SOL    HW223562   5.151   0.963   6.876
 7555SOL     OW23563   2.259   4.912   6.546
 7555SOL    HW123564   2.359   4.913   6.554
 7555SOL    HW223565   2.232   4.967   6.467
 7556SOL     OW23566   2.223   3.025   0.823
 7556SOL    HW123567   2.226   2.970   0.739
 7556SOL    HW223568   2.155   3.097   0.813
 7557SOL     OW23569   5.727   0.345   6.112
 7557SOL    HW123570   5.695   0.296   6.193
 7557SOL    HW223571   5.817   0.385   6.130
 7558SOL     OW23572   2.177   2.616   4.818
 7558SOL    HW123573   2.113   2.541   4.833
 7558SOL    HW223574   2.220   2.605   4.729
 7559SOL     OW23575   4.432   3.647   0.521
 7559SOL    HW123576   4.484   3.668   0.438
 7559SOL    HW223577   4.464   3.707   0.595
 7560SOL     OW23578   4.677   6.710   0.956
 7560SOL    HW123579   4.672   6.780   1.028
 7560SOL    HW223580   4.656   6.620   0.996
 7561SOL     OW23581   0.794   3.142   6.501
 7561SOL    HW123582   0.767   3.079   6.574
 7561SOL    HW223583   0.716   3.199   6.476
 7562SOL     OW23584   0.799   5.648   5.249
 7562SOL    HW123585   0.731   5.719   5.232
 7562SOL    HW223586   0.804   5.587   5.170
 7563SOL     OW23587   3.058   6.904   1.157
 7563SOL    HW123588   3.149   6.930   1.124
 7563SOL    HW223589   3.049   6.805   1.156
 7564SOL     OW23590   3.834   0.160   3.921
 7564SOL    HW123591   3.868   0.170   4.015
 7564SOL    HW223592   3.865   0.072   3.884
 7565SOL     OW23593   5.494   2.991   6.052
 7565SOL    HW123594   5.490   2.946   5.963
 7565SOL    HW223595   5.424   2.952   6.112
 7566SOL     OW23596   6.839   4.580   2.918
 7566SOL    HW123597   6.852   4.663   2.864
 7566SOL    HW223598   6.811   4.506   2.858
 7567SOL     OW23599   1.887   1.564   5.096
 7567SOL    HW123600   1.969   1.620   5.084
 7567SOL    HW223601   1.845   1.584   5.184
 7568SOL     OW23602   5.170   5.297   2.584
 7568SOL    HW123603   5.090   5.273   2.639
 7568SOL    HW223604   5.160   5.391   2.549
 7569SOL     OW23605   3.460   4.881   5.791
 7569SOL    HW123606   3.493   4.839   5.875
 7569SOL    HW223607   3.400   4.817   5.742
 7570SOL     OW23608   5.210   4.327   5.025
 7570SOL    HW123609   5.276   4.364   4.960
 7570SOL    HW223610   5.221   4.373   5.113
 7571SOL     OW23611   4.329   4.601   2.861
 7571SOL    HW123612   4.408   4.543   2.841
 7571SOL    HW223613   4.299   4.646   2.777
 7572SOL     OW23614   4.441   0.965   1.905
 7572SOL    HW123615   4.345   0.982   1.885
 7572SOL    HW223616   4.471   1.023   1.980
 7573SOL     OW23617   0.253   6.813   5.390
 7573SOL    HW123618   0.339   6.774   5.356
 7573SOL    HW223619   0.274   6.892   5.448
 7574SOL     OW23620   4.909   0.507   5.328
 7574SOL    HW123621   4.912   0.568   5.249
 7574SOL    HW223622   4.997   0.460   5.338
 7575SOL     OW23623   5.783   0.673   6.623
 7575SOL    HW123624   5.795   0.670   6.524
 7575SOL    HW223625   5.790   0.767   6.655
 7576SOL     OW23626   5.373   3.048   0.399
 7576SOL    HW123627   5.421   3.014   0.319
 7576SOL    HW223628   5.440   3.084   0.465
 7577SOL     OW23629   0.546   6.698   6.475
 7577SOL    HW123630   0.636   6.663   6.451
 7577SOL    HW223631   0.523   6.671   6.568
 7578SOL     OW23632   3.369   5.237   1.992
 7578SOL    HW123633   3.283   5.203   1.954
 7578SOL    HW223634   3.405   5.310   1.934
 7579SOL     OW23635   0.343   0.797   2.726
 7579SOL    HW123636   0.421   0.829   2.672
 7579SOL    HW223637   0.370   0.716   2.777
 7580SOL     OW23638   0.471   4.167   4.022
 7580SOL    HW123639   0.522   4.098   4.075
 7580SOL    HW223640   0.396   4.201   4.078
 7581SOL     OW23641   0.158   1.889   2.049
 7581SOL    HW123642   0.079   1.835   2.076
 7581SOL    HW223643   0.162   1.973   2.104
 7582SOL     OW23644   3.740   1.132   2.569
 7582SOL    HW123645   3.782   1.165   2.653
 7582SOL    HW223646   3.806   1.138   2.494
 7583SOL     OW23647   5.334   2.552   2.349
 7583SOL    HW123648   5.300   2.475   2.294
 7583SOL    HW223649   5.259   2.589   2.404
 7584SOL     OW23650   3.283   0.630   2.962
 7584SOL    HW123651   3.321   0.651   2.871
 7584SOL    HW223652   3.280   0.531   2.974
 7585SOL     OW23653   1.733   2.780   6.484
 7585SOL    HW123654   1.671   2.854   6.507
 7585SOL    HW223655   1.789   2.757   6.564
 7586SOL     OW23656   2.546   6.838   4.070
 7586SOL    HW123657   2.597   6.764   4.114
 7586SOL    HW223658   2.448   6.820   4.078
 7587SOL     OW23659   2.143   1.868   6.838
 7587SOL    HW123660   2.055   1.911   6.822
 7587SOL    HW223661   2.196   1.922   6.904
 7588SOL     OW23662   1.745   2.291   4.140
 7588SOL    HW123663   1.730   2.268   4.044
 7588SOL    HW223664   1.831   2.252   4.171
 7589SOL     OW23665   0.446   0.136   2.187
 7589SOL    HW123666   0.502   0.055   2.170
 7589SOL    HW223667   0.456   0.165   2.282
 7590SOL     OW23668   3.840   2.411   6.559
 7590SOL    HW123669   3.823   2.312   6.553
 7590SOL    HW223670   3.758   2.461   6.534
 7591SOL     OW23671   6.250   4.328   0.692
 7591SOL    HW123672   6.308   4.362   0.618
 7591SOL    HW223673   6.274   4.374   0.777
 7592SOL     OW23674   6.373   6.052   5.170
 7592SOL    HW123675   6.383   5.966   5.121
 7592SOL    HW223676   6.425   6.123   5.123
 7593SOL     OW23677   6.615   2.681   0.225
 7593SOL    HW123678   6.645   2.717   0.313
 7593SOL    HW223679   6.602   2.582   0.232
 7594SOL     OW23680   1.758   4.577   2.301
 7594SOL    HW123681   1.664   4.593   2.272
 7594SOL    HW223682   1.811   4.661   2.289
 7595SOL     OW23683   6.159   2.968   5.871
 7595SOL    HW123684   6.094   2.980   5.796
 7595SOL    HW223685   6.253   2.972   5.836
 7596SOL     OW23686   3.961   5.955   3.709
 7596SOL    HW123687   4.028   5.892   3.749
 7596SOL    HW223688   3.941   6.028   3.775
 7597SOL     OW23689   1.226   6.515   3.042
 7597SOL    HW123690   1.245   6.458   3.122
 7597SOL    HW223691   1.189   6.603   3.072
 7598SOL     OW23692   6.199   0.728   2.949
 7598SOL    HW123693   6.124   0.749   2.886
 7598SOL    HW223694   6.166   0.735   3.043
 7599SOL     OW23695   5.114   2.054   2.175
 7599SOL    HW123696   5.138   1.996   2.096
 7599SOL    HW223697   5.198   2.084   2.220
 7600SOL     OW23698   1.364   1.714   3.579
 7600SOL    HW123699   1.359   1.780   3.504
 7600SOL    HW223700   1.459   1.687   3.594
 7601SOL     OW23701   2.231   4.715   2.091
 7601SOL    HW123702   2.148   4.744   2.138
 7601SOL    HW223703   2.268   4.792   2.038
 7602SOL     OW23704   2.320   4.014   0.072
 7602SOL    HW123705   2.310   3.995   6.996
 7602SOL    HW223706   2.244   3.972   0.122
 7603SOL     OW23707   1.689   5.800   6.481
 7603SOL    HW123708   1.629   5.859   6.535
 7603SOL    HW223709   1.647   5.782   6.392
 7604SOL     OW23710   1.991   3.190   4.254
 7604SOL    HW123711   1.993   3.280   4.210
 7604SOL    HW223712   2.083   3.166   4.285
 7605SOL     OW23713   0.738   1.314   1.359
 7605SOL    HW123714   0.672   1.317   1.284
 7605SOL    HW223715   0.695   1.275   1.440
 7606SOL     OW23716   5.925   3.552   4.729
 7606SOL    HW123717   5.975   3.518   4.649
 7606SOL    HW223718   5.828   3.529   4.720
 7607SOL     OW23719   3.544   5.020   0.152
 7607SOL    HW123720   3.558   4.938   0.208
 7607SOL    HW223721   3.465   5.007   0.093
 7608SOL     OW23722   3.931   3.971   1.062
 7608SOL    HW123723   3.932   3.891   1.002
 7608SOL    HW223724   3.900   3.945   1.153
 7609SOL     OW23725   1.637   3.004   4.517
 7609SOL    HW123726   1.684   3.021   4.431
 7609SOL    HW223727   1.695   3.034   4.593
 7610SOL     OW23728   4.103   4.466   6.414
 7610SOL    HW123729   4.072   4.495   6.324
 7610SOL    HW223730   4.181   4.404   6.404
 7611SOL     OW23731   5.502   3.934   2.044
 7611SOL    HW123732   5.423   3.891   1.999
 7611SOL    HW223733   5.477   3.960   2.137
 7612SOL     OW23734   4.909   3.182   2.472
 7612SOL    HW123735   4.859   3.096   2.459
 7612SOL    HW223736   4.930   3.222   2.382
 7613SOL     OW23737   0.182   2.321   0.819
 7613SOL    HW123738   0.138   2.243   0.773
 7613SOL    HW223739   0.117   2.363   0.882
 7614SOL     OW23740   5.707   3.146   0.933
 7614SOL    HW123741   5.625   3.089   0.937
 7614SOL    HW223742   5.681   3.241   0.915
 7615SOL     OW23743   3.699   4.929   6.854
 7615SOL    HW123744   3.619   4.987   6.841
 7615SOL    HW223745   3.691   4.878   6.939
 7616SOL     OW23746   6.321   6.451   4.807
 7616SOL    HW123747   6.266   6.371   4.784
 7616SOL    HW223748   6.413   6.440   4.767
 7617SOL     OW23749   3.441   6.159   3.476
 7617SOL    HW123750   3.378   6.082   3.464
 7617SOL    HW223751   3.494   6.146   3.560
 7618SOL     OW23752   6.994   2.485   6.007
 7618SOL    HW123753   6.895   2.468   6.007
 7618SOL    HW223754   0.018   2.416   6.062
 7619SOL     OW23755   6.511   3.177   4.624
 7619SOL    HW123756   6.423   3.171   4.672
 7619SOL    HW223757   6.581   3.210   4.687
 7620SOL     OW23758   4.322   5.586   1.556
 7620SOL    HW123759   4.387   5.520   1.594
 7620SOL    HW223760   4.358   5.679   1.570
 7621SOL     OW23761   6.579   1.217   0.719
 7621SOL    HW123762   6.612   1.201   0.626
 7621SOL    HW223763   6.568   1.316   0.733
 7622SOL     OW23764   3.898   5.144   6.640
 7622SOL    HW123765   3.882   5.068   6.577
 7622SOL    HW223766   3.903   5.229   6.588
 7623SOL     OW23767   5.327   3.481   6.779
 7623SOL    HW123768   5.227   3.481   6.774
 7623SOL    HW223769   5.364   3.453   6.690
 7624SOL     OW23770   6.530   3.743   5.110
 7624SOL    HW123771   6.472   3.696   5.177
 7624SOL    HW223772   6.472   3.793   5.045
 7625SOL     OW23773   4.832   0.740   7.010
 7625SOL    HW123774   4.821   0.812   6.942
 7625SOL    HW223775   4.806   0.774   0.078
 7626SOL     OW23776   6.801   0.169   4.923
 7626SOL    HW123777   6.746   0.092   4.890
 7626SOL    HW223778   6.896   0.155   4.898
 7627SOL     OW23779   4.580   3.179   0.069
 7627SOL    HW123780   4.482   3.196   0.064
 7627SOL    HW223781   4.598   3.083   0.049
 7628SOL     OW23782   3.247   2.825   1.821
 7628SOL    HW123783   3.165   2.858   1.869
 7628SOL    HW223784   3.319   2.805   1.887
 7629SOL     OW23785   0.083   4.841   3.699
 7629SOL    HW123786   0.167   4.805   3.659
 7629SOL    HW223787   0.018   4.862   3.626
 7630SOL     OW23788   0.884   0.428   1.166
 7630SOL    HW123789   0.889   0.521   1.128
 7630SOL    HW223790   0.838   0.431   1.254
 7631SOL     OW23791   0.798   2.124   6.022
 7631SOL    HW123792   0.894   2.152   6.024
 7631SOL    HW223793   0.786   2.051   5.955
 7632SOL     OW23794   4.973   4.044   0.958
 7632SOL    HW123795   5.008   4.030   1.050
 7632SOL    HW223796   5.040   4.095   0.904
 7633SOL     OW23797   5.346   0.497   1.994
 7633SOL    HW123798   5.361   0.568   2.062
 7633SOL    HW223799   5.287   0.426   2.033
 7634SOL     OW23800   1.841   1.390   1.980
 7634SOL    HW123801   1.747   1.390   1.947
 7634SOL    HW223802   1.876   1.297   1.981
 7635SOL     OW23803   3.341   4.906   4.829
 7635SOL    HW123804   3.323   4.843   4.753
 7635SOL    HW223805   3.324   4.859   4.916
 7636SOL     OW23806   2.012   2.694   3.907
 7636SOL    HW123807   2.052   2.767   3.851
 7636SOL    HW223808   2.086   2.635   3.942
 7637SOL     OW23809   2.695   6.602   2.258
 7637SOL    HW123810   2.620   6.666   2.276
 7637SOL    HW223811   2.705   6.539   2.335
 7638SOL     OW23812   2.118   5.948   1.349
 7638SOL    HW123813   2.058   5.914   1.276
 7638SOL    HW223814   2.119   5.883   1.424
 7639SOL     OW23815   0.549   1.655   1.263
 7639SOL    HW123816   0.456   1.629   1.290
 7639SOL    HW223817   0.555   1.662   1.164
 7640SOL     OW23818   2.672   1.550   5.805
 7640SOL    HW123819   2.753   1.506   5.844
 7640SOL    HW223820   2.661   1.641   5.845
 7641SOL     OW23821   1.540   3.686   2.363
 7641SOL    HW123822   1.551   3.767   2.304
 7641SOL    HW223823   1.444   3.676   2.388
 7642SOL     OW23824   3.105   1.603   2.615
 7642SOL    HW123825   3.070   1.570   2.703
 7642SOL    HW223826   3.032   1.653   2.567
 7643SOL     OW23827   4.959   2.215   3.058
 7643SOL    HW123828   4.883   2.273   3.029
 7643SOL    HW223829   4.971   2.222   3.157
 7644SOL     OW23830   4.574   2.367   2.079
 7644SOL    HW123831   4.629   2.359   2.163
 7644SOL    HW223832   4.592   2.455   2.036
 7645SOL     OW23833   5.137   3.883   5.165
 7645SOL    HW123834   5.121   3.785   5.157
 7645SOL    HW223835   5.071   3.933   5.108
 7646SOL     OW23836   1.709   2.642   4.511
 7646SOL    HW123837   1.694   2.572   4.441
 7646SOL    HW223838   1.625   2.694   4.525
 7647SOL     OW23839   0.207   2.276   3.761
 7647SOL    HW123840   0.278   2.207   3.749
 7647SOL    HW223841   0.178   2.278   3.857
 7648SOL     OW23842   2.519   1.406   2.693
 7648SOL    HW123843   2.610   1.430   2.660
 7648SOL    HW223844   2.452   1.471   2.657
 7649SOL     OW23845   1.194   0.653   3.761
 7649SOL    HW123846   1.282   0.695   3.783
 7649SOL    HW223847   1.173   0.669   3.664
 7650SOL     OW23848   5.670   1.074   0.495
 7650SOL    HW123849   5.748   1.136   0.504
 7650SOL    HW223850   5.703   0.981   0.483
 7651SOL     OW23851   2.226   0.483   4.208
 7651SOL    HW123852   2.296   0.508   4.141
 7651SOL    HW223853   2.165   0.415   4.169
 7652SOL     OW23854   5.885   2.838   4.137
 7652SOL    HW123855   5.806   2.895   4.116
 7652SOL    HW223856   5.869   2.745   4.103
 7653SOL     OW23857   0.589   2.028   0.101
 7653SOL    HW123858   0.508   2.054   0.154
 7653SOL    HW223859   0.561   1.999   0.010
 7654SOL     OW23860   4.926   3.242   4.767
 7654SOL    HW123861   4.860   3.175   4.734
 7654SOL    HW223862   4.925   3.244   4.867
 7655SOL     OW23863   4.298   6.535   3.245
 7655SOL    HW123864   4.380   6.545   3.187
 7655SOL    HW223865   4.253   6.449   3.223
 7656SOL     OW23866   4.022   4.007   0.043
 7656SOL    HW123867   3.951   4.008   6.994
 7656SOL    HW223868   3.989   3.956   0.123
 7657SOL     OW23869   1.214   2.024   3.571
 7657SOL    HW123870   1.201   1.962   3.494
 7657SOL    HW223871   1.311   2.026   3.596
 7658SOL     OW23872   2.874   0.397   6.912
 7658SOL    HW123873   2.794   0.437   6.868
 7658SOL    HW223874   2.918   0.465   6.971
 7659SOL     OW23875   5.330   4.458   6.338
 7659SOL    HW123876   5.286   4.370   6.357
 7659SOL    HW223877   5.426   4.453   6.364
 7660SOL     OW23878   6.970   5.635   3.547
 7660SOL    HW123879   6.922   5.555   3.511
 7660SOL    HW223880   6.998   5.694   3.472
 7661SOL     OW23881   5.287   1.941   5.320
 7661SOL    HW123882   5.377   1.901   5.304
 7661SOL    HW223883   5.218   1.891   5.268
 7662SOL     OW23884   1.597   3.301   4.551
 7662SOL    HW123885   1.578   3.203   4.562
 7662SOL    HW223886   1.520   3.354   4.587
 7663SOL     OW23887   6.209   4.301   6.047
 7663SOL    HW123888   6.185   4.216   6.093
 7663SOL    HW223889   6.190   4.292   5.949
 7664SOL     OW23890   4.180   1.014   1.926
 7664SOL    HW123891   4.137   0.927   1.948
 7664SOL    HW223892   4.109   1.084   1.913
 7665SOL     OW23893   6.044   0.824   4.728
 7665SOL    HW123894   6.071   0.822   4.824
 7665SOL    HW223895   6.039   0.919   4.696
 7666SOL     OW23896   0.585   5.041   2.303
 7666SOL    HW123897   0.669   5.093   2.291
 7666SOL    HW223898   0.576   4.973   2.229
 7667SOL     OW23899   4.386   0.288   2.851
 7667SOL    HW123900   4.483   0.291   2.878
 7667SOL    HW223901   4.357   0.380   2.823
 7668SOL     OW23902   3.179   5.194   0.457
 7668SOL    HW123903   3.211   5.193   0.362
 7668SOL    HW223904   3.200   5.284   0.498
 7669SOL     OW23905   4.664   1.031   5.219
 7669SOL    HW123906   4.595   0.981   5.167
 7669SOL    HW223907   4.621   1.108   5.265
 7670SOL     OW23908   0.670   4.460   0.489
 7670SOL    HW123909   0.729   4.428   0.563
 7670SOL    HW223910   0.618   4.540   0.520
 7671SOL     OW23911   3.741   1.440   2.513
 7671SOL    HW123912   3.808   1.497   2.562
 7671SOL    HW223913   3.742   1.348   2.551
 7672SOL     OW23914   6.889   5.928   2.985
 7672SOL    HW123915   6.849   5.929   2.893
 7672SOL    HW223916   6.944   6.010   2.998
 7673SOL     OW23917   1.845   6.184   1.264
 7673SOL    HW123918   1.803   6.272   1.285
 7673SOL    HW223919   1.911   6.160   1.335
 7674SOL     OW23920   5.152   1.440   3.596
 7674SOL    HW123921   5.164   1.341   3.593
 7674SOL    HW223922   5.091   1.463   3.672
 7675SOL     OW23923   6.469   6.758   3.038
 7675SOL    HW123924   6.406   6.746   3.115
 7675SOL    HW223925   6.446   6.842   2.988
 7676SOL     OW23926   2.271   1.729   0.328
 7676SOL    HW123927   2.271   1.643   0.380
 7676SOL    HW223928   2.363   1.747   0.293
 7677SOL     OW23929   0.811   4.388   1.700
 7677SOL    HW123930   0.890   4.355   1.649
 7677SOL    HW223931   0.733   4.327   1.683
 7678SOL     OW23932   2.541   2.676   5.242
 7678SOL    HW123933   2.475   2.601   5.243
 7678SOL    HW223934   2.537   2.723   5.154
 7679SOL     OW23935   3.190   6.808   6.139
 7679SOL    HW123936   3.173   6.717   6.175
 7679SOL    HW223937   3.106   6.862   6.144
 7680SOL     OW23938   1.294   0.271   0.982
 7680SOL    HW123939   1.356   0.349   0.976
 7680SOL    HW223940   1.272   0.238   0.890
 7681SOL     OW23941   3.068   0.566   0.878
 7681SOL    HW123942   3.004   0.641   0.895
 7681SOL    HW223943   3.035   0.482   0.922
 7682SOL     OW23944   3.749   0.163   2.479
 7682SOL    HW123945   3.828   0.188   2.535
 7682SOL    HW223946   3.728   0.237   2.416
 7683SOL     OW23947   6.829   2.326   5.009
 7683SOL    HW123948   6.901   2.386   5.045
 7683SOL    HW223949   6.871   2.252   4.956
 7684SOL     OW23950   4.208   1.746   1.203
 7684SOL    HW123951   4.191   1.665   1.146
 7684SOL    HW223952   4.122   1.780   1.241
 7685SOL     OW23953   2.897   1.360   5.642
 7685SOL    HW123954   2.813   1.316   5.611
 7685SOL    HW223955   2.891   1.458   5.625
 7686SOL     OW23956   0.273   6.518   3.533
 7686SOL    HW123957   0.334   6.489   3.606
 7686SOL    HW223958   0.182   6.479   3.548
 7687SOL     OW23959   6.341   5.618   4.476
 7687SOL    HW123960   6.334   5.710   4.517
 7687SOL    HW223961   6.394   5.559   4.537
 7688SOL     OW23962   0.686   5.923   5.709
 7688SOL    HW123963   0.775   5.890   5.739
 7688SOL    HW223964   0.614   5.865   5.747
 7689SOL     OW23965   5.890   6.670   2.532
 7689SOL    HW123966   5.976   6.720   2.545
 7689SOL    HW223967   5.905   6.594   2.469
 7690SOL     OW23968   5.846   4.907   0.338
 7690SOL    HW123969   5.903   4.974   0.385
 7690SOL    HW223970   5.847   4.925   0.240
 7691SOL     OW23971   4.798   4.092   3.205
 7691SOL    HW123972   4.895   4.099   3.180
 7691SOL    HW223973   4.763   4.004   3.172
 7692SOL     OW23974   0.696   6.086   1.742
 7692SOL    HW123975   0.659   6.004   1.786
 7692SOL    HW223976   0.624   6.130   1.688
 7693SOL     OW23977   3.225   0.441   1.818
 7693SOL    HW123978   3.183   0.450   1.908
 7693SOL    HW223979   3.277   0.356   1.814
 7694SOL     OW23980   5.153   3.892   3.847
 7694SOL    HW123981   5.096   3.894   3.929
 7694SOL    HW223982   5.120   3.959   3.780
 7695SOL     OW23983   4.508   0.002   1.464
 7695SOL    HW123984   4.447   6.992   1.536
 7695SOL    HW223985   4.583   0.054   1.504
 7696SOL     OW23986   0.469   1.441   6.323
 7696SOL    HW123987   0.562   1.441   6.286
 7696SOL    HW223988   0.472   1.473   6.418
 7697SOL     OW23989   2.548   6.979   3.706
 7697SOL    HW123990   2.568   6.900   3.647
 7697SOL    HW223991   2.622   6.990   3.772
 7698SOL     OW23992   5.467   1.706   3.712
 7698SOL    HW123993   5.395   1.758   3.666
 7698SOL    HW223994   5.463   1.611   3.684
 7699SOL     OW23995   3.103   6.304   5.873
 7699SOL    HW123996   3.104   6.321   5.775
 7699SOL    HW223997   3.171   6.234   5.896
 7700SOL     OW23998   4.775   5.708   3.370
 7700SOL    HW123999   4.850   5.689   3.307
 7700SOL    HW224000   4.702   5.641   3.357
 7701SOL     OW24001   6.191   2.489   6.562
 7701SOL    HW124002   6.233   2.412   6.610
 7701SOL    HW224003   6.231   2.498   6.471
 7702SOL     OW24004   4.348   6.126   4.893
 7702SOL    HW124005   4.331   6.046   4.951
 7702SOL    HW224006   4.349   6.209   4.950
 7703SOL     OW24007   5.688   6.087   5.873
 7703SOL    HW124008   5.692   6.187   5.885
 7703SOL    HW224009   5.781   6.051   5.873
 7704SOL     OW24010   5.626   0.442   3.775
 7704SOL    HW124011   5.690   0.501   3.824
 7704SOL    HW224012   5.620   0.471   3.680
 7705SOL     OW24013   2.322   6.564   0.623
 7705SOL    HW124014   2.255   6.491   0.636
 7705SOL    HW224015   2.376   6.576   0.706
 7706SOL     OW24016   3.146   3.425   4.919
 7706SOL    HW124017   3.133   3.367   4.839
 7706SOL    HW224018   3.169   3.518   4.890
 7707SOL     OW24019   0.650   3.858   5.866
 7707SOL    HW124020   0.566   3.873   5.814
 7707SOL    HW224021   0.629   3.809   5.950
 7708SOL     OW24022   0.873   6.563   5.616
 7708SOL    HW124023   0.869   6.557   5.517
 7708SOL    HW224024   0.969   6.574   5.645
 7709SOL     OW24025   6.762   4.627   1.763
 7709SOL    HW124026   6.810   4.541   1.779
 7709SOL    HW224027   6.791   4.665   1.675
 7710SOL     OW24028   2.819   2.313   0.181
 7710SOL    HW124029   2.844   2.296   0.086
 7710SOL    HW224030   2.880   2.262   0.242
 7711SOL     OW24031   5.750   5.817   5.496
 7711SOL    HW124032   5.711   5.892   5.548
 7711SOL    HW224033   5.838   5.791   5.535
 7712SOL     OW24034   6.372   5.078   1.296
 7712SOL    HW124035   6.395   5.065   1.200
 7712SOL    HW224036   6.333   5.170   1.309
 7713SOL     OW24037   1.720   4.583   0.828
 7713SOL    HW124038   1.789   4.628   0.883
 7713SOL    HW224039   1.728   4.613   0.733
 7714SOL     OW24040   0.087   4.517   5.638
 7714SOL    HW124041   7.019   4.559   5.624
 7714SOL    HW224042   0.150   4.585   5.678
 7715SOL     OW24043   2.663   2.569   0.210
 7715SOL    HW124044   2.723   2.499   0.170
 7715SOL    HW224045   2.692   2.660   0.178
 7716SOL     OW24046   6.859   4.509   0.945
 7716SOL    HW124047   6.930   4.559   0.895
 7716SOL    HW224048   6.769   4.537   0.912
 7717SOL     OW24049   1.184   1.074   5.911
 7717SOL    HW124050   1.151   1.112   5.997
 7717SOL    HW224051   1.149   0.981   5.899
 7718SOL     OW24052   6.459   3.959   3.468
 7718SOL    HW124053   6.500   4.050   3.476
 7718SOL    HW224054   6.408   3.938   3.551
 7719SOL     OW24055   0.253   3.882   5.083
 7719SOL    HW124056   0.271   3.904   5.179
 7719SOL    HW224057   0.275   3.961   5.026
 7720SOL     OW24058   6.520   2.581   6.997
 7720SOL    HW124059   6.552   2.645   6.928
 7720SOL    HW224060   6.580   2.586   0.056
 7721SOL     OW24061   0.338   5.046   2.413
 7721SOL    HW124062   0.429   5.035   2.372
 7721SOL    HW224063   0.269   5.007   2.353
 7722SOL     OW24064   1.192   3.927   3.827
 7722SOL    HW124065   1.259   3.895   3.760
 7722SOL    HW224066   1.160   4.018   3.801
 7723SOL     OW24067   4.297   3.337   6.569
 7723SOL    HW124068   4.354   3.372   6.495
 7723SOL    HW224069   4.334   3.249   6.600
 7724SOL     OW24070   2.909   3.858   0.781
 7724SOL    HW124071   2.882   3.885   0.874
 7724SOL    HW224072   2.848   3.901   0.715
 7725SOL     OW24073   5.792   1.341   2.698
 7725SOL    HW124074   5.841   1.319   2.782
 7725SOL    HW224075   5.745   1.429   2.708
 7726SOL     OW24076   2.040   5.074   6.089
 7726SOL    HW124077   2.067   5.157   6.039
 7726SOL    HW224078   2.086   4.995   6.051
 7727SOL     OW24079   6.639   2.729   2.352
 7727SOL    HW124080   6.690   2.811   2.327
 7727SOL    HW224081   6.543   2.753   2.368
 7728SOL     OW24082   2.146   2.984   5.180
 7728SOL    HW124083   2.129   2.887   5.200
 7728SOL    HW224084   2.237   2.995   5.142
 7729SOL     OW24085   6.254   1.908   1.385
 7729SOL    HW124086   6.283   1.834   1.447
 7729SOL    HW224087   6.168   1.883   1.340
 7730SOL     OW24088   6.359   4.656   6.467
 7730SOL    HW124089   6.439   4.601   6.491
 7730SOL    HW224090   6.389   4.748   6.440
 7731SOL     OW24091   5.740   0.836   0.404
 7731SOL    HW124092   5.697   0.811   0.317
 7731SOL    HW224093   5.818   0.776   0.421
 7732SOL     OW24094   4.343   6.960   0.275
 7732SOL    HW124095   4.325   7.017   0.355
 7732SOL    HW224096   4.350   6.865   0.302
 7733SOL     OW24097   5.394   6.073   2.062
 7733SOL    HW124098   5.399   6.081   2.161
 7733SOL    HW224099   5.402   6.163   2.020
 7734SOL     OW24100   1.513   5.023   4.056
 7734SOL    HW124101   1.493   5.113   4.095
 7734SOL    HW224102   1.429   4.985   4.017
 7735SOL     OW24103   4.781   6.010   6.142
 7735SOL    HW124104   4.709   5.990   6.208
 7735SOL    HW224105   4.821   6.100   6.161
 7736SOL     OW24106   2.181   2.878   6.818
 7736SOL    HW124107   2.154   2.789   6.780
 7736SOL    HW224108   2.280   2.888   6.809
 7737SOL     OW24109   3.426   6.884   2.997
 7737SOL    HW124110   3.368   6.941   3.056
 7737SOL    HW224111   3.474   6.942   2.931
 7738SOL     OW24112   3.708   5.367   0.330
 7738SOL    HW124113   3.717   5.332   0.236
 7738SOL    HW224114   3.621   5.415   0.339
 7739SOL     OW24115   0.620   2.762   2.098
 7739SOL    HW124116   0.685   2.715   2.159
 7739SOL    HW224117   0.544   2.700   2.078
 7740SOL     OW24118   3.094   0.808   2.982
 7740SOL    HW124119   3.035   0.817   2.902
 7740SOL    HW224120   3.142   0.720   2.977
 7741SOL     OW24121   0.261   4.789   5.444
 7741SOL    HW124122   0.184   4.742   5.402
 7741SOL    HW224123   0.263   4.770   5.542
 7742SOL     OW24124   4.118   2.248   2.963
 7742SOL    HW124125   4.023   2.249   2.930
 7742SOL    HW224126   4.119   2.213   3.057
 7743SOL     OW24127   4.410   2.279   0.005
 7743SOL    HW124128   4.505   2.248   0.011
 7743SOL    HW224129   4.356   2.212   6.976
 7744SOL     OW24130   1.091   0.755   4.795
 7744SOL    HW124131   1.022   0.822   4.822
 7744SOL    HW224132   1.045   0.669   4.771
 7745SOL     OW24133   3.705   0.834   6.884
 7745SOL    HW124134   3.620   0.791   6.854
 7745SOL    HW224135   3.770   0.763   6.912
 7746SOL     OW24136   0.847   0.693   0.835
 7746SOL    HW124137   0.758   0.650   0.818
 7746SOL    HW224138   0.836   0.767   0.901
 7747SOL     OW24139   5.519   6.545   1.130
 7747SOL    HW124140   5.586   6.471   1.123
 7747SOL    HW224141   5.494   6.576   1.038
 7748SOL     OW24142   3.072   3.741   4.171
 7748SOL    HW124143   3.127   3.799   4.110
 7748SOL    HW224144   3.031   3.667   4.118
 7749SOL     OW24145   3.368   3.180   5.573
 7749SOL    HW124146   3.309   3.155   5.649
 7749SOL    HW224147   3.380   3.101   5.513
 7750SOL     OW24148   0.009   5.798   0.212
 7750SOL    HW124149   6.977   5.854   0.149
 7750SOL    HW224150   0.090   5.849   0.242
 7751SOL     OW24151   1.601   2.894   2.872
 7751SOL    HW124152   1.590   2.922   2.777
 7751SOL    HW224153   1.665   2.956   2.918
 7752SOL     OW24154   5.746   6.605   5.607
 7752SOL    HW124155   5.720   6.698   5.633
 7752SOL    HW224156   5.814   6.608   5.534
 7753SOL     OW24157   2.469   0.399   4.587
 7753SOL    HW124158   2.471   0.345   4.671
 7753SOL    HW224159   2.497   0.493   4.607
 7754SOL     OW24160   4.830   6.995   1.595
 7754SOL    HW124161   4.872   6.964   1.510
 7754SOL    HW224162   4.763   6.927   1.625
 7755SOL     OW24163   1.589   2.154   5.935
 7755SOL    HW124164   1.628   2.062   5.943
 7755SOL    HW224165   1.561   2.169   5.840
 7756SOL     OW24166   3.649   5.182   1.823
 7756SOL    HW124167   3.614   5.245   1.754
 7756SOL    HW224168   3.573   5.137   1.869
 7757SOL     OW24169   6.006   5.638   5.094
 7757SOL    HW124170   5.995   5.645   5.193
 7757SOL    HW224171   5.965   5.718   5.050
 7758SOL     OW24172   1.134   1.920   6.777
 7758SOL    HW124173   1.178   1.997   6.824
 7758SOL    HW224174   1.076   1.955   6.703
 7759SOL     OW24175   1.390   1.735   5.552
 7759SOL    HW124176   1.314   1.736   5.617
 7759SOL    HW224177   1.358   1.695   5.466
 7760SOL     OW24178   5.321   3.553   2.844
 7760SOL    HW124179   5.269   3.526   2.763
 7760SOL    HW224180   5.419   3.547   2.825
 7761SOL     OW24181   0.943   0.029   6.163
 7761SOL    HW124182   0.855   0.076   6.153
 7761SOL    HW224183   0.952   6.981   6.092
 7762SOL     OW24184   4.445   0.552   4.564
 7762SOL    HW124185   4.407   0.630   4.514
 7762SOL    HW224186   4.505   0.499   4.504
 7763SOL     OW24187   1.323   1.325   0.243
 7763SOL    HW124188   1.348   1.421   0.251
 7763SOL    HW224189   1.312   1.285   0.334
 7764SOL     OW24190   3.608   2.965   3.330
 7764SOL    HW124191   3.696   3.014   3.330
 7764SOL    HW224192   3.607   2.900   3.407
 7765SOL     OW24193   6.273   2.541   4.049
 7765SOL    HW124194   6.308   2.450   4.073
 7765SOL    HW224195   6.222   2.578   4.126
 7766SOL     OW24196   6.066   2.449   0.091
 7766SOL    HW124197   6.109   2.521   0.037
 7766SOL    HW224198   6.133   2.410   0.155
 7767SOL     OW24199   4.253   5.827   3.369
 7767SOL    HW124200   4.223   5.922   3.379
 7767SOL    HW224201   4.288   5.812   3.277
 7768SOL     OW24202   4.264   4.887   2.460
 7768SOL    HW124203   4.261   4.972   2.407
 7768SOL    HW224204   4.289   4.811   2.401
 7769SOL     OW24205   4.993   2.847   2.782
 7769SOL    HW124206   5.023   2.885   2.694
 7769SOL    HW224207   4.901   2.810   2.772
 7770SOL     OW24208   1.562   4.135   2.065
 7770SOL    HW124209   1.630   4.062   2.073
 7770SOL    HW224210   1.481   4.112   2.119
 7771SOL     OW24211   3.423   2.234   5.245
 7771SOL    HW124212   3.350   2.298   5.217
 7771SOL    HW224213   3.403   2.199   5.337
 7772SOL     OW24214   5.235   0.649   2.512
 7772SOL    HW124215   5.252   0.558   2.548
 7772SOL    HW224216   5.139   0.658   2.487
 7773SOL     OW24217   2.552   5.629   4.582
 7773SOL    HW124218   2.510   5.550   4.626
 7773SOL    HW224219   2.520   5.636   4.488
 7774SOL     OW24220   5.323   1.750   6.108
 7774SOL    HW124221   5.379   1.770   6.188
 7774SOL    HW224222   5.367   1.678   6.054
 7775SOL     OW24223   4.813   6.375   1.972
 7775SOL    HW124224   4.732   6.335   1.931
 7775SOL    HW224225   4.808   6.366   2.072
 7776SOL     OW24226   1.793   4.944   6.934
 7776SOL    HW124227   1.811   5.006   6.857
 7776SOL    HW224228   1.694   4.933   6.945
 7777SOL     OW24229   1.117   0.262   4.710
 7777SOL    HW124230   1.192   0.326   4.694
 7777SOL    HW224231   1.123   0.186   4.645
 7778SOL     OW24232   5.192   4.136   0.809
 7778SOL    HW124233   5.194   4.235   0.817
 7778SOL    HW224234   5.147   4.111   0.723
 7779SOL     OW24235   2.792   2.454   1.372
 7779SOL    HW124236   2.843   2.433   1.289
 7779SOL    HW224237   2.767   2.551   1.373
 7780SOL     OW24238   1.051   4.931   5.344
 7780SOL    HW124239   1.063   4.861   5.274
 7780SOL    HW224240   0.955   4.936   5.371
 7781SOL     OW24241   1.240   4.729   0.461
 7781SOL    HW124242   1.330   4.769   0.445
 7781SOL    HW224243   1.177   4.800   0.493
 7782SOL     OW24244   6.617   4.677   4.920
 7782SOL    HW124245   6.542   4.739   4.946
 7782SOL    HW224246   6.693   4.687   4.984
 7783SOL     OW24247   0.458   5.823   4.814
 7783SOL    HW124248   0.425   5.917   4.804
 7783SOL    HW224249   0.550   5.825   4.852
 7784SOL     OW24250   3.119   2.578   1.245
 7784SOL    HW124251   3.073   2.492   1.264
 7784SOL    HW224252   3.052   2.646   1.216
 7785SOL     OW24253   1.600   5.962   3.983
 7785SOL    HW124254   1.545   5.894   4.031
 7785SOL    HW224255   1.565   5.974   3.890
 7786SOL     OW24256   3.092   6.544   0.161
 7786SOL    HW124257   2.997   6.569   0.143
 7786SOL    HW224258   3.129   6.602   0.234
 7787SOL     OW24259   2.240   2.418   6.372
 7787SOL    HW124260   2.156   2.373   6.340
 7787SOL    HW224261   2.226   2.517   6.375
 7788SOL     OW24262   2.410   5.698   1.654
 7788SOL    HW124263   2.437   5.612   1.695
 7788SOL    HW224264   2.487   5.762   1.655
 7789SOL     OW24265   1.958   6.720   6.121
 7789SOL    HW124266   1.900   6.722   6.202
 7789SOL    HW224267   2.049   6.753   6.145
 7790SOL     OW24268   5.740   5.389   3.732
 7790SOL    HW124269   5.802   5.452   3.779
 7790SOL    HW224270   5.764   5.385   3.635
 7791SOL     OW24271   2.088   5.799   3.489
 7791SOL    HW124272   2.108   5.896   3.505
 7791SOL    HW224273   2.165   5.743   3.521
 7792SOL     OW24274   1.289   5.245   4.625
 7792SOL    HW124275   1.357   5.234   4.696
 7792SOL    HW224276   1.200   5.214   4.658
 7793SOL     OW24277   3.707   1.205   0.174
 7793SOL    HW124278   3.793   1.231   0.218
 7793SOL    HW224279   3.713   1.110   0.142
 7794SOL     OW24280   6.208   4.734   3.020
 7794SOL    HW124281   6.279   4.701   2.958
 7794SOL    HW224282   6.194   4.667   3.093
 7795SOL     OW24283   1.889   4.086   5.225
 7795SOL    HW124284   1.921   3.992   5.231
 7795SOL    HW224285   1.855   4.105   5.133
 7796SOL     OW24286   4.008   3.893   3.357
 7796SOL    HW124287   4.023   3.972   3.298
 7796SOL    HW224288   4.014   3.922   3.453
 7797SOL     OW24289   1.202   6.775   3.137
 7797SOL    HW124290   1.176   6.871   3.123
 7797SOL    HW224291   1.258   6.768   3.220
 7798SOL     OW24292   2.183   4.051   5.309
 7798SOL    HW124293   2.116   3.987   5.271
 7798SOL    HW224294   2.271   4.039   5.262
 7799SOL     OW24295   0.767   6.132   2.620
 7799SOL    HW124296   0.745   6.057   2.558
 7799SOL    HW224297   0.769   6.219   2.570
 7800SOL     OW24298   0.764   5.390   1.278
 7800SOL    HW124299   0.771   5.309   1.218
 7800SOL    HW224300   0.715   5.463   1.230
 7801SOL     OW24301   2.204   1.671   1.548
 7801SOL    HW124302   2.162   1.749   1.501
 7801SOL    HW224303   2.132   1.609   1.580
 7802SOL     OW24304   5.888   2.492   0.796
 7802SOL    HW124305   5.973   2.475   0.746
 7802SOL    HW224306   5.813   2.504   0.731
 7803SOL     OW24307   4.704   1.950   6.075
 7803SOL    HW124308   4.688   1.864   6.124
 7803SOL    HW224309   4.694   2.027   6.139
 7804SOL     OW24310   4.759   2.188   3.676
 7804SOL    HW124311   4.684   2.237   3.721
 7804SOL    HW224312   4.740   2.090   3.677
 7805SOL     OW24313   5.288   2.315   1.099
 7805SOL    HW124314   5.253   2.398   1.142
 7805SOL    HW224315   5.317   2.251   1.169
 7806SOL     OW24316   5.523   1.661   6.474
 7806SOL    HW124317   5.489   1.755   6.468
 7806SOL    HW224318   5.449   1.598   6.451
 7807SOL     OW24319   1.226   4.687   5.283
 7807SOL    HW124320   1.288   4.665   5.358
 7807SOL    HW224321   1.279   4.716   5.203
 7808SOL     OW24322   6.612   3.176   3.816
 7808SOL    HW124323   6.580   3.134   3.900
 7808SOL    HW224324   6.676   3.115   3.770
 7809SOL     OW24325   2.062   5.208   3.866
 7809SOL    HW124326   2.049   5.221   3.768
 7809SOL    HW224327   2.125   5.278   3.901
 7810SOL     OW24328   3.677   0.054   4.561
 7810SOL    HW124329   3.613   0.093   4.627
 7810SOL    HW224330   3.645   0.073   4.469
 7811SOL     OW24331   1.818   5.513   2.150
 7811SOL    HW124332   1.792   5.425   2.191
 7811SOL    HW224333   1.918   5.518   2.144
 7812SOL     OW24334   0.587   1.404   3.934
 7812SOL    HW124335   0.584   1.364   4.026
 7812SOL    HW224336   0.644   1.486   3.935
 7813SOL     OW24337   5.363   2.825   6.913
 7813SOL    HW124338   5.389   2.743   6.862
 7813SOL    HW224339   5.293   2.875   6.862
 7814SOL     OW24340   0.315   3.081   3.461
 7814SOL    HW124341   0.360   2.992   3.453
 7814SOL    HW224342   0.216   3.070   3.454
 7815SOL     OW24343   5.344   0.189   5.745
 7815SOL    HW124344   5.315   0.284   5.742
 7815SOL    HW224345   5.402   0.173   5.825
 7816SOL     OW24346   1.783   2.517   6.164
 7816SOL    HW124347   1.737   2.514   6.253
 7816SOL    HW224348   1.880   2.540   6.178
 7817SOL     OW24349   5.535   5.061   2.831
 7817SOL    HW124350   5.565   5.086   2.739
 7817SOL    HW224351   5.539   4.962   2.842
 7818SOL     OW24352   4.365   0.468   2.401
 7818SOL    HW124353   4.455   0.462   2.444
 7818SOL    HW224354   4.314   0.545   2.439
 7819SOL     OW24355   0.522   4.009   1.752
 7819SOL    HW124356   0.582   3.940   1.711
 7819SOL    HW224357   0.541   4.014   1.851
 7820SOL     OW24358   1.861   2.238   5.995
 7820SOL    HW124359   1.767   2.270   5.986
 7820SOL    HW224360   1.882   2.172   5.922
 7821SOL     OW24361   5.413   5.997   0.116
 7821SOL    HW124362   5.399   5.901   0.090
 7821SOL    HW224363   5.412   6.054   0.033
 7822SOL     OW24364   1.861   1.801   6.475
 7822SOL    HW124365   1.855   1.703   6.496
 7822SOL    HW224366   1.884   1.851   6.558
 7823SOL     OW24367   2.504   3.795   5.312
 7823SOL    HW124368   2.604   3.797   5.316
 7823SOL    HW224369   2.471   3.869   5.254
 7824SOL     OW24370   6.774   0.952   4.147
 7824SOL    HW124371   6.703   0.956   4.077
 7824SOL    HW224372   6.862   0.930   4.104
 7825SOL     OW24373   2.040   2.657   1.315
 7825SOL    HW124374   2.027   2.558   1.313
 7825SOL    HW224375   2.136   2.678   1.296
 7826SOL     OW24376   6.624   1.757   0.835
 7826SOL    HW124377   6.569   1.738   0.916
 7826SOL    HW224378   6.569   1.806   0.768
 7827SOL     OW24379   2.550   5.644   1.024
 7827SOL    HW124380   2.560   5.634   1.123
 7827SOL    HW224381   2.454   5.660   1.002
 7828SOL     OW24382   1.047   4.203   6.789
 7828SOL    HW124383   0.975   4.180   6.854
 7828SOL    HW224384   1.125   4.141   6.802
 7829SOL     OW24385   3.107   4.209   1.017
 7829SOL    HW124386   3.107   4.153   1.099
 7829SOL    HW224387   3.124   4.152   0.937
 7830SOL     OW24388   2.310   4.790   5.628
 7830SOL    HW124389   2.302   4.782   5.528
 7830SOL    HW224390   2.315   4.699   5.668
 7831SOL     OW24391   2.008   6.563   0.917
 7831SOL    HW124392   2.002   6.611   0.829
 7831SOL    HW224393   1.965   6.619   0.988
 7832SOL     OW24394   5.036   0.712   3.200
 7832SOL    HW124395   4.965   0.692   3.133
 7832SOL    HW224396   5.119   0.743   3.154
 7833SOL     OW24397   0.972   1.044   6.647
 7833SOL    HW124398   0.882   1.047   6.604
 7833SOL    HW224399   0.991   1.131   6.691
 7834SOL     OW24400   6.875   1.461   3.222
 7834SOL    HW124401   6.930   1.471   3.139
 7834SOL    HW224402   6.815   1.540   3.232
 7835SOL     OW24403   3.712   2.196   6.017
 7835SOL    HW124404   3.786   2.262   6.028
 7835SOL    HW224405   3.680   2.167   6.108
 7836SOL     OW24406   3.341   2.888   4.978
 7836SOL    HW124407   3.294   2.839   5.052
 7836SOL    HW224408   3.426   2.840   4.955
 7837SOL     OW24409   6.168   5.379   0.223
 7837SOL    HW124410   6.086   5.382   0.280
 7837SOL    HW224411   6.228   5.456   0.245
 7838SOL     OW24412   4.168   6.779   0.481
 7838SOL    HW124413   4.235   6.712   0.514
 7838SOL    HW224414   4.187   6.868   0.521
 7839SOL     OW24415   5.958   4.286   5.157
 7839SOL    HW124416   5.936   4.357   5.224
 7839SOL    HW224417   5.874   4.259   5.109
 7840SOL     OW24418   6.748   2.608   3.998
 7840SOL    HW124419   6.734   2.621   3.900
 7840SOL    HW224420   6.790   2.518   4.014
 7841SOL     OW24421   3.553   1.937   6.592
 7841SOL    HW124422   3.598   1.874   6.656
 7841SOL    HW224423   3.571   1.906   6.499
 7842SOL     OW24424   2.375   2.148   2.791
 7842SOL    HW124425   2.433   2.172   2.870
 7842SOL    HW224426   2.288   2.196   2.799
 7843SOL     OW24427   6.913   5.625   3.051
 7843SOL    HW124428   6.886   5.721   3.050
 7843SOL    HW224429   7.009   5.617   3.026
 7844SOL     OW24430   4.049   6.705   2.927
 7844SOL    HW124431   4.134   6.714   2.875
 7844SOL    HW224432   3.985   6.775   2.898
 7845SOL     OW24433   5.917   1.785   3.200
 7845SOL    HW124434   5.843   1.810   3.137
 7845SOL    HW224435   5.970   1.867   3.221
 7846SOL     OW24436   0.803   1.362   2.337
 7846SOL    HW124437   0.749   1.289   2.297
 7846SOL    HW224438   0.744   1.439   2.360
 7847SOL     OW24439   0.002   1.604   3.019
 7847SOL    HW124440   0.098   1.613   3.044
 7847SOL    HW224441   7.015   1.544   2.940
 7848SOL     OW24442   3.604   3.565   0.626
 7848SOL    HW124443   3.599   3.640   0.560
 7848SOL    HW224444   3.513   3.526   0.639
 7849SOL     OW24445   5.609   4.109   4.040
 7849SOL    HW124446   5.679   4.039   4.054
 7849SOL    HW224447   5.644   4.180   3.979
 7850SOL     OW24448   0.762   1.985   4.738
 7850SOL    HW124449   0.678   1.931   4.735
 7850SOL    HW224450   0.750   2.067   4.683
 7851SOL     OW24451   6.771   1.192   1.261
 7851SOL    HW124452   6.708   1.137   1.317
 7851SOL    HW224453   6.852   1.137   1.239
 7852SOL     OW24454   2.509   1.468   6.270
 7852SOL    HW124455   2.551   1.448   6.359
 7852SOL    HW224456   2.409   1.472   6.282
 7853SOL     OW24457   5.076   2.142   1.664
 7853SOL    HW124458   5.035   2.184   1.745
 7853SOL    HW224459   5.028   2.172   1.582
 7854SOL     OW24460   3.586   3.152   0.146
 7854SOL    HW124461   3.499   3.192   0.176
 7854SOL    HW224462   3.589   3.150   0.046
 7855SOL     OW24463   4.780   6.137   4.101
 7855SOL    HW124464   4.852   6.110   4.165
 7855SOL    HW224465   4.799   6.230   4.067
 7856SOL     OW24466   6.710   4.787   5.481
 7856SOL    HW124467   6.658   4.825   5.404
 7856SOL    HW224468   6.678   4.694   5.500
 7857SOL     OW24469   5.653   2.099   6.009
 7857SOL    HW124470   5.625   2.126   5.918
 7857SOL    HW224471   5.587   2.132   6.076
 7858SOL     OW24472   5.967   6.564   3.904
 7858SOL    HW124473   5.943   6.508   3.984
 7858SOL    HW224474   5.976   6.505   3.824
 7859SOL     OW24475   4.391   2.685   6.355
 7859SOL    HW124476   4.378   2.700   6.257
 7859SOL    HW224477   4.444   2.602   6.369
 7860SOL     OW24478   3.131   0.236   3.277
 7860SOL    HW124479   3.116   0.298   3.201
 7860SOL    HW224480   3.218   0.188   3.266
 7861SOL     OW24481   3.782   4.961   1.777
 7861SOL    HW124482   3.761   4.890   1.844
 7861SOL    HW224483   3.731   5.044   1.800
 7862SOL     OW24484   1.859   4.332   1.583
 7862SOL    HW124485   1.855   4.244   1.629
 7862SOL    HW224486   1.767   4.359   1.553
 7863SOL     OW24487   0.464   4.975   3.950
 7863SOL    HW124488   0.544   4.941   3.999
 7863SOL    HW224489   0.397   4.901   3.940
 7864SOL     OW24490   0.374   5.713   5.423
 7864SOL    HW124491   0.318   5.648   5.475
 7864SOL    HW224492   0.366   5.694   5.325
 7865SOL     OW24493   6.180   6.906   3.858
 7865SOL    HW124494   6.085   6.893   3.886
 7865SOL    HW224495   6.236   6.925   3.939
 7866SOL     OW24496   1.569   1.451   6.435
 7866SOL    HW124497   1.565   1.365   6.486
 7866SOL    HW224498   1.530   1.438   6.344
 7867SOL     OW24499   6.116   6.166   4.173
 7867SOL    HW124500   6.172   6.084   4.160
 7867SOL    HW224501   6.171   6.247   4.154
 7868SOL     OW24502   5.082   6.194   1.638
 7868SOL    HW124503   5.087   6.277   1.692
 7868SOL    HW224504   4.986   6.173   1.618
 7869SOL     OW24505   5.931   3.609   0.599
 7869SOL    HW124506   5.838   3.572   0.591
 7869SOL    HW224507   5.932   3.703   0.566
 7870SOL     OW24508   4.563   4.921   4.282
 7870SOL    HW124509   4.494   4.859   4.320
 7870SOL    HW224510   4.524   5.012   4.273
 7871SOL     OW24511   4.563   2.490   2.411
 7871SOL    HW124512   4.512   2.496   2.325
 7871SOL    HW224513   4.523   2.419   2.469
 7872SOL     OW24514   1.836   3.906   3.405
 7872SOL    HW124515   1.841   3.874   3.311
 7872SOL    HW224516   1.912   3.969   3.423
 7873SOL     OW24517   5.384   6.870   6.153
 7873SOL    HW124518   5.366   6.798   6.220
 7873SOL    HW224519   5.316   6.942   6.161
 7874SOL     OW24520   5.311   1.822   6.765
 7874SOL    HW124521   5.336   1.908   6.721
 7874SOL    HW224522   5.390   1.760   6.764
 7875SOL     OW24523   4.532   3.105   6.423
 7875SOL    HW124524   4.476   3.098   6.505
 7875SOL    HW224525   4.616   3.155   6.444
 7876SOL     OW24526   1.138   0.034   4.556
 7876SOL    HW124527   1.061   7.001   4.524
 7876SOL    HW224528   1.223   7.006   4.538
 7877SOL     OW24529   0.681   2.176   2.840
 7877SOL    HW124530   0.697   2.077   2.833
 7877SOL    HW224531   0.766   2.225   2.819
 7878SOL     OW24532   5.919   4.577   4.655
 7878SOL    HW124533   5.825   4.589   4.625
 7878SOL    HW224534   5.923   4.576   4.755
 7879SOL     OW24535   4.046   5.235   3.559
 7879SOL    HW124536   4.130   5.183   3.576
 7879SOL    HW224537   4.069   5.331   3.545
 7880SOL     OW24538   2.045   5.388   0.700
 7880SOL    HW124539   1.965   5.404   0.758
 7880SOL    HW224540   2.120   5.447   0.732
 7881SOL     OW24541   6.519   4.720   4.430
 7881SOL    HW124542   6.515   4.674   4.518
 7881SOL    HW224543   6.479   4.662   4.360
 7882SOL     OW24544   1.217   3.159   1.663
 7882SOL    HW124545   1.138   3.177   1.721
 7882SOL    HW224546   1.294   3.131   1.720
 7883SOL     OW24547   1.230   0.627   0.967
 7883SOL    HW124548   1.195   0.717   0.992
 7883SOL    HW224549   1.154   0.566   0.946
 7884SOL     OW24550   2.104   3.934   4.701
 7884SOL    HW124551   2.043   3.937   4.622
 7884SOL    HW224552   2.127   3.839   4.721
 7885SOL     OW24553   6.305   5.331   1.414
 7885SOL    HW124554   6.297   5.413   1.357
 7885SOL    HW224555   6.300   5.356   1.510
 7886SOL     OW24556   3.101   4.958   6.591
 7886SOL    HW124557   3.176   4.905   6.631
 7886SOL    HW224558   3.098   5.048   6.635
 7887SOL     OW24559   3.651   2.573   5.328
 7887SOL    HW124560   3.666   2.481   5.365
 7887SOL    HW224561   3.559   2.579   5.290
 7888SOL     OW24562   6.450   0.013   5.363
 7888SOL    HW124563   6.480   0.048   5.274
 7888SOL    HW224564   6.461   6.935   5.366
 7889SOL     OW24565   1.598   5.175   0.794
 7889SOL    HW124566   1.516   5.231   0.785
 7889SOL    HW224567   1.572   5.081   0.817
 7890SOL     OW24568   1.409   2.562   3.286
 7890SOL    HW124569   1.392   2.470   3.323
 7890SOL    HW224570   1.507   2.581   3.288
 7891SOL     OW24571   1.816   3.639   3.863
 7891SOL    HW124572   1.851   3.548   3.885
 7891SOL    HW224573   1.892   3.704   3.861
 7892SOL     OW24574   1.783   0.779   3.799
 7892SOL    HW124575   1.790   0.760   3.897
 7892SOL    HW224576   1.777   0.694   3.748
 7893SOL     OW24577   6.629   6.166   2.933
 7893SOL    HW124578   6.623   6.093   2.865
 7893SOL    HW224579   6.662   6.249   2.889
 7894SOL     OW24580   3.589   6.767   0.502
 7894SOL    HW124581   3.601   6.848   0.444
 7894SOL    HW224582   3.606   6.791   0.597
 7895SOL     OW24583   5.610   0.579   5.226
 7895SOL    HW124584   5.594   0.677   5.236
 7895SOL    HW224585   5.587   0.533   5.312
 7896SOL     OW24586   4.998   3.520   0.534
 7896SOL    HW124587   5.097   3.519   0.542
 7896SOL    HW224588   4.972   3.515   0.437
 7897SOL     OW24589   2.735   3.924   0.058
 7897SOL    HW124590   2.811   3.881   0.106
 7897SOL    HW224591   2.649   3.897   0.100
 7898SOL     OW24592   3.992   2.229   3.523
 7898SOL    HW124593   4.003   2.259   3.618
 7898SOL    HW224594   3.913   2.276   3.483
 7899SOL     OW24595   5.697   1.134   1.275
 7899SOL    HW124596   5.701   1.149   1.373
 7899SOL    HW224597   5.782   1.090   1.244
 7900SOL     OW24598   1.773   5.038   1.887
 7900SOL    HW124599   1.703   5.035   1.959
 7900SOL    HW224600   1.729   5.057   1.799
 7901SOL     OW24601   5.396   1.423   6.461
 7901SOL    HW124602   5.309   1.427   6.413
 7901SOL    HW224603   5.380   1.410   6.559
 7902SOL     OW24604   5.526   6.827   1.229
 7902SOL    HW124605   5.490   6.873   1.148
 7902SOL    HW224606   5.531   6.728   1.213
 7903SOL     OW24607   5.785   1.672   0.654
 7903SOL    HW124608   5.822   1.701   0.566
 7903SOL    HW224609   5.714   1.735   0.683
 7904SOL     OW24610   5.572   0.209   3.540
 7904SOL    HW124611   5.539   0.180   3.630
 7904SOL    HW224612   5.671   0.221   3.542
 7905SOL     OW24613   4.579   2.509   6.726
 7905SOL    HW124614   4.594   2.599   6.685
 7905SOL    HW224615   4.481   2.491   6.732
 7906SOL     OW24616   6.932   5.332   0.555
 7906SOL    HW124617   7.006   5.273   0.587
 7906SOL    HW224618   6.964   5.427   0.556
 7907SOL     OW24619   5.308   2.769   3.109
 7907SOL    HW124620   5.243   2.834   3.070
 7907SOL    HW224621   5.370   2.736   3.037
 7908SOL     OW24622   0.981   1.449   5.774
 7908SOL    HW124623   0.960   1.439   5.871
 7908SOL    HW224624   1.052   1.383   5.749
 7909SOL     OW24625   5.100   4.187   4.364
 7909SOL    HW124626   5.135   4.272   4.324
 7909SOL    HW224627   5.050   4.207   4.448
 7910SOL     OW24628   2.567   3.412   5.837
 7910SOL    HW124629   2.608   3.356   5.765
 7910SOL    HW224630   2.631   3.485   5.863
 7911SOL     OW24631   1.815   3.284   0.299
 7911SOL    HW124632   1.840   3.257   0.206
 7911SOL    HW224633   1.843   3.212   0.363
 7912SOL     OW24634   6.910   5.078   0.267
 7912SOL    HW124635   6.885   5.174   0.286
 7912SOL    HW224636   6.868   5.019   0.336
 7913SOL     OW24637   1.166   5.054   1.076
 7913SOL    HW124638   1.162   5.134   1.136
 7913SOL    HW224639   1.108   4.981   1.114
 7914SOL     OW24640   0.408   4.276   0.525
 7914SOL    HW124641   0.501   4.239   0.524
 7914SOL    HW224642   0.407   4.366   0.481
 7915SOL     OW24643   4.977   3.239   2.217
 7915SOL    HW124644   4.952   3.334   2.197
 7915SOL    HW224645   4.908   3.177   2.180
 7916SOL     OW24646   0.608   4.204   5.053
 7916SOL    HW124647   0.581   4.168   4.964
 7916SOL    HW224648   0.699   4.245   5.047
 7917SOL     OW24649   3.712   4.026   4.346
 7917SOL    HW124650   3.663   3.941   4.328
 7917SOL    HW224651   3.695   4.055   4.440
 7918SOL     OW24652   6.802   1.400   6.405
 7918SOL    HW124653   6.775   1.308   6.434
 7918SOL    HW224654   6.732   1.466   6.432
 7919SOL     OW24655   1.881   4.367   2.068
 7919SOL    HW124656   1.824   4.429   2.123
 7919SOL    HW224657   1.949   4.323   2.126
 7920SOL     OW24658   0.276   5.540   0.905
 7920SOL    HW124659   0.187   5.497   0.917
 7920SOL    HW224660   0.271   5.611   0.835
 7921SOL     OW24661   5.505   6.648   0.359
 7921SOL    HW124662   5.549   6.592   0.288
 7921SOL    HW224663   5.406   6.635   0.355
 7922SOL     OW24664   0.018   6.477   0.093
 7922SOL    HW124665   0.052   6.570   0.077
 7922SOL    HW224666   0.035   6.451   0.188
 7923SOL     OW24667   3.457   0.222   2.221
 7923SOL    HW124668   3.500   0.168   2.148
 7923SOL    HW224669   3.419   0.160   2.289
 7924SOL     OW24670   4.186   0.104   2.341
 7924SOL    HW124671   4.265   0.059   2.384
 7924SOL    HW224672   4.219   0.175   2.279
 7925SOL     OW24673   1.034   2.007   6.266
 7925SOL    HW124674   1.064   1.913   6.280
 7925SOL    HW224675   1.068   2.039   6.177
 7926SOL     OW24676   4.634   1.567   5.225
 7926SOL    HW124677   4.536   1.585   5.231
 7926SOL    HW224678   4.651   1.469   5.231
 7927SOL     OW24679   4.132   5.291   3.079
 7927SOL    HW124680   4.075   5.274   3.159
 7927SOL    HW224681   4.075   5.304   2.998
 7928SOL     OW24682   1.148   2.129   4.480
 7928SOL    HW124683   1.130   2.031   4.480
 7928SOL    HW224684   1.066   2.177   4.450
 7929SOL     OW24685   3.970   5.084   5.857
 7929SOL    HW124686   4.064   5.069   5.885
 7929SOL    HW224687   3.943   5.015   5.790
 7930SOL     OW24688   4.489   5.404   4.247
 7930SOL    HW124689   4.569   5.378   4.301
 7930SOL    HW224690   4.481   5.503   4.245
 7931SOL     OW24691   1.656   2.128   6.283
 7931SOL    HW124692   1.598   2.197   6.238
 7931SOL    HW224693   1.751   2.143   6.259
 7932SOL     OW24694   2.089   5.982   6.557
 7932SOL    HW124695   2.187   5.985   6.578
 7932SOL    HW224696   2.076   6.002   6.460
 7933SOL     OW24697   0.474   5.760   6.486
 7933SOL    HW124698   0.472   5.823   6.563
 7933SOL    HW224699   0.384   5.719   6.473
 7934SOL     OW24700   2.461   4.821   0.540
 7934SOL    HW124701   2.436   4.916   0.524
 7934SOL    HW224702   2.422   4.790   0.627
 7935SOL     OW24703   5.555   5.762   6.873
 7935SOL    HW124704   5.487   5.740   6.942
 7935SOL    HW224705   5.645   5.774   6.917
 7936SOL     OW24706   4.006   6.318   2.420
 7936SOL    HW124707   3.988   6.229   2.380
 7936SOL    HW224708   3.976   6.390   2.358
 7937SOL     OW24709   6.644   6.652   3.761
 7937SOL    HW124710   6.592   6.588   3.704
 7937SOL    HW224711   6.590   6.735   3.775
 7938SOL     OW24712   6.424   5.816   4.998
 7938SOL    HW124713   6.459   5.812   4.904
 7938SOL    HW224714   6.404   5.723   5.030
 7939SOL     OW24715   1.666   2.378   5.657
 7939SOL    HW124716   1.731   2.363   5.582
 7939SOL    HW224717   1.693   2.459   5.708
 7940SOL     OW24718   2.147   3.937   1.888
 7940SOL    HW124719   2.131   3.870   1.961
 7940SOL    HW224720   2.114   3.899   1.802
 7941SOL     OW24721   6.256   0.752   0.322
 7941SOL    HW124722   6.161   0.781   0.319
 7941SOL    HW224723   6.313   0.827   0.357
 7942SOL     OW24724   6.329   5.802   2.513
 7942SOL    HW124725   6.321   5.752   2.599
 7942SOL    HW224726   6.267   5.881   2.513
 7943SOL     OW24727   6.459   3.046   0.693
 7943SOL    HW124728   6.368   3.076   0.720
 7943SOL    HW224729   6.511   3.124   0.659
 7944SOL     OW24730   0.438   2.495   1.677
 7944SOL    HW124731   0.407   2.547   1.597
 7944SOL    HW224732   0.361   2.479   1.739
 7945SOL     OW24733   5.988   5.849   1.889
 7945SOL    HW124734   6.067   5.803   1.930
 7945SOL    HW224735   6.007   5.869   1.793
 7946SOL     OW24736   2.421   1.658   5.355
 7946SOL    HW124737   2.428   1.609   5.442
 7946SOL    HW224738   2.383   1.598   5.286
 7947SOL     OW24739   3.412   2.269   6.341
 7947SOL    HW124740   3.324   2.296   6.304
 7947SOL    HW224741   3.399   2.224   6.429
 7948SOL     OW24742   0.899   6.052   0.774
 7948SOL    HW124743   0.910   6.133   0.831
 7948SOL    HW224744   0.989   6.019   0.745
 7949SOL     OW24745   4.340   4.754   4.349
 7949SOL    HW124746   4.385   4.708   4.425
 7949SOL    HW224747   4.258   4.800   4.382
 7950SOL     OW24748   6.147   5.140   4.806
 7950SOL    HW124749   6.054   5.173   4.790
 7950SOL    HW224750   6.169   5.148   4.904
 7951SOL     OW24751   2.408   4.295   1.885
 7951SOL    HW124752   2.459   4.354   1.948
 7951SOL    HW224753   2.310   4.314   1.894
 7952SOL     OW24754   0.771   2.977   6.705
 7952SOL    HW124755   0.865   2.943   6.703
 7952SOL    HW224756   0.743   2.993   6.800
 7953SOL     OW24757   2.402   2.696   4.279
 7953SOL    HW124758   2.406   2.610   4.329
 7953SOL    HW224759   2.458   2.690   4.196
 7954SOL     OW24760   4.717   4.160   5.294
 7954SOL    HW124761   4.691   4.072   5.255
 7954SOL    HW224762   4.816   4.175   5.282
 7955SOL     OW24763   0.907   6.438   6.812
 7955SOL    HW124764   0.888   6.533   6.786
 7955SOL    HW224765   0.998   6.433   6.853
 7956SOL     OW24766   3.880   5.926   2.676
 7956SOL    HW124767   3.891   5.871   2.760
 7956SOL    HW224768   3.793   5.975   2.680
 7957SOL     OW24769   0.883   0.788   2.141
 7957SOL    HW124770   0.862   0.826   2.231
 7957SOL    HW224771   0.799   0.761   2.095
 7958SOL     OW24772   3.732   5.691   4.332
 7958SOL    HW124773   3.747   5.634   4.414
 7958SOL    HW224774   3.671   5.766   4.355
 7959SOL     OW24775   4.334   5.806   0.959
 7959SOL    HW124776   4.402   5.748   0.913
 7959SOL    HW224777   4.367   5.900   0.962
 7960SOL     OW24778   2.933   1.213   0.694
 7960SOL    HW124779   3.004   1.155   0.654
 7960SOL    HW224780   2.846   1.163   0.697
 7961SOL     OW24781   0.157   0.054   1.397
 7961SOL    HW124782   0.234   0.038   1.336
 7961SOL    HW224783   0.119   6.988   1.427
 7962SOL     OW24784   1.587   0.252   0.218
 7962SOL    HW124785   1.530   0.258   0.300
 7962SOL    HW224786   1.660   0.320   0.223
 7963SOL     OW24787   6.850   0.848   3.763
 7963SOL    HW124788   6.906   0.805   3.691
 7963SOL    HW224789   6.798   0.777   3.810
 7964SOL     OW24790   0.280   5.162   3.833
 7964SOL    HW124791   0.191   5.123   3.856
 7964SOL    HW224792   0.352   5.109   3.878
 7965SOL     OW24793   3.524   2.994   6.513
 7965SOL    HW124794   3.579   3.055   6.455
 7965SOL    HW224795   3.437   2.975   6.468
 7966SOL     OW24796   0.774   3.068   5.113
 7966SOL    HW124797   0.769   3.046   5.210
 7966SOL    HW224798   0.779   3.168   5.102
 7967SOL     OW24799   2.798   5.945   3.929
 7967SOL    HW124800   2.761   5.995   3.851
 7967SOL    HW224801   2.725   5.894   3.974
 7968SOL     OW24802   2.397   2.632   3.341
 7968SOL    HW124803   2.369   2.698   3.272
 7968SOL    HW224804   2.488   2.596   3.318
 7969SOL     OW24805   4.393   5.905   0.635
 7969SOL    HW124806   4.372   5.996   0.670
 7969SOL    HW224807   4.311   5.849   0.635
 7970SOL     OW24808   0.221   2.976   2.693
 7970SOL    HW124809   0.182   3.052   2.745
 7970SOL    HW224810   0.156   2.946   2.623
 7971SOL     OW24811   4.221   1.672   0.748
 7971SOL    HW124812   4.193   1.743   0.683
 7971SOL    HW224813   4.163   1.677   0.830
 7972SOL     OW24814   1.632   3.637   1.012
 7972SOL    HW124815   1.618   3.642   0.913
 7972SOL    HW224816   1.682   3.718   1.042
 7973SOL     OW24817   4.828   4.490   3.794
 7973SOL    HW124818   4.885   4.572   3.798
 7973SOL    HW224819   4.740   4.509   3.838
 7974SOL     OW24820   5.679   1.083   5.587
 7974SOL    HW124821   5.589   1.105   5.622
 7974SOL    HW224822   5.683   0.985   5.566
 7975SOL     OW24823   5.132   0.494   2.856
 7975SOL    HW124824   5.181   0.569   2.902
 7975SOL    HW224825   5.192   0.414   2.850
 7976SOL     OW24826   0.600   0.628   0.053
 7976SOL    HW124827   0.695   0.615   0.082
 7976SOL    HW224828   0.599   0.674   6.985
 7977SOL     OW24829   5.124   5.598   1.534
 7977SOL    HW124830   5.174   5.538   1.472
 7977SOL    HW224831   5.120   5.690   1.495
 7978SOL     OW24832   6.076   3.556   6.021
 7978SOL    HW124833   5.993   3.604   5.996
 7978SOL    HW224834   6.071   3.461   5.990
 7979SOL     OW24835   3.085   6.719   5.416
 7979SOL    HW124836   3.167   6.773   5.398
 7979SOL    HW224837   3.006   6.780   5.426
 7980SOL     OW24838   2.413   5.583   0.070
 7980SOL    HW124839   2.390   5.511   0.004
 7980SOL    HW224840   2.333   5.602   0.128
 7981SOL     OW24841   0.432   5.521   1.778
 7981SOL    HW124842   0.398   5.465   1.702
 7981SOL    HW224843   0.518   5.483   1.811
 7982SOL     OW24844   0.212   1.955   0.068
 7982SOL    HW124845   0.202   1.884   0.138
 7982SOL    HW224846   0.222   1.912   6.999
 7983SOL     OW24847   5.765   1.732   2.148
 7983SOL    HW124848   5.670   1.702   2.147
 7983SOL    HW224849   5.776   1.809   2.212
 7984SOL     OW24850   1.702   1.691   1.144
 7984SOL    HW124851   1.750   1.678   1.231
 7984SOL    HW224852   1.704   1.788   1.119
 7985SOL     OW24853   2.287   6.978   3.834
 7985SOL    HW124854   2.378   7.006   3.805
 7985SOL    HW224855   2.231   6.957   3.754
 7986SOL     OW24856   3.468   1.280   6.756
 7986SOL    HW124857   3.479   1.358   6.817
 7986SOL    HW224858   3.439   1.200   6.810
 7987SOL     OW24859   1.514   3.421   6.995
 7987SOL    HW124860   1.440   3.353   6.995
 7987SOL    HW224861   1.474   3.513   6.994
 7988SOL     OW24862   1.487   2.160   3.629
 7988SOL    HW124863   1.557   2.140   3.697
 7988SOL    HW224864   1.418   2.220   3.669
 7989SOL     OW24865   3.708   2.976   5.296
 7989SOL    HW124866   3.782   2.921   5.334
 7989SOL    HW224867   3.720   2.986   5.198
 7990SOL     OW24868   6.586   3.295   3.381
 7990SOL    HW124869   6.516   3.227   3.361
 7990SOL    HW224870   6.544   3.384   3.393
 7991SOL     OW24871   6.615   0.321   3.510
 7991SOL    HW124872   6.557   0.327   3.430
 7991SOL    HW224873   6.682   0.395   3.509
 7992SOL     OW24874   1.038   6.901   1.420
 7992SOL    HW124875   1.118   6.885   1.479
 7992SOL    HW224876   1.013   6.997   1.424
 7993SOL     OW24877   0.946   6.381   6.488
 7993SOL    HW124878   0.944   6.380   6.588
 7993SOL    HW224879   1.001   6.304   6.456
 7994SOL     OW24880   4.509   6.985   3.150
 7994SOL    HW124881   4.590   0.018   3.171
 7994SOL    HW224882   4.432   0.025   3.132
 7995SOL     OW24883   4.309   4.846   3.234
 7995SOL    HW124884   4.328   4.915   3.164
 7995SOL    HW224885   4.357   4.871   3.318
 7996SOL     OW24886   2.618   0.248   4.864
 7996SOL    HW124887   2.535   0.201   4.831
 7996SOL    HW224888   2.594   0.303   4.944
 7997SOL     OW24889   0.501   1.303   1.561
 7997SOL    HW124890   0.553   1.371   1.613
 7997SOL    HW224891   0.496   1.218   1.614
 7998SOL     OW24892   3.832   5.144   0.681
 7998SOL    HW124893   3.900   5.084   0.638
 7998SOL    HW224894   3.788   5.095   0.756
 7999SOL     OW24895   0.537   6.266   6.061
 7999SOL    HW124896   0.556   6.216   6.146
 7999SOL    HW224897   0.464   6.332   6.076
 8000SOL     OW24898   5.384   0.208   0.405
 8000SOL    HW124899   5.314   0.221   0.475
 8000SOL    HW224900   5.472   0.242   0.438
 8001SOL     OW24901   3.340   5.893   0.759
 8001SOL    HW124902   3.401   5.944   0.820
 8001SOL    HW224903   3.247   5.893   0.796
 8002SOL     OW24904   0.938   2.166   5.336
 8002SOL    HW124905   0.934   2.243   5.400
 8002SOL    HW224906   0.980   2.087   5.382
 8003SOL     OW24907   2.804   4.995   2.693
 8003SOL    HW124908   2.766   4.957   2.609
 8003SOL    HW224909   2.893   4.952   2.712
 8004SOL     OW24910   2.133   3.427   3.870
 8004SOL    HW124911   2.169   3.516   3.899
 8004SOL    HW224912   2.064   3.441   3.798
 8005SOL     OW24913   3.539   0.933   2.484
 8005SOL    HW124914   3.440   0.944   2.478
 8005SOL    HW224915   3.578   1.012   2.533
 8006SOL     OW24916   2.143   6.970   6.583
 8006SOL    HW124917   2.193   6.886   6.602
 8006SOL    HW224918   2.181   0.023   6.638
 8007SOL     OW24919   0.129   1.101   4.881
 8007SOL    HW124920   0.157   1.030   4.817
 8007SOL    HW224921   0.095   1.180   4.830
 8008SOL     OW24922   4.488   6.070   5.452
 8008SOL    HW124923   4.410   6.087   5.511
 8008SOL    HW224924   4.457   6.031   5.366
 8009SOL     OW24925   5.722   0.868   2.861
 8009SOL    HW124926   5.762   0.940   2.804
 8009SOL    HW224927   5.676   0.801   2.803
 8010SOL     OW24928   0.737   1.360   0.070
 8010SOL    HW124929   0.836   1.349   0.075
 8010SOL    HW224930   0.715   1.452   0.036
 8011SOL     OW24931   3.464   2.724   0.834
 8011SOL    HW124932   3.438   2.638   0.878
 8011SOL    HW224933   3.549   2.710   0.783
 8012SOL     OW24934   2.113   4.660   1.805
 8012SOL    HW124935   2.191   4.612   1.765
 8012SOL    HW224936   2.142   4.751   1.834
 8013SOL     OW24937   1.229   4.650   3.265
 8013SOL    HW124938   1.279   4.587   3.205
 8013SOL    HW224939   1.155   4.693   3.214
 8014SOL     OW24940   0.609   6.198   5.369
 8014SOL    HW124941   0.652   6.275   5.416
 8014SOL    HW224942   0.513   6.190   5.396
 8015SOL     OW24943   2.653   0.798   0.601
 8015SOL    HW124944   2.600   0.713   0.599
 8015SOL    HW224945   2.702   0.809   0.515
 8016SOL     OW24946   4.924   6.982   6.480
 8016SOL    HW124947   5.016   6.983   6.441
 8016SOL    HW224948   4.857   6.999   6.408
 8017SOL     OW24949   6.875   6.749   0.471
 8017SOL    HW124950   6.860   6.730   0.568
 8017SOL    HW224951   6.813   6.693   0.416
 8018SOL     OW24952   3.090   2.375   5.931
 8018SOL    HW124953   3.077   2.457   5.874
 8018SOL    HW224954   3.008   2.362   5.987
 8019SOL     OW24955   2.257   4.153   5.793
 8019SOL    HW124956   2.248   4.222   5.721
 8019SOL    HW224957   2.204   4.072   5.769
 8020SOL     OW24958   6.132   6.156   0.975
 8020SOL    HW124959   6.179   6.168   0.888
 8020SOL    HW224960   6.036   6.135   0.958
 8021SOL     OW24961   1.249   1.778   1.155
 8021SOL    HW124962   1.226   1.802   1.249
 8021SOL    HW224963   1.295   1.856   1.112
 8022SOL     OW24964   4.843   6.817   2.737
 8022SOL    HW124965   4.927   6.785   2.781
 8022SOL    HW224966   4.764   6.771   2.777
 8023SOL     OW24967   6.238   5.044   3.362
 8023SOL    HW124968   6.296   4.977   3.408
 8023SOL    HW224969   6.203   5.109   3.430
 8024SOL     OW24970   3.241   5.218   6.690
 8024SOL    HW124971   3.213   5.278   6.765
 8024SOL    HW224972   3.328   5.174   6.714
 8025SOL     OW24973   2.591   6.200   6.400
 8025SOL    HW124974   2.657   6.156   6.339
 8025SOL    HW224975   2.617   6.295   6.414
 8026SOL     OW24976   1.296   4.101   6.743
 8026SOL    HW124977   1.333   4.010   6.720
 8026SOL    HW224978   1.280   4.152   6.659
 8027SOL     OW24979   4.318   1.520   5.528
 8027SOL    HW124980   4.351   1.425   5.529
 8027SOL    HW224981   4.396   1.582   5.530
 8028SOL     OW24982   3.170   4.923   4.553
 8028SOL    HW124983   3.116   5.001   4.521
 8028SOL    HW224984   3.108   4.850   4.582
 8029SOL     OW24985   4.942   2.841   0.983
 8029SOL    HW124986   4.899   2.930   0.966
 8029SOL    HW224987   5.037   2.854   1.010
 8030SOL     OW24988   4.318   4.282   0.021
 8030SOL    HW124989   4.223   4.308   0.002
 8030SOL    HW224990   4.339   4.198   6.991
 8031SOL     OW24991   5.352   6.303   3.123
 8031SOL    HW124992   5.417   6.337   3.191
 8031SOL    HW224993   5.316   6.214   3.152
 8032SOL     OW24994   5.565   4.092   6.121
 8032SOL    HW124995   5.609   4.010   6.160
 8032SOL    HW224996   5.469   4.094   6.147
 8033SOL     OW24997   4.625   3.071   6.167
 8033SOL    HW124998   4.598   3.069   6.263
 8033SOL    HW224999   4.673   2.986   6.145
 8034SOL     OW25000   5.986   0.500   4.500
 8034SOL    HW125001   5.983   0.470   4.405
 8034SOL    HW225002   6.055   0.448   4.550
 8035SOL     OW25003   5.172   1.614   4.444
 8035SOL    HW125004   5.109   1.633   4.520
 8035SOL    HW225005   5.260   1.658   4.462
 8036SOL     OW25006   1.008   4.401   3.079
 8036SOL    HW125007   0.948   4.341   3.026
 8036SOL    HW225008   0.973   4.410   3.172
 8037SOL     OW25009   1.254   2.981   1.284
 8037SOL    HW125010   1.188   2.926   1.335
 8037SOL    HW225011   1.302   2.924   1.218
 8038SOL     OW25012   3.885   0.760   3.348
 8038SOL    HW125013   3.860   0.733   3.255
 8038SOL    HW225014   3.877   0.859   3.357
 8039SOL     OW25015   0.555   1.329   4.187
 8039SOL    HW125016   0.477   1.276   4.153
 8039SOL    HW225017   0.621   1.268   4.231
 8040SOL     OW25018   1.579   6.213   0.649
 8040SOL    HW125019   1.602   6.308   0.669
 8040SOL    HW225020   1.576   6.199   0.550
 8041SOL     OW25021   2.995   1.682   1.622
 8041SOL    HW125022   2.999   1.760   1.685
 8041SOL    HW225023   2.915   1.691   1.562
 8042SOL     OW25024   3.519   2.884   3.715
 8042SOL    HW125025   3.594   2.880   3.650
 8042SOL    HW225026   3.432   2.879   3.667
 8043SOL     OW25027   4.090   6.797   2.433
 8043SOL    HW125028   4.057   6.798   2.528
 8043SOL    HW225029   4.041   6.866   2.380
 8044SOL     OW25030   3.850   2.915   1.094
 8044SOL    HW125031   3.822   2.948   1.184
 8044SOL    HW225032   3.840   2.816   1.090
 8045SOL     OW25033   5.435   1.152   1.371
 8045SOL    HW125034   5.465   1.237   1.414
 8045SOL    HW225035   5.494   1.130   1.294
 8046SOL     OW25036   7.020   4.858   0.636
 8046SOL    HW125037   0.057   4.888   0.560
 8046SOL    HW225038   0.024   4.908   0.719
 8047SOL     OW25039   3.403   5.732   4.307
 8047SOL    HW125040   3.361   5.659   4.253
 8047SOL    HW225041   3.502   5.717   4.311
 8048SOL     OW25042   5.539   0.656   5.733
 8048SOL    HW125043   5.549   0.728   5.665
 8048SOL    HW225044   5.467   0.593   5.704
 8049SOL     OW25045   1.069   0.325   0.262
 8049SOL    HW125046   0.991   0.328   0.200
 8049SOL    HW225047   1.040   0.356   0.353
 8050SOL     OW25048   1.583   3.977   2.717
 8050SOL    HW125049   1.543   4.050   2.772
 8050SOL    HW225050   1.587   3.893   2.771
 8051SOL     OW25051   4.820   5.880   3.080
 8051SOL    HW125052   4.865   5.823   3.148
 8051SOL    HW225053   4.862   5.970   3.078
 8052SOL     OW25054   4.856   1.239   1.827
 8052SOL    HW125055   4.813   1.295   1.897
 8052SOL    HW225056   4.786   1.208   1.762
 8053SOL     OW25057   3.166   3.868   3.631
 8053SOL    HW125058   3.201   3.957   3.660
 8053SOL    HW225059   3.242   3.805   3.615
 8054SOL     OW25060   4.395   0.155   4.652
 8054SOL    HW125061   4.380   0.113   4.563
 8054SOL    HW225062   4.493   0.172   4.665
 8055SOL     OW25063   0.273   0.427   5.699
 8055SOL    HW125064   0.226   0.403   5.784
 8055SOL    HW225065   0.342   0.497   5.717
 8056SOL     OW25066   4.041   2.274   3.794
 8056SOL    HW125067   3.981   2.301   3.869
 8056SOL    HW225068   4.130   2.247   3.831
 8057SOL     OW25069   3.361   2.143   3.231
 8057SOL    HW125070   3.295   2.108   3.164
 8057SOL    HW225071   3.363   2.243   3.227
 8058SOL     OW25072   4.482   0.844   2.261
 8058SOL    HW125073   4.495   0.836   2.360
 8058SOL    HW225074   4.481   0.753   2.220
 8059SOL     OW25075   4.568   2.395   4.619
 8059SOL    HW125076   4.666   2.388   4.638
 8059SOL    HW225077   4.521   2.429   4.700
 8060SOL     OW25078   1.091   2.807   3.888
 8060SOL    HW125079   1.024   2.739   3.916
 8060SOL    HW225080   1.180   2.784   3.927
 8061SOL     OW25081   6.923   0.547   2.302
 8061SOL    HW125082   6.989   0.479   2.269
 8061SOL    HW225083   6.940   0.565   2.398
 8062SOL     OW25084   3.401   5.305   4.232
 8062SOL    HW125085   3.493   5.302   4.193
 8062SOL    HW225086   3.348   5.377   4.187
 8063SOL     OW25087   0.732   2.925   0.541
 8063SOL    HW125088   0.825   2.890   0.528
 8063SOL    HW225089   0.679   2.908   0.457
 8064SOL     OW25090   0.261   4.529   0.898
 8064SOL    HW125091   0.235   4.526   0.995
 8064SOL    HW225092   0.241   4.441   0.856
 8065SOL     OW25093   3.335   6.004   4.297
 8065SOL    HW125094   3.337   5.909   4.328
 8065SOL    HW225095   3.371   6.009   4.204
 8066SOL     OW25096   0.168   2.031   5.928
 8066SOL    HW125097   0.137   2.089   5.854
 8066SOL    HW225098   0.241   2.077   5.979
 8067SOL     OW25099   4.954   2.869   1.996
 8067SOL    HW125100   4.915   2.828   1.914
 8067SOL    HW225101   4.896   2.945   2.026
 8068SOL     OW25102   6.483   4.524   0.248
 8068SOL    HW125103   6.459   4.478   0.162
 8068SOL    HW225104   6.567   4.485   0.285
 8069SOL     OW25105   1.766   6.354   0.958
 8069SOL    HW125106   1.671   6.338   0.985
 8069SOL    HW225107   1.811   6.408   1.029
 8070SOL     OW25108   3.041   3.083   0.410
 8070SOL    HW125109   2.974   3.105   0.482
 8070SOL    HW225110   3.103   3.160   0.398
 8071SOL     OW25111   2.842   6.513   4.707
 8071SOL    HW125112   2.938   6.493   4.726
 8071SOL    HW225113   2.816   6.474   4.619
 8072SOL     OW25114   3.449   0.738   6.840
 8072SOL    HW125115   3.447   0.653   6.787
 8072SOL    HW225116   3.377   0.799   6.806
 8073SOL     OW25117   4.151   6.192   5.380
 8073SOL    HW125118   4.072   6.241   5.344
 8073SOL    HW225119   4.127   6.097   5.396
 8074SOL     OW25120   3.701   2.684   0.708
 8074SOL    HW125121   3.695   2.652   0.613
 8074SOL    HW225122   3.758   2.621   0.761
 8075SOL     OW25123   6.281   1.217   0.298
 8075SOL    HW125124   6.309   1.293   0.357
 8075SOL    HW225125   6.348   1.204   0.226
 8076SOL     OW25126   5.178   2.372   5.558
 8076SOL    HW125127   5.142   2.445   5.499
 8076SOL    HW225128   5.236   2.312   5.503
 8077SOL     OW25129   1.773   5.874   1.990
 8077SOL    HW125130   1.829   5.804   1.945
 8077SOL    HW225131   1.677   5.846   1.988
 8078SOL     OW25132   5.909   1.266   0.569
 8078SOL    HW125133   5.967   1.313   0.502
 8078SOL    HW225134   5.908   1.319   0.654
 8079SOL     OW25135   4.766   1.656   3.289
 8079SOL    HW125136   4.819   1.740   3.297
 8079SOL    HW225137   4.675   1.677   3.251
 8080SOL     OW25138   0.529   2.962   0.184
 8080SOL    HW125139   0.575   3.036   0.233
 8080SOL    HW225140   0.431   2.964   0.206
 8081SOL     OW25141   5.052   6.769   4.471
 8081SOL    HW125142   5.131   6.726   4.515
 8081SOL    HW225143   4.980   6.786   4.539
 8082SOL     OW25144   5.678   0.161   1.775
 8082SOL    HW125145   5.625   0.077   1.784
 8082SOL    HW225146   5.617   0.237   1.753
 8083SOL     OW25147   5.309   3.750   2.483
 8083SOL    HW125148   5.403   3.751   2.517
 8083SOL    HW225149   5.293   3.666   2.431
 8084SOL     OW25150   5.345   7.007   0.245
 8084SOL    HW125151   5.302   0.037   0.171
 8084SOL    HW225152   5.360   0.045   0.324
 8085SOL     OW25153   5.878   7.014   2.829
 8085SOL    HW125154   5.850   0.039   2.913
 8085SOL    HW225155   5.922   0.058   2.768
 8086SOL     OW25156   4.548   0.912   3.790
 8086SOL    HW125157   4.545   0.824   3.741
 8086SOL    HW225158   4.612   0.973   3.744
 8087SOL     OW25159   2.877   1.287   1.073
 8087SOL    HW125160   2.779   1.268   1.077
 8087SOL    HW225161   2.899   1.335   0.988
 8088SOL     OW25162   5.262   2.539   1.241
 8088SOL    HW125163   5.183   2.567   1.295
 8088SOL    HW225164   5.338   2.602   1.258
 8089SOL     OW25165   5.053   2.830   7.015
 8089SOL    HW125166   5.039   2.797   0.087
 8089SOL    HW225167   5.149   2.818   6.990
 8090SOL     OW25168   3.801   2.711   6.917
 8090SOL    HW125169   3.704   2.686   6.919
 8090SOL    HW225170   3.834   2.708   6.823
 8091SOL     OW25171   2.524   4.140   6.189
 8091SOL    HW125172   2.525   4.116   6.092
 8091SOL    HW225173   2.555   4.062   6.243
 8092SOL     OW25174   0.220   2.681   5.547
 8092SOL    HW125175   0.163   2.749   5.501
 8092SOL    HW225176   0.162   2.609   5.586
 8093SOL     OW25177   4.985   5.757   2.848
 8093SOL    HW125178   4.931   5.804   2.917
 8093SOL    HW225179   5.015   5.668   2.883
 8094SOL     OW25180   1.403   3.949   4.949
 8094SOL    HW125181   1.482   3.915   4.897
 8094SOL    HW225182   1.432   3.972   5.042
 8095SOL     OW25183   6.234   3.879   4.574
 8095SOL    HW125184   6.321   3.901   4.618
 8095SOL    HW225185   6.222   3.936   4.493
 8096SOL     OW25186   2.971   5.584   3.948
 8096SOL    HW125187   3.026   5.668   3.951
 8096SOL    HW225188   2.980   5.536   4.035
 8097SOL     OW25189   4.879   6.449   3.473
 8097SOL    HW125190   4.913   6.540   3.447
 8097SOL    HW225191   4.780   6.453   3.486
 8098SOL     OW25192   2.305   6.303   3.783
 8098SOL    HW125193   2.213   6.290   3.819
 8098SOL    HW225194   2.358   6.219   3.797
 8099SOL     OW25195   4.475   6.738   3.983
 8099SOL    HW125196   4.455   6.644   4.011
 8099SOL    HW225197   4.446   6.752   3.889
 8100SOL     OW25198   6.472   0.127   0.186
 8100SOL    HW125199   6.455   0.214   0.140
 8100SOL    HW225200   6.444   0.133   0.282
 8101SOL     OW25201   1.861   0.012   3.972
 8101SOL    HW125202   1.772   7.021   4.017
 8101SOL    HW225203   1.912   6.947   3.975
 8102SOL     OW25204   0.493   4.667   4.368
 8102SOL    HW125205   0.474   4.765   4.372
 8102SOL    HW225206   0.433   4.618   4.431
 8103SOL     OW25207   4.529   0.465   0.964
 8103SOL    HW125208   4.608   0.405   0.976
 8103SOL    HW225209   4.496   0.496   1.053
 8104SOL     OW25210   2.679   6.738   5.956
 8104SOL    HW125211   2.627   6.708   5.876
 8104SOL    HW225212   2.700   6.835   5.947
 8105SOL     OW25213   1.204   2.507   3.605
 8105SOL    HW125214   1.298   2.492   3.572
 8105SOL    HW225215   1.145   2.434   3.571
 8106SOL     OW25216   2.528   5.940   2.984
 8106SOL    HW125217   2.432   5.911   2.986
 8106SOL    HW225218   2.559   5.944   2.889
 8107SOL     OW25219   0.402   5.439   5.045
 8107SOL    HW125220   0.359   5.436   4.954
 8107SOL    HW225221   0.381   5.527   5.088
 8108SOL     OW25222   6.160   3.606   4.935
 8108SOL    HW125223   6.244   3.633   4.888
 8108SOL    HW225224   6.084   3.606   4.870
 8109SOL     OW25225   1.268   3.683   4.489
 8109SOL    HW125226   1.366   3.693   4.506
 8109SOL    HW225227   1.222   3.769   4.509
 8110SOL     OW25228   3.024   6.342   0.924
 8110SOL    HW125229   3.095   6.292   0.874
 8110SOL    HW225230   3.010   6.431   0.880
 8111SOL     OW25231   4.063   0.816   5.180
 8111SOL    HW125232   4.059   0.718   5.160
 8111SOL    HW225233   4.102   0.830   5.271
 8112SOL     OW25234   2.131   1.879   4.493
 8112SOL    HW125235   2.188   1.961   4.490
 8112SOL    HW225236   2.070   1.878   4.415
 8113SOL     OW25237   3.247   3.192   1.048
 8113SOL    HW125238   3.150   3.210   1.065
 8113SOL    HW225239   3.257   3.142   0.962
 8114SOL     OW25240   2.373   3.870   1.313
 8114SOL    HW125241   2.460   3.903   1.277
 8114SOL    HW225242   2.390   3.797   1.379
 8115SOL     OW25243   4.174   0.443   1.221
 8115SOL    HW125244   4.142   0.352   1.192
 8115SOL    HW225245   4.270   0.454   1.193
 8116SOL     OW25246   4.387   6.804   4.807
 8116SOL    HW125247   4.406   6.713   4.845
 8116SOL    HW225248   4.304   6.800   4.751
 8117SOL     OW25249   1.567   0.843   3.630
 8117SOL    HW125250   1.615   0.872   3.547
 8117SOL    HW225251   1.634   0.821   3.701
 8118SOL     OW25252   6.267   2.898   5.331
 8118SOL    HW125253   6.174   2.934   5.333
 8118SOL    HW225254   6.265   2.801   5.310
 8119SOL     OW25255   6.269   5.761   5.482
 8119SOL    HW125256   6.278   5.673   5.528
 8119SOL    HW225257   6.343   5.822   5.512
 8120SOL     OW25258   3.624   4.453   0.126
 8120SOL    HW125259   3.525   4.458   0.120
 8120SOL    HW225260   3.658   4.380   0.067
 8121SOL     OW25261   0.077   5.891   1.879
 8121SOL    HW125262   0.143   5.832   1.926
 8121SOL    HW225263   0.112   5.915   1.789
 8122SOL     OW25264   1.469   5.704   2.594
 8122SOL    HW125265   1.526   5.634   2.551
 8122SOL    HW225266   1.527   5.779   2.626
 8123SOL     OW25267   7.006   0.409   0.082
 8123SOL    HW125268   0.013   0.415   7.008
 8123SOL    HW225269   0.048   0.462   0.139
 8124SOL     OW25270   6.934   6.398   0.382
 8124SOL    HW125271   7.005   6.459   0.417
 8124SOL    HW225272   6.905   6.336   0.454
 8125SOL     OW25273   1.574   0.392   3.176
 8125SOL    HW125274   1.557   0.321   3.107
 8125SOL    HW225275   1.665   0.378   3.215
 8126SOL     OW25276   5.914   4.493   2.250
 8126SOL    HW125277   5.930   4.587   2.220
 8126SOL    HW225278   5.835   4.490   2.311
 8127SOL     OW25279   3.222   5.634   0.162
 8127SOL    HW125280   3.186   5.540   0.162
 8127SOL    HW225281   3.191   5.682   0.244
 8128SOL     OW25282   3.304   2.997   1.235
 8128SOL    HW125283   3.295   3.056   1.155
 8128SOL    HW225284   3.390   2.947   1.230
 8129SOL     OW25285   4.232   0.788   5.898
 8129SOL    HW125286   4.182   0.714   5.943
 8129SOL    HW225287   4.278   0.753   5.816
 8130SOL     OW25288   0.198   4.615   6.494
 8130SOL    HW125289   0.164   4.533   6.447
 8130SOL    HW225290   0.273   4.590   6.555
 8131SOL     OW25291   3.560   0.919   0.857
 8131SOL    HW125292   3.476   0.864   0.860
 8131SOL    HW225293   3.618   0.887   0.783
 8132SOL     OW25294   5.254   5.781   6.313
 8132SOL    HW125295   5.343   5.755   6.352
 8132SOL    HW225296   5.184   5.776   6.384
 8133SOL     OW25297   3.326   5.063   1.597
 8133SOL    HW125298   3.371   5.033   1.681
 8133SOL    HW225299   3.346   4.998   1.524
 8134SOL     OW25300   1.031   1.945   4.721
 8134SOL    HW125301   0.932   1.933   4.730
 8134SOL    HW225302   1.054   2.041   4.736
 8135SOL     OW25303   1.946   6.067   0.936
 8135SOL    HW125304   2.035   6.083   0.895
 8135SOL    HW225305   1.922   6.144   0.995
 8136SOL     OW25306   4.958   4.737   2.900
 8136SOL    HW125307   4.896   4.671   2.941
 8136SOL    HW225308   4.962   4.819   2.957
 8137SOL     OW25309   2.875   1.433   4.152
 8137SOL    HW125310   2.799   1.409   4.091
 8137SOL    HW225311   2.891   1.358   4.216
 8138SOL     OW25312   5.878   2.383   0.431
 8138SOL    HW125313   5.779   2.371   0.421
 8138SOL    HW225314   5.925   2.300   0.400
 8139SOL     OW25315   1.846   1.946   4.049
 8139SOL    HW125316   1.914   1.945   3.975
 8139SOL    HW225317   1.889   1.916   4.134
 8140SOL     OW25318   4.292   6.827   6.915
 8140SOL    HW125319   4.210   6.833   6.972
 8140SOL    HW225320   4.299   6.910   6.859
 8141SOL     OW25321   3.981   6.721   5.426
 8141SOL    HW125322   3.930   6.746   5.508
 8141SOL    HW225323   4.050   6.651   5.448
 8142SOL     OW25324   2.041   5.131   0.250
 8142SOL    HW125325   2.074   5.067   0.319
 8142SOL    HW225326   2.001   5.211   0.295
 8143SOL     OW25327   5.566   5.184   0.164
 8143SOL    HW125328   5.494   5.151   0.225
 8143SOL    HW225329   5.631   5.111   0.146
 8144SOL     OW25330   0.578   6.178   5.765
 8144SOL    HW125331   0.604   6.088   5.731
 8144SOL    HW225332   0.560   6.173   5.864
 8145SOL     OW25333   5.681   5.541   0.604
 8145SOL    HW125334   5.655   5.578   0.515
 8145SOL    HW225335   5.619   5.466   0.628
 8146SOL     OW25336   5.153   6.966   5.064
 8146SOL    HW125337   5.209   6.990   4.985
 8146SOL    HW225338   5.182   6.877   5.100
 8147SOL     OW25339   6.311   0.784   1.138
 8147SOL    HW125340   6.390   0.784   1.200
 8147SOL    HW225341   6.342   0.761   1.045
 8148SOL     OW25342   5.256   4.953   0.183
 8148SOL    HW125343   5.243   5.039   0.133
 8148SOL    HW225344   5.172   4.931   0.233
 8149SOL     OW25345   1.315   6.682   3.361
 8149SOL    HW125346   1.394   6.665   3.419
 8149SOL    HW225347   1.279   6.595   3.327
 8150SOL     OW25348   1.718   4.336   0.944
 8150SOL    HW125349   1.740   4.404   0.874
 8150SOL    HW225350   1.630   4.359   0.985
 8151SOL     OW25351   6.117   5.327   3.340
 8151SOL    HW125352   6.207   5.362   3.367
 8151SOL    HW225353   6.053   5.338   3.416
 8152SOL     OW25354   6.191   3.281   3.116
 8152SOL    HW125355   6.221   3.322   3.030
 8152SOL    HW225356   6.234   3.191   3.127
 8153SOL     OW25357   1.322   1.484   3.924
 8153SOL    HW125358   1.279   1.444   3.843
 8153SOL    HW225359   1.400   1.539   3.896
 8154SOL     OW25360   3.696   6.143   2.620
 8154SOL    HW125361   3.630   6.168   2.549
 8154SOL    HW225362   3.740   6.225   2.656
 8155SOL     OW25363   1.467   3.784   2.035
 8155SOL    HW125364   1.537   3.721   2.069
 8155SOL    HW225365   1.499   3.826   1.950
 8156SOL     OW25366   4.290   6.168   0.697
 8156SOL    HW125367   4.191   6.161   0.684
 8156SOL    HW225368   4.319   6.262   0.686
 8157SOL     OW25369   6.250   4.124   6.454
 8157SOL    HW125370   6.159   4.161   6.473
 8157SOL    HW225371   6.254   4.029   6.486
 8158SOL     OW25372   5.014   3.737   0.181
 8158SOL    HW125373   5.111   3.714   0.172
 8158SOL    HW225374   4.959   3.672   0.129
 8159SOL     OW25375   2.402   5.317   3.571
 8159SOL    HW125376   2.397   5.370   3.486
 8159SOL    HW225377   2.474   5.248   3.562
 8160SOL     OW25378   5.103   0.479   4.069
 8160SOL    HW125379   5.018   0.435   4.040
 8160SOL    HW225380   5.113   0.567   4.022
 8161SOL     OW25381   5.823   2.829   5.987
 8161SOL    HW125382   5.788   2.873   6.070
 8161SOL    HW225383   5.828   2.895   5.913
 8162SOL     OW25384   6.515   6.416   6.941
 8162SOL    HW125385   6.439   6.414   6.877
 8162SOL    HW225386   6.485   6.454   0.007
 8163SOL     OW25387   2.258   4.681   5.369
 8163SOL    HW125388   2.347   4.637   5.362
 8163SOL    HW225389   2.237   4.727   5.283
 8164SOL     OW25390   4.785   1.763   0.647
 8164SOL    HW125391   4.711   1.720   0.698
 8164SOL    HW225392   4.767   1.756   0.549
 8165SOL     OW25393   7.011   3.794   5.645
 8165SOL    HW125394   6.924   3.830   5.680
 8165SOL    HW225395   0.008   3.705   5.686
 8166SOL     OW25396   1.390   0.466   3.462
 8166SOL    HW125397   1.417   0.372   3.440
 8166SOL    HW225398   1.299   0.465   3.504
 8167SOL     OW25399   0.135   1.098   3.630
 8167SOL    HW125400   0.219   1.115   3.681
 8167SOL    HW225401   0.073   1.175   3.640
 8168SOL     OW25402   2.606   1.091   1.734
 8168SOL    HW125403   2.527   1.033   1.750
 8168SOL    HW225404   2.689   1.043   1.762
 8169SOL     OW25405   4.782   2.248   0.282
 8169SOL    HW125406   4.869   2.226   0.238
 8169SOL    HW225407   4.800   2.304   0.364
 8170SOL     OW25408   1.578   5.500   1.761
 8170SOL    HW125409   1.509   5.561   1.722
 8170SOL    HW225410   1.665   5.512   1.713
 8171SOL     OW25411   1.527   1.667   6.955
 8171SOL    HW125412   1.525   1.760   6.918
 8171SOL    HW225413   1.566   1.668   0.026
 8172SOL     OW25414   6.991   1.957   2.388
 8172SOL    HW125415   7.016   1.870   2.432
 8172SOL    HW225416   6.969   2.025   2.459
 8173SOL     OW25417   5.621   2.173   2.003
 8173SOL    HW125418   5.585   2.111   2.073
 8173SOL    HW225419   5.546   2.215   1.953
 8174SOL     OW25420   6.867   0.238   2.316
 8174SOL    HW125421   6.797   0.308   2.301
 8174SOL    HW225422   6.952   0.266   2.273
 8175SOL     OW25423   0.167   3.517   5.427
 8175SOL    HW125424   0.086   3.508   5.485
 8175SOL    HW225425   0.189   3.613   5.415
 8176SOL     OW25426   2.650   5.024   1.542
 8176SOL    HW125427   2.706   5.067   1.613
 8176SOL    HW225428   2.708   4.971   1.481
 8177SOL     OW25429   4.228   0.164   4.037
 8177SOL    HW125430   4.175   0.203   3.962
 8177SOL    HW225431   4.221   0.223   4.118
 8178SOL     OW25432   3.280   6.778   0.536
 8178SOL    HW125433   3.373   6.759   0.504
 8178SOL    HW225434   3.282   6.800   0.633
 8179SOL     OW25435   5.017   1.233   4.653
 8179SOL    HW125436   5.044   1.152   4.704
 8179SOL    HW225437   5.093   1.298   4.650
 8180SOL     OW25438   6.090   0.968   5.712
 8180SOL    HW125439   6.100   0.884   5.659
 8180SOL    HW225440   6.170   0.981   5.769
 8181SOL     OW25441   1.135   1.603   0.508
 8181SOL    HW125442   1.134   1.696   0.472
 8181SOL    HW225443   1.062   1.550   0.465
 8182SOL     OW25444   3.009   3.282   5.817
 8182SOL    HW125445   3.067   3.202   5.830
 8182SOL    HW225446   3.066   3.363   5.805
 8183SOL     OW25447   6.600   2.339   4.864
 8183SOL    HW125448   6.523   2.382   4.911
 8183SOL    HW225449   6.685   2.367   4.908
 8184SOL     OW25450   0.077   0.070   0.635
 8184SOL    HW125451   0.132   0.147   0.600
 8184SOL    HW225452   0.101   7.009   0.585
 8185SOL     OW25453   1.826   0.463   6.852
 8185SOL    HW125454   1.744   0.419   6.888
 8185SOL    HW225455   1.888   0.394   6.816
 8186SOL     OW25456   3.438   4.741   5.268
 8186SOL    HW125457   3.396   4.796   5.196
 8186SOL    HW225458   3.474   4.800   5.340
 8187SOL     OW25459   2.196   1.409   4.955
 8187SOL    HW125460   2.281   1.415   4.902
 8187SOL    HW225461   2.154   1.319   4.939
 8188SOL     OW25462   4.886   3.486   3.492
 8188SOL    HW125463   4.953   3.530   3.552
 8188SOL    HW225464   4.794   3.507   3.526
 8189SOL     OW25465   5.271   5.413   2.935
 8189SOL    HW125466   5.269   5.342   3.006
 8189SOL    HW225467   5.350   5.472   2.950
 8190SOL     OW25468   4.864   3.979   4.451
 8190SOL    HW125469   4.856   3.880   4.462
 8190SOL    HW225470   4.833   4.005   4.359
 8191SOL     OW25471   3.860   6.044   1.691
 8191SOL    HW125472   3.841   6.085   1.601
 8191SOL    HW225473   3.798   5.967   1.706
 8192SOL     OW25474   3.124   5.335   1.220
 8192SOL    HW125475   3.180   5.286   1.286
 8192SOL    HW225476   3.077   5.410   1.266
 8193SOL     OW25477   5.900   5.534   6.041
 8193SOL    HW125478   5.846   5.600   6.093
 8193SOL    HW225479   5.878   5.541   5.944
 8194SOL     OW25480   4.649   1.493   0.831
 8194SOL    HW125481   4.644   1.528   0.925
 8194SOL    HW225482   4.745   1.474   0.809
 8195SOL     OW25483   0.688   6.751   3.185
 8195SOL    HW125484   0.648   6.842   3.191
 8195SOL    HW225485   0.616   6.684   3.164
 8196SOL     OW25486   4.228   5.840   6.644
 8196SOL    HW125487   4.174   5.865   6.725
 8196SOL    HW225488   4.252   5.743   6.649
 8197SOL     OW25489   4.009   1.407   0.571
 8197SOL    HW125490   3.933   1.343   0.579
 8197SOL    HW225491   4.090   1.370   0.617
 8198SOL     OW25492   3.199   6.304   2.937
 8198SOL    HW125493   3.175   6.209   2.915
 8198SOL    HW225494   3.294   6.322   2.909
 8199SOL     OW25495   5.818   2.389   6.242
 8199SOL    HW125496   5.893   2.415   6.302
 8199SOL    HW225497   5.847   2.310   6.187
 8200SOL     OW25498   5.740   5.090   2.005
 8200SOL    HW125499   5.717   5.037   1.923
 8200SOL    HW225500   5.839   5.090   2.017
 8201SOL     OW25501   5.510   0.739   4.101
 8201SOL    HW125502   5.475   0.775   4.187
 8201SOL    HW225503   5.568   0.660   4.118
 8202SOL     OW25504   0.045   5.767   3.965
 8202SOL    HW125505   0.048   5.693   4.033
 8202SOL    HW225506   0.069   5.854   4.009
 8203SOL     OW25507   3.203   2.106   0.070
 8203SOL    HW125508   3.201   2.204   0.091
 8203SOL    HW225509   3.133   2.085   0.002
 8204SOL     OW25510   3.334   4.977   0.001
 8204SOL    HW125511   3.362   5.048   6.958
 8204SOL    HW225512   3.278   4.909   6.974
 8205SOL     OW25513   0.319   4.548   0.439
 8205SOL    HW125514   0.373   4.562   0.523
 8205SOL    HW225515   0.232   4.597   0.447
 8206SOL     OW25516   5.042   1.791   6.554
 8206SOL    HW125517   5.135   1.772   6.585
 8206SOL    HW225518   5.032   1.888   6.534
 8207SOL     OW25519   2.891   3.498   4.357
 8207SOL    HW125520   2.990   3.487   4.351
 8207SOL    HW225521   2.846   3.409   4.346
 8208SOL     OW25522   1.304   0.130   1.553
 8208SOL    HW125523   1.206   0.145   1.541
 8208SOL    HW225524   1.347   0.115   1.464
 8209SOL     OW25525   0.743   1.284   4.757
 8209SOL    HW125526   0.823   1.260   4.812
 8209SOL    HW225527   0.767   1.281   4.660
 8210SOL     OW25528   1.834   0.945   1.380
 8210SOL    HW125529   1.903   0.991   1.324
 8210SOL    HW225530   1.752   0.929   1.325
 8211SOL     OW25531   3.832   4.360   1.663
 8211SOL    HW125532   3.789   4.300   1.730
 8211SOL    HW225533   3.778   4.443   1.652
 8212SOL     OW25534   2.307   2.284   1.997
 8212SOL    HW125535   2.365   2.206   1.974
 8212SOL    HW225536   2.297   2.343   1.917
 8213SOL     OW25537   6.647   4.368   2.088
 8213SOL    HW125538   6.554   4.332   2.085
 8213SOL    HW225539   6.648   4.453   2.142
 8214SOL     OW25540   5.663   5.656   4.401
 8214SOL    HW125541   5.760   5.659   4.378
 8214SOL    HW225542   5.621   5.577   4.357
 8215SOL     OW25543   2.638   5.230   5.785
 8215SOL    HW125544   2.591   5.214   5.872
 8215SOL    HW225545   2.643   5.329   5.769
 8216SOL     OW25546   5.569   5.066   3.971
 8216SOL    HW125547   5.498   5.014   3.924
 8216SOL    HW225548   5.585   5.152   3.921
 8217SOL     OW25549   1.915   3.882   0.540
 8217SOL    HW125550   1.989   3.839   0.489
 8217SOL    HW225551   1.888   3.822   0.616
 8218SOL     OW25552   7.004   6.848   5.680
 8218SOL    HW125553   0.070   6.805   5.658
 8218SOL    HW225554   6.979   6.825   5.774
 8219SOL     OW25555   4.336   2.880   0.502
 8219SOL    HW125556   4.277   2.800   0.490
 8219SOL    HW225557   4.351   2.896   0.600
 8220SOL     OW25558   3.200   3.025   3.792
 8220SOL    HW125559   3.183   3.012   3.890
 8220SOL    HW225560   3.135   3.091   3.755
 8221SOL     OW25561   5.926   6.829   3.903
 8221SOL    HW125562   5.894   6.866   3.991
 8221SOL    HW225563   5.937   6.730   3.911
 8222SOL     OW25564   6.160   1.511   1.238
 8222SOL    HW125565   6.088   1.442   1.247
 8222SOL    HW225566   6.233   1.492   1.303
 8223SOL     OW25567   0.431   4.671   5.236
 8223SOL    HW125568   0.378   4.701   5.316
 8223SOL    HW225569   0.440   4.572   5.237
 8224SOL     OW25570   5.805   1.103   2.272
 8224SOL    HW125571   5.770   1.192   2.299
 8224SOL    HW225572   5.774   1.033   2.337
 8225SOL     OW25573   3.049   1.586   1.048
 8225SOL    HW125574   2.990   1.666   1.038
 8225SOL    HW225575   3.008   1.508   1.000
 8226SOL     OW25576   4.030   0.401   0.525
 8226SOL    HW125577   4.102   0.461   0.557
 8226SOL    HW225578   4.003   0.427   0.432
 8227SOL     OW25579   6.762   0.914   2.667
 8227SOL    HW125580   6.822   0.871   2.599
 8227SOL    HW225581   6.809   0.992   2.708
 8228SOL     OW25582   6.885   1.731   5.710
 8228SOL    HW125583   6.856   1.648   5.662
 8228SOL    HW225584   6.971   1.712   5.759
 8229SOL     OW25585   4.910   2.774   0.596
 8229SOL    HW125586   4.845   2.700   0.612
 8229SOL    HW225587   4.998   2.752   0.639
 8230SOL     OW25588   3.531   6.963   5.232
 8230SOL    HW125589   3.500   0.037   5.234
 8230SOL    HW225590   3.605   6.951   5.299
 8231SOL     OW25591   3.108   4.046   0.814
 8231SOL    HW125592   3.037   3.977   0.819
 8231SOL    HW225593   3.198   4.003   0.826
 8232SOL     OW25594   4.750   1.423   1.550
 8232SOL    HW125595   4.823   1.393   1.490
 8232SOL    HW225596   4.704   1.502   1.509
 8233SOL     OW25597   1.257   6.182   6.201
 8233SOL    HW125598   1.184   6.153   6.262
 8233SOL    HW225599   1.219   6.202   6.110
 8234SOL     OW25600   2.809   3.968   6.666
 8234SOL    HW125601   2.733   3.907   6.686
 8234SOL    HW225602   2.836   3.957   6.570
 8235SOL     OW25603   0.243   2.749   0.015
 8235SOL    HW125604   0.252   2.839   0.058
 8235SOL    HW225605   0.273   2.679   0.078
 8236SOL     OW25606   0.443   4.626   0.658
 8236SOL    HW125607   0.490   4.706   0.697
 8236SOL    HW225608   0.384   4.586   0.728
 8237SOL     OW25609   4.210   6.341   4.755
 8237SOL    HW125610   4.112   6.323   4.763
 8237SOL    HW225611   4.261   6.265   4.795
 8238SOL     OW25612   0.635   5.587   6.289
 8238SOL    HW125613   0.717   5.599   6.232
 8238SOL    HW225614   0.663   5.560   6.382
 8239SOL     OW25615   6.784   0.703   5.873
 8239SOL    HW125616   6.793   0.800   5.897
 8239SOL    HW225617   6.853   0.650   5.921
 8240SOL     OW25618   3.135   4.054   2.189
 8240SOL    HW125619   3.082   3.992   2.246
 8240SOL    HW225620   3.093   4.144   2.188
 8241SOL     OW25621   3.667   6.269   5.787
 8241SOL    HW125622   3.600   6.320   5.841
 8241SOL    HW225623   3.752   6.321   5.782
 8242SOL     OW25624   0.563   4.602   6.440
 8242SOL    HW125625   0.516   4.516   6.460
 8242SOL    HW225626   0.529   4.639   6.354
 8243SOL     OW25627   0.175   2.693   0.411
 8243SOL    HW125628   0.189   2.709   0.509
 8243SOL    HW225629   0.229   2.615   0.382
 8244SOL     OW25630   0.226   0.796   4.452
 8244SOL    HW125631   0.309   0.779   4.505
 8244SOL    HW225632   0.246   0.860   4.378
 8245SOL     OW25633   4.260   1.870   1.993
 8245SOL    HW125634   4.268   1.907   2.085
 8245SOL    HW225635   4.173   1.900   1.953
 8246SOL     OW25636   1.340   3.227   6.008
 8246SOL    HW125637   1.262   3.246   6.066
 8246SOL    HW225638   1.322   3.261   5.916
 8247SOL     OW25639   1.815   0.455   2.662
 8247SOL    HW125640   1.801   0.452   2.563
 8247SOL    HW225641   1.904   0.497   2.682
 8248SOL     OW25642   6.576   5.527   4.832
 8248SOL    HW125643   6.667   5.562   4.809
 8248SOL    HW225644   6.577   5.488   4.924
 8249SOL     OW25645   1.897   2.466   5.850
 8249SOL    HW125646   1.852   2.536   5.906
 8249SOL    HW225647   1.898   2.379   5.898
 8250SOL     OW25648   3.248   3.935   1.570
 8250SOL    HW125649   3.251   3.996   1.490
 8250SOL    HW225650   3.318   3.865   1.560
 8251SOL     OW25651   5.133   3.321   4.375
 8251SOL    HW125652   5.067   3.271   4.319
 8251SOL    HW225653   5.150   3.411   4.333
 8252SOL     OW25654   3.116   1.642   5.304
 8252SOL    HW125655   3.038   1.703   5.320
 8252SOL    HW225656   3.178   1.646   5.382
 8253SOL     OW25657   4.263   5.402   5.721
 8253SOL    HW125658   4.352   5.409   5.675
 8253SOL    HW225659   4.202   5.344   5.667
 8254SOL     OW25660   4.603   4.434   5.146
 8254SOL    HW125661   4.628   4.377   5.069
 8254SOL    HW225662   4.609   4.380   5.231
 8255SOL     OW25663   1.841   0.181   5.277
 8255SOL    HW125664   1.750   0.183   5.317
 8255SOL    HW225665   1.839   0.129   5.192
 8256SOL     OW25666   6.526   6.407   1.685
 8256SOL    HW125667   6.591   6.412   1.761
 8256SOL    HW225668   6.520   6.496   1.640
 8257SOL     OW25669   5.463   4.575   2.973
 8257SOL    HW125670   5.483   4.479   2.991
 8257SOL    HW225671   5.365   4.591   2.990
 8258SOL     OW25672   5.491   2.134   0.828
 8258SOL    HW125673   5.591   2.141   0.826
 8258SOL    HW225674   5.452   2.199   0.763
 8259SOL     OW25675   3.720   1.688   4.341
 8259SOL    HW125676   3.622   1.672   4.329
 8259SOL    HW225677   3.771   1.605   4.317
 8260SOL     OW25678   2.228   6.881   0.677
 8260SOL    HW125679   2.151   6.924   0.629
 8260SOL    HW225680   2.214   6.782   0.680
 8261SOL     OW25681   6.220   6.683   1.669
 8261SOL    HW125682   6.279   6.723   1.739
 8261SOL    HW225683   6.145   6.745   1.648
 8262SOL     OW25684   1.069   2.831   0.257
 8262SOL    HW125685   1.032   2.800   0.344
 8262SOL    HW225686   0.996   2.869   0.201
 8263SOL     OW25687   0.366   2.750   6.210
 8263SOL    HW125688   0.448   2.732   6.263
 8263SOL    HW225689   0.305   2.810   6.262
 8264SOL     OW25690   2.212   6.187   2.215
 8264SOL    HW125691   2.160   6.105   2.240
 8264SOL    HW225692   2.168   6.267   2.256
 8265SOL     OW25693   6.517   1.228   1.026
 8265SOL    HW125694   6.472   1.315   1.048
 8265SOL    HW225695   6.471   1.187   0.947
 8266SOL     OW25696   2.205   1.424   3.735
 8266SOL    HW125697   2.266   1.433   3.656
 8266SOL    HW225698   2.178   1.515   3.766
 8267SOL     OW25699   2.034   3.450   1.113
 8267SOL    HW125700   2.096   3.528   1.111
 8267SOL    HW225701   1.950   3.475   1.162
 8268SOL     OW25702   1.894   6.563   5.882
 8268SOL    HW125703   1.975   6.560   5.823
 8268SOL    HW225704   1.914   6.619   5.963
 8269SOL     OW25705   4.567   1.072   2.121
 8269SOL    HW125706   4.557   1.147   2.187
 8269SOL    HW225707   4.523   0.990   2.158
 8270SOL     OW25708   2.947   6.276   5.181
 8270SOL    HW125709   2.911   6.324   5.261
 8270SOL    HW225710   3.038   6.240   5.202
 8271SOL     OW25711   0.231   0.319   4.032
 8271SOL    HW125712   0.305   0.373   3.992
 8271SOL    HW225713   0.177   0.276   3.959
 8272SOL     OW25714   6.354   2.130   2.785
 8272SOL    HW125715   6.365   2.216   2.734
 8272SOL    HW225716   6.353   2.150   2.883
 8273SOL     OW25717   2.737   1.035   0.742
 8273SOL    HW125718   2.661   1.071   0.796
 8273SOL    HW225719   2.720   0.938   0.722
 8274SOL     OW25720   4.520   4.784   4.035
 8274SOL    HW125721   4.530   4.829   4.124
 8274SOL    HW225722   4.428   4.746   4.028
 8275SOL     OW25723   5.812   1.144   4.956
 8275SOL    HW125724   5.793   1.124   4.860
 8275SOL    HW225725   5.907   1.175   4.966
 8276SOL     OW25726   0.920   2.539   4.245
 8276SOL    HW125727   0.921   2.632   4.281
 8276SOL    HW225728   0.830   2.498   4.258
 8277SOL     OW25729   0.448   5.949   6.697
 8277SOL    HW125730   0.493   5.930   6.784
 8277SOL    HW225731   0.490   6.028   6.654
 8278SOL     OW25732   3.236   1.416   6.458
 8278SOL    HW125733   3.168   1.447   6.393
 8278SOL    HW225734   3.288   1.340   6.418
 8279SOL     OW25735   1.051   6.244   4.697
 8279SOL    HW125736   1.093   6.294   4.621
 8279SOL    HW225737   1.084   6.281   4.783
 8280SOL     OW25738   2.090   3.114   0.224
 8280SOL    HW125739   2.081   3.186   0.155
 8280SOL    HW225740   2.072   3.026   0.182
 8281SOL     OW25741   2.820   4.304   1.645
 8281SOL    HW125742   2.911   4.272   1.619
 8281SOL    HW225743   2.827   4.370   1.721
 8282SOL     OW25744   4.905   3.532   0.042
 8282SOL    HW125745   4.824   3.477   0.064
 8282SOL    HW225746   4.988   3.480   0.061
 8283SOL     OW25747   1.692   5.293   5.532
 8283SOL    HW125748   1.698   5.214   5.592
 8283SOL    HW225749   1.740   5.370   5.574
 8284SOL     OW25750   1.051   3.669   1.686
 8284SOL    HW125751   1.133   3.709   1.727
 8284SOL    HW225752   1.053   3.570   1.696
 8285SOL     OW25753   3.175   3.994   5.263
 8285SOL    HW125754   3.167   4.094   5.263
 8285SOL    HW225755   3.084   3.953   5.279
 8286SOL     OW25756   5.404   1.766   5.551
 8286SOL    HW125757   5.489   1.793   5.597
 8286SOL    HW225758   5.409   1.790   5.455
 8287SOL     OW25759   1.270   5.038   4.255
 8287SOL    HW125760   1.315   5.108   4.199
 8287SOL    HW225761   1.292   4.947   4.221
 8288SOL     OW25762   3.119   2.130   2.055
 8288SOL    HW125763   3.168   2.133   2.143
 8288SOL    HW225764   3.038   2.189   2.060
 8289SOL     OW25765   0.829   6.114   0.120
 8289SOL    HW125766   0.808   6.023   0.084
 8289SOL    HW225767   0.928   6.123   0.132
 8290SOL     OW25768   4.925   1.525   0.827
 8290SOL    HW125769   4.964   1.611   0.794
 8290SOL    HW225770   4.984   1.449   0.801
 8291SOL     OW25771   4.551   6.101   4.724
 8291SOL    HW125772   4.617   6.174   4.740
 8291SOL    HW225773   4.481   6.103   4.795
 8292SOL     OW25774   3.132   6.875   6.892
 8292SOL    HW125775   3.194   6.796   6.883
 8292SOL    HW225776   3.156   6.925   6.975
 8293SOL     OW25777   2.524   5.743   0.502
 8293SOL    HW125778   2.453   5.691   0.549
 8293SOL    HW225779   2.546   5.698   0.416
 8294SOL     OW25780   5.735   3.863   5.323
 8294SOL    HW125781   5.807   3.857   5.392
 8294SOL    HW225782   5.672   3.786   5.333
 8295SOL     OW25783   5.018   5.291   1.743
 8295SOL    HW125784   5.003   5.235   1.824
 8295SOL    HW225785   5.095   5.353   1.760
 8296SOL     OW25786   1.861   4.567   6.606
 8296SOL    HW125787   1.798   4.495   6.580
 8296SOL    HW225788   1.936   4.573   6.540
 8297SOL     OW25789   0.142   3.201   2.866
 8297SOL    HW125790   0.080   3.266   2.823
 8297SOL    HW225791   0.121   3.195   2.964
 8298SOL     OW25792   6.196   1.505   0.962
 8298SOL    HW125793   6.137   1.519   1.042
 8298SOL    HW225794   6.156   1.434   0.904
 8299SOL     OW25795   0.746   2.618   2.305
 8299SOL    HW125796   0.675   2.623   2.375
 8299SOL    HW225797   0.799   2.534   2.318
 8300SOL     OW25798   0.095   5.608   4.203
 8300SOL    HW125799   0.013   5.639   4.250
 8300SOL    HW225800   0.175   5.657   4.239
 8301SOL     OW25801   3.905   1.570   0.852
 8301SOL    HW125802   3.902   1.633   0.773
 8301SOL    HW225803   3.917   1.477   0.819
 8302SOL     OW25804   5.484   6.835   6.735
 8302SOL    HW125805   5.565   6.796   6.692
 8302SOL    HW225806   5.511   6.900   6.806
 8303SOL     OW25807   6.052   0.683   3.668
 8303SOL    HW125808   6.144   0.721   3.664
 8303SOL    HW225809   5.986   0.758   3.677
 8304SOL     OW25810   6.289   3.278   1.367
 8304SOL    HW125811   6.212   3.225   1.402
 8304SOL    HW225812   6.285   3.280   1.267
 8305SOL     OW25813   4.669   4.830   3.797
 8305SOL    HW125814   4.684   4.761   3.725
 8305SOL    HW225815   4.609   4.792   3.868
 8306SOL     OW25816   5.212   1.236   5.239
 8306SOL    HW125817   5.153   1.165   5.279
 8306SOL    HW225818   5.298   1.240   5.290
 8307SOL     OW25819   3.544   5.240   1.429
 8307SOL    HW125820   3.457   5.210   1.389
 8307SOL    HW225821   3.578   5.169   1.491
 8308SOL     OW25822   2.983   5.619   1.287
 8308SOL    HW125823   2.906   5.558   1.301
 8308SOL    HW225824   2.951   5.702   1.241
 8309SOL     OW25825   6.574   5.719   4.016
 8309SOL    HW125826   6.584   5.694   4.112
 8309SOL    HW225827   6.658   5.763   3.984
 8310SOL     OW25828   0.467   5.391   1.189
 8310SOL    HW125829   0.415   5.317   1.144
 8310SOL    HW225830   0.512   5.446   1.119
 8311SOL     OW25831   1.006   2.245   5.013
 8311SOL    HW125832   1.051   2.197   4.937
 8311SOL    HW225833   1.004   2.185   5.093
 8312SOL     OW25834   5.018   0.278   6.913
 8312SOL    HW125835   4.932   0.240   6.878
 8312SOL    HW225836   5.001   0.369   6.951
 8313SOL     OW25837   5.218   6.843   0.440
 8313SOL    HW125838   5.212   6.752   0.399
 8313SOL    HW225839   5.279   6.900   0.385
 8314SOL     OW25840   4.781   0.521   6.825
 8314SOL    HW125841   4.725   0.446   6.859
 8314SOL    HW225842   4.802   0.585   6.900
 8315SOL     OW25843   4.815   3.077   0.928
 8315SOL    HW125844   4.874   3.109   0.854
 8315SOL    HW225845   4.722   3.109   0.913
 8316SOL     OW25846   1.384   2.217   1.747
 8316SOL    HW125847   1.404   2.139   1.688
 8316SOL    HW225848   1.286   2.238   1.744
 8317SOL     OW25849   1.664   2.870   2.370
 8317SOL    HW125850   1.594   2.873   2.440
 8317SOL    HW225851   1.623   2.888   2.280
 8318SOL     OW25852   4.176   1.677   5.914
 8318SOL    HW125853   4.174   1.581   5.942
 8318SOL    HW225854   4.162   1.736   5.994
 8319SOL     OW25855   1.452   1.841   0.819
 8319SOL    HW125856   1.499   1.879   0.898
 8319SOL    HW225857   1.362   1.806   0.847
 8320SOL     OW25858   3.161   3.472   2.432
 8320SOL    HW125859   3.082   3.412   2.447
 8320SOL    HW225860   3.242   3.429   2.471
 8321SOL     OW25861   0.061   0.280   6.470
 8321SOL    HW125862   0.157   0.263   6.449
 8321SOL    HW225863   0.009   0.195   6.459
 8322SOL     OW25864   6.676   0.431   1.085
 8322SOL    HW125865   6.594   0.379   1.059
 8322SOL    HW225866   6.743   0.427   1.012
 8323SOL     OW25867   5.527   5.823   2.095
 8323SOL    HW125868   5.485   5.912   2.076
 8323SOL    HW225869   5.487   5.784   2.177
 8324SOL     OW25870   5.870   6.557   1.240
 8324SOL    HW125871   5.852   6.585   1.334
 8324SOL    HW225872   5.813   6.478   1.218
 8325SOL     OW25873   2.015   3.839   5.234
 8325SOL    HW125874   2.020   3.757   5.291
 8325SOL    HW225875   2.067   3.825   5.150
 8326SOL     OW25876   5.174   3.154   5.787
 8326SOL    HW125877   5.119   3.227   5.748
 8326SOL    HW225878   5.136   3.065   5.759
 8327SOL     OW25879   6.579   0.615   5.717
 8327SOL    HW125880   6.525   0.693   5.686
 8327SOL    HW225881   6.636   0.642   5.795
 8328SOL     OW25882   2.992   6.378   6.146
 8328SOL    HW125883   3.023   6.357   6.053
 8328SOL    HW225884   2.894   6.399   6.144
 8329SOL     OW25885   1.444   2.964   6.017
 8329SOL    HW125886   1.540   2.991   6.013
 8329SOL    HW225887   1.388   3.043   6.044
 8330SOL     OW25888   2.694   1.267   6.724
 8330SOL    HW125889   2.638   1.220   6.792
 8330SOL    HW225890   2.764   1.322   6.770
 8331SOL     OW25891   3.243   0.838   1.356
 8331SOL    HW125892   3.178   0.841   1.280
 8331SOL    HW225893   3.257   0.930   1.392
 8332SOL     OW25894   5.131   5.542   2.451
 8332SOL    HW125895   5.062   5.604   2.490
 8332SOL    HW225896   5.157   5.574   2.360
 8333SOL     OW25897   0.176   5.730   6.099
 8333SOL    HW125898   0.246   5.684   6.153
 8333SOL    HW225899   0.102   5.760   6.158
 8334SOL     OW25900   3.826   1.196   4.069
 8334SOL    HW125901   3.862   1.114   4.025
 8334SOL    HW225902   3.763   1.242   4.006
 8335SOL     OW25903   5.080   0.204   0.174
 8335SOL    HW125904   5.139   0.276   0.212
 8335SOL    HW225905   5.058   0.226   0.079
 8336SOL     OW25906   0.402   4.748   3.077
 8336SOL    HW125907   0.491   4.772   3.036
 8336SOL    HW225908   0.395   4.648   3.085
 8337SOL     OW25909   2.082   6.695   2.938
 8337SOL    HW125910   2.117   6.623   2.998
 8337SOL    HW225911   2.000   6.735   2.979
 8338SOL     OW25912   3.788   5.328   1.997
 8338SOL    HW125913   3.752   5.288   2.081
 8338SOL    HW225914   3.747   5.283   1.918
 8339SOL     OW25915   6.402   0.316   1.843
 8339SOL    HW125916   6.449   0.298   1.757
 8339SOL    HW225917   6.465   0.360   1.907
 8340SOL     OW25918   4.763   3.118   0.398
 8340SOL    HW125919   4.836   3.086   0.459
 8340SOL    HW225920   4.690   3.050   0.395
 8341SOL     OW25921   3.173   6.791   0.302
 8341SOL    HW125922   3.107   6.866   0.305
 8341SOL    HW225923   3.219   6.784   0.391
 8342SOL     OW25924   4.309   6.495   0.835
 8342SOL    HW125925   4.321   6.473   0.931
 8342SOL    HW225926   4.222   6.542   0.821
 8343SOL     OW25927   1.163   5.407   4.885
 8343SOL    HW125928   1.208   5.463   4.816
 8343SOL    HW225929   1.220   5.402   4.967
 8344SOL     OW25930   4.798   5.749   4.946
 8344SOL    HW125931   4.891   5.719   4.926
 8344SOL    HW225932   4.762   5.804   4.871
 8345SOL     OW25933   4.392   1.087   2.790
 8345SOL    HW125934   4.455   1.078   2.713
 8345SOL    HW225935   4.317   1.149   2.764
 8346SOL     OW25936   4.118   5.165   0.342
 8346SOL    HW125937   4.087   5.079   0.300
 8346SOL    HW225938   4.039   5.216   0.374
 8347SOL     OW25939   3.813   5.672   4.050
 8347SOL    HW125940   3.810   5.667   4.149
 8347SOL    HW225941   3.772   5.589   4.011
 8348SOL     OW25942   2.492   0.662   1.937
 8348SOL    HW125943   2.505   0.596   1.862
 8348SOL    HW225944   2.569   0.726   1.938
 8349SOL     OW25945   6.037   6.433   1.730
 8349SOL    HW125946   6.116   6.487   1.702
 8349SOL    HW225947   6.038   6.422   1.829
 8350SOL     OW25948   3.303   6.972   6.341
 8350SOL    HW125949   3.311   6.891   6.283
 8350SOL    HW225950   3.342   6.953   6.431
 8351SOL     OW25951   5.755   4.953   4.136
 8351SOL    HW125952   5.834   5.012   4.115
 8351SOL    HW225953   5.679   4.976   4.075
 8352SOL     OW25954   0.439   0.325   3.584
 8352SOL    HW125955   0.510   0.295   3.648
 8352SOL    HW225956   0.352   0.281   3.608
 8353SOL     OW25957   6.920   3.551   1.476
 8353SOL    HW125958   7.005   3.588   1.512
 8353SOL    HW225959   6.881   3.615   1.409
 8354SOL     OW25960   4.310   6.589   5.366
 8354SOL    HW125961   4.231   6.553   5.315
 8354SOL    HW225962   4.353   6.662   5.314
 8355SOL     OW25963   2.272   0.826   5.885
 8355SOL    HW125964   2.222   0.740   5.890
 8355SOL    HW225965   2.228   0.895   5.943
 8356SOL     OW25966   1.142   6.942   0.897
 8356SOL    HW125967   1.184   6.960   0.808
 8356SOL    HW225968   1.171   6.852   0.929
 8357SOL     OW25969   3.730   6.726   4.906
 8357SOL    HW125970   3.808   6.781   4.937
 8357SOL    HW225971   3.686   6.773   4.829
 8358SOL     OW25972   1.522   4.387   4.728
 8358SOL    HW125973   1.560   4.477   4.706
 8358SOL    HW225974   1.590   4.317   4.710
 8359SOL     OW25975   3.043   0.708   4.859
 8359SOL    HW125976   3.067   0.805   4.855
 8359SOL    HW225977   3.126   0.654   4.873
 8360SOL     OW25978   3.891   6.362   0.939
 8360SOL    HW125979   3.854   6.392   1.027
 8360SOL    HW225980   3.818   6.364   0.870
 8361SOL     OW25981   3.404   0.378   2.718
 8361SOL    HW125982   3.360   0.356   2.805
 8361SOL    HW225983   3.429   0.475   2.717
 8362SOL     OW25984   4.031   2.277   0.889
 8362SOL    HW125985   4.052   2.206   0.956
 8362SOL    HW225986   4.111   2.295   0.833
 8363SOL     OW25987   6.352   2.884   6.248
 8363SOL    HW125988   6.429   2.831   6.283
 8363SOL    HW225989   6.282   2.821   6.212
 8364SOL     OW25990   1.261   2.762   3.683
 8364SOL    HW125991   1.193   2.810   3.739
 8364SOL    HW225992   1.228   2.670   3.662
 8365SOL     OW25993   1.897   3.615   1.799
 8365SOL    HW125994   1.892   3.539   1.735
 8365SOL    HW225995   1.989   3.655   1.797
 8366SOL     OW25996   2.072   5.903   1.803
 8366SOL    HW125997   2.153   5.921   1.747
 8366SOL    HW225998   1.992   5.895   1.743
 8367SOL     OW25999   4.286   6.057   4.133
 8367SOL    HW126000   4.219   6.096   4.069
 8367SOL    HW226001   4.333   5.981   4.089
 8368SOL     OW26002   1.915   5.708   6.310
 8368SOL    HW126003   1.856   5.641   6.266
 8368SOL    HW226004   1.862   5.763   6.374
 8369SOL     OW26005   1.153   0.023   6.350
 8369SOL    HW126006   1.174   0.120   6.339
 8369SOL    HW226007   1.075   7.020   6.292
 8370SOL     OW26008   2.888   1.460   6.008
 8370SOL    HW126009   2.912   1.375   6.056
 8370SOL    HW226010   2.963   1.487   5.948
 8371SOL     OW26011   2.103   4.916   1.043
 8371SOL    HW126012   2.074   5.011   1.033
 8371SOL    HW226013   2.173   4.910   1.114
 8372SOL     OW26014   2.001   5.214   1.931
 8372SOL    HW126015   1.933   5.148   1.962
 8372SOL    HW226016   2.037   5.264   2.010
 8373SOL     OW26017   1.666   0.082   4.352
 8373SOL    HW126018   1.731   0.006   4.355
 8373SOL    HW226019   1.684   0.138   4.271
 8374SOL     OW26020   6.874   0.706   5.291
 8374SOL    HW126021   6.958   0.696   5.344
 8374SOL    HW226022   6.799   0.731   5.353
 8375SOL     OW26023   3.227   6.420   4.875
 8375SOL    HW126024   3.164   6.373   4.937
 8375SOL    HW226025   3.226   6.518   4.895
 8376SOL     OW26026   1.531   1.178   4.287
 8376SOL    HW126027   1.552   1.138   4.376
 8376SOL    HW226028   1.457   1.244   4.296
 8377SOL     OW26029   5.163   6.661   0.861
 8377SOL    HW126030   5.129   6.736   0.805
 8377SOL    HW226031   5.180   6.581   0.802
 8378SOL     OW26032   4.696   5.856   2.651
 8378SOL    HW126033   4.665   5.764   2.624
 8378SOL    HW226034   4.673   5.871   2.747
 8379SOL     OW26035   5.552   2.618   1.208
 8379SOL    HW126036   5.613   2.685   1.250
 8379SOL    HW226037   5.586   2.526   1.226
 8380SOL     OW26038   0.540   0.421   2.763
 8380SOL    HW126039   0.635   0.399   2.785
 8380SOL    HW226040   0.529   0.425   2.664
 8381SOL     OW26041   0.312   3.045   4.935
 8381SOL    HW126042   0.320   3.087   5.025
 8381SOL    HW226043   0.390   3.072   4.878
 8382SOL     OW26044   2.993   0.484   2.848
 8382SOL    HW126045   2.895   0.502   2.834
 8382SOL    HW226046   3.041   0.495   2.761
 8383SOL     OW26047   2.673   7.015   5.876
 8383SOL    HW126048   2.746   0.062   5.886
 8383SOL    HW226049   2.592   0.024   5.925
 8384SOL     OW26050   6.523   0.704   1.281
 8384SOL    HW126051   6.602   0.696   1.220
 8384SOL    HW226052   6.500   0.614   1.317
 8385SOL     OW26053   5.730   2.264   0.857
 8385SOL    HW126054   5.824   2.298   0.859
 8385SOL    HW226055   5.673   2.325   0.802
 8386SOL     OW26056   2.420   5.642   2.059
 8386SOL    HW126057   2.336   5.692   2.035
 8386SOL    HW226058   2.457   5.678   2.144
 8387SOL     OW26059   1.596   1.295   1.873
 8387SOL    HW126060   1.510   1.346   1.867
 8387SOL    HW226061   1.592   1.234   1.952
 8388SOL     OW26062   2.076   6.348   0.189
 8388SOL    HW126063   2.105   6.441   0.213
 8388SOL    HW226064   2.152   6.300   0.146
 8389SOL     OW26065   0.389   3.884   2.690
 8389SOL    HW126066   0.292   3.863   2.677
 8389SOL    HW226067   0.406   3.978   2.661
 8390SOL     OW26068   4.663   1.180   0.256
 8390SOL    HW126069   4.638   1.222   0.343
 8390SOL    HW226070   4.592   1.199   0.188
 8391SOL     OW26071   6.556   5.183   1.031
 8391SOL    HW126072   6.532   5.275   1.064
 8391SOL    HW226073   6.639   5.187   0.977
 8392SOL     OW26074   6.495   4.078   4.831
 8392SOL    HW126075   6.395   4.080   4.837
 8392SOL    HW226076   6.533   4.153   4.885
 8393SOL     OW26077   0.254   6.248   2.798
 8393SOL    HW126078   0.344   6.274   2.834
 8393SOL    HW226079   0.200   6.330   2.780
 8394SOL     OW26080   6.393   2.650   1.472
 8394SOL    HW126081   6.321   2.708   1.508
 8394SOL    HW226082   6.398   2.659   1.372
 8395SOL     OW26083   2.164   6.761   5.305
 8395SOL    HW126084   2.139   6.843   5.253
 8395SOL    HW226085   2.170   6.683   5.243
 8396SOL     OW26086   5.123   5.307   2.134
 8396SOL    HW126087   5.172   5.258   2.207
 8396SOL    HW226088   5.048   5.358   2.175
 8397SOL     OW26089   1.931   0.199   2.785
 8397SOL    HW126090   2.022   0.240   2.785
 8397SOL    HW226091   1.864   0.267   2.814
 8398SOL     OW26092   3.851   1.729   6.857
 8398SOL    HW126093   3.824   1.796   6.927
 8398SOL    HW226094   3.878   1.644   6.902
 8399SOL     OW26095   5.711   6.262   6.667
 8399SOL    HW126096   5.680   6.311   6.749
 8399SOL    HW226097   5.726   6.328   6.594
 8400SOL     OW26098   1.654   1.039   4.081
 8400SOL    HW126099   1.605   1.087   4.154
 8400SOL    HW226100   1.669   1.101   4.004
 8401SOL     OW26101   2.465   1.559   5.642
 8401SOL    HW126102   2.547   1.581   5.696
 8401SOL    HW226103   2.437   1.465   5.660
 8402SOL     OW26104   4.465   1.571   5.898
 8402SOL    HW126105   4.509   1.643   5.845
 8402SOL    HW226106   4.367   1.588   5.903
 8403SOL     OW26107   0.970   3.064   4.802
 8403SOL    HW126108   0.914   2.995   4.848
 8403SOL    HW226109   0.927   3.090   4.716
 8404SOL     OW26110   3.891   0.073   5.793
 8404SOL    HW126111   3.966   0.050   5.732
 8404SOL    HW226112   3.898   0.169   5.820
 8405SOL     OW26113   1.417   1.106   5.589
 8405SOL    HW126114   1.350   1.172   5.623
 8405SOL    HW226115   1.458   1.058   5.667
 8406SOL     OW26116   4.509   0.444   0.375
 8406SOL    HW126117   4.423   0.403   0.407
 8406SOL    HW226118   4.576   0.441   0.449
 8407SOL     OW26119   3.585   6.521   3.478
 8407SOL    HW126120   3.645   6.490   3.552
 8407SOL    HW226121   3.542   6.442   3.435
 8408SOL     OW26122   5.984   4.174   1.463
 8408SOL    HW126123   6.011   4.124   1.381
 8408SOL    HW226124   6.040   4.257   1.473
 8409SOL     OW26125   5.665   2.195   3.322
 8409SOL    HW126126   5.628   2.102   3.319
 8409SOL    HW226127   5.673   2.224   3.417
 8410SOL     OW26128   5.369   0.834   1.904
 8410SOL    HW126129   5.332   0.788   1.986
 8410SOL    HW226130   5.341   0.783   1.823
 8411SOL     OW26131   0.816   4.696   0.245
 8411SOL    HW126132   0.721   4.667   0.259
 8411SOL    HW226133   0.831   4.716   0.149
 8412SOL     OW26134   3.373   1.798   1.144
 8412SOL    HW126135   3.280   1.817   1.173
 8412SOL    HW226136   3.437   1.857   1.194
 8413SOL     OW26137   3.936   5.357   6.465
 8413SOL    HW126138   4.003   5.427   6.440
 8413SOL    HW226139   3.848   5.401   6.483
 8414SOL     OW26140   3.833   5.653   3.602
 8414SOL    HW126141   3.759   5.718   3.583
 8414SOL    HW226142   3.899   5.655   3.526
 8415SOL     OW26143   6.860   6.337   4.034
 8415SOL    HW126144   6.810   6.423   4.042
 8415SOL    HW226145   6.952   6.348   4.073
 8416SOL     OW26146   5.691   3.537   2.537
 8416SOL    HW126147   5.631   3.469   2.579
 8416SOL    HW226148   5.635   3.605   2.489
 8417SOL     OW26149   1.243   4.431   5.485
 8417SOL    HW126150   1.243   4.524   5.521
 8417SOL    HW226151   1.289   4.370   5.549
 8418SOL     OW26152   5.730   5.240   0.963
 8418SOL    HW126153   5.658   5.199   1.020
 8418SOL    HW226154   5.754   5.177   0.889
 8419SOL     OW26155   5.539   6.999   2.027
 8419SOL    HW126156   5.600   6.937   1.977
 8419SOL    HW226157   5.586   0.064   2.044
 8420SOL     OW26158   4.555   0.272   6.653
 8420SOL    HW126159   4.492   0.342   6.620
 8420SOL    HW226160   4.513   0.222   6.728
 8421SOL     OW26161   2.351   5.384   6.907
 8421SOL    HW126162   2.391   5.299   6.872
 8421SOL    HW226163   2.349   5.452   6.834
 8422SOL     OW26164   4.012   1.288   1.593
 8422SOL    HW126165   3.999   1.199   1.638
 8422SOL    HW226166   3.935   1.304   1.531
 8423SOL     OW26167   3.114   4.893   5.578
 8423SOL    HW126168   3.115   4.988   5.611
 8423SOL    HW226169   3.102   4.894   5.478
 8424SOL     OW26170   2.195   2.119   2.507
 8424SOL    HW126171   2.135   2.131   2.428
 8424SOL    HW226172   2.147   2.069   2.579
 8425SOL     OW26173   4.896   5.112   5.998
 8425SOL    HW126174   4.987   5.152   6.011
 8425SOL    HW226175   4.900   5.041   5.928
 8426SOL     OW26176   3.562   3.286   3.342
 8426SOL    HW126177   3.531   3.224   3.269
 8426SOL    HW226178   3.527   3.252   3.430
 8427SOL     OW26179   3.647   4.184   4.966
 8427SOL    HW126180   3.616   4.195   4.872
 8427SOL    HW226181   3.741   4.151   4.966
 8428SOL     OW26182   0.990   5.706   1.389
 8428SOL    HW126183   0.899   5.702   1.431
 8428SOL    HW226184   1.048   5.769   1.442
 8429SOL     OW26185   0.854   5.974   4.116
 8429SOL    HW126186   0.920   6.010   4.181
 8429SOL    HW226187   0.795   5.908   4.162
 8430SOL     OW26188   3.474   5.276   3.091
 8430SOL    HW126189   3.430   5.321   3.169
 8430SOL    HW226190   3.467   5.177   3.101
 8431SOL     OW26191   3.139   4.770   0.751
 8431SOL    HW126192   3.192   4.688   0.771
 8431SOL    HW226193   3.193   4.834   0.697
 8432SOL     OW26194   5.955   6.297   5.826
 8432SOL    HW126195   5.908   6.299   5.738
 8432SOL    HW226196   5.891   6.320   5.899
 8433SOL     OW26197   5.228   2.761   0.422
 8433SOL    HW126198   5.291   2.795   0.351
 8433SOL    HW226199   5.134   2.779   0.394
 8434SOL     OW26200   2.740   6.811   4.914
 8434SOL    HW126201   2.772   6.903   4.891
 8434SOL    HW226202   2.699   6.769   4.834
 8435SOL     OW26203   6.121   0.819   1.524
 8435SOL    HW126204   6.110   0.734   1.473
 8435SOL    HW226205   6.082   0.895   1.472
 8436SOL     OW26206   3.105   6.177   3.337
 8436SOL    HW126207   3.193   6.164   3.383
 8436SOL    HW226208   3.102   6.268   3.296
 8437SOL     OW26209   2.214   1.244   4.503
 8437SOL    HW126210   2.207   1.157   4.551
 8437SOL    HW226211   2.123   1.286   4.497
 8438SOL     OW26212   1.914   5.011   2.601
 8438SOL    HW126213   1.951   4.963   2.681
 8438SOL    HW226214   1.988   5.060   2.555
 8439SOL     OW26215   6.358   4.681   2.798
 8439SOL    HW126216   6.302   4.707   2.720
 8439SOL    HW226217   6.455   4.694   2.775
 8440SOL     OW26218   1.728   1.938   3.712
 8440SOL    HW126219   1.756   2.031   3.737
 8440SOL    HW226220   1.634   1.922   3.741
 8441SOL     OW26221   6.259   6.467   0.070
 8441SOL    HW126222   6.245   6.560   0.037
 8441SOL    HW226223   6.305   6.470   0.159
 8442SOL     OW26224   3.164   2.036   5.181
 8442SOL    HW126225   3.166   2.123   5.131
 8442SOL    HW226226   3.094   2.041   5.253
 8443SOL     OW26227   2.195   4.631   3.411
 8443SOL    HW126228   2.226   4.719   3.374
 8443SOL    HW226229   2.275   4.576   3.437
 8444SOL     OW26230   3.045   6.019   3.995
 8444SOL    HW126231   2.949   6.001   3.973
 8444SOL    HW226232   3.085   6.076   3.923
 8445SOL     OW26233   3.392   6.704   1.285
 8445SOL    HW126234   3.485   6.737   1.271
 8445SOL    HW226235   3.360   6.729   1.376
 8446SOL     OW26236   4.686   5.066   6.861
 8446SOL    HW126237   4.606   5.033   6.911
 8446SOL    HW226238   4.682   5.166   6.856
 8447SOL     OW26239   5.160   1.616   2.260
 8447SOL    HW126240   5.125   1.539   2.207
 8447SOL    HW226241   5.168   1.591   2.356
 8448SOL     OW26242   4.435   5.677   4.238
 8448SOL    HW126243   4.371   5.684   4.315
 8448SOL    HW226244   4.456   5.769   4.205
 8449SOL     OW26245   0.356   2.711   3.793
 8449SOL    HW126246   0.428   2.775   3.765
 8449SOL    HW226247   0.394   2.641   3.853
 8450SOL     OW26248   0.478   6.557   1.050
 8450SOL    HW126249   0.453   6.610   1.131
 8450SOL    HW226250   0.402   6.499   1.023
 8451SOL     OW26251   3.811   1.635   0.325
 8451SOL    HW126252   3.896   1.633   0.378
 8451SOL    HW226253   3.750   1.563   0.357
 8452SOL     OW26254   6.020   1.752   2.743
 8452SOL    HW126255   6.087   1.826   2.731
 8452SOL    HW226256   5.933   1.790   2.774
 8453SOL     OW26257   0.629   4.374   6.680
 8453SOL    HW126258   0.728   4.391   6.668
 8453SOL    HW226259   0.603   4.292   6.630
 8454SOL     OW26260   6.627   6.830   1.555
 8454SOL    HW126261   6.562   6.774   1.504
 8454SOL    HW226262   6.659   6.905   1.497
 8455SOL     OW26263   6.474   2.541   2.052
 8455SOL    HW126264   6.487   2.510   2.146
 8455SOL    HW226265   6.406   2.483   2.006
 8456SOL     OW26266   3.576   5.630   3.236
 8456SOL    HW126267   3.619   5.708   3.283
 8456SOL    HW226268   3.523   5.664   3.158
 8457SOL     OW26269   6.550   6.838   4.662
 8457SOL    HW126270   6.534   6.855   4.565
 8457SOL    HW226271   6.551   6.739   4.679
 8458SOL     OW26272   3.066   0.705   6.945
 8458SOL    HW126273   3.032   0.779   6.887
 8458SOL    HW226274   3.131   0.650   6.893
 8459SOL     OW26275   2.668   6.139   2.266
 8459SOL    HW126276   2.653   6.044   2.238
 8459SOL    HW226277   2.762   6.166   2.242
 8460SOL     OW26278   4.243   4.295   5.313
 8460SOL    HW126279   4.262   4.367   5.247
 8460SOL    HW226280   4.163   4.243   5.283
 8461SOL     OW26281   0.983   4.221   4.799
 8461SOL    HW126282   0.946   4.314   4.794
 8461SOL    HW226283   1.076   4.224   4.834
 8462SOL     OW26284   2.426   2.720   6.738
 8462SOL    HW126285   2.460   2.773   6.816
 8462SOL    HW226286   2.368   2.645   6.771
 8463SOL     OW26287   6.984   6.799   0.949
 8463SOL    HW126288   0.003   6.719   0.995
 8463SOL    HW226289   6.930   6.769   0.871
 8464SOL     OW26290   5.678   3.815   4.000
 8464SOL    HW126291   5.712   3.729   4.036
 8464SOL    HW226292   5.583   3.827   4.026
 8465SOL     OW26293   0.998   3.293   0.557
 8465SOL    HW126294   0.930   3.238   0.606
 8465SOL    HW226295   1.090   3.268   0.587
 8466SOL     OW26296   0.888   6.393   3.891
 8466SOL    HW126297   0.794   6.414   3.864
 8466SOL    HW226298   0.951   6.431   3.823
 8467SOL     OW26299   3.840   6.977   6.399
 8467SOL    HW126300   3.803   0.014   6.327
 8467SOL    HW226301   3.927   6.938   6.368
 8468SOL     OW26302   3.685   2.173   6.601
 8468SOL    HW126303   3.723   2.204   6.688
 8468SOL    HW226304   3.664   2.076   6.607
 8469SOL     OW26305   3.268   1.796   6.990
 8469SOL    HW126306   3.356   1.841   7.005
 8469SOL    HW226307   3.232   1.763   0.056
 8470SOL     OW26308   1.655   4.198   0.027
 8470SOL    HW126309   1.737   4.247   0.057
 8470SOL    HW226310   1.579   4.220   0.088
 8471SOL     OW26311   3.350   1.324   3.486
 8471SOL    HW126312   3.348   1.228   3.515
 8471SOL    HW226313   3.340   1.383   3.566
 8472SOL     OW26314   6.753   0.971   4.858
 8472SOL    HW126315   6.766   0.919   4.942
 8472SOL    HW226316   6.840   0.979   4.810
 8473SOL     OW26317   6.340   6.194   6.605
 8473SOL    HW126318   6.302   6.133   6.675
 8473SOL    HW226319   6.429   6.158   6.575
 8474SOL     OW26320   3.288   3.279   1.899
 8474SOL    HW126321   3.265   3.304   1.992
 8474SOL    HW226322   3.342   3.195   1.899
 8475SOL     OW26323   0.876   2.545   3.547
 8475SOL    HW126324   0.879   2.563   3.448
 8475SOL    HW226325   0.941   2.472   3.569
 8476SOL     OW26326   0.020   2.041   0.841
 8476SOL    HW126327   6.949   2.063   0.811
 8476SOL    HW226328   0.029   2.061   0.938
 8477SOL     OW26329   5.074   6.695   1.508
 8477SOL    HW126330   5.083   6.653   1.598
 8477SOL    HW226331   5.011   6.641   1.452
 8478SOL     OW26332   1.299   6.771   6.223
 8478SOL    HW126333   1.360   6.811   6.291
 8478SOL    HW226334   1.292   6.833   6.144
 8479SOL     OW26335   0.117   3.049   1.114
 8479SOL    HW126336   0.171   3.093   1.186
 8479SOL    HW226337   0.177   3.022   1.039
 8480SOL     OW26338   4.622   1.671   0.090
 8480SOL    HW126339   4.553   1.711   0.150
 8480SOL    HW226340   4.686   1.616   0.144
 8481SOL     OW26341   4.456   1.857   3.610
 8481SOL    HW126342   4.387   1.889   3.674
 8481SOL    HW226343   4.512   1.786   3.653
 8482SOL     OW26344   4.598   5.738   2.169
 8482SOL    HW126345   4.590   5.837   2.154
 8482SOL    HW226346   4.614   5.692   2.082
 8483SOL     OW26347   4.236   6.188   1.885
 8483SOL    HW126348   4.200   6.121   1.820
 8483SOL    HW226349   4.166   6.209   1.953
 8484SOL     OW26350   0.459   5.629   3.146
 8484SOL    HW126351   0.460   5.725   3.174
 8484SOL    HW226352   0.435   5.572   3.224
 8485SOL     OW26353   3.509   2.987   0.563
 8485SOL    HW126354   3.603   2.953   0.557
 8485SOL    HW226355   3.447   2.922   0.518
 8486SOL     OW26356   4.062   0.952   3.102
 8486SOL    HW126357   3.996   0.949   3.177
 8486SOL    HW226358   4.066   0.863   3.058
 8487SOL     OW26359   5.163   1.978   6.127
 8487SOL    HW126360   5.087   1.963   6.063
 8487SOL    HW226361   5.231   1.906   6.115
 8488SOL     OW26362   5.852   5.426   6.383
 8488SOL    HW126363   5.841   5.407   6.286
 8488SOL    HW226364   5.927   5.491   6.396
 8489SOL     OW26365   6.622   1.740   1.173
 8489SOL    HW126366   6.609   1.829   1.131
 8489SOL    HW226367   6.545   1.721   1.234
 8490SOL     OW26368   3.714   6.667   4.235
 8490SOL    HW126369   3.643   6.661   4.164
 8490SOL    HW226370   3.672   6.658   4.325
 8491SOL     OW26371   1.831   6.620   0.415
 8491SOL    HW126372   1.894   6.543   0.419
 8491SOL    HW226373   1.801   6.633   0.321
 8492SOL     OW26374   4.596   4.134   6.411
 8492SOL    HW126375   4.565   4.229   6.421
 8492SOL    HW226376   4.653   4.127   6.329
 8493SOL     OW26377   2.985   2.285   6.490
 8493SOL    HW126378   2.885   2.275   6.488
 8493SOL    HW226379   3.024   2.247   6.407
 8494SOL     OW26380   2.884   4.905   1.746
 8494SOL    HW126381   2.977   4.885   1.777
 8494SOL    HW226382   2.829   4.822   1.752
 8495SOL     OW26383   6.542   4.812   1.438
 8495SOL    HW126384   6.512   4.757   1.516
 8495SOL    HW226385   6.480   4.890   1.427
 8496SOL     OW26386   0.833   1.920   2.307
 8496SOL    HW126387   0.803   1.853   2.239
 8496SOL    HW226388   0.931   1.910   2.323
 8497SOL     OW26389   6.304   1.125   3.657
 8497SOL    HW126390   6.260   1.104   3.569
 8497SOL    HW226391   6.234   1.146   3.725
 8498SOL     OW26392   0.532   5.918   2.923
 8498SOL    HW126393   0.480   5.944   2.841
 8498SOL    HW226394   0.624   5.957   2.917
 8499SOL     OW26395   2.545   4.932   6.538
 8499SOL    HW126396   2.628   4.945   6.484
 8499SOL    HW226397   2.550   4.845   6.586
 8500SOL     OW26398   2.253   6.307   5.050
 8500SOL    HW126399   2.319   6.267   4.987
 8500SOL    HW226400   2.283   6.400   5.075
 8501SOL     OW26401   0.640   1.553   6.936
 8501SOL    HW126402   0.594   1.592   6.857
 8501SOL    HW226403   0.628   1.613   7.015
 8502SOL     OW26404   1.891   5.380   1.324
 8502SOL    HW126405   1.905   5.363   1.226
 8502SOL    HW226406   1.931   5.305   1.376
 8503SOL     OW26407   1.376   0.029   4.112
 8503SOL    HW126408   1.345   0.100   4.176
 8503SOL    HW226409   1.325   6.967   4.128
 8504SOL     OW26410   2.718   5.175   2.988
 8504SOL    HW126411   2.717   5.164   2.888
 8504SOL    HW226412   2.658   5.107   3.029
 8505SOL     OW26413   4.957   3.815   3.349
 8505SOL    HW126414   4.976   3.744   3.417
 8505SOL    HW226415   5.028   3.812   3.278
 8506SOL     OW26416   6.492   1.715   6.762
 8506SOL    HW126417   6.435   1.639   6.732
 8506SOL    HW226418   6.573   1.680   6.809
 8507SOL     OW26419   3.434   0.853   5.655
 8507SOL    HW126420   3.443   0.929   5.590
 8507SOL    HW226421   3.471   0.880   5.743
 8508SOL     OW26422   5.849   1.993   4.842
 8508SOL    HW126423   5.761   1.953   4.866
 8508SOL    HW226424   5.872   1.970   4.748
 8509SOL     OW26425   4.506   1.770   3.360
 8509SOL    HW126426   4.507   1.807   3.452
 8509SOL    HW226427   4.430   1.809   3.308
 8510SOL     OW26428   5.788   4.611   2.705
 8510SOL    HW126429   5.853   4.549   2.662
 8510SOL    HW226430   5.812   4.706   2.682
 8511SOL     OW26431   6.555   3.996   1.874
 8511SOL    HW126432   6.603   3.939   1.940
 8511SOL    HW226433   6.511   3.938   1.806
 8512SOL     OW26434   3.616   1.909   1.319
 8512SOL    HW126435   3.638   2.006   1.333
 8512SOL    HW226436   3.635   1.858   1.403
 8513SOL     OW26437   4.672   4.349   1.699
 8513SOL    HW126438   4.752   4.290   1.710
 8513SOL    HW226439   4.593   4.307   1.743
 8514SOL     OW26440   2.710   2.374   3.880
 8514SOL    HW126441   2.790   2.353   3.825
 8514SOL    HW226442   2.724   2.342   3.973
 8515SOL     OW26443   5.176   1.515   0.551
 8515SOL    HW126444   5.154   1.456   0.629
 8515SOL    HW226445   5.185   1.459   0.469
 8516SOL     OW26446   6.959   1.809   1.547
 8516SOL    HW126447   6.866   1.821   1.582
 8516SOL    HW226448   6.955   1.776   1.453
 8517SOL     OW26449   1.605   3.333   6.724
 8517SOL    HW126450   1.566   3.344   6.816
 8517SOL    HW226451   1.640   3.421   6.692
 8518SOL     OW26452   5.087   3.960   0.322
 8518SOL    HW126453   5.169   3.998   0.279
 8518SOL    HW226454   5.061   3.875   0.276
 8519SOL     OW26455   1.236   4.167   1.253
 8519SOL    HW126456   1.259   4.092   1.191
 8519SOL    HW226457   1.255   4.139   1.348
 8520SOL     OW26458   3.242   3.270   0.341
 8520SOL    HW126459   3.267   3.310   0.253
 8520SOL    HW226460   3.325   3.255   0.395
 8521SOL     OW26461   2.035   5.102   5.715
 8521SOL    HW126462   2.081   5.153   5.788
 8521SOL    HW226463   2.079   5.121   5.628
 8522SOL     OW26464   1.210   6.347   1.511
 8522SOL    HW126465   1.145   6.366   1.584
 8522SOL    HW226466   1.183   6.264   1.462
 8523SOL     OW26467   1.777   6.385   6.622
 8523SOL    HW126468   1.868   6.383   6.664
 8523SOL    HW226469   1.715   6.326   6.675
 8524SOL     OW26470   0.039   2.932   5.174
 8524SOL    HW126471   0.055   3.028   5.154
 8524SOL    HW226472   0.092   2.875   5.110
 8525SOL     OW26473   6.357   4.522   2.471
 8525SOL    HW126474   6.327   4.449   2.534
 8525SOL    HW226475   6.277   4.566   2.431
 8526SOL     OW26476   4.298   6.138   6.300
 8526SOL    HW126477   4.257   6.116   6.212
 8526SOL    HW226478   4.232   6.187   6.357
 8527SOL     OW26479   2.470   0.973   6.073
 8527SOL    HW126480   2.532   0.942   6.145
 8527SOL    HW226481   2.401   1.034   6.112
 8528SOL     OW26482   3.157   1.149   6.650
 8528SOL    HW126483   3.196   1.241   6.650
 8528SOL    HW226484   3.078   1.146   6.589
 8529SOL     OW26485   0.991   0.446   0.880
 8529SOL    HW126486   0.955   0.367   0.830
 8529SOL    HW226487   0.933   0.526   0.862
 8530SOL     OW26488   3.923   4.257   5.488
 8530SOL    HW126489   3.835   4.210   5.493
 8530SOL    HW226490   3.960   4.248   5.396
 8531SOL     OW26491   6.520   5.267   2.750
 8531SOL    HW126492   6.438   5.306   2.793
 8531SOL    HW226493   6.601   5.314   2.785
 8532SOL     OW26494   4.323   5.290   4.898
 8532SOL    HW126495   4.353   5.224   4.967
 8532SOL    HW226496   4.403   5.327   4.851
 8533SOL     OW26497   1.048   0.275   6.662
 8533SOL    HW126498   1.073   0.184   6.696
 8533SOL    HW226499   1.128   0.318   6.621
 8534SOL     OW26500   6.929   3.272   4.093
 8534SOL    HW126501   6.940   3.194   4.031
 8534SOL    HW226502   6.988   3.347   4.063
 8535SOL     OW26503   6.120   1.719   4.352
 8535SOL    HW126504   6.161   1.692   4.265
 8535SOL    HW226505   6.094   1.815   4.348
 8536SOL     OW26506   0.548   2.355   5.140
 8536SOL    HW126507   0.498   2.426   5.090
 8536SOL    HW226508   0.623   2.321   5.082
 8537SOL     OW26509   5.077   1.075   2.453
 8537SOL    HW126510   5.101   0.984   2.489
 8537SOL    HW226511   5.119   1.088   2.364
 8538SOL     OW26512   0.565   0.786   0.297
 8538SOL    HW126513   0.468   0.807   0.301
 8538SOL    HW226514   0.582   0.722   0.222
 8539SOL     OW26515   4.698   0.607   3.170
 8539SOL    HW126516   4.615   0.659   3.190
 8539SOL    HW226517   4.737   0.572   3.255
 8540SOL     OW26518   4.491   0.134   6.426
 8540SOL    HW126519   4.535   0.099   6.343
 8540SOL    HW226520   4.546   0.208   6.465
 8541SOL     OW26521   2.384   1.647   4.075
 8541SOL    HW126522   2.459   1.712   4.066
 8541SOL    HW226523   2.416   1.555   4.055
 8542SOL     OW26524   4.007   4.826   6.995
 8542SOL    HW126525   3.973   4.737   6.964
 8542SOL    HW226526   4.036   4.879   6.915
 8543SOL     OW26527   3.107   0.815   1.132
 8543SOL    HW126528   3.110   0.912   1.110
 8543SOL    HW226529   3.022   0.776   1.097
 8544SOL     OW26530   5.351   3.569   4.808
 8544SOL    HW126531   5.446   3.566   4.775
 8544SOL    HW226532   5.347   3.627   4.890
 8545SOL     OW26533   4.450   6.809   5.231
 8545SOL    HW126534   4.474   6.860   5.314
 8545SOL    HW226535   4.448   6.872   5.153
 8546SOL     OW26536   6.600   1.739   3.690
 8546SOL    HW126537   6.682   1.740   3.633
 8546SOL    HW226538   6.533   1.675   3.651
 8547SOL     OW26539   1.915   6.936   5.946
 8547SOL    HW126540   1.926   6.856   6.005
 8547SOL    HW226541   1.900   7.017   6.002
 8548SOL     OW26542   5.746   2.384   5.407
 8548SOL    HW126543   5.830   2.363   5.356
 8548SOL    HW226544   5.711   2.300   5.448
 8549SOL     OW26545   1.610   2.868   4.132
 8549SOL    HW126546   1.673   2.844   4.060
 8549SOL    HW226547   1.647   2.946   4.184
 8550SOL     OW26548   1.726   4.794   0.283
 8550SOL    HW126549   1.744   4.890   0.306
 8550SOL    HW226550   1.774   4.771   0.199
 8551SOL     OW26551   3.377   4.024   6.520
 8551SOL    HW126552   3.457   4.061   6.568
 8551SOL    HW226553   3.355   3.933   6.555
 8552SOL     OW26554   2.384   0.569   3.970
 8552SOL    HW126555   2.342   0.558   3.880
 8552SOL    HW226556   2.444   0.491   3.987
 8553SOL     OW26557   4.111   4.377   6.733
 8553SOL    HW126558   4.209   4.387   6.712
 8553SOL    HW226559   4.089   4.281   6.745
 8554SOL     OW26560   1.072   4.597   0.761
 8554SOL    HW126561   1.171   4.583   0.774
 8554SOL    HW226562   1.032   4.632   0.845
 8555SOL     OW26563   2.135   1.335   3.348
 8555SOL    HW126564   2.043   1.306   3.321
 8555SOL    HW226565   2.203   1.281   3.297
 8556SOL     OW26566   1.661   5.952   5.232
 8556SOL    HW126567   1.596   5.877   5.245
 8556SOL    HW226568   1.622   6.036   5.271
 8557SOL     OW26569   5.919   6.819   3.258
 8557SOL    HW126570   5.889   6.742   3.201
 8557SOL    HW226571   5.841   6.856   3.308
 8558SOL     OW26572   3.205   4.857   3.373
 8558SOL    HW126573   3.140   4.877   3.446
 8558SOL    HW226574   3.156   4.842   3.287
 8559SOL     OW26575   0.696   0.266   2.472
 8559SOL    HW126576   0.760   0.237   2.400
 8559SOL    HW226577   0.614   0.209   2.468
 8560SOL     OW26578   6.344   6.286   1.932
 8560SOL    HW126579   6.395   6.319   1.852
 8560SOL    HW226580   6.385   6.321   2.015
 8561SOL     OW26581   3.254   0.886   2.565
 8561SOL    HW126582   3.238   0.925   2.656
 8561SOL    HW226583   3.174   0.834   2.537
 8562SOL     OW26584   3.782   5.634   5.738
 8562SOL    HW126585   3.813   5.566   5.672
 8562SOL    HW226586   3.686   5.616   5.760
 8563SOL     OW26587   2.143   4.377   6.741
 8563SOL    HW126588   2.128   4.467   6.783
 8563SOL    HW226589   2.240   4.361   6.729
 8564SOL     OW26590   2.976   1.006   5.075
 8564SOL    HW126591   3.068   1.000   5.037
 8564SOL    HW226592   2.972   1.079   5.144
 8565SOL     OW26593   4.143   5.357   1.137
 8565SOL    HW126594   4.127   5.391   1.044
 8565SOL    HW226595   4.131   5.258   1.139
 8566SOL     OW26596   1.660   0.759   1.670
 8566SOL    HW126597   1.571   0.719   1.692
 8566SOL    HW226598   1.648   0.828   1.599
 8567SOL     OW26599   0.531   2.295   2.447
 8567SOL    HW126600   0.469   2.314   2.524
 8567SOL    HW226601   0.501   2.212   2.401
 8568SOL     OW26602   5.577   1.281   6.079
 8568SOL    HW126603   5.594   1.296   6.177
 8568SOL    HW226604   5.623   1.197   6.050
 8569SOL     OW26605   5.082   0.941   6.202
 8569SOL    HW126606   5.119   1.034   6.200
 8569SOL    HW226607   4.982   0.945   6.202
 8570SOL     OW26608   1.619   2.474   5.231
 8570SOL    HW126609   1.579   2.503   5.144
 8570SOL    HW226610   1.663   2.385   5.219
 8571SOL     OW26611   1.006   5.647   5.480
 8571SOL    HW126612   1.101   5.617   5.486
 8571SOL    HW226613   1.001   5.729   5.423
 8572SOL     OW26614   2.742   5.006   6.875
 8572SOL    HW126615   2.727   4.911   6.848
 8572SOL    HW226616   2.771   5.059   6.795
 8573SOL     OW26617   3.463   6.320   5.968
 8573SOL    HW126618   3.395   6.252   5.996
 8573SOL    HW226619   3.456   6.401   6.026
 8574SOL     OW26620   6.569   5.578   5.703
 8574SOL    HW126621   6.570   5.562   5.605
 8574SOL    HW226622   6.662   5.585   5.737
 8575SOL     OW26623   2.735   2.310   5.285
 8575SOL    HW126624   2.781   2.381   5.339
 8575SOL    HW226625   2.804   2.256   5.236
 8576SOL     OW26626   1.456   5.024   6.422
 8576SOL    HW126627   1.469   4.976   6.508
 8576SOL    HW226628   1.419   5.116   6.439
 8577SOL     OW26629   6.780   6.551   4.284
 8577SOL    HW126630   6.739   6.470   4.326
 8577SOL    HW226631   6.734   6.570   4.197
 8578SOL     OW26632   5.495   0.918   4.352
 8578SOL    HW126633   5.556   0.937   4.428
 8578SOL    HW226634   5.463   1.004   4.312
 8579SOL     OW26635   1.457   0.128   2.603
 8579SOL    HW126636   1.526   0.118   2.532
 8579SOL    HW226637   1.371   0.087   2.572
 8580SOL     OW26638   2.509   6.787   2.315
 8580SOL    HW126639   2.427   6.760   2.265
 8580SOL    HW226640   2.484   6.821   2.405
 8581SOL     OW26641   3.166   3.745   1.912
 8581SOL    HW126642   3.242   3.728   1.974
 8581SOL    HW226643   3.164   3.674   1.841
 8582SOL     OW26644   4.634   4.669   3.078
 8582SOL    HW126645   4.585   4.740   3.029
 8582SOL    HW226646   4.571   4.596   3.104
 8583SOL     OW26647   5.494   0.479   4.502
 8583SOL    HW126648   5.584   0.438   4.520
 8583SOL    HW226649   5.490   0.508   4.406
 8584SOL     OW26650   1.070   4.289   5.805
 8584SOL    HW126651   0.973   4.279   5.781
 8584SOL    HW226652   1.126   4.257   5.729
 8585SOL     OW26653   0.390   6.049   6.212
 8585SOL    HW126654   0.352   6.075   6.123
 8585SOL    HW226655   0.443   5.965   6.203
 8586SOL     OW26656   2.642   0.265   2.628
 8586SOL    HW126657   2.696   0.262   2.543
 8586SOL    HW226658   2.679   0.199   2.693
 8587SOL     OW26659   1.706   6.754   3.849
 8587SOL    HW126660   1.742   6.776   3.758
 8587SOL    HW226661   1.607   6.747   3.845
 8588SOL     OW26662   2.826   0.807   0.395
 8588SOL    HW126663   2.791   0.765   0.311
 8588SOL    HW226664   2.910   0.857   0.374
 8589SOL     OW26665   4.848   2.957   4.876
 8589SOL    HW126666   4.813   2.907   4.797
 8589SOL    HW226667   4.844   2.899   4.957
 8590SOL     OW26668   6.963   6.174   4.452
 8590SOL    HW126669   6.991   6.128   4.368
 8590SOL    HW226670   0.022   6.200   4.505
 8591SOL     OW26671   0.422   4.479   0.102
 8591SOL    HW126672   0.473   4.500   0.019
 8591SOL    HW226673   0.326   4.502   0.089
 8592SOL     OW26674   0.070   2.618   6.496
 8592SOL    HW126675   0.060   2.650   6.402
 8592SOL    HW226676   7.003   2.621   6.542
 8593SOL     OW26677   3.007   0.079   0.701
 8593SOL    HW126678   2.959   0.155   0.658
 8593SOL    HW226679   2.943   0.003   0.716
 8594SOL     OW26680   4.117   2.362   5.458
 8594SOL    HW126681   4.088   2.410   5.375
 8594SOL    HW226682   4.039   2.356   5.521
 8595SOL     OW26683   1.586   2.739   3.448
 8595SOL    HW126684   1.626   2.829   3.429
 8595SOL    HW226685   1.622   2.673   3.382
 8596SOL     OW26686   0.198   5.274   3.207
 8596SOL    HW126687   0.132   5.252   3.278
 8596SOL    HW226688   0.220   5.191   3.156
 8597SOL     OW26689   4.244   1.386   0.706
 8597SOL    HW126690   4.309   1.357   0.777
 8597SOL    HW226691   4.251   1.486   0.694
 8598SOL     OW26692   6.014   6.587   0.730
 8598SOL    HW126693   6.012   6.627   0.822
 8598SOL    HW226694   5.921   6.567   0.699
 8599SOL     OW26695   0.862   2.786   4.356
 8599SOL    HW126696   0.813   2.767   4.441
 8599SOL    HW226697   0.798   2.824   4.289
 8600SOL     OW26698   4.614   5.314   5.911
 8600SOL    HW126699   4.541   5.325   5.843
 8600SOL    HW226700   4.603   5.383   5.982
 8601SOL     OW26701   0.856   1.154   5.007
 8601SOL    HW126702   0.945   1.118   5.034
 8601SOL    HW226703   0.799   1.167   5.089
 8602SOL     OW26704   2.762   5.258   2.677
 8602SOL    HW126705   2.825   5.299   2.613
 8602SOL    HW226706   2.787   5.162   2.692
 8603SOL     OW26707   4.201   5.679   0.138
 8603SOL    HW126708   4.202   5.580   0.127
 8603SOL    HW226709   4.106   5.711   0.140
 8604SOL     OW26710   0.916   2.600   3.955
 8604SOL    HW126711   0.889   2.519   3.904
 8604SOL    HW226712   0.918   2.579   4.052
 8605SOL     OW26713   2.975   5.620   4.690
 8605SOL    HW126714   3.059   5.590   4.645
 8605SOL    HW226715   2.982   5.718   4.710
 8606SOL     OW26716   1.612   3.376   6.275
 8606SOL    HW126717   1.579   3.443   6.208
 8606SOL    HW226718   1.712   3.372   6.270
 8607SOL     OW26719   3.801   6.120   0.811
 8607SOL    HW126720   3.722   6.180   0.799
 8607SOL    HW226721   3.874   6.148   0.750
 8608SOL     OW26722   4.399   5.697   2.805
 8608SOL    HW126723   4.334   5.772   2.813
 8608SOL    HW226724   4.350   5.610   2.799
 8609SOL     OW26725   5.602   1.129   3.256
 8609SOL    HW126726   5.523   1.075   3.228
 8609SOL    HW226727   5.578   1.182   3.338
 8610SOL     OW26728   1.789   2.141   2.677
 8610SOL    HW126729   1.745   2.104   2.595
 8610SOL    HW226730   1.724   2.138   2.753
 8611SOL     OW26731   2.840   1.795   4.258
 8611SOL    HW126732   2.893   1.719   4.296
 8611SOL    HW226733   2.899   1.852   4.202
 8612SOL     OW26734   3.779   3.058   1.334
 8612SOL    HW126735   3.731   3.131   1.383
 8612SOL    HW226736   3.779   2.975   1.390
 8613SOL     OW26737   2.360   2.000   1.082
 8613SOL    HW126738   2.302   1.921   1.101
 8613SOL    HW226739   2.380   2.048   1.168
 8614SOL     OW26740   1.438   3.223   2.076
 8614SOL    HW126741   1.485   3.285   2.138
 8614SOL    HW226742   1.378   3.163   2.128
 8615SOL     OW26743   4.642   1.542   4.889
 8615SOL    HW126744   4.639   1.618   4.954
 8615SOL    HW226745   4.733   1.499   4.891
 8616SOL     OW26746   3.107   4.605   1.747
 8616SOL    HW126747   3.108   4.688   1.803
 8616SOL    HW226748   3.030   4.548   1.774
 8617SOL     OW26749   6.737   1.153   6.523
 8617SOL    HW126750   6.667   1.083   6.533
 8617SOL    HW226751   6.827   1.112   6.537
 8618SOL     OW26752   6.115   6.054   0.569
 8618SOL    HW126753   6.164   6.108   0.638
 8618SOL    HW226754   6.157   5.963   0.562
 8619SOL     OW26755   3.724   4.955   2.149
 8619SOL    HW126756   3.822   4.962   2.127
 8619SOL    HW226757   3.683   4.882   2.094
 8620SOL     OW26758   1.005   0.100   4.263
 8620SOL    HW126759   1.057   0.132   4.342
 8620SOL    HW226760   0.956   0.017   4.287
 8621SOL     OW26761   5.589   1.359   2.949
 8621SOL    HW126762   5.676   1.315   2.974
 8621SOL    HW226763   5.590   1.381   2.852
 8622SOL     OW26764   4.840   3.103   0.119
 8622SOL    HW126765   4.776   3.152   0.060
 8622SOL    HW226766   4.810   3.111   0.214
 8623SOL     OW26767   0.810   3.252   3.793
 8623SOL    HW126768   0.725   3.225   3.837
 8623SOL    HW226769   0.876   3.177   3.798
 8624SOL     OW26770   1.055   3.794   4.800
 8624SOL    HW126771   1.067   3.871   4.737
 8624SOL    HW226772   0.962   3.797   4.838
 8625SOL     OW26773   4.266   6.855   5.790
 8625SOL    HW126774   4.324   6.813   5.720
 8625SOL    HW226775   4.317   6.860   5.876
 8626SOL     OW26776   3.806   3.236   5.332
 8626SOL    HW126777   3.756   3.150   5.329
 8626SOL    HW226778   3.886   3.231   5.272
 8627SOL     OW26779   0.283   1.328   3.080
 8627SOL    HW126780   0.274   1.420   3.119
 8627SOL    HW226781   0.201   1.305   3.029
 8628SOL     OW26782   6.284   6.157   0.750
 8628SOL    HW126783   6.274   6.253   0.725
 8628SOL    HW226784   6.381   6.134   0.758
 8629SOL     OW26785   1.454   4.819   5.100
 8629SOL    HW126786   1.542   4.814   5.053
 8629SOL    HW226787   1.434   4.914   5.123
 8630SOL     OW26788   5.569   4.308   3.287
 8630SOL    HW126789   5.594   4.230   3.345
 8630SOL    HW226790   5.609   4.391   3.323
 8631SOL     OW26791   2.331   5.416   6.084
 8631SOL    HW126792   2.240   5.423   6.124
 8631SOL    HW226793   2.350   5.498   6.029
 8632SOL     OW26794   3.614   6.236   3.733
 8632SOL    HW126795   3.682   6.178   3.689
 8632SOL    HW226796   3.659   6.318   3.770
 8633SOL     OW26797   4.877   1.892   5.483
 8633SOL    HW126798   4.851   1.833   5.407
 8633SOL    HW226799   4.929   1.839   5.551
 8634SOL     OW26800   5.896   3.439   0.176
 8634SOL    HW126801   5.986   3.404   0.149
 8634SOL    HW226802   5.852   3.482   0.097
 8635SOL     OW26803   5.641   4.157   6.473
 8635SOL    HW126804   5.627   4.249   6.438
 8635SOL    HW226805   5.595   4.148   6.562
 8636SOL     OW26806   4.917   5.965   0.509
 8636SOL    HW126807   4.879   5.931   0.423
 8636SOL    HW226808   5.015   5.978   0.499
 8637SOL     OW26809   2.050   1.126   0.122
 8637SOL    HW126810   1.987   1.092   0.053
 8637SOL    HW226811   2.074   1.052   0.185
 8638SOL     OW26812   2.859   3.265   6.612
 8638SOL    HW126813   2.782   3.277   6.550
 8638SOL    HW226814   2.943   3.255   6.559
 8639SOL     OW26815   5.821   2.373   1.884
 8639SOL    HW126816   5.775   2.434   1.949
 8639SOL    HW226817   5.785   2.280   1.894
 8640SOL     OW26818   4.821   4.034   0.434
 8640SOL    HW126819   4.828   3.988   0.523
 8640SOL    HW226820   4.891   3.998   0.372
 8641SOL     OW26821   5.862   5.216   4.765
 8641SOL    HW126822   5.897   5.238   4.674
 8641SOL    HW226823   5.764   5.200   4.760
 8642SOL     OW26824   2.663   6.715   3.179
 8642SOL    HW126825   2.614   6.785   3.231
 8642SOL    HW226826   2.738   6.679   3.234
 8643SOL     OW26827   2.877   0.207   6.457
 8643SOL    HW126828   2.940   0.144   6.412
 8643SOL    HW226829   2.829   0.159   6.530
 8644SOL     OW26830   4.719   2.094   5.389
 8644SOL    HW126831   4.708   2.169   5.454
 8644SOL    HW226832   4.773   2.021   5.431
 8645SOL     OW26833   4.334   4.566   1.272
 8645SOL    HW126834   4.238   4.564   1.302
 8645SOL    HW226835   4.354   4.654   1.231
 8646SOL     OW26836   6.568   1.198   1.649
 8646SOL    HW126837   6.653   1.175   1.602
 8646SOL    HW226838   6.588   1.235   1.740
 8647SOL     OW26839   2.532   5.219   6.045
 8647SOL    HW126840   2.491   5.310   6.044
 8647SOL    HW226841   2.537   5.185   6.139
 8648SOL     OW26842   6.418   0.736   3.341
 8648SOL    HW126843   6.494   0.774   3.394
 8648SOL    HW226844   6.407   0.788   3.257
 8649SOL     OW26845   5.780   5.010   5.899
 8649SOL    HW126846   5.742   4.981   5.810
 8649SOL    HW226847   5.721   4.975   5.972
 8650SOL     OW26848   2.332   5.060   5.121
 8650SOL    HW126849   2.293   5.074   5.212
 8650SOL    HW226850   2.419   5.108   5.114
 8651SOL     OW26851   3.641   0.484   0.488
 8651SOL    HW126852   3.694   0.556   0.442
 8651SOL    HW226853   3.628   0.508   0.584
 8652SOL     OW26854   1.860   4.287   3.845
 8652SOL    HW126855   1.828   4.382   3.840
 8652SOL    HW226856   1.796   4.232   3.898
 8653SOL     OW26857   6.139   0.530   6.055
 8653SOL    HW126858   6.088   0.562   5.975
 8653SOL    HW226859   6.182   0.608   6.100
 8654SOL     OW26860   0.958   4.899   1.220
 8654SOL    HW126861   0.885   4.837   1.194
 8654SOL    HW226862   0.997   4.870   1.307
 8655SOL     OW26863   6.431   1.571   3.516
 8655SOL    HW126864   6.358   1.633   3.487
 8655SOL    HW226865   6.436   1.493   3.454
 8656SOL     OW26866   6.731   0.990   1.027
 8656SOL    HW126867   6.652   1.038   1.063
 8656SOL    HW226868   6.728   0.894   1.054
 8657SOL     OW26869   5.123   4.577   0.445
 8657SOL    HW126870   5.081   4.595   0.356
 8657SOL    HW226871   5.158   4.483   0.446
 8658SOL     OW26872   4.762   6.633   7.000
 8658SOL    HW126873   4.819   6.663   0.055
 8658SOL    HW226874   4.670   6.672   7.010
 8659SOL     OW26875   4.497   1.534   3.210
 8659SOL    HW126876   4.404   1.520   3.174
 8659SOL    HW226877   4.497   1.613   3.271
 8660SOL     OW26878   6.005   4.042   1.217
 8660SOL    HW126879   5.918   4.000   1.243
 8660SOL    HW226880   5.997   4.083   1.127
 8661SOL     OW26881   5.457   4.083   1.542
 8661SOL    HW126882   5.549   4.121   1.534
 8661SOL    HW226883   5.463   3.983   1.546
 8662SOL     OW26884   4.678   6.206   0.855
 8662SOL    HW126885   4.646   6.114   0.880
 8662SOL    HW226886   4.757   6.197   0.794
 8663SOL     OW26887   3.125   5.893   1.837
 8663SOL    HW126888   3.215   5.849   1.848
 8663SOL    HW226889   3.077   5.893   1.925
 8664SOL     OW26890   2.207   6.096   0.834
 8664SOL    HW126891   2.220   6.092   0.735
 8664SOL    HW226892   2.287   6.057   0.879
 8665SOL     OW26893   5.193   6.345   4.831
 8665SOL    HW126894   5.137   6.340   4.913
 8665SOL    HW226895   5.265   6.275   4.835
 8666SOL     OW26896   5.133   1.618   4.160
 8666SOL    HW126897   5.125   1.712   4.127
 8666SOL    HW226898   5.125   1.617   4.260
 8667SOL     OW26899   4.475   2.124   3.177
 8667SOL    HW126900   4.434   2.134   3.267
 8667SOL    HW226901   4.498   2.028   3.161
 8668SOL     OW26902   5.333   3.967   3.310
 8668SOL    HW126903   5.289   3.884   3.343
 8668SOL    HW226904   5.389   3.945   3.230
 8669SOL     OW26905   1.961   6.177   6.910
 8669SOL    HW126906   1.890   6.237   6.947
 8669SOL    HW226907   2.048   6.226   6.906
 8670SOL     OW26908   3.972   4.214   5.219
 8670SOL    HW126909   3.883   4.259   5.227
 8670SOL    HW226910   3.967   4.142   5.149
 8671SOL     OW26911   5.254   1.847   3.612
 8671SOL    HW126912   5.163   1.862   3.650
 8671SOL    HW226913   5.313   1.925   3.634
 8672SOL     OW26914   1.631   5.045   3.827
 8672SOL    HW126915   1.602   5.140   3.816
 8672SOL    HW226916   1.621   5.018   3.922
 8673SOL     OW26917   6.052   2.614   0.446
 8673SOL    HW126918   6.105   2.575   0.521
 8673SOL    HW226919   5.959   2.579   0.449
 8674SOL     OW26920   5.964   6.033   3.663
 8674SOL    HW126921   6.010   5.972   3.727
 8674SOL    HW226922   5.995   6.012   3.570
 8675SOL     OW26923   2.677   2.134   4.182
 8675SOL    HW126924   2.680   2.232   4.200
 8675SOL    HW226925   2.671   2.085   4.269
 8676SOL     OW26926   4.596   0.523   2.531
 8676SOL    HW126927   4.684   0.518   2.580
 8676SOL    HW226928   4.552   0.610   2.551
 8677SOL     OW26929   2.159   5.990   5.196
 8677SOL    HW126930   2.090   5.982   5.124
 8677SOL    HW226931   2.249   5.965   5.159
 8678SOL     OW26932   6.740   0.687   1.106
 8678SOL    HW126933   6.704   0.594   1.094
 8678SOL    HW226934   6.840   0.684   1.112
 8679SOL     OW26935   0.045   2.568   2.960
 8679SOL    HW126936   0.097   2.587   2.876
 8679SOL    HW226937   0.035   2.469   2.972
 8680SOL     OW26938   1.415   3.946   1.127
 8680SOL    HW126939   1.367   3.872   1.079
 8680SOL    HW226940   1.494   3.975   1.072
 8681SOL     OW26941   4.866   5.037   0.104
 8681SOL    HW126942   4.908   4.988   0.181
 8681SOL    HW226943   4.769   5.051   0.124
 8682SOL     OW26944   5.222   0.282   2.115
 8682SOL    HW126945   5.263   0.192   2.099
 8682SOL    HW226946   5.123   0.273   2.121
 8683SOL     OW26947   1.786   2.373   2.946
 8683SOL    HW126948   1.698   2.421   2.938
 8683SOL    HW226949   1.774   2.278   2.918
 8684SOL     OW26950   0.684   2.903   4.896
 8684SOL    HW126951   0.683   2.973   4.967
 8684SOL    HW226952   0.686   2.812   4.937
 8685SOL     OW26953   0.487   1.875   6.018
 8685SOL    HW126954   0.554   1.809   5.985
 8685SOL    HW226955   0.455   1.931   5.942
 8686SOL     OW26956   0.618   1.519   1.694
 8686SOL    HW126957   0.669   1.597   1.732
 8686SOL    HW226958   0.559   1.551   1.620
 8687SOL     OW26959   4.680   5.649   1.928
 8687SOL    HW126960   4.756   5.586   1.916
 8687SOL    HW226961   4.699   5.734   1.879
 8688SOL     OW26962   2.459   6.259   0.348
 8688SOL    HW126963   2.426   6.170   0.319
 8688SOL    HW226964   2.559   6.255   0.360
 8689SOL     OW26965   3.958   4.137   1.553
 8689SOL    HW126966   3.957   4.064   1.621
 8689SOL    HW226967   3.899   4.212   1.584
 8690SOL     OW26968   1.693   3.205   3.341
 8690SOL    HW126969   1.595   3.194   3.323
 8690SOL    HW226970   1.736   3.116   3.350
 8691SOL     OW26971   3.112   2.012   6.074
 8691SOL    HW126972   3.024   2.059   6.060
 8691SOL    HW226973   3.097   1.927   6.125
 8692SOL     OW26974   2.136   1.567   4.434
 8692SOL    HW126975   2.065   1.615   4.485
 8692SOL    HW226976   2.218   1.560   4.491
 8693SOL     OW26977   6.220   0.919   0.065
 8693SOL    HW126978   6.147   0.930   0.133
 8693SOL    HW226979   6.300   0.878   0.108
 8694SOL     OW26980   4.662   1.008   4.828
 8694SOL    HW126981   4.575   0.978   4.866
 8694SOL    HW226982   4.729   0.934   4.836
 8695SOL     OW26983   4.196   2.336   6.094
 8695SOL    HW126984   4.130   2.267   6.066
 8695SOL    HW226985   4.150   2.405   6.151
 8696SOL     OW26986   2.387   5.116   0.129
 8696SOL    HW126987   2.341   5.039   0.084
 8696SOL    HW226988   2.328   5.196   0.125
 8697SOL     OW26989   0.160   2.574   6.848
 8697SOL    HW126990   0.197   2.636   6.918
 8697SOL    HW226991   0.071   2.540   6.878
 8698SOL     OW26992   5.558   5.982   4.998
 8698SOL    HW126993   5.644   5.973   4.947
 8698SOL    HW226994   5.527   5.892   5.028
 8699SOL     OW26995   2.649   2.488   5.893
 8699SOL    HW126996   2.683   2.570   5.941
 8699SOL    HW226997   2.622   2.420   5.961
 8700SOL     OW26998   0.563   0.832   4.844
 8700SOL    HW126999   0.548   0.911   4.785
 8700SOL    HW227000   0.487   0.825   4.909
 8701SOL     OW27001   0.291   1.485   0.566
 8701SOL    HW127002   0.274   1.510   0.661
 8701SOL    HW227003   0.385   1.453   0.555
 8702SOL     OW27004   5.154   5.212   1.527
 8702SOL    HW127005   5.127   5.258   1.443
 8702SOL    HW227006   5.089   5.232   1.600
 8703SOL     OW27007   3.081   4.543   0.168
 8703SOL    HW127008   3.026   4.558   0.086
 8703SOL    HW227009   3.024   4.504   0.241
 8704SOL     OW27010   0.212   3.642   3.072
 8704SOL    HW127011   0.275   3.583   3.022
 8704SOL    HW227012   0.120   3.633   3.034
 8705SOL     OW27013   5.161   1.442   6.305
 8705SOL    HW127014   5.139   1.518   6.244
 8705SOL    HW227015   5.077   1.398   6.335
 8706SOL     OW27016   4.717   2.297   6.809
 8706SOL    HW127017   4.666   2.379   6.781
 8706SOL    HW227018   4.706   2.226   6.740
 8707SOL     OW27019   0.402   2.256   6.525
 8707SOL    HW127020   0.386   2.342   6.476
 8707SOL    HW227021   0.346   2.184   6.484
 8708SOL     OW27022   4.459   2.456   2.749
 8708SOL    HW127023   4.404   2.440   2.668
 8708SOL    HW227024   4.411   2.420   2.829
 8709SOL     OW27025   0.151   6.047   6.970
 8709SOL    HW127026   0.078   6.055   0.017
 8709SOL    HW227027   0.139   5.963   6.918
 8710SOL     OW27028   2.044   3.516   4.488
 8710SOL    HW127029   2.104   3.441   4.512
 8710SOL    HW227030   1.960   3.480   4.448
 8711SOL     OW27031   0.911   6.703   3.070
 8711SOL    HW127032   0.992   6.745   3.111
 8711SOL    HW227033   0.832   6.720   3.128
 8712SOL     OW27034   4.120   2.254   4.789
 8712SOL    HW127035   4.024   2.229   4.778
 8712SOL    HW227036   4.127   2.333   4.851
 8713SOL     OW27037   0.151   2.687   4.316
 8713SOL    HW127038   0.134   2.716   4.410
 8713SOL    HW227039   0.185   2.764   4.263
 8714SOL     OW27040   1.335   1.082   6.696
 8714SOL    HW127041   1.311   1.020   6.622
 8714SOL    HW227042   1.295   1.048   6.782
 8715SOL     OW27043   4.782   0.335   1.018
 8715SOL    HW127044   4.845   0.412   1.009
 8715SOL    HW227045   4.784   0.299   1.111
 8716SOL     OW27046   6.762   0.028   1.460
 8716SOL    HW127047   6.749   0.117   1.416
 8716SOL    HW227048   6.797   0.041   1.553
 8717SOL     OW27049   3.811   3.530   3.977
 8717SOL    HW127050   3.865   3.573   4.050
 8717SOL    HW227051   3.799   3.596   3.903
 8718SOL     OW27052   0.969   3.659   5.243
 8718SOL    HW127053   0.995   3.753   5.220
 8718SOL    HW227054   0.979   3.601   5.162
 8719SOL     OW27055   3.314   0.454   6.245
 8719SOL    HW127056   3.375   0.510   6.189
 8719SOL    HW227057   3.350   0.360   6.251
 8720SOL     OW27058   6.412   4.852   6.129
 8720SOL    HW127059   6.482   4.923   6.142
 8720SOL    HW227060   6.457   4.764   6.116
 8721SOL     OW27061   7.013   2.880   2.480
 8721SOL    HW127062   6.928   2.899   2.432
 8721SOL    HW227063   6.998   2.884   2.579
 8722SOL     OW27064   4.164   1.565   6.971
 8722SOL    HW127065   4.179   1.644   6.912
 8722SOL    HW227066   4.173   1.592   0.045
 8723SOL     OW27067   4.894   5.886   0.784
 8723SOL    HW127068   4.890   5.893   0.684
 8723SOL    HW227069   4.824   5.944   0.825
 8724SOL     OW27070   4.530   6.968   5.502
 8724SOL    HW127071   4.557   6.873   5.515
 8724SOL    HW227072   4.553   7.021   5.583
 8725SOL     OW27073   1.712   6.414   6.018
 8725SOL    HW127074   1.768   6.458   5.948
 8725SOL    HW227075   1.623   6.459   6.023
 8726SOL     OW27076   0.273   0.862   2.349
 8726SOL    HW127077   0.209   0.894   2.279
 8726SOL    HW227078   0.291   0.936   2.414
 8727SOL     OW27079   6.635   6.017   2.418
 8727SOL    HW127080   6.621   6.069   2.334
 8727SOL    HW227081   6.554   5.961   2.437
 8728SOL     OW27082   5.490   0.568   3.161
 8728SOL    HW127083   5.483   0.474   3.195
 8728SOL    HW227084   5.514   0.628   3.238
 8729SOL     OW27085   4.666   5.840   4.728
 8729SOL    HW127086   4.623   5.928   4.749
 8729SOL    HW227087   4.596   5.771   4.711
 8730SOL     OW27088   6.594   3.607   2.117
 8730SOL    HW127089   6.654   3.543   2.070
 8730SOL    HW227090   6.609   3.601   2.216
 8731SOL     OW27091   2.176   2.329   2.791
 8731SOL    HW127092   2.118   2.320   2.710
 8731SOL    HW227093   2.216   2.420   2.793
 8732SOL     OW27094   5.760   4.941   1.430
 8732SOL    HW127095   5.693   4.901   1.492
 8732SOL    HW227096   5.851   4.905   1.452
 8733SOL     OW27097   1.330   5.348   0.630
 8733SOL    HW127098   1.418   5.338   0.584
 8733SOL    HW227099   1.318   5.274   0.696
 8734SOL     OW27100   1.628   4.366   1.936
 8734SOL    HW127101   1.728   4.367   1.946
 8734SOL    HW227102   1.590   4.294   1.994
 8735SOL     OW27103   0.992   2.749   0.528
 8735SOL    HW127104   1.066   2.763   0.594
 8735SOL    HW227105   0.929   2.681   0.562
 8736SOL     OW27106   0.668   5.601   6.557
 8736SOL    HW127107   0.658   5.573   6.652
 8736SOL    HW227108   0.585   5.651   6.528
 8737SOL     OW27109   2.183   6.789   6.217
 8737SOL    HW127110   2.155   6.731   6.293
 8737SOL    HW227111   2.281   6.782   6.204
 8738SOL     OW27112   2.035   5.439   4.633
 8738SOL    HW127113   2.055   5.396   4.720
 8738SOL    HW227114   2.101   5.410   4.564
 8739SOL     OW27115   5.224   5.431   6.371
 8739SOL    HW127116   5.311   5.409   6.415
 8739SOL    HW227117   5.234   5.422   6.272
 8740SOL     OW27118   4.887   0.923   4.515
 8740SOL    HW127119   4.811   0.866   4.546
 8740SOL    HW227120   4.873   0.950   4.420
 8741SOL     OW27121   2.710   1.526   2.008
 8741SOL    HW127122   2.661   1.453   1.962
 8741SOL    HW227123   2.720   1.604   1.946
 8742SOL     OW27124   5.716   6.362   1.101
 8742SOL    HW127125   5.787   6.348   1.032
 8742SOL    HW227126   5.692   6.275   1.143
 8743SOL     OW27127   1.011   6.820   2.320
 8743SOL    HW127128   1.101   6.863   2.315
 8743SOL    HW227129   0.966   6.847   2.406
 8744SOL     OW27130   3.311   2.656   6.454
 8744SOL    HW127131   3.352   2.598   6.384
 8744SOL    HW227132   3.295   2.747   6.417
 8745SOL     OW27133   5.428   2.606   6.101
 8745SOL    HW127134   5.437   2.626   6.198
 8745SOL    HW227135   5.516   2.577   6.064
 8746SOL     OW27136   5.263   4.306   4.621
 8746SOL    HW127137   5.342   4.247   4.639
 8746SOL    HW227138   5.267   4.340   4.527
 8747SOL     OW27139   0.853   2.822   2.997
 8747SOL    HW127140   0.762   2.842   3.033
 8747SOL    HW227141   0.921   2.829   3.071
 8748SOL     OW27142   0.091   1.798   5.123
 8748SOL    HW127143   0.164   1.778   5.187
 8748SOL    HW227144   0.070   1.896   5.126
 8749SOL     OW27145   2.548   0.725   5.883
 8749SOL    HW127146   2.480   0.668   5.836
 8749SOL    HW227147   2.507   0.812   5.907
 8750SOL     OW27148   3.550   3.864   5.713
 8750SOL    HW127149   3.464   3.887   5.668
 8750SOL    HW227150   3.576   3.770   5.689
 8751SOL     OW27151   5.938   1.213   1.929
 8751SOL    HW127152   5.908   1.125   1.892
 8751SOL    HW227153   6.020   1.200   1.984
 8752SOL     OW27154   2.636   3.708   0.497
 8752SOL    HW127155   2.697   3.785   0.513
 8752SOL    HW227156   2.678   3.643   0.433
 8753SOL     OW27157   4.158   1.751   5.640
 8753SOL    HW127158   4.185   1.719   5.731
 8753SOL    HW227159   4.182   1.682   5.572
 8754SOL     OW27160   1.678   3.353   5.622
 8754SOL    HW127161   1.633   3.438   5.596
 8754SOL    HW227162   1.772   3.352   5.586
 8755SOL     OW27163   2.172   0.075   0.951
 8755SOL    HW127164   2.213   7.008   0.928
 8755SOL    HW227165   2.107   0.101   0.880
 8756SOL     OW27166   1.619   2.982   3.701
 8756SOL    HW127167   1.553   2.972   3.775
 8756SOL    HW227168   1.706   3.013   3.739
 8757SOL     OW27169   3.729   6.045   5.920
 8757SOL    HW127170   3.702   6.126   5.868
 8757SOL    HW227171   3.796   6.071   5.989
 8758SOL     OW27172   4.642   6.200   2.542
 8758SOL    HW127173   4.740   6.179   2.542
 8758SOL    HW227174   4.613   6.222   2.449
 8759SOL     OW27175   4.171   2.712   0.099
 8759SOL    HW127176   4.255   2.662   0.114
 8759SOL    HW227177   4.169   2.794   0.157
 8760SOL     OW27178   1.689   1.144   5.226
 8760SOL    HW127179   1.746   1.200   5.166
 8760SOL    HW227180   1.651   1.200   5.299
 8761SOL     OW27181   5.701   2.317   2.252
 8761SOL    HW127182   5.701   2.228   2.207
 8761SOL    HW227183   5.650   2.383   2.196
 8762SOL     OW27184   1.471   4.094   3.191
 8762SOL    HW127185   1.522   4.102   3.277
 8762SOL    HW227186   1.407   4.171   3.184
 8763SOL     OW27187   6.593   6.885   5.937
 8763SOL    HW127188   6.589   6.985   5.928
 8763SOL    HW227189   6.567   6.843   5.851
 8764SOL     OW27190   4.954   0.600   5.071
 8764SOL    HW127191   4.884   0.548   5.023
 8764SOL    HW227192   4.936   0.698   5.059
 8765SOL     OW27193   5.135   6.836   4.190
 8765SOL    HW127194   5.103   6.823   4.284
 8765SOL    HW227195   5.231   6.864   4.191
 8766SOL     OW27196   4.674   4.412   3.486
 8766SOL    HW127197   4.725   4.436   3.403
 8766SOL    HW227198   4.672   4.312   3.496
 8767SOL     OW27199   4.972   6.310   2.885
 8767SOL    HW127200   4.999   6.219   2.916
 8767SOL    HW227201   5.052   6.369   2.879
 8768SOL     OW27202   1.295   2.886   0.413
 8768SOL    HW127203   1.299   2.962   0.478
 8768SOL    HW227204   1.214   2.896   0.356
 8769SOL     OW27205   0.606   0.774   4.292
 8769SOL    HW127206   0.552   0.698   4.330
 8769SOL    HW227207   0.694   0.739   4.261
 8770SOL     OW27208   4.955   4.438   2.589
 8770SOL    HW127209   4.941   4.443   2.688
 8770SOL    HW227210   4.905   4.360   2.552
 8771SOL     OW27211   0.611   1.015   6.517
 8771SOL    HW127212   0.605   0.952   6.594
 8771SOL    HW227213   0.688   0.990   6.459
 8772SOL     OW27214   5.026   7.009   6.722
 8772SOL    HW127215   4.967   0.059   6.759
 8772SOL    HW227216   5.004   6.995   6.625
 8773SOL     OW27217   4.523   2.414   3.392
 8773SOL    HW127218   4.559   2.330   3.352
 8773SOL    HW227219   4.578   2.440   3.471
 8774SOL     OW27220   1.252   0.976   6.921
 8774SOL    HW127221   1.164   1.008   6.957
 8774SOL    HW227222   1.257   0.876   6.928
 8775SOL     OW27223   6.185   0.035   5.470
 8775SOL    HW127224   6.267   7.017   5.428
 8775SOL    HW227225   6.132   6.984   5.515
 8776SOL     OW27226   3.757   3.154   6.427
 8776SOL    HW127227   3.843   3.111   6.398
 8776SOL    HW227228   3.778   3.231   6.488
 8777SOL     OW27229   0.084   3.905   1.599
 8777SOL    HW127230   0.043   3.934   1.685
 8777SOL    HW227231   0.068   3.974   1.529
 8778SOL     OW27232   6.275   2.728   4.850
 8778SOL    HW127233   6.209   2.754   4.779
 8778SOL    HW227234   6.299   2.808   4.904
 8779SOL     OW27235   2.945   5.402   2.166
 8779SOL    HW127236   2.958   5.313   2.208
 8779SOL    HW227237   3.023   5.423   2.107
 8780SOL     OW27238   0.696   5.960   2.416
 8780SOL    HW127239   0.721   5.868   2.444
 8780SOL    HW227240   0.608   5.958   2.369
 8781SOL     OW27241   5.355   1.278   3.102
 8781SOL    HW127242   5.433   1.278   3.041
 8781SOL    HW227243   5.343   1.369   3.142
 8782SOL     OW27244   5.351   6.395   1.570
 8782SOL    HW127245   5.424   6.433   1.515
 8782SOL    HW227246   5.381   6.307   1.609
 8783SOL     OW27247   6.417   4.124   3.110
 8783SOL    HW127248   6.501   4.070   3.116
 8783SOL    HW227249   6.338   4.064   3.104
 8784SOL     OW27250   5.987   4.205   6.507
 8784SOL    HW127251   5.936   4.203   6.593
 8784SOL    HW227252   5.928   4.241   6.434
 8785SOL     OW27253   6.255   3.282   6.890
 8785SOL    HW127254   6.249   3.182   6.892
 8785SOL    HW227255   6.254   3.313   6.795
 8786SOL     OW27256   1.883   0.695   0.226
 8786SOL    HW127257   1.926   0.754   0.158
 8786SOL    HW227258   1.919   0.718   0.317
 8787SOL     OW27259   3.145   2.277   1.463
 8787SOL    HW127260   3.168   2.193   1.512
 8787SOL    HW227261   3.081   2.255   1.389
 8788SOL     OW27262   6.916   2.013   5.995
 8788SOL    HW127263   6.908   2.004   6.094
 8788SOL    HW227264   7.013   2.012   5.969
 8789SOL     OW27265   6.016   6.810   5.572
 8789SOL    HW127266   6.015   6.757   5.488
 8789SOL    HW227267   5.938   6.873   5.573
 8790SOL     OW27268   0.571   0.101   6.898
 8790SOL    HW127269   0.514   0.061   6.970
 8790SOL    HW227270   0.513   0.138   6.825
 8791SOL     OW27271   5.526   0.115   4.963
 8791SOL    HW127272   5.594   0.080   5.026
 8791SOL    HW227273   5.508   0.212   4.983
 8792SOL     OW27274   2.873   6.592   3.297
 8792SOL    HW127275   2.944   6.545   3.245
 8792SOL    HW227276   2.915   6.655   3.362
 8793SOL     OW27277   1.801   4.683   3.065
 8793SOL    HW127278   1.713   4.656   3.027
 8793SOL    HW227279   1.817   4.780   3.047
 8794SOL     OW27280   4.345   6.403   1.733
 8794SOL    HW127281   4.284   6.359   1.798
 8794SOL    HW227282   4.392   6.479   1.777
 8795SOL     OW27283   1.276   5.620   5.513
 8795SOL    HW127284   1.304   5.716   5.510
 8795SOL    HW227285   1.340   5.565   5.460
 8796SOL     OW27286   3.651   2.109   4.515
 8796SOL    HW127287   3.638   2.026   4.461
 8796SOL    HW227288   3.563   2.150   4.536
 8797SOL     OW27289   0.002   6.903   6.658
 8797SOL    HW127290   7.005   6.815   6.701
 8797SOL    HW227291   0.004   6.974   6.728
 8798SOL     OW27292   5.049   5.879   5.849
 8798SOL    HW127293   5.053   5.858   5.946
 8798SOL    HW227294   5.131   5.930   5.822
 8799SOL     OW27295   2.218   5.049   4.138
 8799SOL    HW127296   2.252   5.027   4.046
 8799SOL    HW227297   2.185   4.965   4.182
 8800SOL     OW27298   6.037   3.580   5.420
 8800SOL    HW127299   6.031   3.679   5.432
 8800SOL    HW227300   5.950   3.546   5.384
 8801SOL     OW27301   0.351   1.905   4.971
 8801SOL    HW127302   0.397   1.893   4.883
 8801SOL    HW227303   0.360   1.822   5.026
 8802SOL     OW27304   1.369   6.707   0.503
 8802SOL    HW127305   1.313   6.650   0.563
 8802SOL    HW227306   1.465   6.696   0.527
 8803SOL     OW27307   6.359   5.769   6.666
 8803SOL    HW127308   6.418   5.768   6.748
 8803SOL    HW227309   6.268   5.737   6.690
 8804SOL     OW27310   3.084   0.286   2.397
 8804SOL    HW127311   3.111   0.360   2.336
 8804SOL    HW227312   3.111   0.198   2.357
 8805SOL     OW27313   2.957   0.131   4.157
 8805SOL    HW127314   2.908   0.218   4.152
 8805SOL    HW227315   3.056   0.149   4.161
 8806SOL     OW27316   2.662   5.471   2.831
 8806SOL    HW127317   2.650   5.556   2.780
 8806SOL    HW227318   2.708   5.403   2.774
 8807SOL     OW27319   5.571   6.989   6.948
 8807SOL    HW127320   5.668   7.010   6.955
 8807SOL    HW227321   5.518   0.043   6.987
 8808SOL     OW27322   6.035   2.923   7.004
 8808SOL    HW127323   6.119   2.935   6.951
 8808SOL    HW227324   6.046   2.847   0.047
 8809SOL     OW27325   4.898   5.626   3.828
 8809SOL    HW127326   4.825   5.619   3.896
 8809SOL    HW227327   4.870   5.580   3.744
 8810SOL     OW27328   5.355   0.563   6.276
 8810SOL    HW127329   5.340   0.600   6.367
 8810SOL    HW227330   5.327   0.466   6.274
 8811SOL     OW27331   3.057   1.296   3.377
 8811SOL    HW127332   2.964   1.279   3.343
 8811SOL    HW227333   3.123   1.268   3.308
 8812SOL     OW27334   1.942   6.723   0.671
 8812SOL    HW127335   1.906   6.690   0.584
 8812SOL    HW227336   1.925   6.822   0.678
 8813SOL     OW27337   1.988   5.190   1.515
 8813SOL    HW127338   2.030   5.106   1.480
 8813SOL    HW227339   2.036   5.220   1.598
 8814SOL     OW27340   5.550   0.572   1.278
 8814SOL    HW127341   5.620   0.642   1.292
 8814SOL    HW227342   5.536   0.521   1.362
 8815SOL     OW27343   5.838   0.287   0.711
 8815SOL    HW127344   5.938   0.287   0.702
 8815SOL    HW227345   5.808   0.201   0.752
 8816SOL     OW27346   1.449   6.966   6.639
 8816SOL    HW127347   1.482   6.980   6.733
 8816SOL    HW227348   1.436   6.869   6.623
 8817SOL     OW27349   0.668   5.237   4.422
 8817SOL    HW127350   0.695   5.332   4.440
 8817SOL    HW227351   0.616   5.203   4.501
 8818SOL     OW27352   0.122   4.228   4.774
 8818SOL    HW127353   0.201   4.169   4.792
 8818SOL    HW227354   0.149   4.324   4.778
 8819SOL     OW27355   5.489   5.241   5.044
 8819SOL    HW127356   5.551   5.319   5.033
 8819SOL    HW227357   5.396   5.269   5.020
 8820SOL     OW27358   2.038   0.931   5.166
 8820SOL    HW127359   1.966   0.917   5.235
 8820SOL    HW227360   2.043   1.027   5.142
 8821SOL     OW27361   2.484   6.506   0.222
 8821SOL    HW127362   2.476   6.421   0.273
 8821SOL    HW227363   2.490   6.583   0.286
 8822SOL     OW27364   0.220   0.107   4.449
 8822SOL    HW127365   0.133   0.104   4.498
 8822SOL    HW227366   0.257   0.200   4.454
 8823SOL     OW27367   2.706   0.859   1.378
 8823SOL    HW127368   2.711   0.828   1.283
 8823SOL    HW227369   2.610   0.869   1.405
 8824SOL     OW27370   0.845   2.357   0.726
 8824SOL    HW127371   0.825   2.452   0.700
 8824SOL    HW227372   0.777   2.325   0.791
 8825SOL     OW27373   2.470   0.329   2.197
 8825SOL    HW127374   2.491   0.240   2.238
 8825SOL    HW227375   2.384   0.363   2.233
 8826SOL     OW27376   6.493   3.640   1.028
 8826SOL    HW127377   6.535   3.731   1.021
 8826SOL    HW227378   6.544   3.584   1.093
 8827SOL     OW27379   3.961   1.809   2.502
 8827SOL    HW127380   3.982   1.738   2.435
 8827SOL    HW227381   3.885   1.864   2.469
 8828SOL     OW27382   4.812   5.829   5.769
 8828SOL    HW127383   4.906   5.850   5.797
 8828SOL    HW227384   4.749   5.895   5.810
 8829SOL     OW27385   5.377   2.334   0.688
 8829SOL    HW127386   5.322   2.333   0.605
 8829SOL    HW227387   5.337   2.397   0.754
 8830SOL     OW27388   1.315   1.603   2.305
 8830SOL    HW127389   1.321   1.615   2.404
 8830SOL    HW227390   1.247   1.533   2.284
 8831SOL     OW27391   4.413   2.091   4.091
 8831SOL    HW127392   4.397   1.993   4.101
 8831SOL    HW227393   4.346   2.142   4.146
 8832SOL     OW27394   0.160   5.543   3.052
 8832SOL    HW127395   0.163   5.447   3.082
 8832SOL    HW227396   0.220   5.554   2.973
 8833SOL     OW27397   2.679   5.223   5.409
 8833SOL    HW127398   2.727   5.135   5.411
 8833SOL    HW227399   2.733   5.290   5.460
 8834SOL     OW27400   5.127   3.981   4.854
 8834SOL    HW127401   5.070   3.925   4.913
 8834SOL    HW227402   5.117   3.951   4.759
 8835SOL     OW27403   5.200   0.719   6.117
 8835SOL    HW127404   5.257   0.656   6.171
 8835SOL    HW227405   5.146   0.776   6.179
 8836SOL     OW27406   5.844   3.088   0.033
 8836SOL    HW127407   5.811   3.120   6.966
 8836SOL    HW227408   5.922   3.026   0.020
 8837SOL     OW27409   6.799   5.878   2.732
 8837SOL    HW127410   6.823   5.958   2.677
 8837SOL    HW227411   6.709   5.890   2.773
 8838SOL     OW27412   2.245   5.513   3.125
 8838SOL    HW127413   2.154   5.551   3.142
 8838SOL    HW227414   2.243   5.457   3.043
 8839SOL     OW27415   5.853   5.316   3.493
 8839SOL    HW127416   5.832   5.219   3.499
 8839SOL    HW227417   5.821   5.352   3.406
 8840SOL     OW27418   6.807   2.068   2.664
 8840SOL    HW127419   6.803   2.165   2.689
 8840SOL    HW227420   6.718   2.026   2.683
 8841SOL     OW27421   0.871   1.311   5.374
 8841SOL    HW127422   0.902   1.243   5.440
 8841SOL    HW227423   0.797   1.272   5.318
 8842SOL     OW27424   3.599   2.880   2.495
 8842SOL    HW127425   3.599   2.879   2.595
 8842SOL    HW227426   3.693   2.868   2.461
 8843SOL     OW27427   1.807   2.907   5.691
 8843SOL    HW127428   1.777   2.812   5.694
 8843SOL    HW227429   1.730   2.966   5.665
 8844SOL     OW27430   6.577   2.184   6.314
 8844SOL    HW127431   6.520   2.124   6.257
 8844SOL    HW227432   6.518   2.243   6.370
 8845SOL     OW27433   3.968   3.154   0.348
 8845SOL    HW127434   4.066   3.145   0.363
 8845SOL    HW227435   3.949   3.241   0.303
 8846SOL     OW27436   3.273   5.522   4.147
 8846SOL    HW127437   3.176   5.504   4.162
 8846SOL    HW227438   3.283   5.605   4.091
 8847SOL     OW27439   2.773   0.986   3.315
 8847SOL    HW127440   2.771   0.929   3.233
 8847SOL    HW227441   2.848   0.956   3.375
 8848SOL     OW27442   2.557   1.320   1.911
 8848SOL    HW127443   2.601   1.262   1.842
 8848SOL    HW227444   2.513   1.263   1.980
 8849SOL     OW27445   2.843   6.141   3.379
 8849SOL    HW127446   2.933   6.151   3.337
 8849SOL    HW227447   2.788   6.078   3.325
 8850SOL     OW27448   1.163   2.239   0.402
 8850SOL    HW127449   1.217   2.192   0.472
 8850SOL    HW227450   1.079   2.188   0.383
 8851SOL     OW27451   1.179   4.263   3.377
 8851SOL    HW127452   1.207   4.254   3.281
 8851SOL    HW227453   1.231   4.198   3.432
 8852SOL     OW27454   6.655   2.719   5.352
 8852SOL    HW127455   6.663   2.788   5.280
 8852SOL    HW227456   6.636   2.765   5.439
 8853SOL     OW27457   3.196   1.146   1.421
 8853SOL    HW127458   3.171   1.104   1.508
 8853SOL    HW227459   3.125   1.128   1.353
 8854SOL     OW27460   3.622   2.592   5.952
 8854SOL    HW127461   3.579   2.546   6.029
 8854SOL    HW227462   3.557   2.597   5.875
 8855SOL     OW27463   6.742   5.509   1.451
 8855SOL    HW127464   6.735   5.463   1.362
 8855SOL    HW227465   6.778   5.444   1.519
 8856SOL     OW27466   0.459   6.169   6.469
 8856SOL    HW127467   0.550   6.208   6.460
 8856SOL    HW227468   0.434   6.123   6.383
 8857SOL     OW27469   6.995   1.476   4.278
 8857SOL    HW127470   6.971   1.380   4.267
 8857SOL    HW227471   6.912   1.531   4.280
 8858SOL     OW27472   0.598   3.574   4.941
 8858SOL    HW127473   0.540   3.571   4.860
 8858SOL    HW227474   0.547   3.615   5.017
 8859SOL     OW27475   1.176   0.701   3.482
 8859SOL    HW127476   1.125   0.739   3.405
 8859SOL    HW227477   1.252   0.646   3.447
 8860SOL     OW27478   6.884   2.499   2.327
 8860SOL    HW127479   6.962   2.560   2.340
 8860SOL    HW227480   6.800   2.552   2.322
 8861SOL     OW27481   4.478   1.513   6.373
 8861SOL    HW127482   4.529   1.429   6.356
 8861SOL    HW227483   4.502   1.550   6.462
 8862SOL     OW27484   5.012   0.307   3.582
 8862SOL    HW127485   5.007   0.348   3.491
 8862SOL    HW227486   4.920   0.285   3.615
 8863SOL     OW27487   2.257   4.756   3.873
 8863SOL    HW127488   2.247   4.770   3.972
 8863SOL    HW227489   2.166   4.753   3.831
 8864SOL     OW27490   2.838   5.125   6.644
 8864SOL    HW127491   2.900   5.203   6.642
 8864SOL    HW227492   2.866   5.059   6.574
 8865SOL     OW27493   3.100   0.526   4.605
 8865SOL    HW127494   3.027   0.510   4.672
 8865SOL    HW227495   3.061   0.526   4.513
 8866SOL     OW27496   4.856   0.252   2.908
 8866SOL    HW127497   4.889   0.254   3.003
 8866SOL    HW227498   4.924   0.207   2.850
 8867SOL     OW27499   5.776   4.740   3.283
 8867SOL    HW127500   5.852   4.802   3.265
 8867SOL    HW227501   5.710   4.745   3.207
 8868SOL     OW27502   0.276   3.280   1.471
 8868SOL    HW127503   0.361   3.266   1.419
 8868SOL    HW227504   0.255   3.199   1.524
 8869SOL     OW27505   3.796   5.973   5.172
 8869SOL    HW127506   3.802   5.940   5.266
 8869SOL    HW227507   3.881   5.953   5.124
 8870SOL     OW27508   2.724   6.994   0.652
 8870SOL    HW127509   2.636   6.947   0.648
 8870SOL    HW227510   2.744   0.014   0.564
 8871SOL     OW27511   1.964   1.013   3.832
 8871SOL    HW127512   1.895   0.942   3.817
 8871SOL    HW227513   1.975   1.028   3.930
 8872SOL     OW27514   1.564   4.594   5.258
 8872SOL    HW127515   1.564   4.525   5.186
 8872SOL    HW227516   1.513   4.675   5.226
 8873SOL     OW27517   0.335   6.523   2.233
 8873SOL    HW127518   0.244   6.534   2.194
 8873SOL    HW227519   0.328   6.499   2.330
 8874SOL     OW27520   2.429   6.151   2.593
 8874SOL    HW127521   2.373   6.199   2.660
 8874SOL    HW227522   2.449   6.211   2.516
 8875SOL     OW27523   0.315   3.728   4.514
 8875SOL    HW127524   0.365   3.813   4.528
 8875SOL    HW227525   0.357   3.656   4.569
 8876SOL     OW27526   2.059   6.331   5.385
 8876SOL    HW127527   2.055   6.332   5.485
 8876SOL    HW227528   2.135   6.274   5.355
 8877SOL     OW27529   2.858   1.653   3.734
 8877SOL    HW127530   2.888   1.646   3.829
 8877SOL    HW227531   2.930   1.619   3.674
 8878SOL     OW27532   5.581   4.840   1.087
 8878SOL    HW127533   5.483   4.836   1.105
 8878SOL    HW227534   5.598   4.815   0.992
 8879SOL     OW27535   4.641   4.804   2.320
 8879SOL    HW127536   4.620   4.764   2.409
 8879SOL    HW227537   4.586   4.758   2.249
 8880SOL     OW27538   4.357   5.912   4.639
 8880SOL    HW127539   4.417   5.990   4.661
 8880SOL    HW227540   4.346   5.854   4.719
 8881SOL     OW27541   5.129   6.494   3.781
 8881SOL    HW127542   5.071   6.551   3.839
 8881SOL    HW227543   5.092   6.492   3.688
 8882SOL     OW27544   5.337   0.922   1.470
 8882SOL    HW127545   5.422   0.878   1.497
 8882SOL    HW227546   5.355   1.017   1.444
 8883SOL     OW27547   1.885   6.088   6.159
 8883SOL    HW127548   1.930   6.173   6.186
 8883SOL    HW227549   1.945   6.010   6.180
 8884SOL     OW27550   5.745   3.630   4.990
 8884SOL    HW127551   5.830   3.587   4.961
 8884SOL    HW227552   5.705   3.579   5.066
 8885SOL     OW27553   5.708   4.209   1.478
 8885SOL    HW127554   5.673   4.259   1.399
 8885SOL    HW227555   5.808   4.208   1.474
 8886SOL     OW27556   2.839   6.115   4.986
 8886SOL    HW127557   2.843   6.172   5.068
 8886SOL    HW227558   2.852   6.172   4.905
 8887SOL     OW27559   3.764   0.695   0.771
 8887SOL    HW127560   3.707   0.613   0.779
 8887SOL    HW227561   3.856   0.670   0.741
 8888SOL     OW27562   1.952   1.357   5.551
 8888SOL    HW127563   1.984   1.374   5.644
 8888SOL    HW227564   2.025   1.378   5.486
 8889SOL     OW27565   6.744   0.036   0.259
 8889SOL    HW127566   6.654   0.080   0.263
 8889SOL    HW227567   6.762   7.011   0.346
 8890SOL     OW27568   0.201   6.147   5.267
 8890SOL    HW127569   0.111   6.190   5.261
 8890SOL    HW227570   0.220   6.123   5.362
 8891SOL     OW27571   4.126   3.620   6.884
 8891SOL    HW127572   4.146   3.595   6.789
 8891SOL    HW227573   4.146   3.717   6.897
 8892SOL     OW27574   3.567   5.393   2.397
 8892SOL    HW127575   3.540   5.357   2.486
 8892SOL    HW227576   3.525   5.338   2.325
 8893SOL     OW27577   0.887   5.491   4.061
 8893SOL    HW127578   0.840   5.404   4.046
 8893SOL    HW227579   0.869   5.524   4.153
 8894SOL     OW27580   3.010   1.894   6.932
 8894SOL    HW127581   3.099   1.861   6.961
 8894SOL    HW227582   2.952   1.816   6.906
 8895SOL     OW27583   6.773   2.963   2.334
 8895SOL    HW127584   6.723   3.050   2.331
 8895SOL    HW227585   6.835   2.957   2.256
 8896SOL     OW27586   2.386   2.939   5.454
 8896SOL    HW127587   2.414   2.966   5.362
 8896SOL    HW227588   2.327   2.858   5.449
 8897SOL     OW27589   2.348   2.718   3.882
 8897SOL    HW127590   2.354   2.675   3.792
 8897SOL    HW227591   2.433   2.702   3.933
 8898SOL     OW27592   4.889   3.676   2.499
 8898SOL    HW127593   4.918   3.716   2.586
 8898SOL    HW227594   4.864   3.749   2.435
 8899SOL     OW27595   0.997   4.639   1.476
 8899SOL    HW127596   1.027   4.614   1.568
 8899SOL    HW227597   0.959   4.558   1.430
 8900SOL     OW27598   5.722   3.081   3.033
 8900SOL    HW127599   5.669   3.083   2.948
 8900SOL    HW227600   5.810   3.127   3.019
 8901SOL     OW27601   1.390   1.191   4.688
 8901SOL    HW127602   1.427   1.169   4.779
 8901SOL    HW227603   1.293   1.214   4.696
 8902SOL     OW27604   0.899   5.675   0.719
 8902SOL    HW127605   0.944   5.762   0.735
 8902SOL    HW227606   0.857   5.643   0.804
 8903SOL     OW27607   0.519   1.782   4.196
 8903SOL    HW127608   0.563   1.693   4.199
 8903SOL    HW227609   0.447   1.786   4.266
 8904SOL     OW27610   6.799   0.950   5.162
 8904SOL    HW127611   6.825   0.883   5.231
 8904SOL    HW227612   6.699   0.951   5.153
 8905SOL     OW27613   2.128   3.649   3.430
 8905SOL    HW127614   2.170   3.560   3.449
 8905SOL    HW227615   2.133   3.668   3.332
 8906SOL     OW27616   1.323   6.409   0.245
 8906SOL    HW127617   1.404   6.351   0.233
 8906SOL    HW227618   1.289   6.399   0.339
 8907SOL     OW27619   3.046   2.917   5.635
 8907SOL    HW127620   2.997   2.998   5.605
 8907SOL    HW227621   3.075   2.864   5.555
 8908SOL     OW27622   1.429   5.426   6.950
 8908SOL    HW127623   1.480   5.341   6.931
 8908SOL    HW227624   1.392   5.422   0.021
 8909SOL     OW27625   2.664   1.275   5.536
 8909SOL    HW127626   2.651   1.176   5.536
 8909SOL    HW227627   2.577   1.320   5.559
 8910SOL     OW27628   0.374   3.007   6.029
 8910SOL    HW127629   0.432   2.926   6.037
 8910SOL    HW227630   0.402   3.076   6.095
 8911SOL     OW27631   4.596   2.600   4.211
 8911SOL    HW127632   4.664   2.534   4.180
 8911SOL    HW227633   4.602   2.683   4.155
 8912SOL     OW27634   3.339   3.384   0.108
 8912SOL    HW127635   3.385   3.450   0.048
 8912SOL    HW227636   3.254   3.354   0.065
 8913SOL     OW27637   4.165   5.613   5.907
 8913SOL    HW127638   4.170   5.519   5.873
 8913SOL    HW227639   4.212   5.674   5.844
 8914SOL     OW27640   4.162   6.747   4.648
 8914SOL    HW127641   4.210   6.669   4.608
 8914SOL    HW227642   4.076   6.716   4.688
 8915SOL     OW27643   1.358   2.358   3.802
 8915SOL    HW127644   1.286   2.417   3.767
 8915SOL    HW227645   1.425   2.413   3.853
 8916SOL     OW27646   6.895   2.960   1.152
 8916SOL    HW127647   6.988   2.989   1.129
 8916SOL    HW227648   6.855   3.025   1.216
 8917SOL     OW27649   6.593   2.463   0.516
 8917SOL    HW127650   6.530   2.535   0.546
 8917SOL    HW227651   6.687   2.491   0.536
 8918SOL     OW27652   6.911   4.446   1.384
 8918SOL    HW127653   6.977   4.465   1.456
 8918SOL    HW227654   6.871   4.356   1.399
 8919SOL     OW27655   4.603   4.284   0.009
 8919SOL    HW127656   4.633   4.357   6.970
 8919SOL    HW227657   4.504   4.292   0.025
 8920SOL     OW27658   0.225   1.799   6.860
 8920SOL    HW127659   0.238   1.723   6.924
 8920SOL    HW227660   0.151   1.777   6.796
 8921SOL     OW27661   1.881   2.689   1.745
 8921SOL    HW127662   1.787   2.654   1.748
 8921SOL    HW227663   1.897   2.746   1.826
 8922SOL     OW27664   4.263   5.106   2.033
 8922SOL    HW127665   4.294   5.122   1.939
 8922SOL    HW227666   4.227   5.013   2.040
 8923SOL     OW27667   1.715   1.538   6.790
 8923SOL    HW127668   1.734   1.455   6.843
 8923SOL    HW227669   1.666   1.604   6.848
 8924SOL     OW27670   4.690   5.844   5.194
 8924SOL    HW127671   4.747   5.851   5.276
 8924SOL    HW227672   4.748   5.849   5.113
 8925SOL     OW27673   1.037   0.730   2.574
 8925SOL    HW127674   1.061   0.714   2.478
 8925SOL    HW227675   1.051   0.646   2.627
 8926SOL     OW27676   6.735   2.993   6.152
 8926SOL    HW127677   6.747   2.910   6.207
 8926SOL    HW227678   6.673   3.056   6.199
 8927SOL     OW27679   0.039   0.817   4.944
 8927SOL    HW127680   0.098   0.807   4.863
 8927SOL    HW227681   0.087   0.870   5.013
 8928SOL     OW27682   1.430   6.916   6.002
 8928SOL    HW127683   1.463   6.913   5.908
 8928SOL    HW227684   1.491   6.861   6.060
 8929SOL     OW27685   5.466   1.450   5.053
 8929SOL    HW127686   5.522   1.374   5.086
 8929SOL    HW227687   5.521   1.533   5.050
 8930SOL     OW27688   1.373   2.861   4.869
 8930SOL    HW127689   1.282   2.854   4.828
 8930SOL    HW227690   1.441   2.838   4.800
 8931SOL     OW27691   3.060   3.532   0.980
 8931SOL    HW127692   3.018   3.600   1.041
 8931SOL    HW227693   3.006   3.448   0.981
 8932SOL     OW27694   6.169   2.175   1.809
 8932SOL    HW127695   6.138   2.270   1.802
 8932SOL    HW227696   6.133   2.122   1.732
 8933SOL     OW27697   2.701   2.917   6.288
 8933SOL    HW127698   2.619   2.912   6.345
 8933SOL    HW227699   2.735   2.824   6.270
 8934SOL     OW27700   2.396   5.405   4.716
 8934SOL    HW127701   2.397   5.331   4.783
 8934SOL    HW227702   2.340   5.379   4.638
 8935SOL     OW27703   0.529   4.653   0.284
 8935SOL    HW127704   0.473   4.617   0.358
 8935SOL    HW227705   0.538   4.585   0.212
 8936SOL     OW27706   1.349   3.897   2.589
 8936SOL    HW127707   1.285   3.924   2.661
 8936SOL    HW227708   1.428   3.959   2.590
 8937SOL     OW27709   0.451   0.613   5.792
 8937SOL    HW127710   0.399   0.693   5.820
 8937SOL    HW227711   0.530   0.641   5.738
 8938SOL     OW27712   0.659   6.126   0.370
 8938SOL    HW127713   0.595   6.050   0.382
 8938SOL    HW227714   0.712   6.112   0.287
 8939SOL     OW27715   5.127   3.941   4.239
 8939SOL    HW127716   5.177   3.889   4.307
 8939SOL    HW227717   5.084   4.021   4.282
 8940SOL     OW27718   0.375   1.208   2.210
 8940SOL    HW127719   0.335   1.272   2.144
 8940SOL    HW227720   0.307   1.139   2.233
 8941SOL     OW27721   6.189   2.644   5.301
 8941SOL    HW127722   6.138   2.640   5.215
 8941SOL    HW227723   6.151   2.577   5.365
 8942SOL     OW27724   6.388   4.677   5.381
 8942SOL    HW127725   6.426   4.647   5.293
 8942SOL    HW227726   6.430   4.624   5.454
 8943SOL     OW27727   3.319   5.547   5.968
 8943SOL    HW127728   3.384   5.622   5.978
 8943SOL    HW227729   3.369   5.463   5.944
 8944SOL     OW27730   5.993   5.189   5.899
 8944SOL    HW127731   6.056   5.156   5.969
 8944SOL    HW227732   5.911   5.132   5.898
 8945SOL     OW27733   1.273   0.442   3.057
 8945SOL    HW127734   1.252   0.386   2.976
 8945SOL    HW227735   1.371   0.439   3.075
 8946SOL     OW27736   3.114   1.638   5.041
 8946SOL    HW127737   3.158   1.618   5.128
 8946SOL    HW227738   3.041   1.704   5.055
 8947SOL     OW27739   1.973   3.173   6.342
 8947SOL    HW127740   1.884   3.186   6.297
 8947SOL    HW227741   1.965   3.104   6.413
 8948SOL     OW27742   5.762   6.025   4.831
 8948SOL    HW127743   5.714   6.016   4.743
 8948SOL    HW227744   5.778   6.121   4.851
 8949SOL     OW27745   3.042   6.624   0.868
 8949SOL    HW127746   3.055   6.650   0.772
 8949SOL    HW227747   2.974   6.684   0.909
 8950SOL     OW27748   4.881   4.159   6.310
 8950SOL    HW127749   4.902   4.244   6.261
 8950SOL    HW227750   4.891   4.081   6.248
 8951SOL     OW27751   1.265   1.628   5.316
 8951SOL    HW127752   1.173   1.610   5.281
 8951SOL    HW227753   1.320   1.544   5.309
 8952SOL     OW27754   1.379   6.416   2.823
 8952SOL    HW127755   1.361   6.474   2.902
 8952SOL    HW227756   1.385   6.321   2.852
 8953SOL     OW27757   1.979   4.183   6.651
 8953SOL    HW127758   1.900   4.197   6.711
 8953SOL    HW227759   2.050   4.249   6.673
 8954SOL     OW27760   0.798   0.221   5.181
 8954SOL    HW127761   0.798   0.245   5.278
 8954SOL    HW227762   0.723   0.158   5.162
 8955SOL     OW27763   6.792   5.054   2.269
 8955SOL    HW127764   6.862   5.115   2.304
 8955SOL    HW227765   6.782   5.068   2.171
 8956SOL     OW27766   1.517   1.056   6.958
 8956SOL    HW127767   1.437   1.039   6.901
 8956SOL    HW227768   1.513   1.149   6.994
 8957SOL     OW27769   2.727   4.858   0.963
 8957SOL    HW127770   2.820   4.870   0.928
 8957SOL    HW227771   2.689   4.948   0.984
 8958SOL     OW27772   0.681   1.673   5.055
 8958SOL    HW127773   0.742   1.633   4.986
 8958SOL    HW227774   0.602   1.613   5.069
 8959SOL     OW27775   1.843   4.742   1.808
 8959SOL    HW127776   1.853   4.833   1.848
 8959SOL    HW227777   1.933   4.700   1.799
 8960SOL     OW27778   4.587   4.699   2.553
 8960SOL    HW127779   4.543   4.754   2.623
 8960SOL    HW227780   4.551   4.606   2.556
 8961SOL     OW27781   2.289   1.094   4.251
 8961SOL    HW127782   2.224   1.019   4.260
 8961SOL    HW227783   2.287   1.150   4.334
 8962SOL     OW27784   6.386   5.776   2.233
 8962SOL    HW127785   6.485   5.771   2.223
 8962SOL    HW227786   6.359   5.732   2.319
 8963SOL     OW27787   4.135   6.252   3.974
 8963SOL    HW127788   4.114   6.348   3.989
 8963SOL    HW227789   4.206   6.243   3.905
 8964SOL     OW27790   5.012   3.647   3.079
 8964SOL    HW127791   4.960   3.582   3.133
 8964SOL    HW227792   5.109   3.624   3.084
 8965SOL     OW27793   2.921   4.937   0.267
 8965SOL    HW127794   2.835   4.982   0.290
 8965SOL    HW227795   2.978   4.929   0.349
 8966SOL     OW27796   0.072   4.480   0.202
 8966SOL    HW127797   0.109   4.547   0.266
 8966SOL    HW227798   0.084   4.388   0.239
 8967SOL     OW27799   4.162   0.553   1.449
 8967SOL    HW127800   4.224   0.498   1.506
 8967SOL    HW227801   4.152   0.509   1.360
 8968SOL     OW27802   4.519   5.297   2.980
 8968SOL    HW127803   4.469   5.217   2.947
 8968SOL    HW227804   4.617   5.285   2.962
 8969SOL     OW27805   6.536   1.393   4.728
 8969SOL    HW127806   6.541   1.489   4.701
 8969SOL    HW227807   6.600   1.376   4.803
 8970SOL     OW27808   2.321   2.971   0.359
 8970SOL    HW127809   2.408   3.005   0.324
 8970SOL    HW227810   2.247   3.030   0.325
 8971SOL     OW27811   5.745   5.289   1.334
 8971SOL    HW127812   5.695   5.203   1.323
 8971SOL    HW227813   5.842   5.273   1.316
 8972SOL     OW27814   5.338   4.336   6.902
 8972SOL    HW127815   5.257   4.392   6.919
 8972SOL    HW227816   5.315   4.239   6.915
 8973SOL     OW27817   0.908   3.305   2.561
 8973SOL    HW127818   0.880   3.260   2.646
 8973SOL    HW227819   0.844   3.378   2.539
 8974SOL     OW27820   0.992   4.598   5.374
 8974SOL    HW127821   1.003   4.499   5.371
 8974SOL    HW227822   1.081   4.642   5.359
 8975SOL     OW27823   1.512   6.847   5.427
 8975SOL    HW127824   1.591   6.793   5.398
 8975SOL    HW227825   1.457   6.795   5.493
 8976SOL     OW27826   6.793   4.954   5.864
 8976SOL    HW127827   6.715   4.904   5.826
 8976SOL    HW227828   6.784   5.051   5.841
 8977SOL     OW27829   6.271   2.354   0.248
 8977SOL    HW127830   6.369   2.373   0.240
 8977SOL    HW227831   6.253   2.305   0.333
 8978SOL     OW27832   5.823   0.339   4.095
 8978SOL    HW127833   5.872   0.293   4.021
 8978SOL    HW227834   5.727   0.311   4.093
 8979SOL     OW27835   1.338   3.976   4.651
 8979SOL    HW127836   1.403   3.921   4.598
 8979SOL    HW227837   1.332   3.939   4.744
 8980SOL     OW27838   3.515   2.694   5.548
 8980SOL    HW127839   3.496   2.644   5.633
 8980SOL    HW227840   3.471   2.649   5.471
 8981SOL     OW27841   4.039   1.233   5.704
 8981SOL    HW127842   4.131   1.220   5.742
 8981SOL    HW227843   3.983   1.282   5.771
 8982SOL     OW27844   0.426   2.247   1.529
 8982SOL    HW127845   0.447   2.331   1.579
 8982SOL    HW227846   0.327   2.239   1.518
 8983SOL     OW27847   1.319   5.879   0.047
 8983SOL    HW127848   1.312   5.963   7.015
 8983SOL    HW227849   1.252   5.813   0.014
 8984SOL     OW27850   6.648   6.848   4.138
 8984SOL    HW127851   6.708   6.928   4.132
 8984SOL    HW227852   6.679   6.778   4.074
 8985SOL     OW27853   2.657   1.985   1.033
 8985SOL    HW127854   2.560   1.960   1.033
 8985SOL    HW227855   2.665   2.085   1.031
 8986SOL     OW27856   4.552   5.141   2.303
 8986SOL    HW127857   4.459   5.105   2.310
 8986SOL    HW227858   4.598   5.099   2.225
 8987SOL     OW27859   5.133   0.161   0.788
 8987SOL    HW127860   5.037   0.167   0.814
 8987SOL    HW227861   5.165   0.251   0.758
 8988SOL     OW27862   1.135   3.496   5.699
 8988SOL    HW127863   1.091   3.522   5.785
 8988SOL    HW227864   1.065   3.461   5.636
 8989SOL     OW27865   4.577   3.949   1.428
 8989SOL    HW127866   4.675   3.933   1.431
 8989SOL    HW227867   4.548   3.994   1.513
 8990SOL     OW27868   1.899   6.200   3.127
 8990SOL    HW127869   1.924   6.119   3.074
 8990SOL    HW227870   1.964   6.274   3.110
 8991SOL     OW27871   1.374   1.312   6.837
 8991SOL    HW127872   1.411   1.379   6.774
 8991SOL    HW227873   1.339   1.233   6.786
 8992SOL     OW27874   5.866   1.860   0.018
 8992SOL    HW127875   5.818   1.865   6.951
 8992SOL    HW227876   5.938   1.791   0.012
 8993SOL     OW27877   4.552   2.118   2.401
 8993SOL    HW127878   4.588   2.106   2.308
 8993SOL    HW227879   4.491   2.041   2.423
 8994SOL     OW27880   1.135   4.925   4.484
 8994SOL    HW127881   1.176   4.907   4.573
 8994SOL    HW227882   1.206   4.961   4.422
 8995SOL     OW27883   0.822   2.517   0.161
 8995SOL    HW127884   0.787   2.609   0.175
 8995SOL    HW227885   0.896   2.499   0.225
 8996SOL     OW27886   6.403   4.933   1.046
 8996SOL    HW127887   6.462   5.004   1.007
 8996SOL    HW227888   6.460   4.858   1.080
 8997SOL     OW27889   4.641   1.117   5.995
 8997SOL    HW127890   4.640   1.054   5.917
 8997SOL    HW227891   4.594   1.202   5.969
 8998SOL     OW27892   6.492   3.881   4.647
 8998SOL    HW127893   6.496   3.947   4.722
 8998SOL    HW227894   6.548   3.913   4.572
 8999SOL     OW27895   5.128   6.364   0.218
 8999SOL    HW127896   5.162   6.270   0.231
 8999SOL    HW227897   5.030   6.367   0.237
 9000SOL     OW27898   2.057   4.316   0.760
 9000SOL    HW127899   2.025   4.223   0.779
 9000SOL    HW227900   2.156   4.319   0.770
 9001SOL     OW27901   0.875   5.391   2.408
 9001SOL    HW127902   0.904   5.480   2.374
 9001SOL    HW227903   0.950   5.349   2.460
 9002SOL     OW27904   6.996   4.886   5.153
 9002SOL    HW127905   6.944   4.919   5.074
 9002SOL    HW227906   0.069   4.916   5.145
 9003SOL     OW27907   5.238   2.859   1.534
 9003SOL    HW127908   5.189   2.905   1.608
 9003SOL    HW227909   5.195   2.770   1.516
 9004SOL     OW27910   4.307   6.461   1.398
 9004SOL    HW127911   4.230   6.519   1.372
 9004SOL    HW227912   4.274   6.373   1.430
 9005SOL     OW27913   5.056   2.660   4.246
 9005SOL    HW127914   4.980   2.605   4.279
 9005SOL    HW227915   5.093   2.714   4.321
 9006SOL     OW27916   2.474   6.946   0.590
 9006SOL    HW127917   2.463   0.016   0.629
 9006SOL    HW227918   2.388   6.896   0.599
 9007SOL     OW27919   3.550   1.030   4.405
 9007SOL    HW127920   3.590   0.979   4.481
 9007SOL    HW227921   3.574   0.985   4.318
 9008SOL     OW27922   1.170   5.743   3.153
 9008SOL    HW127923   1.172   5.699   3.063
 9008SOL    HW227924   1.082   5.725   3.197
 9009SOL     OW27925   3.302   0.282   0.582
 9009SOL    HW127926   3.251   0.208   0.625
 9009SOL    HW227927   3.396   0.253   0.566
 9010SOL     OW27928   1.549   6.218   3.836
 9010SOL    HW127929   1.614   6.198   3.909
 9010SOL    HW227930   1.573   6.305   3.794
 9011SOL     OW27931   5.130   2.376   2.270
 9011SOL    HW127932   5.096   2.409   2.182
 9011SOL    HW227933   5.196   2.302   2.255
 9012SOL     OW27934   2.272   4.674   1.112
 9012SOL    HW127935   2.225   4.657   1.026
 9012SOL    HW227936   2.325   4.593   1.138
 9013SOL     OW27937   6.750   6.651   5.251
 9013SOL    HW127938   6.845   6.683   5.252
 9013SOL    HW227939   6.691   6.723   5.288
 9014SOL     OW27940   6.433   1.948   0.115
 9014SOL    HW127941   6.347   1.953   0.166
 9014SOL    HW227942   6.492   1.879   0.157
 9015SOL     OW27943   5.148   1.623   1.044
 9015SOL    HW127944   5.079   1.624   0.972
 9015SOL    HW227945   5.229   1.575   1.012
 9016SOL     OW27946   0.424   6.918   6.398
 9016SOL    HW127947   0.469   6.838   6.438
 9016SOL    HW227948   0.487   6.962   6.333
 9017SOL     OW27949   4.292   1.868   3.227
 9017SOL    HW127950   4.283   1.819   3.141
 9017SOL    HW227951   4.247   1.957   3.219
 9018SOL     OW27952   4.063   2.345   0.192
 9018SOL    HW127953   4.140   2.338   0.129
 9018SOL    HW227954   4.007   2.424   0.167
 9019SOL     OW27955   1.363   6.788   2.313
 9019SOL    HW127956   1.456   6.794   2.278
 9019SOL    HW227957   1.303   6.846   2.258
 9020SOL     OW27958   0.602   4.258   1.591
 9020SOL    HW127959   0.585   4.261   1.492
 9020SOL    HW227960   0.551   4.182   1.631
 9021SOL     OW27961   6.699   0.313   3.974
 9021SOL    HW127962   6.714   0.223   4.017
 9021SOL    HW227963   6.717   0.385   4.041
 9022SOL     OW27964   3.342   2.308   6.822
 9022SOL    HW127965   3.381   2.315   6.914
 9022SOL    HW227966   3.262   2.249   6.824
 9023SOL     OW27967   2.962   3.238   2.436
 9023SOL    HW127968   2.985   3.215   2.341
 9023SOL    HW227969   2.876   3.195   2.462
 9024SOL     OW27970   0.654   4.525   4.707
 9024SOL    HW127971   0.676   4.536   4.610
 9024SOL    HW227972   0.591   4.598   4.735
 9025SOL     OW27973   0.962   5.145   0.106
 9025SOL    HW127974   0.892   5.105   0.047
 9025SOL    HW227975   1.051   5.139   0.061
 9026SOL     OW27976   4.427   3.177   1.100
 9026SOL    HW127977   4.330   3.169   1.125
 9026SOL    HW227978   4.455   3.094   1.051
 9027SOL     OW27979   1.323   2.498   4.274
 9027SOL    HW127980   1.289   2.454   4.192
 9027SOL    HW227981   1.303   2.596   4.270
 9028SOL     OW27982   2.382   3.468   5.254
 9028SOL    HW127983   2.303   3.507   5.206
 9028SOL    HW227984   2.424   3.538   5.312
 9029SOL     OW27985   3.467   6.162   4.900
 9029SOL    HW127986   3.441   6.079   4.949
 9029SOL    HW227987   3.480   6.237   4.965
 9030SOL     OW27988   2.259   1.664   3.145
 9030SOL    HW127989   2.162   1.642   3.158
 9030SOL    HW227990   2.274   1.697   3.052
 9031SOL     OW27991   4.205   5.436   4.362
 9031SOL    HW127992   4.169   5.481   4.280
 9031SOL    HW227993   4.289   5.387   4.338
 9032SOL     OW27994   3.808   2.983   0.486
 9032SOL    HW127995   3.729   2.987   0.425
 9032SOL    HW227996   3.889   3.020   0.440
 9033SOL     OW27997   1.082   3.860   3.200
 9033SOL    HW127998   1.019   3.934   3.179
 9033SOL    HW227999   1.124   3.827   3.115
 9034SOL     OW28000   2.660   0.243   5.511
 9034SOL    HW128001   2.636   0.252   5.414
 9034SOL    HW228002   2.629   0.155   5.545
 9035SOL     OW28003   1.292   4.815   6.191
 9035SOL    HW128004   1.248   4.903   6.206
 9035SOL    HW228005   1.354   4.822   6.112
 9036SOL     OW28006   1.571   1.448   5.846
 9036SOL    HW128007   1.551   1.351   5.839
 9036SOL    HW228008   1.624   1.466   5.929
 9037SOL     OW28009   1.003   4.315   5.401
 9037SOL    HW128010   1.085   4.358   5.439
 9037SOL    HW228011   1.025   4.278   5.310
 9038SOL     OW28012   4.083   6.632   5.702
 9038SOL    HW128013   4.174   6.672   5.706
 9038SOL    HW228014   4.027   6.669   5.777
 9039SOL     OW28015   2.615   5.828   5.209
 9039SOL    HW128016   2.643   5.743   5.253
 9039SOL    HW228017   2.651   5.830   5.115
 9040SOL     OW28018   3.347   1.703   2.518
 9040SOL    HW128019   3.400   1.652   2.450
 9040SOL    HW228020   3.257   1.662   2.528
 9041SOL     OW28021   0.843   2.501   1.495
 9041SOL    HW128022   0.884   2.410   1.497
 9041SOL    HW228023   0.883   2.558   1.567
 9042SOL     OW28024   3.148   0.276   3.921
 9042SOL    HW128025   3.222   0.335   3.888
 9042SOL    HW228026   3.167   0.248   4.015
 9043SOL     OW28027   1.312   1.069   0.167
 9043SOL    HW128028   1.264   1.042   0.084
 9043SOL    HW228029   1.306   1.168   0.178
 9044SOL     OW28030   6.441   0.992   0.402
 9044SOL    HW128031   6.398   1.070   0.357
 9044SOL    HW228032   6.540   1.006   0.405
 9045SOL     OW28033   2.366   1.257   2.363
 9045SOL    HW128034   2.450   1.221   2.403
 9045SOL    HW228035   2.287   1.217   2.410
 9046SOL     OW28036   3.728   3.582   3.302
 9046SOL    HW128037   3.773   3.495   3.284
 9046SOL    HW228038   3.641   3.586   3.251
 9047SOL     OW28039   1.618   3.210   5.887
 9047SOL    HW128040   1.529   3.242   5.922
 9047SOL    HW228041   1.664   3.286   5.840
 9048SOL     OW28042   5.537   2.796   5.826
 9048SOL    HW128043   5.619   2.854   5.827
 9048SOL    HW228044   5.560   2.706   5.863
 9049SOL     OW28045   3.307   0.153   6.001
 9049SOL    HW128046   3.218   0.193   6.023
 9049SOL    HW228047   3.364   0.153   6.083
 9050SOL     OW28048   0.299   3.112   0.635
 9050SOL    HW128049   0.372   3.045   0.650
 9050SOL    HW228050   0.338   3.203   0.629
 9051SOL     OW28051   3.977   6.816   0.838
 9051SOL    HW128052   3.968   6.720   0.864
 9051SOL    HW228053   4.074   6.840   0.832
 9052SOL     OW28054   2.399   2.218   3.625
 9052SOL    HW128055   2.471   2.148   3.620
 9052SOL    HW228056   2.313   2.178   3.594
 9053SOL     OW28057   2.222   1.645   2.877
 9053SOL    HW128058   2.130   1.608   2.891
 9053SOL    HW228059   2.218   1.716   2.806
 9054SOL     OW28060   2.814   6.226   2.944
 9054SOL    HW128061   2.802   6.318   2.906
 9054SOL    HW228062   2.726   6.191   2.976
 9055SOL     OW28063   5.325   2.762   4.367
 9055SOL    HW128064   5.344   2.743   4.463
 9055SOL    HW228065   5.404   2.806   4.325
 9056SOL     OW28066   0.430   1.300   2.467
 9056SOL    HW128067   0.409   1.256   2.379
 9056SOL    HW228068   0.348   1.346   2.501
 9057SOL     OW28069   5.213   4.421   5.737
 9057SOL    HW128070   5.269   4.340   5.756
 9057SOL    HW228071   5.255   4.501   5.780
 9058SOL     OW28072   2.441   2.067   2.472
 9058SOL    HW128073   2.497   2.132   2.524
 9058SOL    HW228074   2.345   2.095   2.475
 9059SOL     OW28075   0.925   2.020   4.129
 9059SOL    HW128076   0.951   2.117   4.132
 9059SOL    HW228077   1.003   1.965   4.102
 9060SOL     OW28078   6.735   2.930   3.651
 9060SOL    HW128079   6.792   2.875   3.590
 9060SOL    HW228080   6.785   3.013   3.677
 9061SOL     OW28081   2.304   5.952   2.462
 9061SOL    HW128082   2.290   5.877   2.526
 9061SOL    HW228083   2.347   6.029   2.508
 9062SOL     OW28084   1.408   6.222   2.107
 9062SOL    HW128085   1.347   6.294   2.076
 9062SOL    HW228086   1.425   6.231   2.205
 9063SOL     OW28087   2.472   0.044   3.008
 9063SOL    HW128088   2.551   0.045   3.069
 9063SOL    HW228089   2.468   6.978   2.960
 9064SOL     OW28090   6.125   1.925   5.111
 9064SOL    HW128091   6.185   1.854   5.147
 9064SOL    HW228092   6.033   1.913   5.148
 9065SOL     OW28093   3.011   0.025   5.697
 9065SOL    HW128094   2.990   0.069   5.609
 9065SOL    HW228095   2.970   0.079   5.771
 9066SOL     OW28096   4.879   6.193   0.663
 9066SOL    HW128097   4.885   6.118   0.596
 9066SOL    HW228098   4.878   6.280   0.615
 9067SOL     OW28099   0.104   0.402   4.660
 9067SOL    HW128100   0.064   0.446   4.579
 9067SOL    HW228101   0.056   0.433   4.742
 9068SOL     OW28102   2.332   6.515   4.403
 9068SOL    HW128103   2.397   6.566   4.346
 9068SOL    HW228104   2.381   6.475   4.481
 9069SOL     OW28105   1.746   3.428   1.608
 9069SOL    HW128106   1.685   3.502   1.579
 9069SOL    HW228107   1.699   3.340   1.596
 9070SOL     OW28108   1.065   4.003   4.616
 9070SOL    HW128109   1.030   4.076   4.674
 9070SOL    HW228110   1.165   4.010   4.611
 9071SOL     OW28111   5.368   0.658   1.671
 9071SOL    HW128112   5.378   0.563   1.639
 9071SOL    HW228113   5.436   0.715   1.626
 9072SOL     OW28114   0.106   1.516   2.029
 9072SOL    HW128115   0.163   1.551   2.104
 9072SOL    HW228116   0.010   1.519   2.055
 9073SOL     OW28117   3.173   6.782   2.731
 9073SOL    HW128118   3.141   6.766   2.824
 9073SOL    HW228119   3.237   6.859   2.730
 9074SOL     OW28120   1.923   2.168   2.032
 9074SOL    HW128121   1.826   2.185   2.053
 9074SOL    HW228122   1.965   2.252   1.997
 9075SOL     OW28123   1.092   1.446   2.267
 9075SOL    HW128124   1.023   1.515   2.246
 9075SOL    HW228125   1.060   1.388   2.342
 9076SOL     OW28126   6.689   1.901   5.846
 9076SOL    HW128127   6.773   1.950   5.870
 9076SOL    HW228128   6.709   1.803   5.840
 9077SOL     OW28129   4.163   0.096   0.124
 9077SOL    HW128130   4.099   0.054   0.188
 9077SOL    HW228131   4.256   0.068   0.148
 9078SOL     OW28132   4.431   3.466   6.370
 9078SOL    HW128133   4.526   3.474   6.340
 9078SOL    HW228134   4.374   3.439   6.293
 9079SOL     OW28135   3.384   0.417   4.196
 9079SOL    HW128136   3.296   0.458   4.172
 9079SOL    HW228137   3.458   0.478   4.166
 9080SOL     OW28138   4.322   2.416   6.755
 9080SOL    HW128139   4.304   2.395   6.659
 9080SOL    HW228140   4.254   2.481   6.788
 9081SOL     OW28141   3.575   6.981   2.458
 9081SOL    HW128142   3.632   0.042   2.462
 9081SOL    HW228143   3.594   6.923   2.538
 9082SOL     OW28144   1.901   0.281   5.706
 9082SOL    HW128145   1.926   0.226   5.626
 9082SOL    HW228146   1.815   0.248   5.743
 9083SOL     OW28147   3.017   5.804   6.152
 9083SOL    HW128148   3.097   5.842   6.105
 9083SOL    HW228149   3.017   5.704   6.141
 9084SOL     OW28150   3.155   4.038   4.599
 9084SOL    HW128151   3.102   3.975   4.656
 9084SOL    HW228152   3.146   4.011   4.503
 9085SOL     OW28153   2.431   7.001   1.884
 9085SOL    HW128154   2.386   6.913   1.879
 9085SOL    HW228155   2.367   0.052   1.858
 9086SOL     OW28156   1.127   4.364   0.629
 9086SOL    HW128157   1.189   4.319   0.694
 9086SOL    HW228158   1.060   4.418   0.680
 9087SOL     OW28159   4.328   2.164   1.668
 9087SOL    HW128160   4.338   2.076   1.622
 9087SOL    HW228161   4.271   2.153   1.749
 9088SOL     OW28162   0.110   6.857   0.486
 9088SOL    HW128163   0.198   6.810   0.484
 9088SOL    HW228164   0.036   6.791   0.473
 9089SOL     OW28165   5.285   5.629   5.858
 9089SOL    HW128166   5.278   5.602   5.954
 9089SOL    HW228167   5.201   5.603   5.810
 9090SOL     OW28168   0.236   1.296   4.025
 9090SOL    HW128169   0.210   1.302   4.121
 9090SOL    HW228170   0.155   1.308   3.967
 9091SOL     OW28171   3.266   4.263   6.714
 9091SOL    HW128172   3.299   4.202   6.786
 9091SOL    HW228173   3.265   4.357   6.748
 9092SOL     OW28174   6.561   0.804   6.925
 9092SOL    HW128175   6.498   0.784   6.849
 9092SOL    HW228176   6.524   0.765   7.009
 9093SOL     OW28177   0.954   5.827   5.728
 9093SOL    HW128178   1.022   5.836   5.800
 9093SOL    HW228179   0.984   5.758   5.662
 9094SOL     OW28180   6.491   4.764   3.182
 9094SOL    HW128181   6.484   4.684   3.121
 9094SOL    HW228182   6.558   4.828   3.145
 9095SOL     OW28183   4.860   4.505   6.109
 9095SOL    HW128184   4.764   4.527   6.091
 9095SOL    HW228185   4.918   4.578   6.072
 9096SOL     OW28186   6.124   5.086   2.813
 9096SOL    HW128187   6.182   5.147   2.866
 9096SOL    HW228188   6.090   5.134   2.732
 9097SOL     OW28189   1.034   1.621   1.075
 9097SOL    HW128190   1.119   1.672   1.084
 9097SOL    HW228191   0.961   1.683   1.048
 9098SOL     OW28192   3.102   2.102   4.541
 9098SOL    HW128193   3.165   2.124   4.616
 9098SOL    HW228194   3.149   2.117   4.454
 9099SOL     OW28195   3.423   3.168   6.015
 9099SOL    HW128196   3.456   3.182   5.922
 9099SOL    HW228197   3.501   3.171   6.078
 9100SOL     OW28198   0.180   3.351   3.324
 9100SOL    HW128199   0.165   3.260   3.363
 9100SOL    HW228200   0.257   3.395   3.370
 9101SOL     OW28201   2.767   2.457   1.692
 9101SOL    HW128202   2.851   2.458   1.746
 9101SOL    HW228203   2.781   2.402   1.610
 9102SOL     OW28204   4.011   6.247   2.057
 9102SOL    HW128205   3.993   6.164   2.110
 9102SOL    HW228206   3.927   6.276   2.011
 9103SOL     OW28207   5.927   2.599   6.878
 9103SOL    HW128208   5.881   2.554   6.801
 9103SOL    HW228209   6.006   2.650   6.845
 9104SOL     OW28210   6.862   6.592   1.332
 9104SOL    HW128211   6.901   6.678   1.365
 9104SOL    HW228212   6.769   6.582   1.365
 9105SOL     OW28213   0.954   1.364   6.358
 9105SOL    HW128214   1.047   1.394   6.340
 9105SOL    HW228215   0.920   1.409   6.441
 9106SOL     OW28216   5.479   3.803   1.586
 9106SOL    HW128217   5.564   3.832   1.629
 9106SOL    HW228218   5.495   3.720   1.532
 9107SOL     OW28219   2.205   0.705   6.590
 9107SOL    HW128220   2.208   0.615   6.635
 9107SOL    HW228221   2.110   0.730   6.572
 9108SOL     OW28222   4.988   4.219   4.895
 9108SOL    HW128223   5.062   4.269   4.939
 9108SOL    HW228224   5.021   4.129   4.866
 9109SOL     OW28225   6.506   3.439   3.073
 9109SOL    HW128226   6.499   3.459   3.170
 9109SOL    HW228227   6.526   3.342   3.060
 9110SOL     OW28228   2.023   5.128   4.395
 9110SOL    HW128229   2.109   5.091   4.360
 9110SOL    HW228230   1.950   5.110   4.329
 9111SOL     OW28231   4.860   2.608   6.924
 9111SOL    HW128232   4.883   2.690   6.976
 9111SOL    HW228233   4.766   2.580   6.945
 9112SOL     OW28234   1.688   5.888   2.605
 9112SOL    HW128235   1.725   5.816   2.665
 9112SOL    HW228236   1.682   5.974   2.656
 9113SOL     OW28237   5.204   2.694   2.611
 9113SOL    HW128238   5.134   2.637   2.653
 9113SOL    HW228239   5.161   2.776   2.572
 9114SOL     OW28240   6.923   5.212   3.581
 9114SOL    HW128241   6.881   5.187   3.494
 9114SOL    HW228242   6.863   5.277   3.629
 9115SOL     OW28243   6.376   5.554   5.072
 9115SOL    HW128244   6.362   5.567   5.170
 9115SOL    HW228245   6.315   5.482   5.039
 9116SOL     OW28246   0.372   6.754   2.905
 9116SOL    HW128247   0.419   6.836   2.871
 9116SOL    HW228248   0.308   6.780   2.977
 9117SOL     OW28249   3.770   2.812   5.980
 9117SOL    HW128250   3.716   2.730   5.960
 9117SOL    HW228251   3.758   2.879   5.906
 9118SOL     OW28252   6.731   3.411   0.199
 9118SOL    HW128253   6.658   3.345   0.218
 9118SOL    HW228254   6.699   3.478   0.132
 9119SOL     OW28255   3.474   1.121   2.136
 9119SOL    HW128256   3.554   1.090   2.085
 9119SOL    HW228257   3.432   1.198   2.088
 9120SOL     OW28258   0.203   1.817   5.697
 9120SOL    HW128259   0.169   1.883   5.630
 9120SOL    HW228260   0.160   1.836   5.786
 9121SOL     OW28261   3.256   5.843   4.703
 9121SOL    HW128262   3.260   5.939   4.733
 9121SOL    HW228263   3.314   5.788   4.763
 9122SOL     OW28264   2.514   4.542   1.988
 9122SOL    HW128265   2.612   4.555   1.975
 9122SOL    HW228266   2.468   4.548   1.899
 9123SOL     OW28267   2.072   0.655   4.325
 9123SOL    HW128268   2.016   0.580   4.359
 9123SOL    HW228269   2.138   0.621   4.258
 9124SOL     OW28270   3.929   5.349   0.484
 9124SOL    HW128271   3.849   5.349   0.425
 9124SOL    HW228272   3.911   5.293   0.564
 9125SOL     OW28273   3.956   4.617   1.129
 9125SOL    HW128274   4.018   4.655   1.060
 9125SOL    HW228275   3.933   4.523   1.104
 9126SOL     OW28276   5.111   4.059   1.861
 9126SOL    HW128277   5.174   4.136   1.858
 9126SOL    HW228278   5.163   3.973   1.860
 9127SOL     OW28279   0.066   1.620   5.903
 9127SOL    HW128280   0.065   1.522   5.884
 9127SOL    HW228281   0.139   1.640   5.970
 9128SOL     OW28282   6.483   2.244   5.243
 9128SOL    HW128283   6.395   2.228   5.198
 9128SOL    HW228284   6.491   2.341   5.267
 9129SOL     OW28285   6.188   1.883   0.246
 9129SOL    HW128286   6.139   1.806   0.206
 9129SOL    HW228287   6.156   1.897   0.340
 9130SOL     OW28288   1.463   4.374   6.265
 9130SOL    HW128289   1.384   4.429   6.240
 9130SOL    HW228290   1.444   4.278   6.245
 9131SOL     OW28291   5.023   3.304   6.083
 9131SOL    HW128292   5.109   3.343   6.116
 9131SOL    HW228293   4.995   3.350   5.999
 9132SOL     OW28294   1.007   5.347   4.322
 9132SOL    HW128295   1.090   5.396   4.348
 9132SOL    HW228296   0.954   5.403   4.259
 9133SOL     OW28297   3.765   0.188   1.016
 9133SOL    HW128298   3.729   0.179   0.923
 9133SOL    HW228299   3.733   0.275   1.055
 9134SOL     OW28300   4.122   5.041   1.133
 9134SOL    HW128301   4.125   4.942   1.118
 9134SOL    HW228302   4.034   5.066   1.175
 9135SOL     OW28303   0.720   6.833   1.485
 9135SOL    HW128304   0.801   6.793   1.527
 9135SOL    HW228305   0.745   6.880   1.401
 9136SOL     OW28306   5.081   6.280   5.487
 9136SOL    HW128307   5.081   6.347   5.413
 9136SOL    HW228308   5.038   6.195   5.454
 9137SOL     OW28309   3.781   0.651   6.508
 9137SOL    HW128310   3.770   0.630   6.605
 9137SOL    HW228311   3.697   0.629   6.460
 9138SOL     OW28312   1.085   3.884   6.455
 9138SOL    HW128313   1.019   3.958   6.467
 9138SOL    HW228314   1.076   3.846   6.363
 9139SOL     OW28315   1.134   1.389   1.993
 9139SOL    HW128316   1.070   1.328   1.946
 9139SOL    HW228317   1.112   1.391   2.091
 9140SOL     OW28318   1.312   4.324   1.651
 9140SOL    HW128319   1.266   4.253   1.703
 9140SOL    HW228320   1.260   4.410   1.658
 9141SOL     OW28321   6.434   6.642   0.664
 9141SOL    HW128322   6.446   6.632   0.565
 9141SOL    HW228323   6.515   6.686   0.703
 9142SOL     OW28324   0.656   3.738   1.279
 9142SOL    HW128325   0.574   3.707   1.327
 9142SOL    HW228326   0.671   3.681   1.198
 9143SOL     OW28327   6.764   3.747   1.348
 9143SOL    HW128328   6.692   3.727   1.282
 9143SOL    HW228329   6.728   3.804   1.422
 9144SOL     OW28330   3.742   5.489   4.561
 9144SOL    HW128331   3.678   5.413   4.568
 9144SOL    HW228332   3.836   5.454   4.568
 9145SOL     OW28333   1.078   6.091   6.444
 9145SOL    HW128334   1.091   6.128   6.536
 9145SOL    HW228335   1.076   5.991   6.447
 9146SOL     OW28336   5.176   3.874   2.687
 9146SOL    HW128337   5.212   3.812   2.617
 9146SOL    HW228338   5.077   3.862   2.694
 9147SOL     OW28339   6.624   0.560   4.957
 9147SOL    HW128340   6.627   0.468   4.995
 9147SOL    HW228341   6.717   0.596   4.948
 9148SOL     OW28342   5.722   6.860   1.892
 9148SOL    HW128343   5.744   6.782   1.834
 9148SOL    HW228344   5.791   6.868   1.964
 9149SOL     OW28345   5.625   3.035   1.940
 9149SOL    HW128346   5.527   3.036   1.917
 9149SOL    HW228347   5.676   3.084   1.869
 9150SOL     OW28348   3.500   4.707   0.699
 9150SOL    HW128349   3.428   4.656   0.653
 9150SOL    HW228350   3.589   4.684   0.658
 9151SOL     OW28351   2.231   4.060   3.049
 9151SOL    HW128352   2.274   4.114   2.976
 9151SOL    HW228353   2.149   4.107   3.081
 9152SOL     OW28354   1.842   4.568   4.402
 9152SOL    HW128355   1.747   4.549   4.379
 9152SOL    HW228356   1.885   4.486   4.439
 9153SOL     OW28357   0.291   2.365   6.791
 9153SOL    HW128358   0.330   2.377   6.700
 9153SOL    HW228359   0.234   2.444   6.814
 9154SOL     OW28360   4.805   4.090   3.962
 9154SOL    HW128361   4.752   4.116   4.042
 9154SOL    HW228362   4.875   4.159   3.944
 9155SOL     OW28363   2.196   4.689   2.934
 9155SOL    HW128364   2.139   4.725   2.859
 9155SOL    HW228365   2.208   4.760   3.003
 9156SOL     OW28366   6.597   2.322   1.872
 9156SOL    HW128367   6.614   2.407   1.921
 9156SOL    HW228368   6.546   2.259   1.931
 9157SOL     OW28369   3.190   4.189   6.436
 9157SOL    HW128370   3.162   4.246   6.514
 9157SOL    HW228371   3.273   4.139   6.460
 9158SOL     OW28372   6.447   3.909   4.258
 9158SOL    HW128373   6.540   3.939   4.280
 9158SOL    HW228374   6.445   3.809   4.252
 9159SOL     OW28375   1.957   0.229   3.812
 9159SOL    HW128376   1.908   0.165   3.871
 9159SOL    HW228377   2.051   0.239   3.844
 9160SOL     OW28378   6.922   6.109   5.988
 9160SOL    HW128379   6.965   6.019   5.990
 9160SOL    HW228380   6.831   6.103   6.031
 9161SOL     OW28381   6.399   4.853   3.436
 9161SOL    HW128382   6.334   4.790   3.479
 9161SOL    HW228383   6.433   4.813   3.351
 9162SOL     OW28384   3.638   0.255   2.900
 9162SOL    HW128385   3.681   0.265   2.990
 9162SOL    HW228386   3.634   0.344   2.855
 9163SOL     OW28387   6.976   3.628   3.009
 9163SOL    HW128388   6.901   3.684   2.976
 9163SOL    HW228389   6.954   3.592   3.100
 9164SOL     OW28390   1.723   1.122   6.784
 9164SOL    HW128391   1.644   1.076   6.824
 9164SOL    HW228392   1.772   1.173   6.855
 9165SOL     OW28393   4.596   1.656   6.143
 9165SOL    HW128394   4.565   1.614   6.228
 9165SOL    HW228395   4.544   1.619   6.066
 9166SOL     OW28396   4.473   5.382   1.125
 9166SOL    HW128397   4.567   5.372   1.094
 9166SOL    HW228398   4.426   5.448   1.067
 9167SOL     OW28399   1.556   2.362   6.114
 9167SOL    HW128400   1.642   2.412   6.121
 9167SOL    HW228401   1.566   2.287   6.049
 9168SOL     OW28402   6.864   6.384   6.849
 9168SOL    HW128403   6.944   6.379   6.909
 9168SOL    HW228404   6.794   6.321   6.882
 9169SOL     OW28405   6.375   6.003   6.301
 9169SOL    HW128406   6.321   6.086   6.317
 9169SOL    HW228407   6.319   5.923   6.318
 9170SOL     OW28408   1.952   0.772   6.552
 9170SOL    HW128409   1.892   0.752   6.629
 9170SOL    HW228410   1.953   0.694   6.490
 9171SOL     OW28411   3.305   5.442   0.496
 9171SOL    HW128412   3.343   5.485   0.415
 9171SOL    HW228413   3.251   5.509   0.548
 9172SOL     OW28414   4.491   2.039   4.591
 9172SOL    HW128415   4.501   2.110   4.661
 9172SOL    HW228416   4.477   1.950   4.635
 9173SOL     OW28417   5.793   3.028   4.429
 9173SOL    HW128418   5.757   2.937   4.451
 9173SOL    HW228419   5.793   3.085   4.511
 9174SOL     OW28420   1.105   5.942   6.868
 9174SOL    HW128421   1.095   5.853   6.913
 9174SOL    HW228422   1.019   5.992   6.871
 9175SOL     OW28423   1.232   6.781   6.979
 9175SOL    HW128424   1.274   6.862   6.937
 9175SOL    HW228425   1.299   6.737   0.018
 9176SOL     OW28426   2.517   6.933   1.135
 9176SOL    HW128427   2.516   6.980   1.047
 9176SOL    HW228428   2.605   6.887   1.148
 9177SOL     OW28429   1.530   2.504   4.022
 9177SOL    HW128430   1.569   2.425   4.069
 9177SOL    HW228431   1.603   2.562   3.988
 9178SOL     OW28432   2.175   5.304   6.409
 9178SOL    HW128433   2.208   5.218   6.369
 9178SOL    HW228434   2.252   5.365   6.426
 9179SOL     OW28435   1.938   5.962   5.390
 9179SOL    HW128436   1.998   5.962   5.310
 9179SOL    HW228437   1.846   5.991   5.363
 9180SOL     OW28438   6.702   2.630   3.735
 9180SOL    HW128439   6.645   2.710   3.714
 9180SOL    HW228440   6.732   2.587   3.650
 9181SOL     OW28441   5.128   2.628   3.783
 9181SOL    HW128442   5.052   2.656   3.842
 9181SOL    HW228443   5.095   2.563   3.715
 9182SOL     OW28444   3.062   1.019   3.465
 9182SOL    HW128445   3.091   0.959   3.391
 9182SOL    HW228446   3.038   1.109   3.427
 9183SOL     OW28447   4.995   3.930   6.178
 9183SOL    HW128448   5.066   3.864   6.157
 9183SOL    HW228449   4.936   3.894   6.251
 9184SOL     OW28450   3.731   2.254   0.935
 9184SOL    HW128451   3.752   2.331   0.875
 9184SOL    HW228452   3.715   2.172   0.879
 9185SOL     OW28453   0.461   6.695   5.658
 9185SOL    HW128454   0.388   6.739   5.711
 9185SOL    HW228455   0.454   6.596   5.669
 9186SOL     OW28456   4.701   0.310   5.204
 9186SOL    HW128457   4.776   0.360   5.246
 9186SOL    HW228458   4.623   0.372   5.190
 9187SOL     OW28459   4.269   2.139   6.844
 9187SOL    HW128460   4.344   2.073   6.833
 9187SOL    HW228461   4.291   2.222   6.793
 9188SOL     OW28462   0.833   0.516   1.500
 9188SOL    HW128463   0.901   0.563   1.444
 9188SOL    HW228464   0.878   0.472   1.577
 9189SOL     OW28465   2.766   0.082   3.282
 9189SOL    HW128466   2.824   0.088   3.363
 9189SOL    HW228467   2.684   0.029   3.304
 9190SOL     OW28468   6.877   3.313   4.991
 9190SOL    HW128469   6.949   3.264   4.942
 9190SOL    HW228470   6.870   3.407   4.957
 9191SOL     OW28471   4.780   6.704   6.434
 9191SOL    HW128472   4.864   6.683   6.384
 9191SOL    HW228473   4.791   6.791   6.483
 9192SOL     OW28474   5.992   3.283   5.952
 9192SOL    HW128475   6.008   3.239   5.864
 9192SOL    HW228476   5.984   3.213   6.023
 9193SOL     OW28477   3.491   3.837   4.047
 9193SOL    HW128478   3.450   3.928   4.041
 9193SOL    HW228479   3.483   3.803   4.141
 9194SOL     OW28480   3.378   5.772   1.885
 9194SOL    HW128481   3.384   5.869   1.912
 9194SOL    HW228482   3.453   5.721   1.928
 9195SOL     OW28483   2.422   2.445   4.419
 9195SOL    HW128484   2.486   2.463   4.493
 9195SOL    HW228485   2.452   2.365   4.368
 9196SOL     OW28486   5.812   0.246   3.703
 9196SOL    HW128487   5.805   0.346   3.697
 9196SOL    HW228488   5.867   0.221   3.782
 9197SOL     OW28489   3.584   4.953   0.483
 9197SOL    HW128490   3.612   4.911   0.569
 9197SOL    HW228491   3.548   5.045   0.501
 9198SOL     OW28492   5.486   4.233   5.884
 9198SOL    HW128493   5.510   4.191   5.972
 9198SOL    HW228494   5.420   4.174   5.836
 9199SOL     OW28495   0.368   2.989   6.390
 9199SOL    HW128496   0.298   3.054   6.418
 9199SOL    HW228497   0.433   3.034   6.329
 9200SOL     OW28498   2.000   5.739   6.637
 9200SOL    HW128499   2.041   5.825   6.606
 9200SOL    HW228500   1.901   5.742   6.624
 9201SOL     OW28501   0.666   3.617   1.030
 9201SOL    HW128502   0.754   3.605   0.985
 9201SOL    HW228503   0.632   3.710   1.012
 9202SOL     OW28504   1.041   5.734   4.217
 9202SOL    HW128505   1.060   5.766   4.124
 9202SOL    HW228506   1.063   5.807   4.282
 9203SOL     OW28507   5.115   2.249   6.133
 9203SOL    HW128508   5.120   2.149   6.128
 9203SOL    HW228509   5.196   2.288   6.090
 9204SOL     OW28510   5.264   3.706   3.351
 9204SOL    HW128511   5.281   3.679   3.256
 9204SOL    HW228512   5.294   3.632   3.412
 9205SOL     OW28513   5.236   4.151   2.563
 9205SOL    HW128514   5.287   4.218   2.618
 9205SOL    HW228515   5.208   4.075   2.621
 9206SOL     OW28516   3.214   0.194   4.180
 9206SOL    HW128517   3.241   0.151   4.266
 9206SOL    HW228518   3.288   0.254   4.148
 9207SOL     OW28519   3.393   6.438   5.714
 9207SOL    HW128520   3.390   6.390   5.801
 9207SOL    HW228521   3.305   6.482   5.696
 9208SOL     OW28522   5.696   4.480   2.388
 9208SOL    HW128523   5.611   4.428   2.383
 9208SOL    HW228524   5.676   4.578   2.379
 9209SOL     OW28525   4.230   0.567   1.872
 9209SOL    HW128526   4.189   0.486   1.916
 9209SOL    HW228527   4.304   0.601   1.929
 9210SOL     OW28528   0.524   1.112   1.766
 9210SOL    HW128529   0.594   1.130   1.834
 9210SOL    HW228530   0.457   1.048   1.803
 9211SOL     OW28531   5.074   2.456   5.889
 9211SOL    HW128532   5.147   2.400   5.851
 9211SOL    HW228533   5.004   2.398   5.930
 9212SOL     OW28534   4.715   4.266   4.940
 9212SOL    HW128535   4.677   4.185   4.894
 9212SOL    HW228536   4.813   4.271   4.923
 9213SOL     OW28537   4.807   5.877   4.422
 9213SOL    HW128538   4.804   5.922   4.511
 9213SOL    HW228539   4.714   5.866   4.387
 9214SOL     OW28540   6.983   2.312   5.453
 9214SOL    HW128541   6.989   2.294   5.355
 9214SOL    HW228542   6.930   2.396   5.467
 9215SOL     OW28543   0.761   4.590   2.490
 9215SOL    HW128544   0.704   4.525   2.541
 9215SOL    HW228545   0.821   4.541   2.427
 9216SOL     OW28546   2.560   6.703   4.709
 9216SOL    HW128547   2.523   6.610   4.701
 9216SOL    HW228548   2.598   6.731   4.621
 9217SOL     OW28549   5.498   1.599   6.743
 9217SOL    HW128550   5.524   1.507   6.772
 9217SOL    HW228551   5.537   1.618   6.653
 9218SOL     OW28552   4.455   1.535   6.909
 9218SOL    HW128553   4.356   1.523   6.913
 9218SOL    HW228554   4.483   1.608   6.971
 9219SOL     OW28555   4.363   3.401   5.642
 9219SOL    HW128556   4.364   3.498   5.617
 9219SOL    HW228557   4.424   3.350   5.581
 9220SOL     OW28558   1.871   5.854   2.401
 9220SOL    HW128559   1.855   5.756   2.396
 9220SOL    HW228560   1.812   5.894   2.471
 9221SOL     OW28561   2.346   0.132   5.536
 9221SOL    HW128562   2.415   0.066   5.507
 9221SOL    HW228563   2.270   0.084   5.579
 9222SOL     OW28564   2.644   4.688   5.055
 9222SOL    HW128565   2.636   4.702   4.956
 9222SOL    HW228566   2.739   4.669   5.078
 9223SOL     OW28567   1.252   2.266   4.069
 9223SOL    HW128568   1.153   2.275   4.078
 9223SOL    HW228569   1.280   2.293   3.977
 9224SOL     OW28570   1.374   3.194   3.512
 9224SOL    HW128571   1.468   3.227   3.526
 9224SOL    HW228572   1.368   3.098   3.539
 9225SOL     OW28573   3.828   6.182   6.321
 9225SOL    HW128574   3.862   6.109   6.262
 9225SOL    HW228575   3.872   6.268   6.297
 9226SOL     OW28576   1.108   0.504   1.373
 9226SOL    HW128577   1.153   0.443   1.307
 9226SOL    HW228578   1.145   0.487   1.464
 9227SOL     OW28579   2.186   6.223   1.302
 9227SOL    HW128580   2.152   6.236   1.209
 9227SOL    HW228581   2.144   6.142   1.342
 9228SOL     OW28582   1.910   2.365   6.653
 9228SOL    HW128583   1.835   2.314   6.610
 9228SOL    HW228584   1.872   2.436   6.713
 9229SOL     OW28585   0.746   4.793   6.174
 9229SOL    HW128586   0.697   4.809   6.089
 9229SOL    HW228587   0.695   4.833   6.250
 9230SOL     OW28588   4.666   2.708   3.013
 9230SOL    HW128589   4.582   2.676   3.057
 9230SOL    HW228590   4.645   2.740   2.920
 9231SOL     OW28591   0.864   4.354   5.061
 9231SOL    HW128592   0.866   4.418   4.984
 9231SOL    HW228593   0.814   4.396   5.137
 9232SOL     OW28594   2.892   5.861   1.226
 9232SOL    HW128595   2.951   5.933   1.190
 9232SOL    HW228596   2.825   5.901   1.289
 9233SOL     OW28597   1.096   6.978   0.263
 9233SOL    HW128598   1.171   0.005   0.218
 9233SOL    HW228599   1.109   6.880   0.254
 9234SOL     OW28600   2.336   5.948   0.580
 9234SOL    HW128601   2.296   5.994   0.501
 9234SOL    HW228602   2.417   5.897   0.551
 9235SOL     OW28603   2.350   2.820   3.149
 9235SOL    HW128604   2.324   2.901   3.202
 9235SOL    HW228605   2.344   2.841   3.052
 9236SOL     OW28606   2.578   3.298   6.790
 9236SOL    HW128607   2.613   3.366   6.854
 9236SOL    HW228608   2.649   3.230   6.770
 9237SOL     OW28609   0.131   5.901   2.737
 9237SOL    HW128610   0.037   5.880   2.764
 9237SOL    HW228611   0.186   5.818   2.742
 9238SOL     OW28612   2.892   2.385   6.123
 9238SOL    HW128613   2.800   2.345   6.128
 9238SOL    HW228614   2.884   2.485   6.128
 9239SOL     OW28615   6.778   4.642   6.566
 9239SOL    HW128616   6.696   4.614   6.516
 9239SOL    HW228617   6.849   4.667   6.501
 9240SOL     OW28618   5.105   2.986   2.579
 9240SOL    HW128619   5.051   3.048   2.522
 9240SOL    HW228620   5.201   3.014   2.578
 9241SOL     OW28621   0.487   5.477   0.623
 9241SOL    HW128622   0.507   5.433   0.711
 9241SOL    HW228623   0.419   5.549   0.637
 9242SOL     OW28624   2.302   3.428   1.598
 9242SOL    HW128625   2.205   3.430   1.575
 9242SOL    HW228626   2.313   3.428   1.697
 9243SOL     OW28627   0.643   0.415   1.799
 9243SOL    HW128628   0.589   0.333   1.779
 9243SOL    HW228629   0.676   0.411   1.893
 9244SOL     OW28630   2.674   6.475   6.329
 9244SOL    HW128631   2.583   6.510   6.304
 9244SOL    HW228632   2.728   6.461   6.246
 9245SOL     OW28633   0.132   4.517   3.786
 9245SOL    HW128634   0.207   4.452   3.789
 9245SOL    HW228635   0.166   4.610   3.804
 9246SOL     OW28636   6.131   0.415   3.721
 9246SOL    HW128637   6.222   0.408   3.760
 9246SOL    HW228638   6.125   0.497   3.663
 9247SOL     OW28639   3.805   5.105   3.609
 9247SOL    HW128640   3.740   5.180   3.601
 9247SOL    HW228641   3.898   5.141   3.607
 9248SOL     OW28642   2.990   1.898   5.030
 9248SOL    HW128643   3.062   1.930   5.092
 9248SOL    HW228644   2.901   1.929   5.064
 9249SOL     OW28645   4.648   5.517   1.396
 9249SOL    HW128646   4.600   5.586   1.342
 9249SOL    HW228647   4.614   5.426   1.371
 9250SOL     OW28648   6.980   3.029   3.982
 9250SOL    HW128649   7.000   2.941   3.939
 9250SOL    HW228650   6.940   3.014   4.072
 9251SOL     OW28651   4.519   1.940   1.918
 9251SOL    HW128652   4.424   1.922   1.945
 9251SOL    HW228653   4.541   1.886   1.837
 9252SOL     OW28654   5.766   0.332   4.759
 9252SOL    HW128655   5.825   0.289   4.827
 9252SOL    HW228656   5.744   0.425   4.788
 9253SOL     OW28657   5.152   5.223   6.004
 9253SOL    HW128658   5.190   5.310   5.972
 9253SOL    HW228659   5.209   5.187   6.077
 9254SOL     OW28660   4.894   5.181   2.633
 9254SOL    HW128661   4.925   5.089   2.659
 9254SOL    HW228662   4.854   5.177   2.541
 9255SOL     OW28663   5.381   3.427   6.508
 9255SOL    HW128664   5.325   3.492   6.457
 9255SOL    HW228665   5.474   3.426   6.471
 9256SOL     OW28666   2.019   0.204   1.730
 9256SOL    HW128667   1.925   0.184   1.758
 9256SOL    HW228668   2.049   0.135   1.664
 9257SOL     OW28669   5.860   5.785   3.159
 9257SOL    HW128670   5.772   5.763   3.116
 9257SOL    HW228671   5.843   5.835   3.244
 9258SOL     OW28672   4.083   3.475   1.450
 9258SOL    HW128673   4.144   3.429   1.514
 9258SOL    HW228674   4.041   3.409   1.389
 9259SOL     OW28675   1.851   0.950   0.600
 9259SOL    HW128676   1.811   1.033   0.640
 9259SOL    HW228677   1.821   0.942   0.505
 9260SOL     OW28678   6.917   2.981   5.621
 9260SOL    HW128679   6.977   2.929   5.682
 9260SOL    HW228680   6.830   2.933   5.610
 9261SOL     OW28681   4.620   0.983   6.564
 9261SOL    HW128682   4.558   0.974   6.486
 9261SOL    HW228683   4.714   0.987   6.532
 9262SOL     OW28684   1.041   6.186   5.251
 9262SOL    HW128685   0.978   6.144   5.186
 9262SOL    HW228686   1.128   6.206   5.206
 9263SOL     OW28687   2.996   5.197   2.362
 9263SOL    HW128688   3.008   5.280   2.416
 9263SOL    HW228689   3.071   5.134   2.380
 9264SOL     OW28690   4.679   3.427   0.159
 9264SOL    HW128691   4.738   3.422   0.239
 9264SOL    HW228692   4.619   3.347   0.156
 9265SOL     OW28693   3.774   2.832   6.508
 9265SOL    HW128694   3.860   2.864   6.468
 9265SOL    HW228695   3.728   2.908   6.553
 9266SOL     OW28696   0.351   6.030   1.196
 9266SOL    HW128697   0.326   6.126   1.182
 9266SOL    HW228698   0.451   6.022   1.199
 9267SOL     OW28699   0.698   1.918   4.050
 9267SOL    HW128700   0.654   1.870   4.126
 9267SOL    HW228701   0.773   1.975   4.084
 9268SOL     OW28702   0.876   6.554   2.319
 9268SOL    HW128703   0.970   6.518   2.321
 9268SOL    HW228704   0.879   6.654   2.319
 9269SOL     OW28705   3.725   0.096   6.202
 9269SOL    HW128706   3.685   0.185   6.182
 9269SOL    HW228707   3.694   0.030   6.133
 9270SOL     OW28708   3.844   0.518   5.284
 9270SOL    HW128709   3.825   0.422   5.266
 9270SOL    HW228710   3.832   0.537   5.382
 9271SOL     OW28711   6.469   0.270   0.500
 9271SOL    HW128712   6.407   0.347   0.483
 9271SOL    HW228713   6.416   0.187   0.517
 9272SOL     OW28714   0.731   6.224   6.421
 9272SOL    HW128715   0.797   6.299   6.427
 9272SOL    HW228716   0.723   6.180   6.510
 9273SOL     OW28717   5.941   6.077   2.953
 9273SOL    HW128718   5.954   6.121   3.042
 9273SOL    HW228719   5.914   6.145   2.886
 9274SOL     OW28720   6.864   2.649   6.633
 9274SOL    HW128721   6.800   2.575   6.654
 9274SOL    HW228722   6.853   2.723   6.700
 9275SOL     OW28723   0.170   6.702   0.122
 9275SOL    HW128724   0.246   6.696   0.188
 9275SOL    HW228725   0.198   6.758   0.044
 9276SOL     OW28726   2.014   5.267   6.611
 9276SOL    HW128727   2.007   5.250   6.513
 9276SOL    HW228728   2.054   5.358   6.626
 9277SOL     OW28729   3.958   5.113   2.159
 9277SOL    HW128730   4.010   5.029   2.144
 9277SOL    HW228731   3.943   5.160   2.072
 9278SOL     OW28732   1.200   0.604   5.751
 9278SOL    HW128733   1.270   0.620   5.682
 9278SOL    HW228734   1.166   0.510   5.743
 9279SOL     OW28735   3.915   6.938   2.062
 9279SOL    HW128736   3.932   6.962   2.158
 9279SOL    HW228737   3.928   6.840   2.049
 9280SOL     OW28738   2.418   1.522   2.313
 9280SOL    HW128739   2.507   1.568   2.314
 9280SOL    HW228740   2.430   1.425   2.336
 9281SOL     OW28741   3.665   4.139   6.362
 9281SOL    HW128742   3.712   4.220   6.327
 9281SOL    HW228743   3.570   4.138   6.329
 9282SOL     OW28744   4.341   0.749   4.428
 9282SOL    HW128745   4.261   0.798   4.395
 9282SOL    HW228746   4.424   0.795   4.397
 9283SOL     OW28747   5.110   0.356   5.338
 9283SOL    HW128748   5.180   0.411   5.383
 9283SOL    HW228749   5.148   0.316   5.254
 9284SOL     OW28750   2.920   3.501   5.605
 9284SOL    HW128751   2.898   3.420   5.660
 9284SOL    HW228752   2.859   3.504   5.526
 9285SOL     OW28753   5.255   3.490   0.570
 9285SOL    HW128754   5.350   3.514   0.588
 9285SOL    HW228755   5.240   3.394   0.591
 9286SOL     OW28756   5.012   5.165   0.479
 9286SOL    HW128757   5.083   5.145   0.546
 9286SOL    HW228758   4.951   5.236   0.515
 9287SOL     OW28759   3.660   4.493   5.595
 9287SOL    HW128760   3.681   4.396   5.593
 9287SOL    HW228761   3.591   4.511   5.665
 9288SOL     OW28762   4.755   1.921   2.598
 9288SOL    HW128763   4.779   1.864   2.519
 9288SOL    HW228764   4.815   1.898   2.675
 9289SOL     OW28765   4.157   1.037   0.006
 9289SOL    HW128766   4.246   1.009   6.991
 9289SOL    HW228767   4.138   1.131   7.002
 9290SOL     OW28768   6.021   0.997   3.888
 9290SOL    HW128769   6.043   1.067   3.957
 9290SOL    HW228770   6.052   0.908   3.921
 9291SOL     OW28771   1.614   5.880   6.172
 9291SOL    HW128772   1.528   5.832   6.154
 9291SOL    HW228773   1.684   5.849   6.108
 9292SOL     OW28774   1.789   1.330   7.009
 9292SOL    HW128775   1.857   1.378   0.043
 9292SOL    HW228776   1.700   1.334   0.033
 9293SOL     OW28777   5.552   3.472   6.192
 9293SOL    HW128778   5.587   3.449   6.283
 9293SOL    HW228779   5.547   3.390   6.136
 9294SOL     OW28780   5.131   1.112   6.536
 9294SOL    HW128781   5.131   1.058   6.620
 9294SOL    HW228782   5.208   1.175   6.536
 9295SOL     OW28783   6.480   0.904   5.174
 9295SOL    HW128784   6.458   0.817   5.128
 9295SOL    HW228785   6.411   0.972   5.151
 9296SOL     OW28786   1.913   5.153   0.594
 9296SOL    HW128787   1.928   5.249   0.620
 9296SOL    HW228788   2.001   5.109   0.577
 9297SOL     OW28789   0.469   6.619   3.142
 9297SOL    HW128790   0.386   6.625   3.198
 9297SOL    HW228791   0.450   6.653   3.050
 9298SOL     OW28792   1.316   6.389   6.523
 9298SOL    HW128793   1.239   6.452   6.518
 9298SOL    HW228794   1.378   6.406   6.447
 9299SOL     OW28795   0.746   1.625   3.959
 9299SOL    HW128796   0.841   1.595   3.972
 9299SOL    HW228797   0.745   1.716   3.919
 9300SOL     OW28798   0.275   5.345   5.276
 9300SOL    HW128799   0.325   5.336   5.190
 9300SOL    HW228800   0.320   5.415   5.332
 9301SOL     OW28801   6.513   4.203   5.177
 9301SOL    HW128802   6.553   4.195   5.086
 9301SOL    HW228803   6.576   4.253   5.237
 9302SOL     OW28804   1.795   3.413   4.394
 9302SOL    HW128805   1.757   3.438   4.305
 9302SOL    HW228806   1.730   3.352   4.441
 9303SOL     OW28807   2.639   4.167   0.119
 9303SOL    HW128808   2.557   4.212   0.083
 9303SOL    HW228809   2.666   4.093   0.056
 9304SOL     OW28810   4.533   4.996   0.525
 9304SOL    HW128811   4.472   5.045   0.588
 9304SOL    HW228812   4.628   5.021   0.544
 9305SOL     OW28813   3.732   0.897   0.590
 9305SOL    HW128814   3.652   0.851   0.551
 9305SOL    HW228815   3.782   0.834   0.649
 9306SOL     OW28816   0.521   4.470   5.426
 9306SOL    HW128817   0.558   4.555   5.462
 9306SOL    HW228818   0.517   4.401   5.499
 9307SOL     OW28819   1.597   4.231   0.555
 9307SOL    HW128820   1.678   4.289   0.550
 9307SOL    HW228821   1.623   4.136   0.534
 9308SOL     OW28822   1.372   4.703   1.720
 9308SOL    HW128823   1.446   4.665   1.775
 9308SOL    HW228824   1.338   4.786   1.765
 9309SOL     OW28825   4.066   6.197   5.718
 9309SOL    HW128826   3.997   6.268   5.710
 9309SOL    HW228827   4.106   6.198   5.810
 9310SOL     OW28828   5.551   6.464   5.475
 9310SOL    HW128829   5.607   6.495   5.552
 9310SOL    HW228830   5.585   6.376   5.443
 9311SOL     OW28831   5.496   4.612   1.299
 9311SOL    HW128832   5.428   4.559   1.349
 9311SOL    HW228833   5.477   4.710   1.311
 9312SOL     OW28834   1.282   2.273   0.863
 9312SOL    HW128835   1.378   2.256   0.840
 9312SOL    HW228836   1.240   2.331   0.793
 9313SOL     OW28837   6.993   0.182   1.244
 9313SOL    HW128838   0.040   0.146   1.309
 9313SOL    HW228839   6.927   0.110   1.223
 9314SOL     OW28840   6.751   3.588   0.819
 9314SOL    HW128841   6.818   3.516   0.832
 9314SOL    HW228842   6.727   3.628   0.908
 9315SOL     OW28843   5.979   0.339   5.871
 9315SOL    HW128844   6.075   0.351   5.848
 9315SOL    HW228845   5.970   0.288   5.956
 9316SOL     OW28846   5.717   0.026   5.111
 9316SOL    HW128847   5.786   0.058   5.046
 9316SOL    HW228848   5.759   0.017   5.202
 9317SOL     OW28849   3.839   5.530   2.992
 9317SOL    HW128850   3.870   5.440   2.961
 9317SOL    HW228851   3.798   5.522   3.083
 9318SOL     OW28852   4.522   6.752   0.032
 9318SOL    HW128853   4.464   6.718   0.106
 9318SOL    HW228854   4.467   6.769   6.973
 9319SOL     OW28855   2.584   2.991   0.654
 9319SOL    HW128856   2.542   3.076   0.622
 9319SOL    HW228857   2.528   2.951   0.727
 9320SOL     OW28858   4.403   0.461   5.536
 9320SOL    HW128859   4.452   0.383   5.573
 9320SOL    HW228860   4.322   0.429   5.486
 9321SOL     OW28861   0.953   1.380   6.032
 9321SOL    HW128862   0.996   1.290   6.043
 9321SOL    HW228863   0.996   1.446   6.094
 9322SOL     OW28864   0.256   4.306   6.109
 9322SOL    HW128865   0.301   4.218   6.128
 9322SOL    HW228866   0.159   4.290   6.090
 9323SOL     OW28867   2.736   1.982   5.083
 9323SOL    HW128868   2.717   2.078   5.103
 9323SOL    HW228869   2.651   1.929   5.091
 9324SOL     OW28870   2.052   3.840   2.388
 9324SOL    HW128871   2.004   3.923   2.358
 9324SOL    HW228872   1.998   3.760   2.364
 9325SOL     OW28873   0.493   6.400   0.755
 9325SOL    HW128874   0.564   6.460   0.720
 9325SOL    HW228875   0.488   6.317   0.699
 9326SOL     OW28876   3.101   4.838   6.916
 9326SOL    HW128877   3.103   4.917   6.977
 9326SOL    HW228878   3.012   4.793   6.922
 9327SOL     OW28879   4.569   6.945   2.873
 9327SOL    HW128880   4.533   6.961   2.965
 9327SOL    HW228881   4.518   6.998   2.807
 9328SOL     OW28882   1.798   0.774   4.786
 9328SOL    HW128883   1.747   0.757   4.870
 9328SOL    HW228884   1.734   0.800   4.713
 9329SOL     OW28885   6.467   5.806   0.572
 9329SOL    HW128886   6.542   5.744   0.554
 9329SOL    HW228887   6.476   5.845   0.663
 9330SOL     OW28888   0.194   0.098   6.271
 9330SOL    HW128889   0.255   0.047   6.210
 9330SOL    HW228890   0.111   0.045   6.287
 9331SOL     OW28891   2.052   1.622   6.205
 9331SOL    HW128892   2.130   1.563   6.182
 9331SOL    HW228893   2.044   1.629   6.304
 9332SOL     OW28894   4.539   5.621   0.882
 9332SOL    HW128895   4.592   5.666   0.810
 9332SOL    HW228896   4.532   5.524   0.862
 9333SOL     OW28897   3.535   5.650   6.618
 9333SOL    HW128898   3.625   5.618   6.648
 9333SOL    HW228899   3.514   5.738   6.660
 9334SOL     OW28900   5.064   0.095   4.659
 9334SOL    HW128901   5.064   0.132   4.566
 9334SOL    HW228902   4.975   0.054   4.678
 9335SOL     OW28903   1.674   1.162   0.580
 9335SOL    HW128904   1.669   1.193   0.485
 9335SOL    HW228905   1.620   1.223   0.637
 9336SOL     OW28906   5.471   6.986   4.183
 9336SOL    HW128907   5.434   0.025   4.254
 9336SOL    HW228908   5.475   0.014   4.096
 9337SOL     OW28909   5.405   0.952   6.409
 9337SOL    HW128910   5.369   0.860   6.426
 9337SOL    HW228911   5.495   0.961   6.452
 9338SOL     OW28912   6.795   6.157   1.128
 9338SOL    HW128913   6.798   6.221   1.051
 9338SOL    HW228914   6.885   6.154   1.172
 9339SOL     OW28915   5.536   5.920   0.687
 9339SOL    HW128916   5.543   5.908   0.588
 9339SOL    HW228917   5.587   6.002   0.714
 9340SOL     OW28918   4.172   4.688   2.636
 9340SOL    HW128919   4.173   4.609   2.576
 9340SOL    HW228920   4.193   4.771   2.584
 9341SOL     OW28921   6.728   4.061   0.766
 9341SOL    HW128922   6.772   4.012   0.691
 9341SOL    HW228923   6.757   4.157   0.764
 9342SOL     OW28924   2.552   0.664   4.580
 9342SOL    HW128925   2.594   0.738   4.634
 9342SOL    HW228926   2.519   0.701   4.493
 9343SOL     OW28927   4.873   3.412   1.999
 9343SOL    HW128928   4.822   3.326   1.994
 9343SOL    HW228929   4.948   3.410   1.932
 9344SOL     OW28930   5.168   5.846   6.594
 9344SOL    HW128931   5.088   5.828   6.537
 9344SOL    HW228932   5.210   5.933   6.568
 9345SOL     OW28933   0.072   4.544   1.128
 9345SOL    HW128934   0.103   4.639   1.133
 9345SOL    HW228935   7.007   4.539   1.078
 9346SOL     OW28936   5.198   6.870   1.789
 9346SOL    HW128937   5.217   6.912   1.700
 9346SOL    HW228938   5.220   6.773   1.785
 9347SOL     OW28939   3.118   5.583   0.600
 9347SOL    HW128940   3.067   5.640   0.535
 9347SOL    HW228941   3.079   5.594   0.691
 9348SOL     OW28942   2.578   5.418   3.113
 9348SOL    HW128943   2.586   5.360   3.032
 9348SOL    HW228944   2.582   5.514   3.086
 9349SOL     OW28945   6.272   6.036   2.163
 9349SOL    HW128946   6.360   6.071   2.132
 9349SOL    HW228947   6.283   5.943   2.200
 9350SOL     OW28948   0.333   1.983   4.401
 9350SOL    HW128949   0.310   2.022   4.490
 9350SOL    HW228950   0.251   1.944   4.360
 9351SOL     OW28951   2.453   0.467   6.237
 9351SOL    HW128952   2.427   0.551   6.284
 9351SOL    HW228953   2.548   0.473   6.208
 9352SOL     OW28954   2.545   2.982   5.954
 9352SOL    HW128955   2.536   3.070   6.001
 9352SOL    HW228956   2.559   2.998   5.857
 9353SOL     OW28957   1.923   4.075   1.702
 9353SOL    HW128958   1.986   4.089   1.778
 9353SOL    HW228959   1.847   4.017   1.730
 9354SOL     OW28960   6.394   1.908   0.670
 9354SOL    HW128961   6.313   1.965   0.688
 9354SOL    HW228962   6.425   1.923   0.576
 9355SOL     OW28963   6.391   1.186   4.288
 9355SOL    HW128964   6.485   1.218   4.287
 9355SOL    HW228965   6.356   1.187   4.382
 9356SOL     OW28966   4.475   5.305   1.466
 9356SOL    HW128967   4.386   5.330   1.427
 9356SOL    HW228968   4.496   5.210   1.444
 9357SOL     OW28969   3.123   3.474   6.699
 9357SOL    HW128970   3.141   3.438   6.791
 9357SOL    HW228971   3.171   3.417   6.632
 9358SOL     OW28972   6.380   3.765   2.079
 9358SOL    HW128973   6.450   3.696   2.062
 9358SOL    HW228974   6.418   3.837   2.138
 9359SOL     OW28975   1.316   3.303   5.755
 9359SOL    HW128976   1.269   3.390   5.740
 9359SOL    HW228977   1.349   3.268   5.668
 9360SOL     OW28978   1.001   6.832   5.989
 9360SOL    HW128979   1.077   6.813   5.927
 9360SOL    HW228980   0.915   6.806   5.945
 9361SOL     OW28981   2.733   6.149   3.714
 9361SOL    HW128982   2.807   6.102   3.666
 9361SOL    HW228983   2.729   6.244   3.685
 9362SOL     OW28984   1.241   1.767   1.750
 9362SOL    HW128985   1.164   1.726   1.800
 9362SOL    HW228986   1.327   1.741   1.793
 9363SOL     OW28987   4.253   5.290   1.786
 9363SOL    HW128988   4.176   5.336   1.831
 9363SOL    HW228989   4.327   5.356   1.771
 9364SOL     OW28990   4.418   3.521   5.937
 9364SOL    HW128991   4.487   3.549   6.003
 9364SOL    HW228992   4.338   3.486   5.986
 9365SOL     OW28993   2.960   2.042   5.343
 9365SOL    HW128994   2.922   2.088   5.423
 9365SOL    HW228995   2.925   1.948   5.338
 9366SOL     OW28996   2.873   0.942   0.057
 9366SOL    HW128997   2.912   1.015   0.112
 9366SOL    HW228998   2.902   0.952   6.983
 9367SOL     OW28999   0.171   5.781   3.209
 9367SOL    HW129000   0.159   5.692   3.166
 9367SOL    HW229001   0.243   5.776   3.278
 9368SOL     OW29002   2.427   1.688   3.368
 9368SOL    HW129003   2.371   1.702   3.287
 9368SOL    HW229004   2.517   1.730   3.355
 9369SOL     OW29005   0.083   0.699   5.470
 9369SOL    HW129006   0.116   0.715   5.563
 9369SOL    HW229007   0.128   0.619   5.432
 9370SOL     OW29008   4.834   0.590   2.643
 9370SOL    HW129009   4.908   0.615   2.581
 9370SOL    HW229010   4.852   0.627   2.734
 9371SOL     OW29011   2.402   5.025   0.854
 9371SOL    HW129012   2.403   4.926   0.841
 9371SOL    HW229013   2.318   5.063   0.815
 9372SOL     OW29014   5.691   6.161   3.144
 9372SOL    HW129015   5.604   6.117   3.166
 9372SOL    HW229016   5.760   6.091   3.129
 9373SOL     OW29017   4.018   2.171   2.645
 9373SOL    HW129018   3.971   2.186   2.732
 9373SOL    HW229019   3.978   2.230   2.575
 9374SOL     OW29020   6.898   3.699   0.620
 9374SOL    HW129021   6.952   3.757   0.681
 9374SOL    HW229022   6.821   3.659   0.670
 9375SOL     OW29023   6.463   1.753   3.227
 9375SOL    HW129024   6.371   1.772   3.192
 9375SOL    HW229025   6.473   1.794   3.317
 9376SOL     OW29026   2.676   4.245   1.411
 9376SOL    HW129027   2.598   4.188   1.435
 9376SOL    HW229028   2.702   4.301   1.489
 9377SOL     OW29029   1.729   5.683   4.097
 9377SOL    HW129030   1.751   5.686   4.195
 9377SOL    HW229031   1.637   5.717   4.082
 9378SOL     OW29032   0.704   0.487   5.330
 9378SOL    HW129033   0.718   0.397   5.371
 9378SOL    HW229034   0.658   0.477   5.242
 9379SOL     OW29035   4.706   5.509   5.564
 9379SOL    HW129036   4.700   5.608   5.578
 9379SOL    HW229037   4.780   5.488   5.500
 9380SOL     OW29038   5.698   4.668   4.888
 9380SOL    HW129039   5.703   4.735   4.962
 9380SOL    HW229040   5.778   4.608   4.893
 9381SOL     OW29041   2.915   2.874   6.018
 9381SOL    HW129042   2.980   2.841   6.086
 9381SOL    HW229043   2.926   2.973   6.005
 9382SOL     OW29044   3.262   1.246   3.205
 9382SOL    HW129045   3.328   1.177   3.235
 9382SOL    HW229046   3.305   1.337   3.209
 9383SOL     OW29047   1.714   5.838   4.782
 9383SOL    HW129048   1.725   5.899   4.860
 9383SOL    HW229049   1.762   5.877   4.703
 9384SOL     OW29050   3.019   6.055   1.514
 9384SOL    HW129051   2.961   5.976   1.537
 9384SOL    HW229052   3.047   6.101   1.598
 9385SOL     OW29053   4.210   0.697   3.389
 9385SOL    HW129054   4.166   0.626   3.445
 9385SOL    HW229055   4.172   0.786   3.414
 9386SOL     OW29056   2.614   6.079   4.203
 9386SOL    HW129057   2.619   5.999   4.144
 9386SOL    HW229058   2.578   6.053   4.292
 9387SOL     OW29059   3.152   1.724   0.184
 9387SOL    HW129060   3.053   1.724   0.172
 9387SOL    HW229061   3.178   1.792   0.253
 9388SOL     OW29062   1.912   5.554   3.043
 9388SOL    HW129063   1.818   5.572   3.013
 9388SOL    HW229064   1.932   5.610   3.123
 9389SOL     OW29065   1.287   6.615   5.094
 9389SOL    HW129066   1.231   6.657   5.166
 9389SOL    HW229067   1.384   6.632   5.114
 9390SOL     OW29068   3.551   5.284   4.628
 9390SOL    HW129069   3.462   5.263   4.669
 9390SOL    HW229070   3.591   5.201   4.589
 9391SOL     OW29071   2.268   0.734   4.777
 9391SOL    HW129072   2.367   0.746   4.789
 9391SOL    HW229073   2.251   0.680   4.695
 9392SOL     OW29074   0.228   0.139   5.338
 9392SOL    HW129075   0.249   0.095   5.426
 9392SOL    HW229076   0.131   0.128   5.318
 9393SOL     OW29077   2.453   6.899   5.136
 9393SOL    HW129078   2.475   6.911   5.040
 9393SOL    HW229079   2.392   6.974   5.165
 9394SOL     OW29080   0.281   1.537   2.252
 9394SOL    HW129081   0.343   1.612   2.275
 9394SOL    HW229082   0.250   1.493   2.336
 9395SOL     OW29083   2.353   1.473   0.115
 9395SOL    HW129084   2.436   1.468   0.058
 9395SOL    HW229085   2.288   1.536   0.074
 9396SOL     OW29086   1.694   5.506   3.568
 9396SOL    HW129087   1.686   5.461   3.479
 9396SOL    HW229088   1.729   5.599   3.555
 9397SOL     OW29089   3.308   0.206   0.021
 9397SOL    HW129090   3.317   0.110   0.046
 9397SOL    HW229091   3.218   0.222   7.001
 9398SOL     OW29092   0.555   0.257   5.587
 9398SOL    HW129093   0.608   0.321   5.644
 9398SOL    HW229094   0.506   0.192   5.646
 9399SOL     OW29095   6.679   1.930   6.478
 9399SOL    HW129096   6.660   1.968   6.568
 9399SOL    HW229097   6.660   1.999   6.408
 9400SOL     OW29098   4.245   1.668   1.808
 9400SOL    HW129099   4.250   1.734   1.883
 9400SOL    HW229100   4.314   1.598   1.820
 9401SOL     OW29101   5.325   6.825   3.562
 9401SOL    HW129102   5.356   6.888   3.490
 9401SOL    HW229103   5.260   6.871   3.621
 9402SOL     OW29104   1.271   4.761   3.641
 9402SOL    HW129105   1.171   4.761   3.633
 9402SOL    HW229106   1.311   4.749   3.550
 9403SOL     OW29107   6.100   1.811   2.329
 9403SOL    HW129108   6.061   1.734   2.378
 9403SOL    HW229109   6.080   1.896   2.378
 9404SOL     OW29110   1.154   3.543   6.126
 9404SOL    HW129111   1.148   3.590   6.214
 9404SOL    HW229112   1.100   3.593   6.058
 9405SOL     OW29113   1.023   5.783   1.871
 9405SOL    HW129114   0.984   5.861   1.823
 9405SOL    HW229115   1.020   5.702   1.812
 9406SOL     OW29116   6.778   2.728   5.826
 9406SOL    HW129117   6.734   2.644   5.858
 9406SOL    HW229118   6.736   2.807   5.871
 9407SOL     OW29119   2.592   5.085   3.555
 9407SOL    HW129120   2.552   5.006   3.601
 9407SOL    HW229121   2.676   5.058   3.508
 9408SOL     OW29122   4.028   2.073   6.398
 9408SOL    HW129123   4.012   2.036   6.489
 9408SOL    HW229124   3.976   2.020   6.331
 9409SOL     OW29125   5.909   4.360   6.779
 9409SOL    HW129126   5.870   4.406   6.858
 9409SOL    HW229127   5.897   4.416   6.697
 9410SOL     OW29128   3.126   6.303   2.016
 9410SOL    HW129129   3.192   6.322   2.089
 9410SOL    HW229130   3.116   6.384   1.959
 9411SOL     OW29131   3.500   3.403   2.193
 9411SOL    HW129132   3.405   3.377   2.209
 9411SOL    HW229133   3.552   3.396   2.278
 9412SOL     OW29134   0.338   2.853   1.628
 9412SOL    HW129135   0.292   2.844   1.716
 9412SOL    HW229136   0.280   2.903   1.564
 9413SOL     OW29137   3.396   6.360   4.119
 9413SOL    HW129138   3.419   6.270   4.157
 9413SOL    HW229139   3.335   6.349   4.041
 9414SOL     OW29140   3.066   0.868   3.244
 9414SOL    HW129141   3.110   0.865   3.154
 9414SOL    HW229142   3.010   0.786   3.257
 9415SOL     OW29143   2.709   0.331   1.732
 9415SOL    HW129144   2.807   0.344   1.748
 9415SOL    HW229145   2.667   0.292   1.814
 9416SOL     OW29146   0.577   1.732   1.001
 9416SOL    HW129147   0.655   1.747   0.941
 9416SOL    HW229148   0.492   1.740   0.949
 9417SOL     OW29149   3.778   6.572   5.912
 9417SOL    HW129150   3.834   6.655   5.911
 9417SOL    HW229151   3.796   6.520   5.996
 9418SOL     OW29152   3.781   6.157   1.441
 9418SOL    HW129153   3.723   6.105   1.378
 9418SOL    HW229154   3.744   6.250   1.451
 9419SOL     OW29155   3.320   5.531   5.650
 9419SOL    HW129156   3.343   5.621   5.686
 9419SOL    HW229157   3.403   5.475   5.644
 9420SOL     OW29158   6.511   2.912   5.220
 9420SOL    HW129159   6.503   2.884   5.125
 9420SOL    HW229160   6.419   2.918   5.261
 9421SOL     OW29161   1.865   6.753   5.010
 9421SOL    HW129162   1.959   6.778   5.031
 9421SOL    HW229163   1.810   6.757   5.094
 9422SOL     OW29164   4.979   6.123   3.222
 9422SOL    HW129165   4.980   6.130   3.322
 9422SOL    HW229166   4.893   6.161   3.187
 9423SOL     OW29167   3.992   0.590   4.043
 9423SOL    HW129168   3.968   0.547   4.130
 9423SOL    HW229169   3.913   0.586   3.981
 9424SOL     OW29170   4.820   0.450   4.841
 9424SOL    HW129171   4.866   0.536   4.818
 9424SOL    HW229172   4.887   0.376   4.842
 9425SOL     OW29173   6.473   3.476   6.560
 9425SOL    HW129174   6.397   3.424   6.599
 9425SOL    HW229175   6.440   3.528   6.481
 9426SOL     OW29176   3.205   1.966   0.306
 9426SOL    HW129177   3.202   2.029   0.228
 9426SOL    HW229178   3.135   1.991   0.372
 9427SOL     OW29179   2.783   5.761   4.326
 9427SOL    HW129180   2.873   5.801   4.312
 9427SOL    HW229181   2.793   5.669   4.364
 9428SOL     OW29182   5.889   0.990   1.152
 9428SOL    HW129183   5.939   0.904   1.164
 9428SOL    HW229184   5.945   1.054   1.099
 9429SOL     OW29185   2.086   3.425   2.204
 9429SOL    HW129186   2.019   3.362   2.165
 9429SOL    HW229187   2.143   3.464   2.131
 9430SOL     OW29188   0.418   4.493   2.370
 9430SOL    HW129189   0.333   4.439   2.369
 9430SOL    HW229190   0.470   4.470   2.452
 9431SOL     OW29191   5.918   4.105   1.719
 9431SOL    HW129192   5.850   4.165   1.762
 9431SOL    HW229193   5.946   4.144   1.631
 9432SOL     OW29194   4.122   0.217   3.783
 9432SOL    HW129195   4.033   0.228   3.739
 9432SOL    HW229196   4.169   0.305   3.787
 9433SOL     OW29197   3.421   5.047   3.234
 9433SOL    HW129198   3.352   4.976   3.245
 9433SOL    HW229199   3.506   5.019   3.279
 9434SOL     OW29200   5.274   5.243   3.664
 9434SOL    HW129201   5.371   5.264   3.650
 9434SOL    HW229202   5.265   5.161   3.721
 9435SOL     OW29203   0.792   2.735   4.620
 9435SOL    HW129204   0.742   2.785   4.691
 9435SOL    HW229205   0.846   2.663   4.663
 9436SOL     OW29206   1.028   3.171   1.859
 9436SOL    HW129207   1.009   3.183   1.956
 9436SOL    HW229208   0.956   3.114   1.818
 9437SOL     OW29209   2.418   6.359   3.349
 9437SOL    HW129210   2.459   6.273   3.380
 9437SOL    HW229211   2.357   6.395   3.420
 9438SOL     OW29212   6.965   0.296   1.948
 9438SOL    HW129213   6.904   0.221   1.925
 9438SOL    HW229214   0.020   0.297   1.884
 9439SOL     OW29215   0.458   3.418   1.692
 9439SOL    HW129216   0.383   3.428   1.627
 9439SOL    HW229217   0.425   3.438   1.784
 9440SOL     OW29218   3.919   4.912   3.745
 9440SOL    HW129219   3.873   4.990   3.704
 9440SOL    HW229220   3.966   4.859   3.674
 9441SOL     OW29221   1.260   3.510   5.276
 9441SOL    HW129222   1.219   3.556   5.355
 9441SOL    HW229223   1.205   3.527   5.195
 9442SOL     OW29224   4.577   3.652   0.295
 9442SOL    HW129225   4.606   3.579   0.234
 9442SOL    HW229226   4.614   3.739   0.263
 9443SOL     OW29227   2.663   5.540   1.270
 9443SOL    HW129228   2.589   5.506   1.328
 9443SOL    HW229229   2.685   5.471   1.200
 9444SOL     OW29230   1.571   4.018   6.633
 9444SOL    HW129231   1.665   3.985   6.619
 9444SOL    HW229232   1.513   3.984   6.560
 9445SOL     OW29233   5.605   3.547   3.062
 9445SOL    HW129234   5.612   3.449   3.083
 9445SOL    HW229235   5.629   3.600   3.143
 9446SOL     OW29236   6.428   6.217   4.334
 9446SOL    HW129237   6.371   6.288   4.293
 9446SOL    HW229238   6.390   6.191   4.423
 9447SOL     OW29239   6.021   3.428   4.501
 9447SOL    HW129240   5.977   3.400   4.416
 9447SOL    HW229241   6.070   3.350   4.541
 9448SOL     OW29242   6.986   6.682   6.797
 9448SOL    HW129243   6.991   6.622   6.717
 9448SOL    HW229244   6.907   6.657   6.852
 9449SOL     OW29245   6.697   5.626   0.042
 9449SOL    HW129246   6.646   5.621   0.128
 9449SOL    HW229247   6.725   5.534   0.015
 9450SOL     OW29248   2.955   5.831   5.231
 9450SOL    HW129249   2.895   5.755   5.255
 9450SOL    HW229250   2.991   5.818   5.139
 9451SOL     OW29251   4.182   6.115   6.014
 9451SOL    HW129252   4.218   6.206   5.995
 9451SOL    HW229253   4.244   6.046   5.974
 9452SOL     OW29254   1.651   3.965   0.532
 9452SOL    HW129255   1.744   3.932   0.515
 9452SOL    HW229256   1.597   3.957   0.449
 9453SOL     OW29257   2.004   4.979   3.187
 9453SOL    HW129258   2.015   4.924   3.270
 9453SOL    HW229259   1.978   5.072   3.213
 9454SOL     OW29260   2.684   3.506   6.968
 9454SOL    HW129261   2.615   3.575   6.949
 9454SOL    HW229262   2.658   3.454   0.028
 9455SOL     OW29263   3.717   1.751   3.062
 9455SOL    HW129264   3.718   1.686   2.987
 9455SOL    HW229265   3.809   1.789   3.075
 9456SOL     OW29266   1.205   3.472   0.975
 9456SOL    HW129267   1.195   3.504   0.881
 9456SOL    HW229268   1.133   3.406   0.996
 9457SOL     OW29269   2.132   3.815   4.985
 9457SOL    HW129270   2.083   3.808   4.898
 9457SOL    HW229271   2.182   3.901   4.988
 9458SOL     OW29272   1.615   3.439   0.221
 9458SOL    HW129273   1.606   3.418   0.124
 9458SOL    HW229274   1.685   3.381   0.262
 9459SOL     OW29275   5.192   4.816   3.174
 9459SOL    HW129276   5.144   4.883   3.118
 9459SOL    HW229277   5.290   4.833   3.171
 9460SOL     OW29278   0.593   2.321   4.053
 9460SOL    HW129279   0.558   2.228   4.054
 9460SOL    HW229280   0.643   2.339   4.138
 9461SOL     OW29281   6.344   1.575   2.512
 9461SOL    HW129282   6.355   1.647   2.580
 9461SOL    HW229283   6.248   1.565   2.488
 9462SOL     OW29284   2.104   3.766   2.644
 9462SOL    HW129285   2.093   3.813   2.556
 9462SOL    HW229286   2.099   3.667   2.629
 9463SOL     OW29287   0.332   1.013   1.945
 9463SOL    HW129288   0.239   0.988   1.915
 9463SOL    HW229289   0.330   1.104   1.986
 9464SOL     OW29290   5.960   0.555   1.361
 9464SOL    HW129291   6.000   0.612   1.290
 9464SOL    HW229292   5.882   0.602   1.401
 9465SOL     OW29293   1.442   5.499   2.886
 9465SOL    HW129294   1.370   5.568   2.883
 9465SOL    HW229295   1.419   5.422   2.827
 9466SOL     OW29296   4.459   4.829   5.830
 9466SOL    HW129297   4.514   4.811   5.748
 9466SOL    HW229298   4.498   4.905   5.881
 9467SOL     OW29299   0.615   2.356   1.356
 9467SOL    HW129300   0.569   2.309   1.431
 9467SOL    HW229301   0.692   2.409   1.392
 9468SOL     OW29302   6.182   2.647   5.783
 9468SOL    HW129303   6.242   2.618   5.709
 9468SOL    HW229304   6.223   2.724   5.831
 9469SOL     OW29305   6.176   6.250   1.556
 9469SOL    HW129306   6.098   6.298   1.596
 9469SOL    HW229307   6.181   6.270   1.458
 9470SOL     OW29308   4.122   3.868   5.604
 9470SOL    HW129309   4.149   3.812   5.525
 9470SOL    HW229310   4.203   3.913   5.642
 9471SOL     OW29311   6.262   1.484   4.465
 9471SOL    HW129312   6.361   1.471   4.458
 9471SOL    HW229313   6.242   1.582   4.469
 9472SOL     OW29314   5.680   3.493   4.538
 9472SOL    HW129315   5.676   3.544   4.452
 9472SOL    HW229316   5.644   3.550   4.612
 9473SOL     OW29317   2.777   5.600   5.220
 9473SOL    HW129318   2.746   5.541   5.294
 9473SOL    HW229319   2.763   5.555   5.132
 9474SOL     OW29320   0.247   2.992   0.239
 9474SOL    HW129321   0.239   2.922   0.309
 9474SOL    HW229322   0.159   3.036   0.224
 9475SOL     OW29323   3.149   3.294   6.956
 9475SOL    HW129324   3.175   3.220   6.893
 9475SOL    HW229325   3.051   3.311   6.949
 9476SOL     OW29326   2.998   3.592   5.099
 9476SOL    HW129327   3.016   3.675   5.047
 9476SOL    HW229328   2.989   3.515   5.037
 9477SOL     OW29329   0.649   3.682   2.136
 9477SOL    HW129330   0.745   3.662   2.113
 9477SOL    HW229331   0.594   3.681   2.052
 9478SOL     OW29332   5.603   3.275   6.825
 9478SOL    HW129333   5.542   3.224   6.886
 9478SOL    HW229334   5.600   3.234   6.734
 9479SOL     OW29335   4.373   6.394   6.553
 9479SOL    HW129336   4.454   6.337   6.564
 9479SOL    HW229337   4.392   6.486   6.587
 9480SOL     OW29338   4.984   3.752   1.149
 9480SOL    HW129339   4.908   3.712   1.100
 9480SOL    HW229340   5.067   3.746   1.093
 9481SOL     OW29341   5.265   3.522   2.349
 9481SOL    HW129342   5.199   3.462   2.304
 9481SOL    HW229343   5.357   3.488   2.333
 9482SOL     OW29344   6.688   0.646   3.202
 9482SOL    HW129345   6.770   0.646   3.258
 9482SOL    HW229346   6.702   0.705   3.122
 9483SOL     OW29347   0.859   1.676   1.685
 9483SOL    HW129348   0.895   1.653   1.595
 9483SOL    HW229349   0.930   1.663   1.754
 9484SOL     OW29350   3.340   1.051   3.555
 9484SOL    HW129351   3.393   1.004   3.626
 9484SOL    HW229352   3.252   1.005   3.543
 9485SOL     OW29353   0.773   0.150   1.498
 9485SOL    HW129354   0.769   0.105   1.409
 9485SOL    HW229355   0.683   0.186   1.522
 9486SOL     OW29356   2.682   6.051   1.116
 9486SOL    HW129357   2.606   6.061   1.179
 9486SOL    HW229358   2.766   6.084   1.158
 9487SOL     OW29359   3.211   3.101   3.367
 9487SOL    HW129360   3.210   3.200   3.351
 9487SOL    HW229361   3.214   3.052   3.280
 9488SOL     OW29362   1.207   6.246   0.892
 9488SOL    HW129363   1.148   6.271   0.816
 9488SOL    HW229364   1.208   6.319   0.960
 9489SOL     OW29365   4.361   4.311   1.369
 9489SOL    HW129366   4.358   4.398   1.321
 9489SOL    HW229367   4.450   4.301   1.415
 9490SOL     OW29368   7.005   5.479   0.846
 9490SOL    HW129369   6.910   5.493   0.872
 9490SOL    HW229370   7.016   5.386   0.810
 9491SOL     OW29371   6.787   4.089   3.712
 9491SOL    HW129372   6.702   4.118   3.667
 9491SOL    HW229373   6.773   4.091   3.811
 9492SOL     OW29374   3.393   2.924   3.146
 9492SOL    HW129375   3.327   2.865   3.193
 9492SOL    HW229376   3.473   2.938   3.204
 9493SOL     OW29377   3.581   5.482   3.889
 9493SOL    HW129378   3.556   5.392   3.926
 9493SOL    HW229379   3.507   5.517   3.833
 9494SOL     OW29380   4.509   4.743   2.032
 9494SOL    HW129381   4.548   4.651   2.024
 9494SOL    HW229382   4.549   4.802   1.962
 9495SOL     OW29383   6.733   1.704   3.288
 9495SOL    HW129384   6.637   1.724   3.266
 9495SOL    HW229385   6.788   1.786   3.278
 9496SOL     OW29386   6.099   4.807   1.201
 9496SOL    HW129387   6.125   4.903   1.198
 9496SOL    HW229388   6.019   4.792   1.144
 9497SOL     OW29389   5.619   6.115   6.885
 9497SOL    HW129390   5.520   6.121   6.894
 9497SOL    HW229391   5.645   6.129   6.790
 9498SOL     OW29392   5.376   6.815   4.686
 9498SOL    HW129393   5.302   6.850   4.744
 9498SOL    HW229394   5.463   6.855   4.715
 9499SOL     OW29395   1.822   4.922   6.431
 9499SOL    HW129396   1.842   4.904   6.527
 9499SOL    HW229397   1.749   4.861   6.399
 9500SOL     OW29398   5.475   0.627   0.838
 9500SOL    HW129399   5.495   0.550   0.899
 9500SOL    HW229400   5.548   0.636   0.770
 9501SOL     OW29401   2.996   1.465   4.908
 9501SOL    HW129402   3.057   1.530   4.951
 9501SOL    HW229403   2.951   1.409   4.979
 9502SOL     OW29404   6.974   2.486   5.169
 9502SOL    HW129405   0.051   2.502   5.176
 9502SOL    HW229406   6.931   2.502   5.259
 9503SOL     OW29407   0.477   1.714   1.559
 9503SOL    HW129408   0.480   1.814   1.563
 9503SOL    HW229409   0.382   1.683   1.566
 9504SOL     OW29410   6.790   1.968   0.906
 9504SOL    HW129411   6.742   1.881   0.917
 9504SOL    HW229412   6.788   2.018   0.993
 9505SOL     OW29413   5.385   5.044   3.323
 9505SOL    HW129414   5.453   5.111   3.354
 9505SOL    HW229415   5.408   4.954   3.360
 9506SOL     OW29416   0.602   2.501   6.398
 9506SOL    HW129417   0.634   2.595   6.402
 9506SOL    HW229418   0.507   2.496   6.431
 9507SOL     OW29419   1.139   1.610   2.824
 9507SOL    HW129420   1.049   1.572   2.805
 9507SOL    HW229421   1.138   1.654   2.913
 9508SOL     OW29422   6.677   4.107   1.158
 9508SOL    HW129423   6.631   4.173   1.099
 9508SOL    HW229424   6.705   4.151   1.243
 9509SOL     OW29425   0.400   0.859   5.032
 9509SOL    HW129426   0.488   0.869   5.077
 9509SOL    HW229427   0.329   0.903   5.087
 9510SOL     OW29428   1.270   3.639   2.353
 9510SOL    HW129429   1.196   3.578   2.325
 9510SOL    HW229430   1.235   3.733   2.357
 9511SOL     OW29431   0.263   1.325   0.342
 9511SOL    HW129432   0.267   1.389   0.419
 9511SOL    HW229433   0.175   1.277   0.343
 9512SOL     OW29434   5.744   1.608   1.434
 9512SOL    HW129435   5.716   1.630   1.340
 9512SOL    HW229436   5.697   1.668   1.498
 9513SOL     OW29437   1.608   3.657   6.117
 9513SOL    HW129438   1.649   3.587   6.059
 9513SOL    HW229439   1.670   3.735   6.125
 9514SOL     OW29440   2.073   4.565   6.427
 9514SOL    HW129441   2.144   4.571   6.497
 9514SOL    HW229442   2.086   4.636   6.359
 9515SOL     OW29443   1.377   6.461   1.715
 9515SOL    HW129444   1.306   6.421   1.657
 9515SOL    HW229445   1.467   6.440   1.678
 9516SOL     OW29446   5.414   4.008   4.928
 9516SOL    HW129447   5.454   4.095   4.900
 9516SOL    HW229448   5.314   4.018   4.932
 9517SOL     OW29449   0.735   4.501   1.266
 9517SOL    HW129450   0.703   4.534   1.355
 9517SOL    HW229451   0.825   4.459   1.276
 9518SOL     OW29452   1.483   1.539   0.242
 9518SOL    HW129453   1.549   1.586   0.184
 9518SOL    HW229454   1.453   1.600   0.316
 9519SOL     OW29455   3.307   4.181   4.271
 9519SOL    HW129456   3.358   4.105   4.314
 9519SOL    HW229457   3.341   4.268   4.308
 9520SOL     OW29458   1.100   1.413   3.349
 9520SOL    HW129459   1.117   1.397   3.251
 9520SOL    HW229460   1.165   1.359   3.403
 9521SOL     OW29461   4.627   5.063   1.446
 9521SOL    HW129462   4.670   5.094   1.531
 9521SOL    HW229463   4.591   4.971   1.460
 9522SOL     OW29464   3.911   5.150   1.320
 9522SOL    HW129465   3.841   5.092   1.361
 9522SOL    HW229466   3.976   5.178   1.390
 9523SOL     OW29467   2.552   5.070   4.773
 9523SOL    HW129468   2.559   5.038   4.867
 9523SOL    HW229469   2.641   5.102   4.741
 9524SOL     OW29470   2.841   3.181   0.618
 9524SOL    HW129471   2.763   3.123   0.642
 9524SOL    HW229472   2.838   3.265   0.673
 9525SOL     OW29473   2.210   2.113   6.307
 9525SOL    HW129474   2.296   2.102   6.257
 9525SOL    HW229475   2.193   2.031   6.362
 9526SOL     OW29476   5.860   4.769   1.060
 9526SOL    HW129477   5.781   4.815   1.100
 9526SOL    HW229478   5.830   4.707   0.988
 9527SOL     OW29479   0.962   0.918   4.422
 9527SOL    HW129480   0.987   0.871   4.337
 9527SOL    HW229481   1.002   1.010   4.422
 9528SOL     OW29482   0.058   2.020   1.172
 9528SOL    HW129483   6.982   2.031   1.191
 9528SOL    HW229484   0.110   2.091   1.219
 9529SOL     OW29485   6.168   3.214   6.380
 9529SOL    HW129486   6.231   3.154   6.329
 9529SOL    HW229487   6.128   3.280   6.317
 9530SOL     OW29488   1.908   2.814   3.190
 9530SOL    HW129489   1.880   2.797   3.096
 9530SOL    HW229490   1.982   2.751   3.215
 9531SOL     OW29491   5.034   4.817   2.447
 9531SOL    HW129492   5.031   4.850   2.542
 9531SOL    HW229493   4.995   4.725   2.442
 9532SOL     OW29494   0.210   6.270   1.182
 9532SOL    HW129495   0.138   6.227   1.236
 9532SOL    HW229496   0.252   6.344   1.235
 9533SOL     OW29497   6.976   5.746   5.398
 9533SOL    HW129498   0.020   5.783   5.332
 9533SOL    HW229499   7.002   5.775   5.490
 9534SOL     OW29500   6.740   3.933   5.628
 9534SOL    HW129501   6.725   3.918   5.530
 9534SOL    HW229502   6.671   3.883   5.680
 9535SOL     OW29503   1.486   0.410   6.068
 9535SOL    HW129504   1.422   0.333   6.068
 9535SOL    HW229505   1.538   0.410   5.983
 9536SOL     OW29506   2.851   3.992   5.655
 9536SOL    HW129507   2.939   3.947   5.669
 9536SOL    HW229508   2.866   4.087   5.626
 9537SOL     OW29509   2.865   0.287   4.504
 9537SOL    HW129510   2.832   0.345   4.578
 9537SOL    HW229511   2.898   0.344   4.429
 9538SOL     OW29512   5.844   1.151   3.452
 9538SOL    HW129513   5.871   1.233   3.403
 9538SOL    HW229514   5.781   1.097   3.397
 9539SOL     OW29515   3.616   3.790   4.305
 9539SOL    HW129516   3.543   3.726   4.332
 9539SOL    HW229517   3.696   3.738   4.276
 9540SOL     OW29518   6.303   4.467   4.448
 9540SOL    HW129519   6.276   4.380   4.488
 9540SOL    HW229520   6.315   4.535   4.521
 9541SOL     OW29521   2.778   0.356   5.728
 9541SOL    HW129522   2.704   0.421   5.748
 9541SOL    HW229523   2.748   0.293   5.656
 9542SOL     OW29524   4.833   4.242   4.575
 9542SOL    HW129525   4.865   4.155   4.539
 9542SOL    HW229526   4.858   4.316   4.512
 9543SOL     OW29527   3.637   0.517   5.990
 9543SOL    HW129528   3.735   0.533   5.978
 9543SOL    HW229529   3.606   0.445   5.928
 9544SOL     OW29530   6.772   1.998   3.377
 9544SOL    HW129531   6.795   2.049   3.294
 9544SOL    HW229532   6.856   1.975   3.426
 9545SOL     OW29533   5.573   6.012   4.634
 9545SOL    HW129534   5.533   5.993   4.544
 9545SOL    HW229535   5.504   6.056   4.691
 9546SOL     OW29536   4.270   2.038   4.805
 9546SOL    HW129537   4.205   2.114   4.805
 9546SOL    HW229538   4.362   2.072   4.822
 9547SOL     OW29539   2.898   5.252   4.011
 9547SOL    HW129540   2.984   5.258   4.062
 9547SOL    HW229541   2.918   5.242   3.913
 9548SOL     OW29542   5.838   4.558   5.871
 9548SOL    HW129543   5.807   4.650   5.848
 9548SOL    HW229544   5.935   4.562   5.896
 9549SOL     OW29545   2.669   3.048   1.054
 9549SOL    HW129546   2.697   3.112   1.125
 9549SOL    HW229547   2.571   3.057   1.038
 9550SOL     OW29548   6.724   1.351   0.309
 9550SOL    HW129549   6.721   1.370   0.407
 9550SOL    HW229550   6.694   1.257   0.291
 9551SOL     OW29551   5.691   1.706   5.922
 9551SOL    HW129552   5.742   1.651   5.855
 9551SOL    HW229553   5.655   1.647   5.993
 9552SOL     OW29554   1.620   6.919   4.084
 9552SOL    HW129555   1.537   6.968   4.112
 9552SOL    HW229556   1.616   6.899   3.986
 9553SOL     OW29557   6.154   2.680   6.746
 9553SOL    HW129558   6.165   2.756   6.681
 9553SOL    HW229559   6.172   2.593   6.700
 9554SOL     OW29560   2.715   0.118   1.338
 9554SOL    HW129561   2.795   0.150   1.389
 9554SOL    HW229562   2.637   0.109   1.400
 9555SOL     OW29563   0.842   0.574   3.029
 9555SOL    HW129564   0.805   0.643   2.966
 9555SOL    HW229565   0.861   0.490   2.979
 9556SOL     OW29566   1.738   3.813   1.702
 9556SOL    HW129567   1.701   3.745   1.638
 9556SOL    HW229568   1.817   3.775   1.750
 9557SOL     OW29569   6.919   6.085   1.948
 9557SOL    HW129570   6.841   6.101   1.888
 9557SOL    HW229571   6.983   6.022   1.904
 9558SOL     OW29572   6.166   6.336   5.115
 9558SOL    HW129573   6.104   6.285   5.055
 9558SOL    HW229574   6.260   6.324   5.084
 9559SOL     OW29575   0.560   4.916   1.794
 9559SOL    HW129576   0.628   4.851   1.760
 9559SOL    HW229577   0.518   4.964   1.717
 9560SOL     OW29578   1.694   1.694   3.277
 9560SOL    HW129579   1.700   1.793   3.283
 9560SOL    HW229580   1.742   1.653   3.355
 9561SOL     OW29581   2.072   0.369   0.540
 9561SOL    HW129582   2.050   0.305   0.613
 9561SOL    HW229583   2.102   0.456   0.580
 9562SOL     OW29584   2.254   0.624   5.326
 9562SOL    HW129585   2.193   0.619   5.247
 9562SOL    HW229586   2.257   0.535   5.371
 9563SOL     OW29587   6.517   6.218   0.418
 9563SOL    HW129588   6.463   6.139   0.391
 9563SOL    HW229589   6.559   6.202   0.507
 9564SOL     OW29590   2.887   0.348   0.664
 9564SOL    HW129591   2.931   0.435   0.644
 9564SOL    HW229592   2.806   0.337   0.607
 9565SOL     OW29593   3.509   0.157   4.754
 9565SOL    HW129594   3.561   0.170   4.839
 9565SOL    HW229595   3.420   0.118   4.776
 9566SOL     OW29596   1.863   4.712   0.071
 9566SOL    HW129597   1.887   4.799   0.029
 9566SOL    HW229598   1.846   4.644   7.021
 9567SOL     OW29599   5.100   4.908   1.294
 9567SOL    HW129600   5.062   4.818   1.315
 9567SOL    HW229601   5.036   4.979   1.326
 9568SOL     OW29602   3.939   2.642   6.658
 9568SOL    HW129603   3.947   2.548   6.624
 9568SOL    HW229604   3.887   2.697   6.593
 9569SOL     OW29605   0.231   1.450   2.498
 9569SOL    HW129606   0.136   1.442   2.528
 9569SOL    HW229607   0.267   1.538   2.527
 9570SOL     OW29608   1.048   3.234   2.125
 9570SOL    HW129609   1.018   3.233   2.220
 9570SOL    HW229610   1.092   3.321   2.104
 9571SOL     OW29611   3.701   4.263   5.960
 9571SOL    HW129612   3.793   4.297   5.940
 9571SOL    HW229613   3.650   4.255   5.874
 9572SOL     OW29614   2.402   5.177   1.474
 9572SOL    HW129615   2.317   5.143   1.513
 9572SOL    HW229616   2.480   5.137   1.523
 9573SOL     OW29617   0.750   2.489   6.742
 9573SOL    HW129618   0.732   2.571   6.687
 9573SOL    HW229619   0.821   2.434   6.699
 9574SOL     OW29620   4.166   3.469   3.519
 9574SOL    HW129621   4.208   3.535   3.456
 9574SOL    HW229622   4.094   3.514   3.571
 9575SOL     OW29623   0.314   1.292   1.354
 9575SOL    HW129624   0.396   1.280   1.410
 9575SOL    HW229625   0.293   1.390   1.347
 9576SOL     OW29626   1.546   0.638   2.018
 9576SOL    HW129627   1.605   0.558   2.015
 9576SOL    HW229628   1.601   0.721   2.005
 9577SOL     OW29629   0.922   0.662   6.132
 9577SOL    HW129630   0.844   0.603   6.109
 9577SOL    HW229631   0.976   0.619   6.205
 9578SOL     OW29632   0.362   4.077   3.736
 9578SOL    HW129633   0.450   4.103   3.695
 9578SOL    HW229634   0.375   3.997   3.794
 9579SOL     OW29635   1.649   5.252   2.448
 9579SOL    HW129636   1.561   5.205   2.441
 9579SOL    HW229637   1.693   5.250   2.358
 9580SOL     OW29638   4.969   3.202   0.736
 9580SOL    HW129639   4.907   3.277   0.711
 9580SOL    HW229640   4.988   3.147   0.655
 9581SOL     OW29641   0.291   5.438   5.860
 9581SOL    HW129642   0.206   5.393   5.885
 9581SOL    HW229643   0.364   5.407   5.921
 9582SOL     OW29644   4.717   5.383   6.490
 9582SOL    HW129645   4.770   5.330   6.423
 9582SOL    HW229646   4.776   5.411   6.565
 9583SOL     OW29647   3.914   4.375   1.026
 9583SOL    HW129648   3.833   4.319   1.008
 9583SOL    HW229649   3.986   4.352   0.961
 9584SOL     OW29650   6.747   5.333   0.206
 9584SOL    HW129651   6.808   5.308   0.131
 9584SOL    HW229652   6.800   5.366   0.284
 9585SOL     OW29653   6.801   0.572   4.392
 9585SOL    HW129654   6.781   0.669   4.404
 9585SOL    HW229655   6.773   0.522   4.474
 9586SOL     OW29656   5.677   4.741   2.339
 9586SOL    HW129657   5.609   4.785   2.280
 9586SOL    HW229658   5.763   4.792   2.334
 9587SOL     OW29659   6.793   1.095   1.843
 9587SOL    HW129660   6.710   1.044   1.864
 9587SOL    HW229661   6.808   1.096   1.744
 9588SOL     OW29662   6.707   1.603   1.510
 9588SOL    HW129663   6.754   1.606   1.422
 9588SOL    HW229664   6.685   1.695   1.540
 9589SOL     OW29665   2.508   4.943   5.967
 9589SOL    HW129666   2.533   5.027   6.015
 9589SOL    HW229667   2.427   4.904   6.009
 9590SOL     OW29668   6.719   3.170   1.885
 9590SOL    HW129669   6.750   3.203   1.975
 9590SOL    HW229670   6.624   3.197   1.871
 9591SOL     OW29671   3.491   6.374   6.381
 9591SOL    HW129672   3.535   6.329   6.459
 9591SOL    HW229673   3.392   6.365   6.388
 9592SOL     OW29674   3.690   4.211   0.916
 9592SOL    HW129675   3.609   4.192   0.861
 9592SOL    HW229676   3.771   4.173   0.870
 9593SOL     OW29677   6.994   1.396   5.259
 9593SOL    HW129678   7.007   1.310   5.209
 9593SOL    HW229679   6.898   1.405   5.284
 9594SOL     OW29680   1.320   6.200   3.017
 9594SOL    HW129681   1.270   6.152   3.089
 9594SOL    HW229682   1.401   6.244   3.057
 9595SOL     OW29683   1.087   4.165   5.126
 9595SOL    HW129684   1.168   4.172   5.068
 9595SOL    HW229685   1.022   4.237   5.100
 9596SOL     OW29686   0.212   5.567   6.816
 9596SOL    HW129687   0.287   5.508   6.786
 9596SOL    HW229688   0.197   5.556   6.914
 9597SOL     OW29689   0.697   4.562   1.532
 9597SOL    HW129690   0.761   4.512   1.590
 9597SOL    HW229691   0.617   4.590   1.586
 9598SOL     OW29692   1.095   3.410   4.141
 9598SOL    HW129693   1.166   3.342   4.159
 9598SOL    HW229694   1.112   3.454   4.053
 9599SOL     OW29695   3.919   6.618   4.743
 9599SOL    HW129696   3.829   6.615   4.786
 9599SOL    HW229697   3.920   6.553   4.666
 9600SOL     OW29698   2.254   0.162   6.718
 9600SOL    HW129699   2.337   0.113   6.747
 9600SOL    HW229700   2.279   0.249   6.676
 9601SOL     OW29701   5.316   3.841   1.807
 9601SOL    HW129702   5.314   3.750   1.849
 9601SOL    HW229703   5.331   3.832   1.709
 9602SOL     OW29704   6.852   5.020   6.456
 9602SOL    HW129705   6.878   5.052   6.547
 9602SOL    HW229706   6.882   4.926   6.444
 9603SOL     OW29707   3.610   1.938   4.302
 9603SOL    HW129708   3.662   1.856   4.325
 9603SOL    HW229709   3.521   1.912   4.266
 9604SOL     OW29710   4.261   0.449   6.806
 9604SOL    HW129711   4.179   0.501   6.782
 9604SOL    HW229712   4.234   0.359   6.838
 9605SOL     OW29713   0.824   5.453   3.612
 9605SOL    HW129714   0.855   5.358   3.603
 9605SOL    HW229715   0.725   5.454   3.631
 9606SOL     OW29716   2.403   6.515   6.262
 9606SOL    HW129717   2.400   6.516   6.162
 9606SOL    HW229718   2.326   6.462   6.297
 9607SOL     OW29719   1.474   1.586   0.750
 9607SOL    HW129720   1.385   1.541   0.746
 9607SOL    HW229721   1.461   1.685   0.757
 9608SOL     OW29722   6.359   6.395   2.449
 9608SOL    HW129723   6.386   6.396   2.545
 9608SOL    HW229724   6.260   6.405   2.442
 9609SOL     OW29725   2.074   4.188   6.375
 9609SOL    HW129726   2.071   4.128   6.455
 9609SOL    HW229727   2.134   4.266   6.394
 9610SOL     OW29728   1.926   5.136   4.132
 9610SOL    HW129729   1.836   5.177   4.122
 9610SOL    HW229730   1.981   5.157   4.050
 9611SOL     OW29731   0.200   6.192   6.607
 9611SOL    HW129732   0.292   6.197   6.569
 9611SOL    HW229733   0.202   6.214   6.704
 9612SOL     OW29734   0.983   3.943   1.792
 9612SOL    HW129735   0.990   3.881   1.714
 9612SOL    HW229736   0.960   3.892   1.874
 9613SOL     OW29737   4.498   6.210   3.396
 9613SOL    HW129738   4.496   6.148   3.318
 9613SOL    HW229739   4.412   6.202   3.446
 9614SOL     OW29740   4.229   2.478   0.560
 9614SOL    HW129741   4.194   2.543   0.493
 9614SOL    HW229742   4.209   2.511   0.652
 9615SOL     OW29743   0.555   6.919   1.093
 9615SOL    HW129744   0.457   6.920   1.110
 9615SOL    HW229745   0.573   6.946   0.998
 9616SOL     OW29746   4.614   3.310   0.959
 9616SOL    HW129747   4.532   3.277   1.006
 9616SOL    HW229748   4.613   3.410   0.957
 9617SOL     OW29749   1.884   3.114   3.752
 9617SOL    HW129750   1.911   3.080   3.842
 9617SOL    HW229751   1.861   3.211   3.759
 9618SOL     OW29752   3.606   0.145   5.590
 9618SOL    HW129753   3.541   0.075   5.620
 9618SOL    HW229754   3.659   0.110   5.512
 9619SOL     OW29755   0.756   6.702   6.916
 9619SOL    HW129756   0.771   6.610   6.952
 9619SOL    HW229757   0.817   6.766   6.963
 9620SOL     OW29758   4.175   2.621   6.850
 9620SOL    HW129759   4.164   2.656   6.943
 9620SOL    HW229760   4.092   2.639   6.798
 9621SOL     OW29761   1.125   0.986   2.665
 9621SOL    HW129762   1.066   1.050   2.716
 9621SOL    HW229763   1.079   0.898   2.658
 9622SOL     OW29764   6.793   0.859   0.289
 9622SOL    HW129765   6.773   0.769   0.329
 9622SOL    HW229766   6.754   0.863   0.197
 9623SOL     OW29767   3.686   4.941   5.108
 9623SOL    HW129768   3.651   4.997   5.034
 9623SOL    HW229769   3.782   4.963   5.125
 9624SOL     OW29770   6.049   4.450   3.447
 9624SOL    HW129771   6.130   4.408   3.489
 9624SOL    HW229772   6.000   4.504   3.515
 9625SOL     OW29773   5.046   5.308   6.830
 9625SOL    HW129774   4.984   5.378   6.794
 9625SOL    HW229775   5.133   5.350   6.854
 9626SOL     OW29776   2.351   6.520   7.010
 9626SOL    HW129777   2.396   6.520   0.078
 9626SOL    HW229778   2.420   6.523   6.938
 9627SOL     OW29779   0.305   4.486   3.094
 9627SOL    HW129780   0.279   4.444   3.181
 9627SOL    HW229781   0.225   4.489   3.033
 9628SOL     OW29782   6.061   4.742   6.905
 9628SOL    HW129783   6.066   4.730   6.806
 9628SOL    HW229784   6.148   4.779   6.939
 9629SOL     OW29785   6.927   6.767   2.729
 9629SOL    HW129786   7.020   6.749   2.763
 9629SOL    HW229787   6.921   6.863   2.700
 9630SOL     OW29788   5.897   6.618   5.363
 9630SOL    HW129789   5.967   6.655   5.303
 9630SOL    HW229790   5.813   6.602   5.310
 9631SOL     OW29791   5.783   0.708   7.004
 9631SOL    HW129792   5.871   0.751   6.982
 9631SOL    HW229793   5.730   0.697   6.920
 9632SOL     OW29794   1.993   5.416   2.629
 9632SOL    HW129795   1.933   5.346   2.668
 9632SOL    HW229796   2.041   5.464   2.702
 9633SOL     OW29797   5.159   4.848   6.630
 9633SOL    HW129798   5.137   4.828   6.725
 9633SOL    HW229799   5.151   4.946   6.614
 9634SOL     OW29800   1.012   6.661   4.615
 9634SOL    HW129801   0.980   6.743   4.568
 9634SOL    HW229802   0.945   6.588   4.602
 9635SOL     OW29803   1.766   4.449   5.541
 9635SOL    HW129804   1.764   4.466   5.442
 9635SOL    HW229805   1.828   4.373   5.561
 9636SOL     OW29806   4.161   1.813   6.149
 9636SOL    HW129807   4.215   1.894   6.127
 9636SOL    HW229808   4.164   1.797   6.247
 9637SOL     OW29809   2.379   2.160   0.276
 9637SOL    HW129810   2.341   2.252   0.275
 9637SOL    HW229811   2.471   2.161   0.235
 9638SOL     OW29812   7.001   3.534   0.058
 9638SOL    HW129813   0.026   3.528   0.147
 9638SOL    HW229814   6.903   3.524   0.072
 9639SOL     OW29815   4.858   1.781   2.001
 9639SOL    HW129816   4.879   1.821   2.091
 9639SOL    HW229817   4.831   1.855   1.939
 9640SOL     OW29818   3.136   1.548   2.902
 9640SOL    HW129819   3.204   1.613   2.870
 9640SOL    HW229820   3.056   1.597   2.936
 9641SOL     OW29821   5.075   6.355   0.856
 9641SOL    HW129822   5.018   6.433   0.883
 9641SOL    HW229823   5.024   6.297   0.792
 9642SOL     OW29824   2.239   5.924   4.489
 9642SOL    HW129825   2.181   5.851   4.452
 9642SOL    HW229826   2.204   6.013   4.461
 9643SOL     OW29827   6.309   4.586   3.882
 9643SOL    HW129828   6.312   4.656   3.954
 9643SOL    HW229829   6.395   4.588   3.831
 9644SOL     OW29830   0.106   5.254   4.515
 9644SOL    HW129831   0.201   5.253   4.481
 9644SOL    HW229832   0.105   5.281   4.611
 9645SOL     OW29833   3.068   4.945   3.586
 9645SOL    HW129834   3.087   4.904   3.676
 9645SOL    HW229835   2.969   4.956   3.576
 9646SOL     OW29836   2.667   4.676   2.238
 9646SOL    HW129837   2.723   4.628   2.170
 9646SOL    HW229838   2.608   4.611   2.285
 9647SOL     OW29839   0.753   5.628   1.508
 9647SOL    HW129840   0.680   5.697   1.510
 9647SOL    HW229841   0.714   5.539   1.488
 9648SOL     OW29842   3.679   2.166   0.032
 9648SOL    HW129843   3.703   2.166   6.957
 9648SOL    HW229844   3.610   2.237   0.050
 9649SOL     OW29845   2.572   4.760   0.026
 9649SOL    HW129846   2.587   4.662   0.041
 9649SOL    HW229847   2.604   4.786   6.956
 9650SOL     OW29848   4.812   4.545   3.261
 9650SOL    HW129849   4.740   4.561   3.193
 9650SOL    HW229850   4.856   4.458   3.243
 9651SOL     OW29851   6.418   0.677   0.089
 9651SOL    HW129852   6.336   0.643   0.042
 9651SOL    HW229853   6.402   0.675   0.188
 9652SOL     OW29854   2.455   4.430   1.008
 9652SOL    HW129855   2.407   4.388   0.931
 9652SOL    HW229856   2.493   4.518   0.980
 9653SOL     OW29857   4.230   5.372   5.253
 9653SOL    HW129858   4.132   5.369   5.234
 9653SOL    HW229859   4.275   5.435   5.190
 9654SOL     OW29860   3.621   3.155   2.594
 9654SOL    HW129861   3.700   3.101   2.620
 9654SOL    HW229862   3.537   3.110   2.626
 9655SOL     OW29863   6.781   1.681   6.851
 9655SOL    HW129864   6.832   1.596   6.864
 9655SOL    HW229865   6.808   1.747   6.921
 9656SOL     OW29866   4.592   1.880   1.077
 9656SOL    HW129867   4.654   1.803   1.061
 9656SOL    HW229868   4.584   1.935   0.994
 9657SOL     OW29869   5.982   2.235   4.056
 9657SOL    HW129870   6.073   2.196   4.071
 9657SOL    HW229871   5.991   2.321   4.006
 9658SOL     OW29872   5.719   1.906   2.381
 9658SOL    HW129873   5.819   1.901   2.393
 9658SOL    HW229874   5.675   1.899   2.470
 9659SOL     OW29875   0.022   3.096   0.680
 9659SOL    HW129876   0.115   3.124   0.658
 9659SOL    HW229877   6.982   3.125   0.606
 9660SOL     OW29878   0.091   6.532   2.099
 9660SOL    HW129879   0.084   6.631   2.095
 9660SOL    HW229880   0.025   6.496   2.165
 9661SOL     OW29881   3.437   6.400   1.810
 9661SOL    HW129882   3.420   6.310   1.772
 9661SOL    HW229883   3.478   6.391   1.901
 9662SOL     OW29884   4.371   2.857   5.295
 9662SOL    HW129885   4.465   2.888   5.277
 9662SOL    HW229886   4.370   2.757   5.299
 9663SOL     OW29887   6.664   6.309   3.579
 9663SOL    HW129888   6.725   6.326   3.501
 9663SOL    HW229889   6.570   6.297   3.546
 9664SOL     OW29890   5.605   6.355   4.427
 9664SOL    HW129891   5.567   6.444   4.402
 9664SOL    HW229892   5.565   6.284   4.368
 9665SOL     OW29893   5.557   6.381   0.202
 9665SOL    HW129894   5.487   6.429   0.150
 9665SOL    HW229895   5.517   6.343   0.285
 9666SOL     OW29896   6.420   3.867   1.633
 9666SOL    HW129897   6.437   3.798   1.563
 9666SOL    HW229898   6.321   3.876   1.648
 9667SOL     OW29899   3.863   3.498   5.268
 9667SOL    HW129900   3.846   3.562   5.343
 9667SOL    HW229901   3.800   3.420   5.275
 9668SOL     OW29902   0.041   0.823   6.281
 9668SOL    HW129903   7.017   0.848   6.195
 9668SOL    HW229904   0.027   0.726   6.299
 9669SOL     OW29905   1.683   0.235   2.347
 9669SOL    HW129906   1.722   0.156   2.394
 9669SOL    HW229907   1.583   0.228   2.347
 9670SOL     OW29908   6.240   4.437   6.781
 9670SOL    HW129909   6.141   4.445   6.766
 9670SOL    HW229910   6.257   4.379   6.861
 9671SOL     OW29911   6.055   4.698   0.325
 9671SOL    HW129912   5.991   4.770   0.349
 9671SOL    HW229913   6.033   4.661   0.235
 9672SOL     OW29914   1.366   5.987   3.813
 9672SOL    HW129915   1.275   5.952   3.836
 9672SOL    HW229916   1.360   6.043   3.730
 9673SOL     OW29917   5.370   3.806   0.649
 9673SOL    HW129918   5.272   3.828   0.650
 9673SOL    HW229919   5.384   3.719   0.603
 9674SOL     OW29920   2.472   6.778   2.914
 9674SOL    HW129921   2.520   6.755   2.829
 9674SOL    HW229922   2.472   6.699   2.975
 9675SOL     OW29923   5.617   2.479   0.684
 9675SOL    HW129924   5.529   2.433   0.678
 9675SOL    HW229925   5.620   2.554   0.618
 9676SOL     OW29926   1.435   3.650   5.678
 9676SOL    HW129927   1.371   3.614   5.746
 9676SOL    HW229928   1.387   3.662   5.591
 9677SOL     OW29929   0.806   5.116   4.915
 9677SOL    HW129930   0.723   5.169   4.930
 9677SOL    HW229931   0.806   5.078   4.822
 9678SOL     OW29932   3.094   3.741   3.154
 9678SOL    HW129933   3.096   3.786   3.065
 9678SOL    HW229934   3.176   3.767   3.206
 9679SOL     OW29935   2.610   1.198   2.482
 9679SOL    HW129936   2.632   1.136   2.557
 9679SOL    HW229937   2.639   1.291   2.506
 9680SOL     OW29938   5.036   0.897   2.927
 9680SOL    HW129939   5.129   0.870   2.952
 9680SOL    HW229940   5.029   0.996   2.927
 9681SOL     OW29941   3.038   1.441   0.400
 9681SOL    HW129942   3.004   1.351   0.429
 9681SOL    HW229943   3.070   1.436   0.305
 9682SOL     OW29944   5.218   4.821   3.630
 9682SOL    HW129945   5.272   4.784   3.705
 9682SOL    HW229946   5.125   4.841   3.662
 9683SOL     OW29947   3.121   5.381   0.196
 9683SOL    HW129948   3.078   5.348   0.280
 9683SOL    HW229949   3.195   5.319   0.171
 9684SOL     OW29950   0.210   3.240   5.401
 9684SOL    HW129951   0.198   3.338   5.389
 9684SOL    HW229952   0.268   3.223   5.480
 9685SOL     OW29953   2.915   4.582   1.319
 9685SOL    HW129954   2.879   4.674   1.336
 9685SOL    HW229955   2.992   4.588   1.256
 9686SOL     OW29956   6.699   1.660   6.489
 9686SOL    HW129957   6.600   1.656   6.498
 9686SOL    HW229958   6.731   1.753   6.508
 9687SOL     OW29959   1.675   0.340   3.876
 9687SOL    HW129960   1.673   0.439   3.885
 9687SOL    HW229961   1.723   0.316   3.791
 9688SOL     OW29962   0.315   3.240   2.625
 9688SOL    HW129963   0.407   3.242   2.665
 9688SOL    HW229964   0.247   3.237   2.699
 9689SOL     OW29965   1.184   4.936   6.554
 9689SOL    HW129966   1.176   4.955   6.456
 9689SOL    HW229967   1.188   4.837   6.568
 9690SOL     OW29968   5.674   5.341   0.368
 9690SOL    HW129969   5.631   5.268   0.315
 9690SOL    HW229970   5.616   5.422   0.365
 9691SOL     OW29971   2.859   5.104   1.288
 9691SOL    HW129972   2.790   5.175   1.301
 9691SOL    HW229973   2.929   5.137   1.225
 9692SOL     OW29974   3.927   5.287   2.877
 9692SOL    HW129975   3.977   5.212   2.835
 9692SOL    HW229976   3.829   5.276   2.861
 9693SOL     OW29977   6.093   5.001   1.699
 9693SOL    HW129978   6.023   4.939   1.662
 9693SOL    HW229979   6.113   4.977   1.794
 9694SOL     OW29980   2.285   1.128   0.435
 9694SOL    HW129981   2.221   1.191   0.390
 9694SOL    HW229982   2.375   1.171   0.442
 9695SOL     OW29983   0.032   3.430   2.770
 9695SOL    HW129984   0.099   3.459   2.702
 9695SOL    HW229985   7.021   3.509   2.821
 9696SOL     OW29986   5.028   3.504   0.865
 9696SOL    HW129987   4.945   3.557   0.878
 9696SOL    HW229988   5.012   3.409   0.891
 9697SOL     OW29989   0.646   5.270   6.808
 9697SOL    HW129990   0.745   5.271   6.795
 9697SOL    HW229991   0.611   5.178   6.790
 9698SOL     OW29992   4.569   1.340   5.871
 9698SOL    HW129993   4.533   1.432   5.889
 9698SOL    HW229994   4.618   1.339   5.785
 9699SOL     OW29995   6.943   5.051   6.706
 9699SOL    HW129996   0.004   5.098   6.737
 9699SOL    HW229997   6.914   4.986   6.776
 9700SOL     OW29998   4.550   5.416   4.791
 9700SOL    HW129999   4.635   5.436   4.839
 9700SOL    HW230000   4.559   5.330   4.740
 9701SOL     OW30001   3.950   5.073   5.417
 9701SOL    HW130002   3.923   5.034   5.505
 9701SOL    HW230003   3.976   4.999   5.354
 9702SOL     OW30004   4.578   0.727   6.736
 9702SOL    HW130005   4.614   0.795   6.673
 9702SOL    HW230006   4.648   0.659   6.756
 9703SOL     OW30007   4.433   4.505   3.109
 9703SOL    HW130008   4.394   4.542   3.024
 9703SOL    HW230009   4.461   4.410   3.094
 9704SOL     OW30010   3.734   0.963   2.948
 9704SOL    HW130011   3.660   1.028   2.928
 9704SOL    HW230012   3.728   0.935   3.044
 9705SOL     OW30013   5.941   4.515   6.237
 9705SOL    HW130014   5.875   4.447   6.205
 9705SOL    HW230015   5.910   4.555   6.324
 9706SOL     OW30016   0.557   3.531   0.663
 9706SOL    HW130017   0.614   3.465   0.714
 9706SOL    HW230018   0.522   3.487   0.580
 9707SOL     OW30019   6.919   4.731   2.227
 9707SOL    HW130020   6.844   4.739   2.161
 9707SOL    HW230021   7.004   4.710   2.179
 9708SOL     OW30022   1.475   2.255   2.320
 9708SOL    HW130023   1.496   2.249   2.417
 9708SOL    HW230024   1.378   2.237   2.305
 9709SOL     OW30025   6.146   6.455   3.459
 9709SOL    HW130026   6.085   6.534   3.463
 9709SOL    HW230027   6.170   6.436   3.364
 9710SOL     OW30028   0.309   0.739   1.982
 9710SOL    HW130029   0.228   0.755   2.038
 9710SOL    HW230030   0.351   0.827   1.960
 9711SOL     OW30031   1.940   4.882   5.823
 9711SOL    HW130032   1.991   4.966   5.806
 9711SOL    HW230033   1.952   4.819   5.747
 9712SOL     OW30034   5.971   3.450   6.664
 9712SOL    HW130035   5.883   3.462   6.710
 9712SOL    HW230036   5.982   3.522   6.595
 9713SOL     OW30037   0.841   4.907   3.318
 9713SOL    HW130038   0.930   4.890   3.276
 9713SOL    HW230039   0.852   4.912   3.418
 9714SOL     OW30040   3.256   0.109   0.330
 9714SOL    HW130041   3.250   0.147   0.422
 9714SOL    HW230042   3.164   0.086   0.298
 9715SOL     OW30043   5.124   3.847   6.517
 9715SOL    HW130044   5.173   3.907   6.454
 9715SOL    HW230045   5.071   3.901   6.582
 9716SOL     OW30046   4.086   3.394   0.013
 9716SOL    HW130047   4.070   3.485   6.997
 9716SOL    HW230048   4.137   3.401   0.099
 9717SOL     OW30049   5.260   6.370   6.209
 9717SOL    HW130050   5.270   6.292   6.271
 9717SOL    HW230051   5.281   6.340   6.115
 9718SOL     OW30052   4.988   2.705   0.237
 9718SOL    HW130053   5.032   2.620   0.266
 9718SOL    HW230054   4.895   2.708   0.273
 9719SOL     OW30055   6.530   1.650   5.426
 9719SOL    HW130056   6.578   1.723   5.476
 9719SOL    HW230057   6.590   1.612   5.356
 9720SOL     OW30058   6.726   5.438   2.159
 9720SOL    HW130059   6.822   5.453   2.183
 9720SOL    HW230060   6.717   5.438   2.059
 9721SOL     OW30061   0.217   2.154   1.328
 9721SOL    HW130062   0.239   2.056   1.330
 9721SOL    HW230063   0.177   2.181   1.416
 9722SOL     OW30064   6.671   0.825   4.375
 9722SOL    HW130065   6.572   0.818   4.391
 9722SOL    HW230066   6.688   0.887   4.299
 9723SOL     OW30067   1.990   6.886   2.661
 9723SOL    HW130068   1.987   6.914   2.757
 9723SOL    HW230069   2.022   6.963   2.605
 9724SOL     OW30070   1.765   4.631   0.551
 9724SOL    HW130071   1.775   4.693   0.474
 9724SOL    HW230072   1.793   4.538   0.525
 9725SOL     OW30073   3.757   4.888   6.369
 9725SOL    HW130074   3.704   4.837   6.438
 9725SOL    HW230075   3.851   4.898   6.401
 9726SOL     OW30076   5.025   0.713   4.345
 9726SOL    HW130077   4.979   0.751   4.425
 9726SOL    HW230078   5.042   0.786   4.278
 9727SOL     OW30079   0.872   3.928   5.986
 9727SOL    HW130080   0.942   3.942   5.916
 9727SOL    HW230081   0.784   3.908   5.942
 9728SOL     OW30082   0.110   0.734   5.753
 9728SOL    HW130083   0.079   0.645   5.786
 9728SOL    HW230084   0.086   0.805   5.820
 9729SOL     OW30085   1.130   3.877   3.469
 9729SOL    HW130086   1.195   3.948   3.497
 9729SOL    HW230087   1.133   3.866   3.370
 9730SOL     OW30088   0.926   3.524   3.755
 9730SOL    HW130089   1.003   3.564   3.805
 9730SOL    HW230090   0.890   3.446   3.807
 9731SOL     OW30091   4.927   4.477   1.141
 9731SOL    HW130092   4.984   4.414   1.194
 9731SOL    HW230093   4.831   4.456   1.157
 9732SOL     OW30094   6.123   5.816   3.808
 9732SOL    HW130095   6.221   5.814   3.789
 9732SOL    HW230096   6.091   5.724   3.828
 9733SOL     OW30097   5.808   5.071   0.751
 9733SOL    HW130098   5.741   4.998   0.748
 9733SOL    HW230099   5.854   5.078   0.663
 9734SOL     OW30100   6.528   1.525   2.293
 9734SOL    HW130101   6.500   1.430   2.280
 9734SOL    HW230102   6.487   1.561   2.377
 9735SOL     OW30103   2.481   4.571   3.758
 9735SOL    HW130104   2.425   4.520   3.693
 9735SOL    HW230105   2.423   4.607   3.831
 9736SOL     OW30106   6.445   1.767   6.461
 9736SOL    HW130107   6.536   1.808   6.458
 9736SOL    HW230108   6.376   1.836   6.439
 9737SOL     OW30109   5.891   2.847   3.769
 9737SOL    HW130110   5.972   2.816   3.820
 9737SOL    HW230111   5.838   2.768   3.738
 9738SOL     OW30112   1.437   0.014   1.305
 9738SOL    HW130113   1.372   6.962   1.285
 9738SOL    HW230114   1.473   0.051   1.219
 9739SOL     OW30115   6.278   4.748   2.077
 9739SOL    HW130116   6.300   4.652   2.057
 9739SOL    HW230117   6.357   4.793   2.117
 9740SOL     OW30118   6.610   1.907   3.057
 9740SOL    HW130119   6.707   1.897   3.079
 9740SOL    HW230120   6.555   1.856   3.123
 9741SOL     OW30121   4.041   1.322   3.284
 9741SOL    HW130122   4.070   1.241   3.233
 9741SOL    HW230123   3.945   1.341   3.264
 9742SOL     OW30124   4.287   0.243   0.923
 9742SOL    HW130125   4.361   0.193   0.968
 9742SOL    HW230126   4.206   0.245   0.983
 9743SOL     OW30127   0.718   2.018   5.226
 9743SOL    HW130128   0.783   2.088   5.256
 9743SOL    HW230129   0.759   1.965   5.152
 9744SOL     OW30130   0.130   0.014   2.803
 9744SOL    HW130131   0.081   0.085   2.753
 9744SOL    HW230132   0.177   0.055   2.881
 9745SOL     OW30133   5.991   2.142   5.434
 9745SOL    HW130134   5.905   2.154   5.484
 9745SOL    HW230135   6.009   2.044   5.422
 9746SOL     OW30136   6.418   0.816   5.593
 9746SOL    HW130137   6.408   0.899   5.649
 9746SOL    HW230138   6.328   0.783   5.567
 9747SOL     OW30139   2.406   0.919   1.459
 9747SOL    HW130140   2.357   0.834   1.480
 9747SOL    HW230141   2.341   0.994   1.452
 9748SOL     OW30142   0.495   1.255   3.217
 9748SOL    HW130143   0.458   1.290   3.303
 9748SOL    HW230144   0.426   1.260   3.146
 9749SOL     OW30145   2.324   1.438   5.205
 9749SOL    HW130146   2.357   1.344   5.209
 9749SOL    HW230147   2.254   1.445   5.134
 9750SOL     OW30148   5.580   4.632   3.623
 9750SOL    HW130149   5.511   4.568   3.657
 9750SOL    HW230150   5.625   4.593   3.543
 9751SOL     OW30151   0.411   1.117   0.894
 9751SOL    HW130152   0.413   1.048   0.822
 9751SOL    HW230153   0.446   1.077   0.979
 9752SOL     OW30154   4.635   1.737   5.767
 9752SOL    HW130155   4.713   1.676   5.776
 9752SOL    HW230156   4.666   1.832   5.768
 9753SOL     OW30157   5.632   6.030   5.591
 9753SOL    HW130158   5.540   6.030   5.553
 9753SOL    HW230159   5.626   6.018   5.691
 9754SOL     OW30160   1.097   1.549   6.535
 9754SOL    HW130161   1.091   1.623   6.469
 9754SOL    HW230162   1.051   1.575   6.620
 9755SOL     OW30163   4.148   3.515   4.679
 9755SOL    HW130164   4.229   3.568   4.703
 9755SOL    HW230165   4.094   3.496   4.762
 9756SOL     OW30166   6.310   3.538   0.857
 9756SOL    HW130167   6.360   3.524   0.772
 9756SOL    HW230168   6.375   3.565   0.929
 9757SOL     OW30169   6.167   3.512   3.649
 9757SOL    HW130170   6.167   3.604   3.609
 9757SOL    HW230171   6.257   3.493   3.689
 9758SOL     OW30172   2.576   0.127   6.706
 9758SOL    HW130173   2.654   0.065   6.692
 9758SOL    HW230174   2.528   0.139   6.619
 9759SOL     OW30175   1.903   6.781   6.857
 9759SOL    HW130176   1.877   6.814   6.767
 9759SOL    HW230177   1.980   6.717   6.849
 9760SOL     OW30178   4.620   2.976   5.258
 9760SOL    HW130179   4.687   2.972   5.184
 9760SOL    HW230180   4.668   2.972   5.346
 9761SOL     OW30181   5.868   0.735   2.503
 9761SOL    HW130182   5.905   0.826   2.484
 9761SOL    HW230183   5.841   0.691   2.417
 9762SOL     OW30184   3.440   1.638   4.311
 9762SOL    HW130185   3.402   1.569   4.373
 9762SOL    HW230186   3.389   1.723   4.320
 9763SOL     OW30187   5.024   2.454   2.031
 9763SOL    HW130188   4.948   2.495   1.980
 9763SOL    HW230189   5.109   2.469   1.981
 9764SOL     OW30190   0.461   2.732   2.947
 9764SOL    HW130191   0.477   2.759   2.852
 9764SOL    HW230192   0.425   2.639   2.951
 9765SOL     OW30193   6.698   1.266   3.161
 9765SOL    HW130194   6.617   1.325   3.165
 9765SOL    HW230195   6.776   1.313   3.203
 9766SOL     OW30196   2.710   0.410   2.868
 9766SOL    HW130197   2.682   0.372   2.779
 9766SOL    HW230198   2.750   0.337   2.923
 9767SOL     OW30199   4.938   1.450   5.406
 9767SOL    HW130200   4.980   1.371   5.452
 9767SOL    HW230201   4.941   1.529   5.467
 9768SOL     OW30202   6.057   2.016   3.305
 9768SOL    HW130203   5.988   2.087   3.316
 9768SOL    HW230204   6.138   2.054   3.260
 9769SOL     OW30205   2.922   0.821   2.764
 9769SOL    HW130206   2.850   0.772   2.814
 9769SOL    HW230207   2.941   0.773   2.678
 9770SOL     OW30208   5.766   6.822   0.129
 9770SOL    HW130209   5.801   6.728   0.128
 9770SOL    HW230210   5.667   6.820   0.135
 9771SOL     OW30211   2.726   5.351   1.078
 9771SOL    HW130212   2.807   5.379   1.028
 9771SOL    HW230213   2.684   5.272   1.033
 9772SOL     OW30214   0.984   5.969   2.971
 9772SOL    HW130215   0.923   5.891   2.956
 9772SOL    HW230216   1.059   5.941   3.031
 9773SOL     OW30217   5.311   5.731   4.500
 9773SOL    HW130218   5.297   5.714   4.403
 9773SOL    HW230219   5.376   5.665   4.538
 9774SOL     OW30220   6.974   4.950   1.821
 9774SOL    HW130221   6.907   4.891   1.867
 9774SOL    HW230222   6.945   5.045   1.829
 9775SOL     OW30223   2.049   0.795   3.640
 9775SOL    HW130224   2.079   0.876   3.589
 9775SOL    HW230225   1.974   0.820   3.701
 9776SOL     OW30226   1.136   4.712   4.317
 9776SOL    HW130227   1.044   4.695   4.284
 9776SOL    HW230228   1.134   4.781   4.390
 9777SOL     OW30229   5.777   4.298   6.191
 9777SOL    HW130230   5.722   4.220   6.219
 9777SOL    HW230231   5.802   4.289   6.095
 9778SOL     OW30232   0.467   0.791   3.494
 9778SOL    HW130233   0.493   0.876   3.448
 9778SOL    HW230234   0.536   0.721   3.477
 9779SOL     OW30235   1.727   1.046   4.896
 9779SOL    HW130236   1.785   0.965   4.892
 9779SOL    HW230237   1.686   1.052   4.987
 9780SOL     OW30238   2.856   1.827   1.067
 9780SOL    HW130239   2.773   1.880   1.049
 9780SOL    HW230240   2.845   1.777   1.153
 9781SOL     OW30241   1.678   3.831   4.297
 9781SOL    HW130242   1.747   3.772   4.340
 9781SOL    HW230243   1.686   3.827   4.198
 9782SOL     OW30244   6.584   0.832   1.520
 9782SOL    HW130245   6.552   0.781   1.440
 9782SOL    HW230246   6.677   0.864   1.505
 9783SOL     OW30247   4.965   1.858   3.201
 9783SOL    HW130248   5.047   1.906   3.233
 9783SOL    HW230249   4.986   1.760   3.191
 9784SOL     OW30250   4.097   1.349   4.375
 9784SOL    HW130251   4.005   1.378   4.349
 9784SOL    HW230252   4.097   1.319   4.470
 9785SOL     OW30253   0.595   3.498   5.920
 9785SOL    HW130254   0.563   3.575   5.975
 9785SOL    HW230255   0.602   3.525   5.825
 9786SOL     OW30256   2.454   4.529   0.161
 9786SOL    HW130257   2.541   4.502   0.203
 9786SOL    HW230258   2.409   4.597   0.218
 9787SOL     OW30259   4.750   3.450   1.653
 9787SOL    HW130260   4.772   3.537   1.698
 9787SOL    HW230261   4.831   3.413   1.609
 9788SOL     OW30262   0.856   0.653   3.511
 9788SOL    HW130263   0.900   0.580   3.562
 9788SOL    HW230264   0.879   0.645   3.414
 9789SOL     OW30265   1.104   5.266   0.491
 9789SOL    HW130266   1.174   5.267   0.563
 9789SOL    HW230267   1.092   5.359   0.456
 9790SOL     OW30268   5.577   4.307   5.608
 9790SOL    HW130269   5.542   4.283   5.698
 9790SOL    HW230270   5.502   4.345   5.552
 9791SOL     OW30271   0.556   0.801   3.119
 9791SOL    HW130272   0.528   0.844   3.204
 9791SOL    HW230273   0.630   0.852   3.077
 9792SOL     OW30274   5.436   5.570   1.948
 9792SOL    HW130275   5.504   5.638   1.976
 9792SOL    HW230276   5.483   5.487   1.917
 9793SOL     OW30277   5.260   5.733   3.327
 9793SOL    HW130278   5.310   5.646   3.320
 9793SOL    HW230279   5.285   5.779   3.412
 9794SOL     OW30280   6.550   3.857   0.563
 9794SOL    HW130281   6.641   3.890   0.538
 9794SOL    HW230282   6.503   3.926   0.618
 9795SOL     OW30283   2.244   1.873   4.180
 9795SOL    HW130284   2.196   1.815   4.245
 9795SOL    HW230285   2.311   1.819   4.129
 9796SOL     OW30286   4.476   2.272   1.444
 9796SOL    HW130287   4.425   2.237   1.523
 9796SOL    HW230288   4.517   2.195   1.395
 9797SOL     OW30289   2.488   5.155   6.866
 9797SOL    HW130290   2.573   5.105   6.852
 9797SOL    HW230291   2.458   5.145   6.961
 9798SOL     OW30292   2.708   0.415   1.348
 9798SOL    HW130293   2.756   0.331   1.374
 9798SOL    HW230294   2.739   0.490   1.406
 9799SOL     OW30295   3.407   4.005   3.246
 9799SOL    HW130296   3.348   4.064   3.192
 9799SOL    HW230297   3.364   3.915   3.257
 9800SOL     OW30298   3.478   6.213   4.604
 9800SOL    HW130299   3.383   6.183   4.592
 9800SOL    HW230300   3.479   6.308   4.634
 9801SOL     OW30301   4.659   3.923   0.217
 9801SOL    HW130302   4.734   3.968   0.266
 9801SOL    HW230303   4.587   3.989   0.198
 9802SOL     OW30304   0.979   3.028   1.519
 9802SOL    HW130305   0.974   2.935   1.555
 9802SOL    HW230306   1.065   3.070   1.546
 9803SOL     OW30307   6.938   2.066   6.797
 9803SOL    HW130308   0.007   2.090   6.761
 9803SOL    HW230309   6.949   2.009   6.878
 9804SOL     OW30310   1.003   6.327   3.012
 9804SOL    HW130311   1.043   6.237   2.994
 9804SOL    HW230312   1.075   6.393   3.029
 9805SOL     OW30313   0.799   6.758   5.824
 9805SOL    HW130314   0.765   6.668   5.851
 9805SOL    HW230315   0.840   6.753   5.733
 9806SOL     OW30316   1.402   0.982   1.215
 9806SOL    HW130317   1.476   1.017   1.158
 9806SOL    HW230318   1.316   0.987   1.165
 9807SOL     OW30319   2.494   3.115   0.187
 9807SOL    HW130320   2.560   3.075   0.123
 9807SOL    HW230321   2.493   3.214   0.176
 9808SOL     OW30322   4.899   0.794   5.427
 9808SOL    HW130323   4.903   0.697   5.403
 9808SOL    HW230324   4.812   0.812   5.474
 9809SOL     OW30325   0.913   2.345   6.585
 9809SOL    HW130326   0.938   2.375   6.493
 9809SOL    HW230327   0.844   2.272   6.578
 9810SOL     OW30328   2.530   2.579   4.042
 9810SOL    HW130329   2.444   2.528   4.036
 9810SOL    HW230330   2.600   2.534   3.987
 9811SOL     OW30331   5.997   5.225   3.805
 9811SOL    HW130332   5.900   5.249   3.799
 9811SOL    HW230333   6.014   5.177   3.891
 9812SOL     OW30334   3.171   2.517   5.694
 9812SOL    HW130335   3.164   2.478   5.602
 9812SOL    HW230336   3.116   2.600   5.698
 9813SOL     OW30337   6.087   0.798   6.640
 9813SOL    HW130338   6.076   0.699   6.639
 9813SOL    HW230339   6.012   0.840   6.589
 9814SOL     OW30340   0.288   0.836   0.370
 9814SOL    HW130341   0.290   0.935   0.355
 9814SOL    HW230342   0.229   0.814   0.447
 9815SOL     OW30343   5.942   3.866   3.039
 9815SOL    HW130344   6.013   3.863   2.969
 9815SOL    HW230345   5.929   3.774   3.077
 9816SOL     OW30346   0.251   1.685   6.102
 9816SOL    HW130347   0.207   1.715   6.186
 9816SOL    HW230348   0.327   1.746   6.080
 9817SOL     OW30349   2.616   5.703   2.691
 9817SOL    HW130350   2.574   5.680   2.604
 9817SOL    HW230351   2.621   5.803   2.701
 9818SOL     OW30352   1.703   0.818   4.275
 9818SOL    HW130353   1.688   0.858   4.366
 9818SOL    HW230354   1.711   0.891   4.207
 9819SOL     OW30355   4.843   3.007   4.405
 9819SOL    HW130356   4.909   3.038   4.474
 9819SOL    HW230357   4.855   3.059   4.321
 9820SOL     OW30358   3.592   3.420   5.874
 9820SOL    HW130359   3.631   3.425   5.966
 9820SOL    HW230360   3.556   3.328   5.859
 9821SOL     OW30361   4.873   0.870   0.636
 9821SOL    HW130362   4.898   0.915   0.551
 9821SOL    HW230363   4.774   0.873   0.649
 9822SOL     OW30364   2.311   5.653   3.560
 9822SOL    HW130365   2.369   5.626   3.483
 9822SOL    HW230366   2.339   5.602   3.642
 9823SOL     OW30367   2.530   0.170   1.521
 9823SOL    HW130368   2.434   0.141   1.524
 9823SOL    HW230369   2.543   0.248   1.583
 9824SOL     OW30370   1.718   5.731   4.367
 9824SOL    HW130371   1.681   5.824   4.375
 9824SOL    HW230372   1.774   5.711   4.447
 9825SOL     OW30373   5.147   6.597   4.077
 9825SOL    HW130374   5.156   6.696   4.082
 9825SOL    HW230375   5.219   6.560   4.019
 9826SOL     OW30376   3.594   6.135   5.230
 9826SOL    HW130377   3.668   6.076   5.197
 9826SOL    HW230378   3.595   6.136   5.330
 9827SOL     OW30379   1.659   4.105   3.409
 9827SOL    HW130380   1.726   4.030   3.406
 9827SOL    HW230381   1.694   4.183   3.359
 9828SOL     OW30382   3.378   2.563   5.292
 9828SOL    HW130383   3.305   2.503   5.260
 9828SOL    HW230384   3.367   2.654   5.251
 9829SOL     OW30385   5.028   6.008   6.384
 9829SOL    HW130386   4.941   5.967   6.413
 9829SOL    HW230387   5.010   6.086   6.324
 9830SOL     OW30388   5.480   1.546   1.895
 9830SOL    HW130389   5.569   1.552   1.850
 9830SOL    HW230390   5.429   1.469   1.857
 9831SOL     OW30391   0.961   4.753   2.597
 9831SOL    HW130392   0.982   4.823   2.529
 9831SOL    HW230393   0.889   4.694   2.561
 9832SOL     OW30394   5.202   5.517   1.805
 9832SOL    HW130395   5.290   5.530   1.851
 9832SOL    HW230396   5.190   5.587   1.736
 9833SOL     OW30397   3.470   3.531   3.250
 9833SOL    HW130398   3.497   3.442   3.286
 9833SOL    HW230399   3.383   3.523   3.201
 9834SOL     OW30400   2.072   4.498   5.415
 9834SOL    HW130401   2.020   4.481   5.331
 9834SOL    HW230402   2.125   4.582   5.404
 9835SOL     OW30403   3.697   3.232   4.340
 9835SOL    HW130404   3.784   3.187   4.319
 9835SOL    HW230405   3.644   3.243   4.256
 9836SOL     OW30406   0.608   3.971   4.284
 9836SOL    HW130407   0.537   3.904   4.261
 9836SOL    HW230408   0.658   3.941   4.365
 9837SOL     OW30409   4.591   0.730   2.731
 9837SOL    HW130410   4.666   0.670   2.701
 9837SOL    HW230411   4.629   0.806   2.784
 9838SOL     OW30412   1.537   6.903   0.330
 9838SOL    HW130413   1.501   6.855   0.410
 9838SOL    HW230414   1.592   6.981   0.360
 9839SOL     OW30415   4.915   6.527   3.065
 9839SOL    HW130416   4.834   6.531   3.124
 9839SOL    HW230417   4.921   6.438   3.021
 9840SOL     OW30418   5.176   2.025   0.784
 9840SOL    HW130419   5.114   2.060   0.713
 9840SOL    HW230420   5.258   2.081   0.786
 9841SOL     OW30421   1.381   4.340   4.175
 9841SOL    HW130422   1.394   4.439   4.172
 9841SOL    HW230423   1.328   4.315   4.256
 9842SOL     OW30424   3.694   3.526   1.748
 9842SOL    HW130425   3.739   3.439   1.767
 9842SOL    HW230426   3.607   3.530   1.798
 9843SOL     OW30427   6.485   0.212   1.578
 9843SOL    HW130428   6.400   0.167   1.547
 9843SOL    HW230429   6.545   0.226   1.500
 9844SOL     OW30430   6.209   1.455   4.011
 9844SOL    HW130431   6.251   1.380   4.062
 9844SOL    HW230432   6.133   1.421   3.957
 9845SOL     OW30433   1.625   1.688   3.639
 9845SOL    HW130434   1.680   1.636   3.573
 9845SOL    HW230435   1.676   1.769   3.669
 9846SOL     OW30436   4.682   2.346   0.739
 9846SOL    HW130437   4.673   2.272   0.672
 9846SOL    HW230438   4.617   2.331   0.813
 9847SOL     OW30439   4.078   3.749   2.389
 9847SOL    HW130440   3.987   3.730   2.426
 9847SOL    HW230441   4.140   3.773   2.464
 9848SOL     OW30442   4.490   4.795   6.124
 9848SOL    HW130443   4.453   4.780   6.032
 9848SOL    HW230444   4.494   4.893   6.143
 9849SOL     OW30445   0.823   0.152   6.534
 9849SOL    HW130446   0.903   0.186   6.582
 9849SOL    HW230447   0.776   0.084   6.590
 9850SOL     OW30448   0.263   0.934   3.998
 9850SOL    HW130449   0.269   0.858   3.934
 9850SOL    HW230450   0.280   1.020   3.949
 9851SOL     OW30451   2.228   0.316   4.459
 9851SOL    HW130452   2.326   0.313   4.480
 9851SOL    HW230453   2.214   0.360   4.370
 9852SOL     OW30454   1.616   1.400   4.965
 9852SOL    HW130455   1.615   1.438   4.872
 9852SOL    HW230456   1.709   1.403   5.001
 9853SOL     OW30457   6.662   3.369   5.167
 9853SOL    HW130458   6.697   3.392   5.257
 9853SOL    HW230459   6.736   3.330   5.111
 9854SOL     OW30460   0.424   5.937   4.161
 9854SOL    HW130461   0.517   5.902   4.167
 9854SOL    HW230462   0.419   6.005   4.087
 9855SOL     OW30463   2.395   3.805   0.473
 9855SOL    HW130464   2.485   3.760   0.471
 9855SOL    HW230465   2.357   3.798   0.565
 9856SOL     OW30466   5.185   4.552   4.022
 9856SOL    HW130467   5.107   4.608   3.993
 9856SOL    HW230468   5.270   4.603   4.006
 9857SOL     OW30469   5.161   2.535   2.919
 9857SOL    HW130470   5.115   2.576   2.999
 9857SOL    HW230471   5.096   2.525   2.845
 9858SOL     OW30472   0.350   6.678   1.284
 9858SOL    HW130473   0.379   6.741   1.356
 9858SOL    HW230474   0.250   6.671   1.284
 9859SOL     OW30475   6.677   5.320   4.030
 9859SOL    HW130476   6.670   5.367   3.942
 9859SOL    HW230477   6.738   5.371   4.090
 9860SOL     OW30478   1.946   2.490   4.906
 9860SOL    HW130479   1.895   2.564   4.950
 9860SOL    HW230480   1.992   2.435   4.975
 9861SOL     OW30481   2.787   0.202   3.030
 9861SOL    HW130482   2.880   0.206   2.992
 9861SOL    HW230483   2.792   0.184   3.128
 9862SOL     OW30484   2.518   4.094   0.401
 9862SOL    HW130485   2.571   4.121   0.320
 9862SOL    HW230486   2.460   4.016   0.378
 9863SOL     OW30487   3.270   6.057   1.345
 9863SOL    HW130488   3.233   6.037   1.254
 9863SOL    HW230489   3.199   6.042   1.414
 9864SOL     OW30490   3.251   0.503   4.849
 9864SOL    HW130491   3.221   0.465   4.762
 9864SOL    HW230492   3.349   0.526   4.844
 9865SOL     OW30493   1.236   6.432   4.090
 9865SOL    HW130494   1.259   6.353   4.033
 9865SOL    HW230495   1.321   6.475   4.122
 9866SOL     OW30496   6.195   4.461   5.636
 9866SOL    HW130497   6.244   4.386   5.591
 9866SOL    HW230498   6.259   4.514   5.692
 9867SOL     OW30499   6.374   1.744   2.724
 9867SOL    HW130500   6.314   1.821   2.700
 9867SOL    HW230501   6.336   1.696   2.803
 9868SOL     OW30502   1.039   3.201   4.477
 9868SOL    HW130503   1.057   3.300   4.475
 9868SOL    HW230504   0.943   3.185   4.501
 9869SOL     OW30505   0.678   2.814   1.013
 9869SOL    HW130506   0.776   2.822   0.997
 9869SOL    HW230507   0.647   2.722   0.991
 9870SOL     OW30508   4.357   6.303   2.623
 9870SOL    HW130509   4.320   6.210   2.629
 9870SOL    HW230510   4.455   6.301   2.641
 9871SOL     OW30511   6.394   3.590   5.701
 9871SOL    HW130512   6.297   3.606   5.687
 9871SOL    HW230513   6.424   3.514   5.642
 9872SOL     OW30514   2.849   5.527   4.938
 9872SOL    HW130515   2.755   5.514   4.905
 9872SOL    HW230516   2.905   5.563   4.863
 9873SOL     OW30517   2.276   2.432   0.255
 9873SOL    HW130518   2.177   2.442   0.252
 9873SOL    HW230519   2.319   2.522   0.265
 9874SOL     OW30520   0.419   3.147   5.721
 9874SOL    HW130521   0.514   3.119   5.708
 9874SOL    HW230522   0.364   3.067   5.746
 9875SOL     OW30523   6.319   5.742   2.795
 9875SOL    HW130524   6.232   5.792   2.805
 9875SOL    HW230525   6.315   5.658   2.849
 9876SOL     OW30526   5.553   1.242   3.495
 9876SOL    HW130527   5.488   1.180   3.539
 9876SOL    HW230528   5.642   1.234   3.541
 9877SOL     OW30529   0.013   4.810   4.384
 9877SOL    HW130530   0.044   4.716   4.399
 9877SOL    HW230531   0.038   4.840   4.292
 9878SOL     OW30532   2.416   3.642   5.734
 9878SOL    HW130533   2.422   3.729   5.783
 9878SOL    HW230534   2.508   3.611   5.709
 9879SOL     OW30535   6.596   4.533   5.535
 9879SOL    HW130536   6.642   4.445   5.519
 9879SOL    HW230537   6.514   4.518   5.590
 9880SOL     OW30538   2.185   0.858   0.816
 9880SOL    HW130539   2.200   0.956   0.805
 9880SOL    HW230540   2.221   0.828   0.904
 9881SOL     OW30541   6.747   1.631   4.293
 9881SOL    HW130542   6.693   1.645   4.209
 9881SOL    HW230543   6.746   1.716   4.346
 9882SOL     OW30544   3.273   3.904   5.675
 9882SOL    HW130545   3.230   3.954   5.750
 9882SOL    HW230546   3.210   3.833   5.642
 9883SOL     OW30547   0.982   6.708   1.223
 9883SOL    HW130548   0.998   6.795   1.269
 9883SOL    HW230549   0.899   6.713   1.168
 9884SOL     OW30550   4.191   1.999   0.981
 9884SOL    HW130551   4.204   1.913   1.030
 9884SOL    HW230552   4.258   2.066   1.013
 9885SOL     OW30553   0.782   3.175   4.608
 9885SOL    HW130554   0.713   3.148   4.541
 9885SOL    HW230555   0.737   3.206   4.692
 9886SOL     OW30556   6.784   6.154   2.186
 9886SOL    HW130557   6.837   6.131   2.104
 9886SOL    HW230558   6.845   6.161   2.265
 9887SOL     OW30559   3.506   0.081   0.281
 9887SOL    HW130560   3.408   0.092   0.294
 9887SOL    HW230561   3.546   0.168   0.252
 9888SOL     OW30562   5.562   5.558   3.520
 9888SOL    HW130563   5.518   5.647   3.533
 9888SOL    HW230564   5.658   5.564   3.549
 9889SOL     OW30565   0.842   5.162   2.295
 9889SOL    HW130566   0.827   5.236   2.360
 9889SOL    HW230567   0.893   5.088   2.340
 9890SOL     OW30568   0.351   3.185   0.937
 9890SOL    HW130569   0.447   3.160   0.941
 9890SOL    HW230570   0.300   3.115   0.886
 9891SOL     OW30571   5.683   4.601   1.528
 9891SOL    HW130572   5.629   4.550   1.462
 9891SOL    HW230573   5.628   4.674   1.568
 9892SOL     OW30574   2.016   5.720   3.223
 9892SOL    HW130575   2.053   5.789   3.162
 9892SOL    HW230576   2.028   5.749   3.318
 9893SOL     OW30577   6.323   6.736   2.418
 9893SOL    HW130578   6.326   6.663   2.486
 9893SOL    HW230579   6.415   6.757   2.387
 9894SOL     OW30580   2.704   1.615   6.140
 9894SOL    HW130581   2.636   1.555   6.183
 9894SOL    HW230582   2.773   1.559   6.095
 9895SOL     OW30583   6.282   2.164   5.639
 9895SOL    HW130584   6.249   2.250   5.600
 9895SOL    HW230585   6.354   2.126   5.581
 9896SOL     OW30586   5.170   2.243   6.934
 9896SOL    HW130587   5.230   2.245   7.015
 9896SOL    HW230588   5.120   2.156   6.932
 9897SOL     OW30589   4.998   0.731   2.423
 9897SOL    HW130590   4.976   0.742   2.326
 9897SOL    HW230591   4.960   0.808   2.474
 9898SOL     OW30592   0.287   5.080   4.774
 9898SOL    HW130593   0.270   5.015   4.699
 9898SOL    HW230594   0.203   5.090   4.828
 9899SOL     OW30595   6.556   4.909   2.699
 9899SOL    HW130596   6.613   4.984   2.665
 9899SOL    HW230597   6.574   4.827   2.644
 9900SOL     OW30598   2.029   2.318   3.024
 9900SOL    HW130599   2.081   2.303   2.940
 9900SOL    HW230600   1.933   2.333   3.002
 9901SOL     OW30601   1.855   1.538   0.300
 9901SOL    HW130602   1.877   1.526   0.397
 9901SOL    HW230603   1.924   1.493   0.244
 9902SOL     OW30604   3.954   3.451   1.082
 9902SOL    HW130605   3.947   3.382   1.010
 9902SOL    HW230606   4.048   3.454   1.117
 9903SOL     OW30607   4.748   6.589   2.320
 9903SOL    HW130608   4.778   6.683   2.304
 9903SOL    HW230609   4.730   6.576   2.417
 9904SOL     OW30610   6.888   3.921   6.905
 9904SOL    HW130611   6.961   3.897   6.969
 9904SOL    HW230612   6.808   3.954   6.955
 9905SOL     OW30613   1.503   6.219   0.232
 9905SOL    HW130614   1.536   6.224   0.138
 9905SOL    HW230615   1.479   6.125   0.254
 9906SOL     OW30616   1.788   3.636   6.916
 9906SOL    HW130617   1.718   3.659   6.984
 9906SOL    HW230618   1.847   3.563   6.951
 9907SOL     OW30619   2.057   0.082   3.564
 9907SOL    HW130620   2.142   0.131   3.544
 9907SOL    HW230621   2.006   0.131   3.635
 9908SOL     OW30622   0.573   4.098   5.294
 9908SOL    HW130623   0.604   4.127   5.203
 9908SOL    HW230624   0.491   4.041   5.285
 9909SOL     OW30625   3.610   0.421   3.457
 9909SOL    HW130626   3.679   0.366   3.411
 9909SOL    HW230627   3.573   0.370   3.535
 9910SOL     OW30628   0.831   5.239   1.599
 9910SOL    HW130629   0.899   5.169   1.622
 9910SOL    HW230630   0.847   5.272   1.506
 9911SOL     OW30631   4.605   5.468   2.650
 9911SOL    HW130632   4.525   5.434   2.699
 9911SOL    HW230633   4.580   5.548   2.595
 9912SOL     OW30634   4.415   0.886   1.324
 9912SOL    HW130635   4.326   0.844   1.305
 9912SOL    HW230636   4.487   0.818   1.311
 9913SOL     OW30637   6.583   3.153   2.311
 9913SOL    HW130638   6.581   3.211   2.393
 9913SOL    HW230639   6.497   3.103   2.304
 9914SOL     OW30640   0.784   0.452   5.672
 9914SOL    HW130641   0.834   0.477   5.754
 9914SOL    HW230642   0.730   0.531   5.641
 9915SOL     OW30643   4.722   2.759   4.041
 9915SOL    HW130644   4.813   2.720   4.027
 9915SOL    HW230645   4.726   2.858   4.028
 9916SOL     OW30646   2.249   2.420   3.508
 9916SOL    HW130647   2.301   2.340   3.538
 9916SOL    HW230648   2.309   2.484   3.461
 9917SOL     OW30649   3.163   3.423   4.351
 9917SOL    HW130650   3.168   3.418   4.251
 9917SOL    HW230651   3.255   3.416   4.389
 9918SOL     OW30652   0.704   2.260   0.914
 9918SOL    HW130653   0.736   2.244   1.008
 9918SOL    HW230654   0.609   2.292   0.917
 9919SOL     OW30655   2.409   6.002   1.285
 9919SOL    HW130656   2.319   6.021   1.325
 9919SOL    HW230657   2.397   5.966   1.192
 9920SOL     OW30658   3.645   0.891   3.206
 9920SOL    HW130659   3.614   0.956   3.276
 9920SOL    HW230660   3.572   0.825   3.189
 9921SOL     OW30661   5.347   6.134   4.517
 9921SOL    HW130662   5.256   6.099   4.497
 9921SOL    HW230663   5.394   6.156   4.431
 9922SOL     OW30664   4.860   4.347   0.857
 9922SOL    HW130665   4.887   4.326   0.763
 9922SOL    HW230666   4.789   4.283   0.886
 9923SOL     OW30667   6.984   3.396   0.307
 9923SOL    HW130668   7.006   3.406   0.404
 9923SOL    HW230669   6.887   3.418   0.292
 9924SOL     OW30670   5.338   2.575   3.300
 9924SOL    HW130671   5.353   2.656   3.244
 9924SOL    HW230672   5.241   2.552   3.301
 9925SOL     OW30673   1.925   4.548   4.764
 9925SOL    HW130674   2.009   4.496   4.783
 9925SOL    HW230675   1.935   4.596   4.677
 9926SOL     OW30676   3.173   2.254   1.104
 9926SOL    HW130677   3.146   2.159   1.089
 9926SOL    HW230678   3.270   2.259   1.127
 9927SOL     OW30679   0.838   2.315   1.196
 9927SOL    HW130680   0.767   2.297   1.263
 9927SOL    HW230681   0.900   2.237   1.190
 9928SOL     OW30682   5.786   3.935   2.657
 9928SOL    HW130683   5.815   3.842   2.683
 9928SOL    HW230684   5.823   4.001   2.722
 9929SOL     OW30685   3.222   4.537   5.355
 9929SOL    HW130686   3.252   4.630   5.335
 9929SOL    HW230687   3.150   4.511   5.291
 9930SOL     OW30688   0.465   0.432   5.991
 9930SOL    HW130689   0.466   0.510   5.929
 9930SOL    HW230690   0.449   0.348   5.939
 9931SOL     OW30691   6.960   5.580   5.140
 9931SOL    HW130692   6.963   5.513   5.214
 9931SOL    HW230693   6.874   5.631   5.143
 9932SOL     OW30694   1.546   1.910   6.819
 9932SOL    HW130695   1.466   1.924   6.760
 9932SOL    HW230696   1.605   1.990   6.816
 9933SOL     OW30697   1.614   0.602   3.979
 9933SOL    HW130698   1.556   0.543   4.035
 9933SOL    HW230699   1.678   0.651   4.037
 9934SOL     OW30700   6.140   1.986   6.926
 9934SOL    HW130701   6.150   2.085   6.931
 9934SOL    HW230702   6.180   1.952   6.841
 9935SOL     OW30703   2.152   0.949   0.297
 9935SOL    HW130704   2.202   1.015   0.353
 9935SOL    HW230705   2.207   0.866   0.285
 9936SOL     OW30706   6.659   5.220   6.508
 9936SOL    HW130707   6.578   5.209   6.450
 9936SOL    HW230708   6.726   5.150   6.483
 9937SOL     OW30709   1.609   0.923   3.095
 9937SOL    HW130710   1.516   0.929   3.133
 9937SOL    HW230711   1.604   0.898   2.999
 9938SOL     OW30712   5.534   0.225   3.918
 9938SOL    HW130713   5.454   0.262   3.963
 9938SOL    HW230714   5.578   0.296   3.863
 9939SOL     OW30715   2.395   3.137   1.006
 9939SOL    HW130716   2.341   3.180   1.079
 9939SOL    HW230717   2.333   3.106   0.934
 9940SOL     OW30718   0.843   0.865   3.684
 9940SOL    HW130719   0.881   0.833   3.771
 9940SOL    HW230720   0.842   0.789   3.619
 9941SOL     OW30721   2.811   5.447   5.505
 9941SOL    HW130722   2.755   5.486   5.578
 9941SOL    HW230723   2.907   5.451   5.531
 9942SOL     OW30724   4.742   5.333   2.132
 9942SOL    HW130725   4.817   5.338   2.198
 9942SOL    HW230726   4.662   5.382   2.168
 9943SOL     OW30727   0.942   4.123   6.445
 9943SOL    HW130728   1.033   4.155   6.473
 9943SOL    HW230729   0.924   4.153   6.351
 9944SOL     OW30730   6.767   5.607   6.445
 9944SOL    HW130731   6.680   5.595   6.492
 9944SOL    HW230732   6.798   5.701   6.454
 9945SOL     OW30733   5.564   3.916   6.860
 9945SOL    HW130734   5.515   3.859   6.795
 9945SOL    HW230735   5.557   3.876   6.952
 9946SOL     OW30736   6.441   0.003   3.289
 9946SOL    HW130737   6.368   0.028   3.353
 9946SOL    HW230738   6.522   6.998   3.340
 9947SOL     OW30739   1.902   1.476   3.852
 9947SOL    HW130740   1.999   1.458   3.867
 9947SOL    HW230741   1.879   1.567   3.887
 9948SOL     OW30742   6.711   5.452   5.492
 9948SOL    HW130743   6.641   5.436   5.423
 9948SOL    HW230744   6.800   5.462   5.447
 9949SOL     OW30745   6.947   5.294   4.266
 9949SOL    HW130746   6.994   5.290   4.354
 9949SOL    HW230747   6.936   5.202   4.230
 9950SOL     OW30748   6.747   5.219   5.668
 9950SOL    HW130749   6.817   5.164   5.622
 9950SOL    HW230750   6.699   5.274   5.599
 9951SOL     OW30751   1.650   1.993   2.475
 9951SOL    HW130752   1.581   2.057   2.440
 9951SOL    HW230753   1.612   1.900   2.474
 9952SOL     OW30754   1.636   4.228   1.252
 9952SOL    HW130755   1.573   4.302   1.277
 9952SOL    HW230756   1.658   4.174   1.333
 9953SOL     OW30757   5.440   2.673   3.735
 9953SOL    HW130758   5.395   2.748   3.688
 9953SOL    HW230759   5.382   2.639   3.809
 9954SOL     OW30760   1.380   0.412   4.732
 9954SOL    HW130761   1.471   0.370   4.740
 9954SOL    HW230762   1.379   0.499   4.782
 9955SOL     OW30763   4.389   3.831   6.610
 9955SOL    HW130764   4.327   3.909   6.623
 9955SOL    HW230765   4.425   3.832   6.517
 9956SOL     OW30766   0.787   3.543   2.463
 9956SOL    HW130767   0.693   3.550   2.432
 9956SOL    HW230768   0.816   3.630   2.504
 9957SOL     OW30769   5.273   0.047   1.979
 9957SOL    HW130770   5.222   0.002   1.906
 9957SOL    HW230771   5.362   0.005   1.989
 9958SOL     OW30772   2.848   5.949   5.592
 9958SOL    HW130773   2.886   5.990   5.675
 9958SOL    HW230774   2.919   5.897   5.545
 9959SOL     OW30775   4.115   3.449   2.583
 9959SOL    HW130776   4.121   3.546   2.607
 9959SOL    HW230777   4.074   3.398   2.659
 9960SOL     OW30778   0.670   6.313   0.994
 9960SOL    HW130779   0.597   6.369   0.955
 9960SOL    HW230780   0.668   6.222   0.953
 9961SOL     OW30781   2.353   4.275   2.639
 9961SOL    HW130782   2.348   4.207   2.567
 9961SOL    HW230783   2.288   4.252   2.712
 9962SOL     OW30784   3.763   0.764   2.105
 9962SOL    HW130785   3.758   0.664   2.104
 9962SOL    HW230786   3.780   0.798   2.012
 9963SOL     OW30787   2.527   3.599   6.429
 9963SOL    HW130788   2.584   3.603   6.347
 9963SOL    HW230789   2.514   3.692   6.465
 9964SOL     OW30790   3.770   4.729   5.912
 9964SOL    HW130791   3.859   4.756   5.876
 9964SOL    HW230792   3.774   4.725   6.012
 9965SOL     OW30793   3.178   5.498   4.578
 9965SOL    HW130794   3.254   5.519   4.638
 9965SOL    HW230795   3.198   5.415   4.527
 9966SOL     OW30796   2.487   5.497   1.853
 9966SOL    HW130797   2.587   5.496   1.846
 9966SOL    HW230798   2.459   5.573   1.913
 9967SOL     OW30799   6.283   4.926   2.650
 9967SOL    HW130800   6.377   4.944   2.680
 9967SOL    HW230801   6.220   4.966   2.716
 9968SOL     OW30802   4.007   5.677   6.487
 9968SOL    HW130803   3.961   5.705   6.402
 9968SOL    HW230804   4.105   5.692   6.479
 9969SOL     OW30805   1.459   2.794   4.545
 9969SOL    HW130806   1.378   2.813   4.490
 9969SOL    HW230807   1.527   2.866   4.531
 9970SOL     OW30808   6.759   5.015   1.575
 9970SOL    HW130809   6.750   5.028   1.477
 9970SOL    HW230810   6.767   4.918   1.595
 9971SOL     OW30811   2.615   3.705   1.066
 9971SOL    HW130812   2.628   3.616   1.024
 9971SOL    HW230813   2.577   3.769   0.999
 9972SOL     OW30814   2.949   4.582   0.587
 9972SOL    HW130815   2.991   4.660   0.633
 9972SOL    HW230816   2.878   4.543   0.646
 9973SOL     OW30817   3.944   2.100   4.405
 9973SOL    HW130818   4.021   2.136   4.457
 9973SOL    HW230819   3.858   2.129   4.447
 9974SOL     OW30820   0.005   3.223   3.089
 9974SOL    HW130821   6.960   3.192   3.021
 9974SOL    HW230822   6.985   3.293   3.147
 9975SOL     OW30823   0.201   4.939   6.558
 9975SOL    HW130824   0.139   4.895   6.623
 9975SOL    HW230825   0.181   4.906   6.466
 9976SOL     OW30826   0.500   5.107   5.402
 9976SOL    HW130827   0.400   5.111   5.398
 9976SOL    HW230828   0.535   5.071   5.315
 9977SOL     OW30829   5.806   5.293   6.123
 9977SOL    HW130830   5.858   5.209   6.110
 9977SOL    HW230831   5.861   5.372   6.093
 9978SOL     OW30832   6.206   1.377   5.275
 9978SOL    HW130833   6.235   1.435   5.351
 9978SOL    HW230834   6.230   1.421   5.189
 9979SOL     OW30835   6.930   4.015   6.471
 9979SOL    HW130836   7.009   3.956   6.452
 9979SOL    HW230837   6.930   4.040   6.568
 9980SOL     OW30838   1.747   0.568   0.684
 9980SOL    HW130839   1.696   0.518   0.614
 9980SOL    HW230840   1.781   0.504   0.753
 9981SOL     OW30841   3.029   2.299   0.622
 9981SOL    HW130842   3.063   2.391   0.641
 9981SOL    HW230843   3.057   2.237   0.695
 9982SOL     OW30844   1.120   1.170   3.799
 9982SOL    HW130845   1.215   1.194   3.821
 9982SOL    HW230846   1.067   1.163   3.883
 9983SOL     OW30847   0.634   1.153   2.211
 9983SOL    HW130848   0.534   1.159   2.217
 9983SOL    HW230849   0.666   1.206   2.133
 9984SOL     OW30850   0.747   6.806   0.193
 9984SOL    HW130851   0.672   6.783   0.130
 9984SOL    HW230852   0.775   6.724   0.242
 9985SOL     OW30853   3.295   6.322   1.360
 9985SOL    HW130854   3.287   6.223   1.373
 9985SOL    HW230855   3.224   6.354   1.298
 9986SOL     OW30856   6.029   4.840   0.663
 9986SOL    HW130857   6.085   4.866   0.742
 9986SOL    HW230858   6.045   4.905   0.588
 9987SOL     OW30859   6.558   1.951   2.785
 9987SOL    HW130860   6.576   1.928   2.881
 9987SOL    HW230861   6.474   2.005   2.780
 9988SOL     OW30862   6.826   5.556   4.492
 9988SOL    HW130863   6.766   5.499   4.437
 9988SOL    HW230864   6.874   5.620   4.433
 9989SOL     OW30865   6.064   3.854   2.589
 9989SOL    HW130866   6.118   3.850   2.672
 9989SOL    HW230867   5.998   3.929   2.595
 9990SOL     OW30868   2.230   6.778   3.586
 9990SOL    HW130869   2.179   6.793   3.501
 9990SOL    HW230870   2.167   6.750   3.658
 9991SOL     OW30871   2.246   3.051   4.307
 9991SOL    HW130872   2.273   3.015   4.218
 9991SOL    HW230873   2.295   3.003   4.379
 9992SOL     OW30874   4.229   3.476   0.556
 9992SOL    HW130875   4.269   3.399   0.605
 9992SOL    HW230876   4.289   3.555   0.563
 9993SOL     OW30877   3.954   6.513   3.346
 9993SOL    HW130878   3.983   6.590   3.289
 9993SOL    HW230879   4.002   6.517   3.433
 9994SOL     OW30880   6.989   4.017   2.666
 9994SOL    HW130881   6.996   3.917   2.657
 9994SOL    HW230882   6.969   4.057   2.576
 9995SOL     OW30883   3.222   0.095   3.693
 9995SOL    HW130884   3.154   0.153   3.738
 9995SOL    HW230885   3.185   0.002   3.684
 9996SOL     OW30886   2.900   3.436   1.729
 9996SOL    HW130887   2.865   3.523   1.765
 9996SOL    HW230888   2.994   3.448   1.698
 9997SOL     OW30889   5.014   1.025   1.853
 9997SOL    HW130890   4.968   1.113   1.847
 9997SOL    HW230891   5.104   1.032   1.810
 9998SOL     OW30892   5.557   3.863   2.533
 9998SOL    HW130893   5.640   3.891   2.581
 9998SOL    HW230894   5.514   3.943   2.490
 9999SOL     OW30895   0.177   5.828   4.948
 9999SOL    HW130896   0.233   5.902   4.985
 9999SOL    HW230897   0.120   5.863   4.874
10000SOL     OW30898   5.728   1.978   6.585
10000SOL    HW130899   5.755   1.890   6.546
10000SOL    HW230900   5.677   1.963   6.669
10001SOL     OW30901   4.156   0.780   1.307
10001SOL    HW130902   4.083   0.846   1.327
10001SOL    HW230903   4.138   0.695   1.356
10002SOL     OW30904   1.421   0.939   1.990
10002SOL    HW130905   1.461   1.010   2.049
10002SOL    HW230906   1.493   0.899   1.933
10003SOL     OW30907   2.965   2.250   2.376
10003SOL    HW130908   3.062   2.260   2.355
10003SOL    HW230909   2.911   2.298   2.308
10004SOL     OW30910   5.636   3.202   5.096
10004SOL    HW130911   5.681   3.183   5.009
10004SOL    HW230912   5.540   3.224   5.079
10005SOL     OW30913   3.077   5.652   2.283
10005SOL    HW130914   3.047   5.563   2.250
10005SOL    HW230915   3.176   5.661   2.268
10006SOL     OW30916   5.925   0.321   5.605
10006SOL    HW130917   6.013   0.289   5.568
10006SOL    HW230918   5.910   0.280   5.695
10007SOL     OW30919   0.852   3.008   4.076
10007SOL    HW130920   0.919   3.034   4.006
10007SOL    HW230921   0.817   2.916   4.056
10008SOL     OW30922   4.264   1.078   3.282
10008SOL    HW130923   4.243   1.100   3.378
10008SOL    HW230924   4.187   1.030   3.241
10009SOL     OW30925   1.753   4.691   1.518
10009SOL    HW130926   1.711   4.602   1.500
10009SOL    HW230927   1.790   4.692   1.611
10010SOL     OW30928   2.256   5.989   0.235
10010SOL    HW130929   2.346   6.006   0.193
10010SOL    HW230930   2.186   5.987   0.163
10011SOL     OW30931   0.791   3.726   6.726
10011SOL    HW130932   0.877   3.702   6.681
10011SOL    HW230933   0.748   3.644   6.762
10012SOL     OW30934   5.190   6.916   2.362
10012SOL    HW130935   5.246   6.857   2.303
10012SOL    HW230936   5.156   6.993   2.308
10013SOL     OW30937   1.667   1.692   4.129
10013SOL    HW130938   1.750   1.741   4.156
10013SOL    HW230939   1.670   1.672   4.031
10014SOL     OW30940   0.794   1.575   1.380
10014SOL    HW130941   0.708   1.626   1.372
10014SOL    HW230942   0.775   1.477   1.381
10015SOL     OW30943   4.421   5.269   6.886
10015SOL    HW130944   4.332   5.270   6.842
10015SOL    HW230945   4.410   5.289   6.984
10016SOL     OW30946   1.311   0.611   4.279
10016SOL    HW130947   1.348   0.568   4.196
10016SOL    HW230948   1.333   0.708   4.279
10017SOL     OW30949   1.588   1.873   2.800
10017SOL    HW130950   1.622   1.849   2.709
10017SOL    HW230951   1.489   1.857   2.803
10018SOL     OW30952   6.638   4.402   6.187
10018SOL    HW130953   6.712   4.375   6.249
10018SOL    HW230954   6.603   4.322   6.139
10019SOL     OW30955   0.778   2.093   3.194
10019SOL    HW130956   0.740   2.166   3.137
10019SOL    HW230957   0.704   2.046   3.242
10020SOL     OW30958   0.350   0.800   1.414
10020SOL    HW130959   0.341   0.865   1.339
10020SOL    HW230960   0.441   0.806   1.454
10021SOL     OW30961   0.952   1.923   2.644
10021SOL    HW130962   0.934   1.825   2.630
10021SOL    HW230963   0.999   1.960   2.563
10022SOL     OW30964   3.645   6.760   0.795
10022SOL    HW130965   3.611   6.686   0.853
10022SOL    HW230966   3.743   6.772   0.810
10023SOL     OW30967   2.201   4.831   5.137
10023SOL    HW130968   2.257   4.756   5.101
10023SOL    HW230969   2.246   4.918   5.120
10024SOL     OW30970   1.802   6.389   1.794
10024SOL    HW130971   1.755   6.364   1.878
10024SOL    HW230972   1.857   6.312   1.762
10025SOL     OW30973   2.296   2.784   1.957
10025SOL    HW130974   2.203   2.757   1.934
10025SOL    HW230975   2.358   2.707   1.943
10026SOL     OW30976   4.846   6.931   3.301
10026SOL    HW130977   4.827   6.924   3.203
10026SOL    HW230978   4.921   6.994   3.316
10027SOL     OW30979   0.606   3.279   4.808
10027SOL    HW130980   0.663   3.358   4.832
10027SOL    HW230981   0.528   3.275   4.870
10028SOL     OW30982   1.611   1.893   2.057
10028SOL    HW130983   1.560   1.840   1.990
10028SOL    HW230984   1.690   1.840   2.089
10029SOL     OW30985   2.114   1.589   4.167
10029SOL    HW130986   2.202   1.596   4.120
10029SOL    HW230987   2.129   1.552   4.259
10030SOL     OW30988   3.031   0.157   4.968
10030SOL    HW130989   2.968   0.221   5.013
10030SOL    HW230990   2.988   0.120   4.886
10031SOL     OW30991   5.970   4.483   4.206
10031SOL    HW130992   5.891   4.423   4.195
10031SOL    HW230993   6.053   4.428   4.214
10032SOL     OW30994   3.662   0.666   5.088
10032SOL    HW130995   3.709   0.612   5.158
10032SOL    HW230996   3.693   0.761   5.092
10033SOL     OW30997   4.354   2.460   4.088
10033SOL    HW130998   4.325   2.555   4.085
10033SOL    HW230999   4.424   2.448   4.158
10034SOL     OW31000   3.622   0.533   4.074
10034SOL    HW131001   3.665   0.526   3.984
10034SOL    HW231002   3.685   0.498   4.143
10035SOL     OW31003   6.733   4.812   1.972
10035SOL    HW131004   6.685   4.898   1.954
10035SOL    HW231005   6.727   4.753   1.891
10036SOL     OW31006   6.350   0.791   0.841
10036SOL    HW131007   6.351   0.884   0.806
10036SOL    HW231008   6.409   0.733   0.784
10037SOL     OW31009   6.067   1.444   0.379
10037SOL    HW131010   6.067   1.434   0.280
10037SOL    HW231011   6.158   1.427   0.415
10038SOL     OW31012   4.454   0.941   6.329
10038SOL    HW131013   4.512   0.935   6.248
10038SOL    HW231014   4.419   0.850   6.352
10039SOL     OW31015   3.775   6.452   5.424
10039SOL    HW131016   3.680   6.431   5.448
10039SOL    HW231017   3.779   6.541   5.379
10040SOL     OW31018   4.282   5.776   6.112
10040SOL    HW131019   4.333   5.842   6.058
10040SOL    HW231020   4.242   5.707   6.052
10041SOL     OW31021   4.178   5.340   6.782
10041SOL    HW131022   4.091   5.291   6.782
10041SOL    HW231023   4.199   5.372   6.690
10042SOL     OW31024   1.542   1.991   5.155
10042SOL    HW131025   1.565   1.901   5.191
10042SOL    HW231026   1.518   1.984   5.059
10043SOL     OW31027   0.689   2.378   4.330
10043SOL    HW131028   0.638   2.292   4.339
10043SOL    HW231029   0.624   2.454   4.322
10044SOL     OW31030   2.929   1.622   4.700
10044SOL    HW131031   2.959   1.572   4.781
10044SOL    HW231032   2.897   1.713   4.726
10045SOL     OW31033   5.056   6.841   3.718
10045SOL    HW131034   4.961   6.817   3.698
10045SOL    HW231035   5.061   6.883   3.809
10046SOL     OW31036   1.838   3.513   1.299
10046SOL    HW131037   1.903   3.552   1.364
10046SOL    HW231038   1.748   3.557   1.311
10047SOL     OW31039   6.297   3.158   4.790
10047SOL    HW131040   6.328   3.241   4.835
10047SOL    HW231041   6.298   3.082   4.855
10048SOL     OW31042   6.028   1.335   2.518
10048SOL    HW131043   6.060   1.286   2.436
10048SOL    HW231044   5.993   1.269   2.585
10049SOL     OW31045   0.233   0.139   6.702
10049SOL    HW131046   0.284   0.062   6.740
10049SOL    HW231047   0.135   0.118   6.704
10050SOL     OW31048   5.780   2.540   4.427
10050SOL    HW131049   5.875   2.569   4.414
10050SOL    HW231050   5.758   2.467   4.363
10051SOL     OW31051   5.963   2.375   5.227
10051SOL    HW131052   5.933   2.308   5.160
10051SOL    HW231053   6.059   2.358   5.251
10052SOL     OW31054   2.598   2.266   2.585
10052SOL    HW131055   2.541   2.336   2.541
10052SOL    HW231056   2.642   2.305   2.666
10053SOL     OW31057   3.383   6.028   1.981
10053SOL    HW131058   3.301   6.037   2.038
10053SOL    HW231059   3.450   6.097   2.007
10054SOL     OW31060   4.966   5.013   6.289
10054SOL    HW131061   4.896   5.064   6.240
10054SOL    HW231062   4.969   5.042   6.385
10055SOL     OW31063   6.158   1.834   4.839
10055SOL    HW131064   6.097   1.884   4.776
10055SOL    HW231065   6.164   1.884   4.925
10056SOL     OW31066   5.849   4.124   2.884
10056SOL    HW131067   5.828   4.090   2.975
10056SOL    HW231068   5.947   4.147   2.879
10057SOL     OW31069   3.966   1.568   4.648
10057SOL    HW131070   3.886   1.620   4.675
10057SOL    HW231071   4.020   1.621   4.583
10058SOL     OW31072   0.501   3.932   4.620
10058SOL    HW131073   0.483   3.901   4.713
10058SOL    HW231074   0.598   3.953   4.610
10059SOL     OW31075   5.245   0.640   1.177
10059SOL    HW131076   5.276   0.674   1.088
10059SOL    HW231077   5.198   0.714   1.225
10060SOL     OW31078   1.478   1.472   1.234
10060SOL    HW131079   1.533   1.548   1.200
10060SOL    HW231080   1.498   1.456   1.331
10061SOL     OW31081   4.797   1.747   4.017
10061SOL    HW131082   4.883   1.797   4.009
10061SOL    HW231083   4.773   1.738   4.114
10062SOL     OW31084   6.381   0.489   4.248
10062SOL    HW131085   6.331   0.416   4.295
10062SOL    HW231086   6.372   0.574   4.299
10063SOL     OW31087   2.253   0.601   3.729
10063SOL    HW131088   2.200   0.682   3.705
10063SOL    HW231089   2.207   0.519   3.693
10064SOL     OW31090   5.161   6.694   0.118
10064SOL    HW131091   5.212   6.659   0.197
10064SOL    HW231092   5.159   6.624   0.046
10065SOL     OW31093   2.039   0.443   1.943
10065SOL    HW131094   2.131   0.470   1.973
10065SOL    HW231095   2.035   0.444   1.843
10066SOL     OW31096   0.841   2.346   3.896
10066SOL    HW131097   0.828   2.304   3.806
10066SOL    HW231098   0.752   2.356   3.941
10067SOL     OW31099   6.586   3.955   5.277
10067SOL    HW131100   6.563   3.873   5.224
10067SOL    HW231101   6.547   4.035   5.232
10068SOL     OW31102   0.402   3.307   3.585
10068SOL    HW131103   0.329   3.352   3.637
10068SOL    HW231104   0.362   3.245   3.517
10069SOL     OW31105   2.257   5.022   2.789
10069SOL    HW131106   2.274   4.997   2.884
10069SOL    HW231107   2.289   5.115   2.773
10070SOL     OW31108   6.413   6.700   5.014
10070SOL    HW131109   6.485   6.648   4.970
10070SOL    HW231110   6.324   6.674   4.976
10071SOL     OW31111   5.925   5.706   4.313
10071SOL    HW131112   6.012   5.657   4.304
10071SOL    HW231113   5.921   5.779   4.245
10072SOL     OW31114   0.018   6.728   3.962
10072SOL    HW131115   0.036   6.652   4.025
10072SOL    HW231116   0.017   6.694   3.868
10073SOL     OW31117   5.991   4.511   5.463
10073SOL    HW131118   6.065   4.493   5.529
10073SOL    HW231119   5.927   4.434   5.464
10074SOL     OW31120   1.404   0.705   5.576
10074SOL    HW131121   1.449   0.783   5.621
10074SOL    HW231122   1.422   0.708   5.478
10075SOL     OW31123   1.810   2.754   2.947
10075SOL    HW131124   1.844   2.674   2.897
10075SOL    HW231125   1.738   2.798   2.894
10076SOL     OW31126   0.041   0.395   4.215
10076SOL    HW131127   0.117   0.361   4.160
10076SOL    HW231128   0.076   0.430   4.302
10077SOL     OW31129   3.963   2.951   6.352
10077SOL    HW131130   3.954   3.014   6.275
10077SOL    HW231131   4.057   2.919   6.360
10078SOL     OW31132   0.404   5.738   3.838
10078SOL    HW131133   0.394   5.822   3.783
10078SOL    HW231134   0.314   5.697   3.851
10079SOL     OW31135   6.710   3.857   3.394
10079SOL    HW131136   6.625   3.894   3.432
10079SOL    HW231137   6.788   3.891   3.447
10080SOL     OW31138   4.272   1.240   5.845
10080SOL    HW131139   4.313   1.183   5.916
10080SOL    HW231140   4.342   1.271   5.781
10081SOL     OW31141   6.869   0.410   0.898
10081SOL    HW131142   6.872   0.490   0.837
10081SOL    HW231143   6.960   0.392   0.933
10082SOL     OW31144   0.294   5.408   1.563
10082SOL    HW131145   0.227   5.398   1.636
10082SOL    HW231146   0.253   5.382   1.476
10083SOL     OW31147   4.188   1.114   3.548
10083SOL    HW131148   4.215   1.025   3.586
10083SOL    HW231149   4.097   1.138   3.582
10084SOL     OW31150   1.841   0.973   5.382
10084SOL    HW131151   1.791   1.053   5.349
10084SOL    HW231152   1.909   1.002   5.449
10085SOL     OW31153   2.652   5.939   1.380
10085SOL    HW131154   2.675   5.993   1.460
10085SOL    HW231155   2.554   5.949   1.360
10086SOL     OW31156   4.307   5.806   2.164
10086SOL    HW131157   4.287   5.834   2.258
10086SOL    HW231158   4.403   5.780   2.157
10087SOL     OW31159   6.895   7.001   3.695
10087SOL    HW131160   6.908   6.967   3.788
10087SOL    HW231161   6.843   0.065   3.697
10088SOL     OW31162   6.601   0.237   1.327
10088SOL    HW131163   6.576   0.317   1.274
10088SOL    HW231164   6.577   0.154   1.277
10089SOL     OW31165   2.915   1.967   2.394
10089SOL    HW131166   2.843   1.932   2.454
10089SOL    HW231167   2.918   2.066   2.400
10090SOL     OW31168   1.208   4.901   1.828
10090SOL    HW131169   1.197   4.906   1.927
10090SOL    HW231170   1.128   4.941   1.783
10091SOL     OW31171   0.494   4.322   6.380
10091SOL    HW131172   0.567   4.258   6.402
10091SOL    HW231173   0.409   4.271   6.366
10092SOL     OW31174   2.228   2.211   5.630
10092SOL    HW131175   2.148   2.260   5.596
10092SOL    HW231176   2.287   2.273   5.681
10093SOL     OW31177   6.685   2.927   4.733
10093SOL    HW131178   6.723   2.946   4.643
10093SOL    HW231179   6.637   3.009   4.767
10094SOL     OW31180   3.083   6.152   1.761
10094SOL    HW131181   3.085   6.203   1.847
10094SOL    HW231182   3.115   6.059   1.776
10095SOL     OW31183   5.753   2.009   5.267
10095SOL    HW131184   5.778   2.079   5.200
10095SOL    HW231185   5.834   1.954   5.288
10096SOL     OW31186   4.329   5.485   3.118
10096SOL    HW131187   4.265   5.410   3.101
10096SOL    HW231188   4.413   5.470   3.067
10097SOL     OW31189   0.726   1.122   0.232
10097SOL    HW131190   0.746   1.204   0.178
10097SOL    HW231191   0.634   1.129   0.271
10098SOL     OW31192   2.271   0.083   5.248
10098SOL    HW131193   2.274   0.164   5.188
10098SOL    HW231194   2.257   0.112   5.342
10099SOL     OW31195   0.389   5.100   1.103
10099SOL    HW131196   0.391   5.007   1.140
10099SOL    HW231197   0.462   5.109   1.035
10100SOL     OW31198   4.409   6.966   5.016
10100SOL    HW131199   4.408   6.916   4.929
10100SOL    HW231200   4.498   7.009   5.029
10101SOL     OW31201   6.504   3.964   2.216
10101SOL    HW131202   6.571   3.939   2.147
10101SOL    HW231203   6.527   4.053   2.256
10102SOL     OW31204   0.598   1.304   2.689
10102SOL    HW131205   0.554   1.306   2.599
10102SOL    HW231206   0.528   1.313   2.760
10103SOL     OW31207   2.512   0.467   5.711
10103SOL    HW131208   2.430   0.418   5.741
10103SOL    HW231209   2.501   0.496   5.616
10104SOL     OW31210   1.934   1.780   4.262
10104SOL    HW131211   1.897   1.744   4.348
10104SOL    HW231212   1.994   1.711   4.221
10105SOL     OW31213   1.510   0.873   0.238
10105SOL    HW131214   1.451   0.953   0.246
10105SOL    HW231215   1.606   0.901   0.245
10106SOL     OW31216   3.735   6.314   0.217
10106SOL    HW131217   3.667   6.335   0.287
10106SOL    HW231218   3.706   6.234   0.164
10107SOL     OW31219   5.985   1.427   5.545
10107SOL    HW131220   6.045   1.461   5.618
10107SOL    HW231221   5.967   1.330   5.560
10108SOL     OW31222   6.401   0.353   0.029
10108SOL    HW131223   6.486   0.400   0.005
10108SOL    HW231224   6.327   0.419   0.037
10109SOL     OW31225   5.581   0.811   0.652
10109SOL    HW131226   5.572   0.899   0.700
10109SOL    HW231227   5.645   0.821   0.575
10110SOL     OW31228   3.905   4.988   4.817
10110SOL    HW131229   3.817   5.035   4.823
10110SOL    HW231230   3.926   4.967   4.722
10111SOL     OW31231   5.894   3.519   3.483
10111SOL    HW131232   5.894   3.427   3.443
10111SOL    HW231233   5.984   3.561   3.469
10112SOL     OW31234   5.745   3.756   3.540
10112SOL    HW131235   5.723   3.794   3.629
10112SOL    HW231236   5.787   3.665   3.551
10113SOL     OW31237   3.878   0.006   7.021
10113SOL    HW131238   3.913   0.069   0.069
10113SOL    HW231239   3.938   6.948   7.015
10114SOL     OW31240   4.630   1.613   1.433
10114SOL    HW131241   4.564   1.580   1.366
10114SOL    HW231242   4.679   1.692   1.396
10115SOL     OW31243   3.350   0.653   5.187
10115SOL    HW131244   3.424   0.597   5.150
10115SOL    HW231245   3.361   0.747   5.156
10116SOL     OW31246   0.499   6.532   0.117
10116SOL    HW131247   0.592   6.494   0.116
10116SOL    HW231248   0.466   6.541   0.023
10117SOL     OW31249   6.739   6.059   6.482
10117SOL    HW131250   6.657   6.016   6.520
10117SOL    HW231251   6.736   6.158   6.500
10118SOL     OW31252   2.373   4.612   2.677
10118SOL    HW131253   2.412   4.542   2.736
10118SOL    HW231254   2.274   4.599   2.670
10119SOL     OW31255   0.112   5.867   4.481
10119SOL    HW131256   0.081   5.950   4.529
10119SOL    HW231257   0.127   5.794   4.548
10120SOL     OW31258   2.133   3.655   4.739
10120SOL    HW131259   2.233   3.651   4.729
10120SOL    HW231260   2.089   3.603   4.666
10121SOL     OW31261   6.154   3.340   0.116
10121SOL    HW131262   6.192   3.312   0.028
10121SOL    HW231263   6.228   3.352   0.182
10122SOL     OW31264   6.131   3.157   2.401
10122SOL    HW131265   6.131   3.130   2.304
10122SOL    HW231266   6.118   3.076   2.458
10123SOL     OW31267   5.328   5.758   0.069
10123SOL    HW131268   5.233   5.763   0.039
10123SOL    HW231269   5.338   5.688   0.140
10124SOL     OW31270   1.389   4.357   0.396
10124SOL    HW131271   1.435   4.433   0.350
10124SOL    HW231272   1.445   4.326   0.472
10125SOL     OW31273   1.877   1.088   1.996
10125SOL    HW131274   1.959   1.071   1.942
10125SOL    HW231275   1.812   1.013   1.983
10126SOL     OW31276   6.987   0.095   6.832
10126SOL    HW131277   6.991   0.082   6.931
10126SOL    HW231278   6.936   0.179   6.812
10127SOL     OW31279   2.972   4.577   6.103
10127SOL    HW131280   2.978   4.522   6.019
10127SOL    HW231281   3.058   4.626   6.117
10128SOL     OW31282   2.711   1.160   6.986
10128SOL    HW131283   2.725   1.063   6.966
10128SOL    HW231284   2.670   1.170   0.055
10129SOL     OW31285   6.068   1.596   2.524
10129SOL    HW131286   6.052   1.646   2.610
10129SOL    HW231287   6.029   1.505   2.531
10130SOL     OW31288   1.371   2.644   1.178
10130SOL    HW131289   1.347   2.734   1.140
10130SOL    HW231290   1.467   2.645   1.206
10131SOL     OW31291   1.137   6.754   4.907
10131SOL    HW131292   1.209   6.699   4.950
10131SOL    HW231293   1.081   6.695   4.849
10132SOL     OW31294   3.399   0.666   4.026
10132SOL    HW131295   3.361   0.715   4.104
10132SOL    HW231296   3.490   0.632   4.048
10133SOL     OW31297   3.796   6.583   0.442
10133SOL    HW131298   3.778   6.651   0.513
10133SOL    HW231299   3.709   6.547   0.407
10134SOL     OW31300   6.607   6.771   2.452
10134SOL    HW131301   6.622   6.720   2.537
10134SOL    HW231302   6.640   6.716   2.375
10135SOL     OW31303   4.882   3.464   3.227
10135SOL    HW131304   4.876   3.470   3.326
10135SOL    HW231305   4.908   3.371   3.200
10136SOL     OW31306   5.347   1.299   2.470
10136SOL    HW131307   5.351   1.378   2.408
10136SOL    HW231308   5.352   1.215   2.416
10137SOL     OW31309   6.912   3.243   4.387
10137SOL    HW131310   6.893   3.273   4.293
10137SOL    HW231311   6.928   3.324   4.444
10138SOL     OW31312   5.701   3.550   0.376
10138SOL    HW131313   5.795   3.550   0.340
10138SOL    HW231314   5.651   3.472   0.339
10139SOL     OW31315   2.917   3.446   3.558
10139SOL    HW131316   2.887   3.405   3.644
10139SOL    HW231317   2.892   3.542   3.557
10140SOL     OW31318   6.511   5.769   6.890
10140SOL    HW131319   6.577   5.725   6.952
10140SOL    HW231320   6.483   5.857   6.929
10141SOL     OW31321   4.065   0.921   5.723
10141SOL    HW131322   4.102   0.876   5.804
10141SOL    HW231323   4.068   1.020   5.735
10142SOL     OW31324   6.513   0.138   6.008
10142SOL    HW131325   6.564   0.220   6.033
10142SOL    HW231326   6.433   0.163   5.953
10143SOL     OW31327   5.246   1.177   0.209
10143SOL    HW131328   5.173   1.230   0.252
10143SOL    HW231329   5.326   1.175   0.268
10144SOL     OW31330   3.536   0.956   5.866
10144SOL    HW131331   3.614   1.012   5.895
10144SOL    HW231332   3.459   0.972   5.927
10145SOL     OW31333   2.885   5.147   3.708
10145SOL    HW131334   2.976   5.152   3.666
10145SOL    HW231335   2.823   5.210   3.661
10146SOL     OW31336   4.569   4.517   4.822
10146SOL    HW131337   4.493   4.549   4.879
10146SOL    HW231338   4.589   4.422   4.845
10147SOL     OW31339   5.067   4.093   5.957
10147SOL    HW131340   5.037   4.030   6.029
10147SOL    HW231341   4.989   4.147   5.926
10148SOL     OW31342   5.244   4.718   6.305
10148SOL    HW131343   5.150   4.734   6.336
10148SOL    HW231344   5.263   4.619   6.307
10149SOL     OW31345   5.916   3.693   1.826
10149SOL    HW131346   5.843   3.728   1.884
10149SOL    HW231347   5.981   3.765   1.807
10150SOL     OW31348   3.728   3.304   1.063
10150SOL    HW131349   3.797   3.375   1.077
10150SOL    HW231350   3.643   3.331   1.108
10151SOL     OW31351   0.672   5.545   6.823
10151SOL    HW131352   0.681   5.446   6.837
10151SOL    HW231353   0.747   5.592   6.869
10152SOL     OW31354   6.685   6.312   4.365
10152SOL    HW131355   6.753   6.240   4.377
10152SOL    HW231356   6.593   6.273   4.374
10153SOL     OW31357   4.326   5.796   3.119
10153SOL    HW131358   4.278   5.852   3.052
10153SOL    HW231359   4.318   5.700   3.095
10154SOL     OW31360   3.999   5.928   5.023
10154SOL    HW131361   4.099   5.926   5.015
10154SOL    HW231362   3.958   5.896   4.938
10155SOL     OW31363   3.683   2.155   6.320
10155SOL    HW131364   3.691   2.151   6.419
10155SOL    HW231365   3.589   2.178   6.294
10156SOL     OW31366   5.852   0.899   2.101
10156SOL    HW131367   5.783   0.957   2.144
10156SOL    HW231368   5.935   0.899   2.156
10157SOL     OW31369   0.692   1.973   0.344
10157SOL    HW131370   0.660   1.992   0.250
10157SOL    HW231371   0.661   1.883   0.372
10158SOL     OW31372   6.478   5.766   1.187
10158SOL    HW131373   6.540   5.819   1.244
10158SOL    HW231374   6.425   5.828   1.128
10159SOL     OW31375   2.401   3.216   0.621
10159SOL    HW131376   2.394   3.307   0.582
10159SOL    HW231377   2.310   3.175   0.626
10160SOL     OW31378   1.546   2.836   2.096
10160SOL    HW131379   1.456   2.831   2.054
10160SOL    HW231380   1.573   2.746   2.129
10161SOL     OW31381   4.551   3.593   1.011
10161SOL    HW131382   4.474   3.590   0.948
10161SOL    HW231383   4.516   3.600   1.105
10162SOL     OW31384   3.903   4.850   0.881
10162SOL    HW131385   3.893   4.803   0.793
10162SOL    HW231386   3.824   4.908   0.897
10163SOL     OW31387   6.365   3.966   0.270
10163SOL    HW131388   6.295   3.909   0.313
10163SOL    HW231389   6.327   4.056   0.250
10164SOL     OW31390   6.040   3.493   3.925
10164SOL    HW131391   6.057   3.396   3.944
10164SOL    HW231392   6.063   3.512   3.829
10165SOL     OW31393   6.585   1.128   3.649
10165SOL    HW131394   6.487   1.133   3.670
10165SOL    HW231395   6.598   1.130   3.550
10166SOL     OW31396   3.462   1.810   2.061
10166SOL    HW131397   3.511   1.845   1.981
10166SOL    HW231398   3.523   1.753   2.115
10167SOL     OW31399   1.516   4.538   6.960
10167SOL    HW131400   1.477   4.452   6.926
10167SOL    HW231401   1.445   4.608   6.963
10168SOL     OW31402   6.120   2.786   6.133
10168SOL    HW131403   6.096   2.836   6.049
10168SOL    HW231404   6.084   2.693   6.128
10169SOL     OW31405   0.175   4.018   3.491
10169SOL    HW131406   0.252   4.016   3.554
10169SOL    HW231407   0.163   3.928   3.450
10170SOL     OW31408   6.295   5.536   5.664
10170SOL    HW131409   6.230   5.526   5.740
10170SOL    HW231410   6.388   5.519   5.697
10171SOL     OW31411   0.123   2.264   5.217
10171SOL    HW131412   0.169   2.218   5.141
10171SOL    HW231413   0.177   2.344   5.245
10172SOL     OW31414   0.898   6.025   5.525
10172SOL    HW131415   0.891   5.955   5.597
10172SOL    HW231416   0.908   6.115   5.567
10173SOL     OW31417   2.022   2.533   0.609
10173SOL    HW131418   1.940   2.528   0.552
10173SOL    HW231419   2.094   2.477   0.569
10174SOL     OW31420   4.985   5.031   3.487
10174SOL    HW131421   4.944   4.942   3.509
10174SOL    HW231422   4.960   5.098   3.557
10175SOL     OW31423   5.317   2.202   3.161
10175SOL    HW131424   5.358   2.187   3.070
10175SOL    HW231425   5.222   2.231   3.150
10176SOL     OW31426   0.416   3.335   4.999
10176SOL    HW131427   0.319   3.353   5.015
10176SOL    HW231428   0.461   3.316   5.086
10177SOL     OW31429   2.041   0.857   1.532
10177SOL    HW131430   2.061   0.886   1.626
10177SOL    HW231431   1.951   0.893   1.506
10178SOL     OW31432   6.992   0.909   6.846
10178SOL    HW131433   6.928   0.867   6.910
10178SOL    HW231434   6.980   0.869   6.756
10179SOL     OW31435   0.683   2.737   6.610
10179SOL    HW131436   0.711   2.817   6.663
10179SOL    HW231437   0.594   2.755   6.568
10180SOL     OW31438   4.172   1.020   6.382
10180SOL    HW131439   4.252   0.972   6.418
10180SOL    HW231440   4.089   0.982   6.422
10181SOL     OW31441   6.434   3.323   2.114
10181SOL    HW131442   6.476   3.278   2.193
10181SOL    HW231443   6.387   3.406   2.144
10182SOL     OW31444   4.611   0.788   1.717
10182SOL    HW131445   4.602   0.828   1.625
10182SOL    HW231446   4.559   0.844   1.782
10183SOL     OW31447   6.465   2.746   5.867
10183SOL    HW131448   6.437   2.743   5.771
10183SOL    HW231449   6.507   2.835   5.886
10184SOL     OW31450   4.234   1.541   6.253
10184SOL    HW131451   4.324   1.520   6.293
10184SOL    HW231452   4.229   1.504   6.161
10185SOL     OW31453   6.245   6.001   3.065
10185SOL    HW131454   6.148   6.026   3.065
10185SOL    HW231455   6.275   5.988   2.970
10186SOL     OW31456   4.943   3.875   4.058
10186SOL    HW131457   4.876   3.948   4.046
10186SOL    HW231458   5.010   3.904   4.127
10187SOL     OW31459   1.232   3.690   6.829
10187SOL    HW131460   1.257   3.625   6.902
10187SOL    HW231461   1.308   3.698   6.764
10188SOL     OW31462   4.036   4.597   0.428
10188SOL    HW131463   3.959   4.651   0.393
10188SOL    HW231464   4.122   4.643   0.405
10189SOL     OW31465   0.427   0.761   6.860
10189SOL    HW131466   0.391   0.840   6.909
10189SOL    HW231467   0.507   0.788   6.806
10190SOL     OW31468   4.564   2.935   1.022
10190SOL    HW131469   4.537   2.902   1.113
10190SOL    HW231470   4.645   2.886   0.992
10191SOL     OW31471   4.385   5.777   6.996
10191SOL    HW131472   4.355   5.732   6.912
10191SOL    HW231473   4.319   5.759   0.047
10192SOL     OW31474   4.065   1.496   5.454
10192SOL    HW131475   4.004   1.497   5.533
10192SOL    HW231476   4.160   1.504   5.485
10193SOL     OW31477   3.804   3.011   1.971
10193SOL    HW131478   3.741   2.935   1.984
10193SOL    HW231479   3.773   3.090   2.024
10194SOL     OW31480   4.640   6.524   5.678
10194SOL    HW131481   4.656   6.496   5.583
10194SOL    HW231482   4.722   6.567   5.715
10195SOL     OW31483   6.422   5.941   0.349
10195SOL    HW131484   6.431   5.880   0.428
10195SOL    HW231485   6.509   5.945   0.300
10196SOL     OW31486   3.819   2.040   3.877
10196SOL    HW131487   3.828   1.946   3.845
10196SOL    HW231488   3.878   2.055   3.956
10197SOL     OW31489   5.215   1.783   4.690
10197SOL    HW131490   5.218   1.777   4.790
10197SOL    HW231491   5.278   1.715   4.651
10198SOL     OW31492   3.035   6.733   2.504
10198SOL    HW131493   2.939   6.760   2.496
10198SOL    HW231494   3.071   6.762   2.592
10199SOL     OW31495   1.211   2.831   0.686
10199SOL    HW131496   1.265   2.847   0.603
10199SOL    HW231497   1.271   2.795   0.758
10200SOL     OW31498   4.780   2.933   5.751
10200SOL    HW131499   4.748   2.985   5.830
10200SOL    HW231500   4.880   2.936   5.747
10201SOL     OW31501   1.503   5.183   0.154
10201SOL    HW131502   1.596   5.165   0.187
10201SOL    HW231503   1.500   5.175   0.055
10202SOL     OW31504   3.065   5.053   0.054
10202SOL    HW131505   3.032   4.999   0.131
10202SOL    HW231506   3.005   5.132   0.041
10203SOL     OW31507   0.114   2.654   2.376
10203SOL    HW131508   0.076   2.735   2.419
10203SOL    HW231509   0.214   2.662   2.372
10204SOL     OW31510   4.228   5.412   6.528
10204SOL    HW131511   4.197   5.497   6.484
10204SOL    HW231512   4.214   5.336   6.465
10205SOL     OW31513   2.411   1.189   2.100
10205SOL    HW131514   2.421   1.090   2.111
10205SOL    HW231515   2.391   1.230   2.189
10206SOL     OW31516   6.855   0.335   6.812
10206SOL    HW131517   6.779   0.345   6.876
10206SOL    HW231518   6.923   0.406   6.829
10207SOL     OW31519   0.916   2.145   7.012
10207SOL    HW131520   0.866   2.060   0.008
10207SOL    HW231521   0.859   2.223   0.015
10208SOL     OW31522   6.302   5.177   3.998
10208SOL    HW131523   6.272   5.124   4.077
10208SOL    HW231524   6.359   5.253   4.028
10209SOL     OW31525   0.005   6.603   6.510
10209SOL    HW131526   0.052   6.522   6.473
10209SOL    HW231527   0.056   6.685   6.485
10210SOL     OW31528   4.527   6.343   0.605
10210SOL    HW131529   4.572   6.420   0.649
10210SOL    HW231530   4.553   6.258   0.650
10211SOL     OW31531   4.769   6.169   4.466
10211SOL    HW131532   4.831   6.132   4.397
10211SOL    HW231533   4.806   6.152   4.558
10212SOL     OW31534   0.013   0.085   5.553
10212SOL    HW131535   6.968   0.152   5.520
10212SOL    HW231536   6.986   0.009   5.596
10213SOL     OW31537   5.352   2.979   1.840
10213SOL    HW131538   5.268   2.991   1.787
10213SOL    HW231539   5.329   2.959   1.935
10214SOL     OW31540   0.313   1.314   1.949
10214SOL    HW131541   0.295   1.306   1.851
10214SOL    HW231542   0.241   1.369   1.992
10215SOL     OW31543   3.577   3.450   3.752
10215SOL    HW131544   3.597   3.452   3.850
10215SOL    HW231545   3.500   3.510   3.731
10216SOL     OW31546   0.107   1.304   1.199
10216SOL    HW131547   0.196   1.296   1.244
10216SOL    HW231548   0.082   1.217   1.157
10217SOL     OW31549   2.005   2.241   3.906
10217SOL    HW131550   2.060   2.306   3.855
10217SOL    HW231551   2.036   2.237   4.001
10218SOL     OW31552   0.570   0.923   1.546
10218SOL    HW131553   0.552   0.977   1.629
10218SOL    HW231554   0.606   0.833   1.572
10219SOL     OW31555   0.294   2.272   2.614
10219SOL    HW131556   0.197   2.246   2.616
10219SOL    HW231557   0.301   2.372   2.614
10220SOL     OW31558   4.425   1.254   1.613
10220SOL    HW131559   4.361   1.178   1.619
10220SOL    HW231560   4.404   1.309   1.532
10221SOL     OW31561   1.984   4.157   4.786
10221SOL    HW131562   2.050   4.199   4.849
10221SOL    HW231563   2.025   4.077   4.743
10222SOL     OW31564   3.322   4.260   5.260
10222SOL    HW131565   3.364   4.349   5.272
10222SOL    HW231566   3.222   4.270   5.263
10223SOL     OW31567   2.970   5.310   0.832
10223SOL    HW131568   3.037   5.245   0.869
10223SOL    HW231569   2.925   5.268   0.753
10224SOL     OW31570   6.622   2.326   5.654
10224SOL    HW131571   6.698   2.282   5.703
10224SOL    HW231572   6.595   2.269   5.576
10225SOL     OW31573   1.768   5.947   5.957
10225SOL    HW131574   1.799   6.018   6.020
10225SOL    HW231575   1.836   5.935   5.884
10226SOL     OW31576   1.975   0.137   6.379
10226SOL    HW131577   2.056   0.090   6.413
10226SOL    HW231578   1.920   0.170   6.456
10227SOL     OW31579   5.099   4.486   6.962
10227SOL    HW131580   5.036   4.498   6.885
10227SOL    HW231581   5.048   4.482   0.026
10228SOL     OW31582   1.067   5.767   2.141
10228SOL    HW131583   1.060   5.785   2.042
10228SOL    HW231584   1.033   5.847   2.191
10229SOL     OW31585   2.162   2.492   4.553
10229SOL    HW131586   2.101   2.569   4.537
10229SOL    HW231587   2.229   2.486   4.479
10230SOL     OW31588   6.526   6.378   3.267
10230SOL    HW131589   6.503   6.285   3.235
10230SOL    HW231590   6.527   6.440   3.189
10231SOL     OW31591   6.463   4.548   5.162
10231SOL    HW131592   6.554   4.575   5.130
10231SOL    HW231593   6.471   4.467   5.220
10232SOL     OW31594   3.354   1.470   3.756
10232SOL    HW131595   3.330   1.527   3.835
10232SOL    HW231596   3.449   1.487   3.730
10233SOL     OW31597   3.886   3.909   5.476
10233SOL    HW131598   3.980   3.888   5.503
10233SOL    HW231599   3.874   4.008   5.471
10234SOL     OW31600   5.459   1.173   0.682
10234SOL    HW131601   5.463   1.115   0.601
10234SOL    HW231602   5.505   1.259   0.663
10235SOL     OW31603   3.042   2.016   1.084
10235SOL    HW131604   2.984   1.935   1.094
10235SOL    HW231605   2.997   2.082   1.025
10236SOL     OW31606   1.596   1.138   1.589
10236SOL    HW131607   1.553   1.079   1.521
10236SOL    HW231608   1.580   1.099   1.680
10237SOL     OW31609   0.130   4.305   6.512
10237SOL    HW131610   0.095   4.369   6.443
10237SOL    HW231611   0.078   4.314   6.596
10238SOL     OW31612   3.893   3.973   2.172
10238SOL    HW131613   3.923   3.910   2.243
10238SOL    HW231614   3.825   4.036   2.210
10239SOL     OW31615   2.198   3.488   5.784
10239SOL    HW131616   2.275   3.539   5.746
10239SOL    HW231617   2.113   3.518   5.739
10240SOL     OW31618   2.191   4.032   2.654
10240SOL    HW131619   2.136   3.952   2.679
10240SOL    HW231620   2.162   4.111   2.708
10241SOL     OW31621   6.948   5.882   3.262
10241SOL    HW131622   0.022   5.851   3.267
10241SOL    HW231623   6.923   5.897   3.166
10242SOL     OW31624   0.842   1.385   1.838
10242SOL    HW131625   0.925   1.344   1.799
10242SOL    HW231626   0.779   1.408   1.764
10243SOL     OW31627   2.450   4.870   2.633
10243SOL    HW131628   2.418   4.775   2.626
10243SOL    HW231629   2.389   4.921   2.693
10244SOL     OW31630   1.912   4.703   0.985
10244SOL    HW131631   1.981   4.772   1.009
10244SOL    HW231632   1.891   4.648   1.066
10245SOL     OW31633   3.747   4.525   0.807
10245SOL    HW131634   3.729   4.581   0.887
10245SOL    HW231635   3.736   4.428   0.830
10246SOL     OW31636   2.897   3.376   3.827
10246SOL    HW131637   2.909   3.329   3.915
10246SOL    HW231638   2.961   3.452   3.821
10247SOL     OW31639   0.298   4.115   6.382
10247SOL    HW131640   0.231   4.167   6.436
10247SOL    HW231641   0.291   4.018   6.406
10248SOL     OW31642   1.771   6.737   2.753
10248SOL    HW131643   1.845   6.756   2.688
10248SOL    HW231644   1.805   6.748   2.846
10249SOL     OW31645   2.490   6.443   6.718
10249SOL    HW131646   2.583   6.443   6.682
10249SOL    HW231647   2.425   6.434   6.643
10250SOL     OW31648   6.504   2.848   2.071
10250SOL    HW131649   6.519   2.749   2.076
10250SOL    HW231650   6.496   2.876   1.975
10251SOL     OW31651   2.376   1.441   4.526
10251SOL    HW131652   2.459   1.427   4.472
10251SOL    HW231653   2.321   1.358   4.526
10252SOL     OW31654   3.942   5.240   6.093
10252SOL    HW131655   3.852   5.283   6.085
10252SOL    HW231656   3.954   5.174   6.020
10253SOL     OW31657   2.998   7.000   0.231
10253SOL    HW131658   2.990   7.008   0.132
10253SOL    HW231659   2.922   6.946   0.267
10254SOL     OW31660   4.641   0.892   5.466
10254SOL    HW131661   4.565   0.829   5.447
10254SOL    HW231662   4.678   0.925   5.379
10255SOL     OW31663   2.282   6.239   0.578
10255SOL    HW131664   2.343   6.251   0.500
10255SOL    HW231665   2.187   6.237   0.546
10256SOL     OW31666   5.029   1.672   1.663
10256SOL    HW131667   5.031   1.580   1.703
10256SOL    HW231668   5.071   1.670   1.572
10257SOL     OW31669   1.991   5.058   4.665
10257SOL    HW131670   2.025   5.131   4.725
10257SOL    HW231671   1.993   5.088   4.570
10258SOL     OW31672   3.156   1.032   3.975
10258SOL    HW131673   3.202   1.105   3.924
10258SOL    HW231674   3.074   1.003   3.925
10259SOL     OW31675   0.624   5.180   3.516
10259SOL    HW131676   0.552   5.128   3.564
10259SOL    HW231677   0.713   5.153   3.552
10260SOL     OW31678   1.436   0.761   3.844
10260SOL    HW131679   1.487   0.805   3.769
10260SOL    HW231680   1.498   0.703   3.897
10261SOL     OW31681   6.949   4.755   2.729
10261SOL    HW131682   7.017   4.683   2.742
10261SOL    HW231683   6.897   4.738   2.645
10262SOL     OW31684   2.390   6.732   5.458
10262SOL    HW131685   2.315   6.712   5.396
10262SOL    HW231686   2.476   6.734   5.407
10263SOL     OW31687   5.383   0.266   6.877
10263SOL    HW131688   5.390   0.272   6.977
10263SOL    HW231689   5.337   0.181   6.852
10264SOL     OW31690   5.794   0.024   6.665
10264SOL    HW131691   5.814   0.074   6.749
10264SOL    HW231692   5.880   7.009   6.628
10265SOL     OW31693   2.378   2.930   1.413
10265SOL    HW131694   2.348   2.894   1.502
10265SOL    HW231695   2.329   3.015   1.394
10266SOL     OW31696   4.128   3.574   4.037
10266SOL    HW131697   4.177   3.487   4.026
10266SOL    HW231698   4.064   3.567   4.113
10267SOL     OW31699   5.771   2.788   6.415
10267SOL    HW131700   5.830   2.714   6.447
10267SOL    HW231701   5.734   2.837   6.494
10268SOL     OW31702   5.887   5.776   2.235
10268SOL    HW131703   5.843   5.732   2.313
10268SOL    HW231704   5.847   5.866   2.221
10269SOL     OW31705   0.367   3.490   0.038
10269SOL    HW131706   0.332   3.520   0.127
10269SOL    HW231707   0.303   3.518   6.988
10270SOL     OW31708   3.979   4.840   2.820
10270SOL    HW131709   4.026   4.760   2.784
10270SOL    HW231710   4.009   4.858   2.913
10271SOL     OW31711   3.390   2.878   5.956
10271SOL    HW131712   3.399   2.965   6.005
10271SOL    HW231713   3.473   2.859   5.905
10272SOL     OW31714   1.468   1.181   4.944
10272SOL    HW131715   1.379   1.201   4.986
10272SOL    HW231716   1.529   1.259   4.956
10273SOL     OW31717   2.898   5.760   2.451
10273SOL    HW131718   2.803   5.743   2.424
10273SOL    HW231719   2.959   5.720   2.382
10274SOL     OW31720   0.797   5.516   4.979
10274SOL    HW131721   0.873   5.467   4.935
10274SOL    HW231722   0.720   5.453   4.989
10275SOL     OW31723   0.109   6.312   1.535
10275SOL    HW131724   0.179   6.371   1.494
10275SOL    HW231725   0.030   6.367   1.562
10276SOL     OW31726   5.071   5.006   5.455
10276SOL    HW131727   5.063   5.001   5.555
10276SOL    HW231728   5.165   4.987   5.427
10277SOL     OW31729   1.393   5.488   3.646
10277SOL    HW131730   1.380   5.417   3.715
10277SOL    HW231731   1.481   5.475   3.600
10278SOL     OW31732   0.244   1.682   4.622
10278SOL    HW131733   0.171   1.645   4.678
10278SOL    HW231734   0.211   1.696   4.529
10279SOL     OW31735   2.381   5.085   4.356
10279SOL    HW131736   2.320   5.082   4.276
10279SOL    HW231737   2.454   5.018   4.344
10280SOL     OW31738   0.259   3.373   0.727
10280SOL    HW131739   0.298   3.304   0.788
10280SOL    HW231740   0.247   3.459   0.778
10281SOL     OW31741   5.918   1.508   2.231
10281SOL    HW131742   5.870   1.590   2.198
10281SOL    HW231743   6.016   1.517   2.211
10282SOL     OW31744   4.957   3.181   4.219
10282SOL    HW131745   4.975   3.099   4.164
10282SOL    HW231746   4.919   3.252   4.160
10283SOL     OW31747   1.406   3.462   0.639
10283SOL    HW131748   1.414   3.378   0.694
10283SOL    HW231749   1.313   3.469   0.603
10284SOL     OW31750   5.303   3.003   5.131
10284SOL    HW131751   5.295   3.012   5.230
10284SOL    HW231752   5.324   3.093   5.091
10285SOL     OW31753   5.797   7.006   2.248
10285SOL    HW131754   5.839   7.012   2.158
10285SOL    HW231755   5.864   0.009   2.318
10286SOL     OW31756   3.050   1.805   3.151
10286SOL    HW131757   3.020   1.812   3.056
10286SOL    HW231758   3.150   1.813   3.154
10287SOL     OW31759   1.794   6.959   1.264
10287SOL    HW131760   1.823   6.871   1.302
10287SOL    HW231761   1.776   0.002   1.339
10288SOL     OW31762   4.738   6.230   3.161
10288SOL    HW131763   4.652   6.183   3.178
10288SOL    HW231764   4.731   6.324   3.194
10289SOL     OW31765   2.000   6.611   0.101
10289SOL    HW131766   1.960   6.521   0.083
10289SOL    HW231767   1.960   6.678   0.039
10290SOL     OW31768   3.090   3.990   2.634
10290SOL    HW131769   3.064   4.041   2.551
10290SOL    HW231770   3.129   3.902   2.608
10291SOL     OW31771   4.441   1.163   3.042
10291SOL    HW131772   4.352   1.157   3.088
10291SOL    HW231773   4.430   1.142   2.945
10292SOL     OW31774   1.531   0.928   5.211
10292SOL    HW131775   1.595   1.003   5.192
10292SOL    HW231776   1.460   0.961   5.273
10293SOL     OW31777   2.099   4.635   2.598
10293SOL    HW131778   2.057   4.562   2.653
10293SOL    HW231779   2.070   4.724   2.633
10294SOL     OW31780   5.941   3.235   3.004
10294SOL    HW131781   5.967   3.244   2.908
10294SOL    HW231782   6.012   3.274   3.062
10295SOL     OW31783   6.526   4.201   5.785
10295SOL    HW131784   6.440   4.163   5.753
10295SOL    HW231785   6.542   4.175   5.880
10296SOL     OW31786   5.043   1.370   0.288
10296SOL    HW131787   5.014   1.375   0.384
10296SOL    HW231788   5.032   1.460   0.245
10297SOL     OW31789   1.853   6.897   6.588
10297SOL    HW131790   1.948   6.920   6.566
10297SOL    HW231791   1.793   6.924   6.512
10298SOL     OW31792   2.692   4.619   1.667
10298SOL    HW131793   2.772   4.596   1.723
10298SOL    HW231794   2.707   4.586   1.574
10299SOL     OW31795   5.042   4.978   3.017
10299SOL    HW131796   4.943   4.965   3.022
10299SOL    HW231797   5.062   5.059   2.961
10300SOL     OW31798   1.201   3.666   3.626
10300SOL    HW131799   1.212   3.583   3.571
10300SOL    HW231800   1.167   3.740   3.568
10301SOL     OW31801   5.133   2.674   4.764
10301SOL    HW131802   5.101   2.734   4.691
10301SOL    HW231803   5.100   2.708   4.853
10302SOL     OW31804   2.005   6.813   4.005
10302SOL    HW131805   2.083   6.815   4.068
10302SOL    HW231806   1.941   6.741   4.034
10303SOL     OW31807   1.913   6.381   2.875
10303SOL    HW131808   1.818   6.408   2.884
10303SOL    HW231809   1.963   6.407   2.957
10304SOL     OW31810   5.522   0.398   1.807
10304SOL    HW131811   5.468   0.429   1.885
10304SOL    HW231812   5.462   0.391   1.727
10305SOL     OW31813   1.084   4.457   0.006
10305SOL    HW131814   1.150   4.394   6.986
10305SOL    HW231815   1.062   4.530   6.963
10306SOL     OW31816   4.494   6.648   5.956
10306SOL    HW131817   4.538   6.560   5.976
10306SOL    HW231818   4.395   6.635   5.948
10307SOL     OW31819   2.508   1.969   5.696
10307SOL    HW131820   2.547   1.960   5.605
10307SOL    HW231821   2.503   2.065   5.721
10308SOL     OW31822   2.437   4.376   3.550
10308SOL    HW131823   2.403   4.290   3.512
10308SOL    HW231824   2.525   4.399   3.507
10309SOL     OW31825   6.922   1.766   5.387
10309SOL    HW131826   6.973   1.834   5.334
10309SOL    HW231827   6.987   1.703   5.432
10310SOL     OW31828   3.329   3.623   1.071
10310SOL    HW131829   3.315   3.664   1.161
10310SOL    HW231830   3.245   3.577   1.042
10311SOL     OW31831   6.950   6.094   0.097
10311SOL    HW131832   6.891   6.065   0.022
10311SOL    HW231833   6.906   6.167   0.148
10312SOL     OW31834   3.858   6.540   2.312
10312SOL    HW131835   3.800   6.460   2.296
10312SOL    HW231836   3.825   6.616   2.257
10313SOL     OW31837   5.022   6.468   1.347
10313SOL    HW131838   5.112   6.432   1.323
10313SOL    HW231839   4.961   6.459   1.268
10314SOL     OW31840   6.662   0.694   1.798
10314SOL    HW131841   6.584   0.706   1.735
10314SOL    HW231842   6.741   0.745   1.763
10315SOL     OW31843   5.019   6.067   4.954
10315SOL    HW131844   5.035   6.143   5.017
10315SOL    HW231845   5.066   5.985   4.988
10316SOL     OW31846   6.440   1.752   4.268
10316SOL    HW131847   6.353   1.743   4.219
10316SOL    HW231848   6.427   1.810   4.348
10317SOL     OW31849   4.126   5.638   4.847
10317SOL    HW131850   4.072   5.580   4.785
10317SOL    HW231851   4.088   5.632   4.939
10318SOL     OW31852   4.812   5.739   6.057
10318SOL    HW131853   4.735   5.725   5.994
10318SOL    HW231854   4.800   5.825   6.106
10319SOL     OW31855   1.387   2.759   5.264
10319SOL    HW131856   1.330   2.745   5.183
10319SOL    HW231857   1.482   2.772   5.237
10320SOL     OW31858   0.622   0.485   3.212
10320SOL    HW131859   0.674   0.549   3.156
10320SOL    HW231860   0.603   0.526   3.301
10321SOL     OW31861   3.866   1.340   2.299
10321SOL    HW131862   3.826   1.333   2.208
10321SOL    HW231863   3.808   1.398   2.356
10322SOL     OW31864   6.379   5.760   5.848
10322SOL    HW131865   6.379   5.830   5.776
10322SOL    HW231866   6.407   5.672   5.810
10323SOL     OW31867   5.965   2.973   5.607
10323SOL    HW131868   5.990   2.895   5.551
10323SOL    HW231869   5.955   3.054   5.549
10324SOL     OW31870   3.371   3.327   2.546
10324SOL    HW131871   3.364   3.235   2.584
10324SOL    HW231872   3.466   3.345   2.520
10325SOL     OW31873   0.370   4.055   2.414
10325SOL    HW131874   0.409   4.104   2.492
10325SOL    HW231875   0.432   3.981   2.387
10326SOL     OW31876   4.329   3.622   0.190
10326SOL    HW131877   4.298   3.699   0.135
10326SOL    HW231878   4.424   3.636   0.218
10327SOL     OW31879   2.541   1.935   1.616
10327SOL    HW131880   2.628   1.899   1.651
10327SOL    HW231881   2.466   1.888   1.662
10328SOL     OW31882   5.994   2.832   1.048
10328SOL    HW131883   5.986   2.732   1.050
10328SOL    HW231884   5.930   2.872   1.114
10329SOL     OW31885   3.428   6.935   3.999
10329SOL    HW131886   3.497   6.972   3.937
10329SOL    HW231887   3.337   6.953   3.963
10330SOL     OW31888   4.321   0.286   2.184
10330SOL    HW131889   4.389   0.275   2.110
10330SOL    HW231890   4.358   0.348   2.253
10331SOL     OW31891   0.136   1.495   5.017
10331SOL    HW131892   0.100   1.402   5.012
10331SOL    HW231893   0.103   1.539   5.100
10332SOL     OW31894   6.362   1.036   0.680
10332SOL    HW131895   6.388   1.001   0.590
10332SOL    HW231896   6.433   1.098   0.714
10333SOL     OW31897   6.232   4.076   4.826
10333SOL    HW131898   6.181   4.050   4.744
10333SOL    HW231899   6.168   4.085   4.903
10334SOL     OW31900   4.114   6.067   3.397
10334SOL    HW131901   4.027   6.103   3.364
10334SOL    HW231902   4.158   6.135   3.456
10335SOL     OW31903   2.821   4.471   6.688
10335SOL    HW131904   2.897   4.408   6.704
10335SOL    HW231905   2.736   4.420   6.682
10336SOL     OW31906   6.644   6.700   2.711
10336SOL    HW131907   6.725   6.707   2.769
10336SOL    HW231908   6.574   6.764   2.743
10337SOL     OW31909   0.137   0.091   5.786
10337SOL    HW131910   0.048   0.090   5.832
10337SOL    HW231911   0.123   0.106   5.688
10338SOL     OW31912   2.367   6.480   2.176
10338SOL    HW131913   2.308   6.549   2.219
10338SOL    HW231914   2.388   6.408   2.242
10339SOL     OW31915   3.647   5.597   0.585
10339SOL    HW131916   3.726   5.542   0.557
10339SOL    HW231917   3.565   5.539   0.589
10340SOL     OW31918   2.005   5.611   1.182
10340SOL    HW131919   1.990   5.573   1.274
10340SOL    HW231920   1.991   5.710   1.185
10341SOL     OW31921   2.045   3.655   1.422
10341SOL    HW131922   1.990   3.733   1.452
10341SOL    HW231923   2.140   3.668   1.450
10342SOL     OW31924   0.764   0.024   5.503
10342SOL    HW131925   0.743   6.950   5.483
10342SOL    HW231926   0.710   0.054   5.583
10343SOL     OW31927   3.669   5.714   0.306
10343SOL    HW131928   3.655   5.785   0.375
10343SOL    HW231929   3.589   5.655   0.301
10344SOL     OW31930   4.329   4.438   1.767
10344SOL    HW131931   4.387   4.365   1.802
10344SOL    HW231932   4.272   4.403   1.693
10345SOL     OW31933   1.533   1.331   0.042
10345SOL    HW131934   1.474   1.377   0.109
10345SOL    HW231935   1.483   1.319   6.978
10346SOL     OW31936   6.349   6.841   1.068
10346SOL    HW131937   6.392   6.868   0.982
10346SOL    HW231938   6.289   6.914   1.100
10347SOL     OW31939   4.841   2.094   2.194
10347SOL    HW131940   4.822   2.185   2.233
10347SOL    HW231941   4.940   2.077   2.197
10348SOL     OW31942   6.497   1.513   0.190
10348SOL    HW131943   6.561   1.590   0.195
10348SOL    HW231944   6.547   1.427   0.184
10349SOL     OW31945   6.990   1.409   1.680
10349SOL    HW131946   6.981   1.416   1.581
10349SOL    HW231947   6.919   1.465   1.724
10350SOL     OW31948   1.910   6.479   5.219
10350SOL    HW131949   1.918   6.440   5.126
10350SOL    HW231950   1.977   6.435   5.278
10351SOL     OW31951   4.467   5.099   6.207
10351SOL    HW131952   4.490   5.195   6.228
10351SOL    HW231953   4.520   5.070   6.127
10352SOL     OW31954   4.803   2.362   6.478
10352SOL    HW131955   4.778   2.277   6.524
10352SOL    HW231956   4.823   2.432   6.546
10353SOL     OW31957   0.042   2.809   5.782
10353SOL    HW131958   0.082   2.717   5.781
10353SOL    HW231959   6.966   2.802   5.805
10354SOL     OW31960   5.655   2.512   2.070
10354SOL    HW131961   5.658   2.573   2.150
10354SOL    HW231962   5.585   2.545   2.006
10355SOL     OW31963   2.186   0.295   2.242
10355SOL    HW131964   2.092   0.307   2.211
10355SOL    HW231965   2.187   0.242   2.326
10356SOL     OW31966   0.395   4.142   5.830
10356SOL    HW131967   0.307   4.108   5.798
10356SOL    HW231968   0.422   4.093   5.913
10357SOL     OW31969   3.099   2.958   6.566
10357SOL    HW131970   3.006   2.937   6.597
10357SOL    HW231971   3.095   3.005   6.478
10358SOL     OW31972   6.331   3.144   3.638
10358SOL    HW131973   6.248   3.193   3.610
10358SOL    HW231974   6.311   3.090   3.720
10359SOL     OW31975   0.218   1.685   1.564
10359SOL    HW131976   0.225   1.673   1.663
10359SOL    HW231977   0.130   1.727   1.542
10360SOL     OW31978   4.433   5.512   1.866
10360SOL    HW131979   4.347   5.541   1.907
10360SOL    HW231980   4.504   5.579   1.887
10361SOL     OW31981   2.676   0.696   2.835
10361SOL    HW131982   2.608   0.625   2.850
10361SOL    HW231983   2.679   0.718   2.737
10362SOL     OW31984   0.698   5.266   3.857
10362SOL    HW131985   0.664   5.325   3.784
10362SOL    HW231986   0.655   5.294   3.944
10363SOL     OW31987   4.533   2.619   0.963
10363SOL    HW131988   4.627   2.643   0.938
10363SOL    HW231989   4.515   2.523   0.939
10364SOL     OW31990   3.812   3.653   2.416
10364SOL    HW131991   3.714   3.656   2.432
10364SOL    HW231992   3.837   3.565   2.375
10365SOL     OW31993   5.179   4.498   5.236
10365SOL    HW131994   5.102   4.538   5.187
10365SOL    HW231995   5.257   4.560   5.232
10366SOL     OW31996   4.348   0.074   4.371
10366SOL    HW131997   4.365   0.008   4.298
10366SOL    HW231998   4.428   0.133   4.382
10367SOL     OW31999   6.776   1.524   1.783
10367SOL    HW132000   6.758   1.523   1.684
10367SOL    HW232001   6.763   1.617   1.818
10368SOL     OW32002   2.164   0.834   2.389
10368SOL    HW132003   2.175   0.929   2.420
10368SOL    HW232004   2.066   0.814   2.379
10369SOL     OW32005   3.921   1.334   5.283
10369SOL    HW132006   3.886   1.250   5.324
10369SOL    HW232007   3.984   1.379   5.346
10370SOL     OW32008   5.654   1.528   5.350
10370SOL    HW132009   5.669   1.429   5.346
10370SOL    HW232010   5.609   1.552   5.436
10371SOL     OW32011   2.041   5.759   4.345
10371SOL    HW132012   2.058   5.696   4.269
10371SOL    HW232013   1.990   5.838   4.313
10372SOL     OW32014   1.591   1.018   0.832
10372SOL    HW132015   1.592   1.097   0.771
10372SOL    HW232016   1.569   0.936   0.780
10373SOL     OW32017   1.645   6.479   4.954
10373SOL    HW132018   1.603   6.409   5.011
10373SOL    HW232019   1.719   6.437   4.900
10374SOL     OW32020   3.552   1.063   3.393
10374SOL    HW132021   3.456   1.047   3.416
10374SOL    HW232022   3.611   1.018   3.461
10375SOL     OW32023   2.824   1.613   6.572
10375SOL    HW132024   2.864   1.620   6.663
10375SOL    HW232025   2.893   1.634   6.503
10376SOL     OW32026   1.113   5.865   3.878
10376SOL    HW132027   1.031   5.824   3.840
10376SOL    HW232028   1.192   5.806   3.859
10377SOL     OW32029   6.848   1.126   3.723
10377SOL    HW132030   6.869   1.029   3.736
10377SOL    HW232031   6.752   1.136   3.700
10378SOL     OW32032   6.194   0.303   5.542
10378SOL    HW132033   6.187   0.214   5.496
10378SOL    HW232034   6.245   0.366   5.484
10379SOL     OW32035   2.855   6.797   4.099
10379SOL    HW132036   2.863   6.701   4.072
10379SOL    HW232037   2.945   6.841   4.094
10380SOL     OW32038   0.738   2.218   4.603
10380SOL    HW132039   0.812   2.272   4.561
10380SOL    HW232040   0.660   2.277   4.620
10381SOL     OW32041   4.169   4.359   0.645
10381SOL    HW132042   4.215   4.278   0.682
10381SOL    HW232043   4.210   4.384   0.558
10382SOL     OW32044   2.091   5.185   0.968
10382SOL    HW132045   2.024   5.235   1.023
10382SOL    HW232046   2.182   5.224   0.982
10383SOL     OW32047   0.268   3.942   0.894
10383SOL    HW132048   0.325   3.890   0.829
10383SOL    HW232049   0.257   3.889   0.978
10384SOL     OW32050   0.147   0.358   0.958
10384SOL    HW132051   0.176   0.403   1.043
10384SOL    HW232052   0.209   0.282   0.938
10385SOL     OW32053   3.513   6.923   5.725
10385SOL    HW132054   3.430   6.968   5.693
10385SOL    HW232055   3.503   6.824   5.715
10386SOL     OW32056   6.257   1.739   5.270
10386SOL    HW132057   6.353   1.767   5.268
10386SOL    HW232058   6.244   1.671   5.343
10387SOL     OW32059   4.529   1.553   2.515
10387SOL    HW132060   4.590   1.616   2.468
10387SOL    HW232061   4.582   1.484   2.564
10388SOL     OW32062   2.090   5.949   2.274
10388SOL    HW132063   2.160   5.960   2.345
10388SOL    HW232064   2.009   5.907   2.313
10389SOL     OW32065   0.061   6.546   1.024
10389SOL    HW132066   0.065   6.534   1.123
10389SOL    HW232067   0.136   6.497   0.981
10390SOL     OW32068   2.152   2.284   1.594
10390SOL    HW132069   2.195   2.197   1.614
10390SOL    HW232070   2.206   2.358   1.635
10391SOL     OW32071   0.491   5.573   4.026
10391SOL    HW132072   0.468   5.644   3.960
10391SOL    HW232073   0.410   5.518   4.045
10392SOL     OW32074   6.914   4.180   6.702
10392SOL    HW132075   6.880   4.141   6.788
10392SOL    HW232076   6.844   4.239   6.663
10393SOL     OW32077   2.220   2.464   2.186
10393SOL    HW132078   2.254   2.408   2.111
10393SOL    HW232079   2.290   2.530   2.213
10394SOL     OW32080   2.518   6.420   4.572
10394SOL    HW132081   2.520   6.337   4.629
10394SOL    HW232082   2.598   6.420   4.512
10395SOL     OW32083   0.191   0.813   3.172
10395SOL    HW132084   0.207   0.874   3.250
10395SOL    HW232085   0.278   0.779   3.137
10396SOL     OW32086   2.532   0.337   4.022
10396SOL    HW132087   2.595   0.314   3.948
10396SOL    HW232088   2.520   0.258   4.081
10397SOL     OW32089   2.697   1.982   3.941
10397SOL    HW132090   2.762   2.024   3.878
10397SOL    HW232091   2.663   2.051   4.005
10398SOL     OW32092   5.628   2.348   0.362
10398SOL    HW132093   5.605   2.283   0.289
10398SOL    HW232094   5.544   2.378   0.407
10399SOL     OW32095   4.171   1.832   4.561
10399SOL    HW132096   4.204   1.925   4.578
10399SOL    HW232097   4.074   1.835   4.536
10400SOL     OW32098   4.088   5.756   0.802
10400SOL    HW132099   4.086   5.812   0.885
10400SOL    HW232100   3.995   5.731   0.777
10401SOL     OW32101   0.225   0.593   2.374
10401SOL    HW132102   0.159   0.584   2.448
10401SOL    HW232103   0.230   0.689   2.346
10402SOL     OW32104   0.134   2.540   5.776
10402SOL    HW132105   0.172   2.449   5.759
10402SOL    HW232106   0.053   2.532   5.834
10403SOL     OW32107   4.734   0.851   2.932
10403SOL    HW132108   4.697   0.903   3.009
10403SOL    HW232109   4.831   0.832   2.948
10404SOL     OW32110   0.016   6.938   4.291
10404SOL    HW132111   0.076   7.001   4.341
10404SOL    HW232112   0.025   6.955   4.193
10405SOL     OW32113   1.076   5.741   5.067
10405SOL    HW132114   1.061   5.763   5.163
10405SOL    HW232115   1.105   5.646   5.058
10406SOL     OW32116   2.265   3.198   5.276
10406SOL    HW132117   2.340   3.135   5.254
10406SOL    HW232118   2.295   3.292   5.264
10407SOL     OW32119   2.204   0.368   6.509
10407SOL    HW132120   2.114   0.407   6.492
10407SOL    HW232121   2.237   0.324   6.425
10408SOL     OW32122   3.856   6.648   2.053
10408SOL    HW132123   3.940   6.605   2.087
10408SOL    HW232124   3.816   6.591   1.981
10409SOL     OW32125   0.526   3.790   0.807
10409SOL    HW132126   0.546   3.692   0.806
10409SOL    HW232127   0.537   3.827   0.715
10410SOL     OW32128   5.417   2.163   1.293
10410SOL    HW132129   5.459   2.109   1.220
10410SOL    HW232130   5.359   2.103   1.349
10411SOL     OW32131   4.061   5.792   4.289
10411SOL    HW132132   4.096   5.824   4.201
10411SOL    HW232133   4.138   5.771   4.350
10412SOL     OW32134   6.728   1.087   0.461
10412SOL    HW132135   6.801   1.142   0.501
10412SOL    HW232136   6.768   1.012   0.408
10413SOL     OW32137   0.086   2.032   1.622
10413SOL    HW132138   0.045   1.941   1.616
10413SOL    HW232139   0.018   2.102   1.601
10414SOL     OW32140   3.933   6.028   6.121
10414SOL    HW132141   4.025   6.063   6.104
10414SOL    HW232142   3.924   5.936   6.083
10415SOL     OW32143   2.047   4.083   3.427
10415SOL    HW132144   2.018   4.171   3.466
10415SOL    HW232145   2.131   4.096   3.375
10416SOL     OW32146   6.375   0.252   5.039
10416SOL    HW132147   6.471   0.275   5.026
10416SOL    HW232148   6.330   0.324   5.092
10417SOL     OW32149   4.823   4.841   4.165
10417SOL    HW132150   4.817   4.908   4.091
10417SOL    HW232151   4.740   4.844   4.220
10418SOL     OW32152   5.915   4.017   6.008
10418SOL    HW132153   5.957   3.998   6.096
10418SOL    HW232154   5.881   4.111   6.006
10419SOL     OW32155   3.087   0.152   5.267
10419SOL    HW132156   3.092   0.159   5.167
10419SOL    HW232157   3.132   0.232   5.308
10420SOL     OW32158   6.852   3.593   4.012
10420SOL    HW132159   6.756   3.571   4.030
10420SOL    HW232160   6.891   3.525   3.951
10421SOL     OW32161   1.413   3.465   4.896
10421SOL    HW132162   1.391   3.434   4.803
10421SOL    HW232163   1.367   3.552   4.914
10422SOL     OW32164   6.819   3.616   5.298
10422SOL    HW132165   6.732   3.636   5.344
10422SOL    HW232166   6.845   3.694   5.241
10423SOL     OW32167   4.681   4.777   5.124
10423SOL    HW132168   4.715   4.756   5.032
10423SOL    HW232169   4.685   4.876   5.139
10424SOL     OW32170   4.117   2.712   0.489
10424SOL    HW132171   4.035   2.695   0.545
10424SOL    HW232172   4.096   2.780   0.419
10425SOL     OW32173   0.848   5.758   2.540
10425SOL    HW132174   0.925   5.722   2.592
10425SOL    HW232175   0.762   5.730   2.583
10426SOL     OW32176   5.371   3.922   5.592
10426SOL    HW132177   5.314   3.917   5.510
10426SOL    HW232178   5.397   3.830   5.621
10427SOL     OW32179   4.972   6.868   6.967
10427SOL    HW132180   5.036   6.819   0.005
10427SOL    HW232181   5.014   6.881   6.877
10428SOL     OW32182   2.616   1.775   4.091
10428SOL    HW132183   2.693   1.755   4.152
10428SOL    HW232184   2.639   1.854   4.034
10429SOL     OW32185   0.893   3.885   2.843
10429SOL    HW132186   0.804   3.931   2.841
10429SOL    HW232187   0.908   3.847   2.935
10430SOL     OW32188   3.697   6.595   4.521
10430SOL    HW132189   3.760   6.522   4.548
10430SOL    HW232190   3.643   6.623   4.600
10431SOL     OW32191   2.961   0.457   4.311
10431SOL    HW132192   3.047   0.468   4.263
10431SOL    HW232193   2.891   0.424   4.247
10432SOL     OW32194   0.100   1.988   5.519
10432SOL    HW132195   0.023   2.006   5.458
10432SOL    HW232196   0.111   2.065   5.582
10433SOL     OW32197   6.849   6.514   2.587
10433SOL    HW132198   6.839   6.432   2.644
10433SOL    HW232199   6.853   6.595   2.646
10434SOL     OW32200   3.952   6.177   4.678
10434SOL    HW132201   3.986   6.111   4.611
10434SOL    HW232202   3.894   6.129   4.744
10435SOL     OW32203   2.144   1.904   6.489
10435SOL    HW132204   2.105   1.917   6.580
10435SOL    HW232205   2.073   1.875   6.425
10436SOL     OW32206   6.205   4.024   4.318
10436SOL    HW132207   6.124   4.014   4.260
10436SOL    HW232208   6.285   3.988   4.271
10437SOL     OW32209   6.394   4.844   5.009
10437SOL    HW132210   6.397   4.944   5.002
10437SOL    HW232211   6.300   4.815   5.024
10438SOL     OW32212   0.496   5.815   6.175
10438SOL    HW132213   0.495   5.806   6.275
10438SOL    HW232214   0.537   5.733   6.135
10439SOL     OW32215   5.374   0.751   4.529
10439SOL    HW132216   5.402   0.819   4.461
10439SOL    HW232217   5.412   0.662   4.503
10440SOL     OW32218   0.199   6.836   6.902
10440SOL    HW132219   0.111   6.791   6.884
10440SOL    HW232220   0.244   6.855   6.815
10441SOL     OW32221   2.794   1.644   1.273
10441SOL    HW132222   2.786   1.558   1.223
10441SOL    HW232223   2.794   1.625   1.371
10442SOL     OW32224   3.812   6.700   5.212
10442SOL    HW132225   3.895   6.715   5.266
10442SOL    HW232226   3.788   6.785   5.164
10443SOL     OW32227   5.969   2.476   3.108
10443SOL    HW132228   6.006   2.511   3.022
10443SOL    HW232229   6.033   2.411   3.148
10444SOL     OW32230   4.182   5.520   1.986
10444SOL    HW132231   4.171   5.542   2.083
10444SOL    HW232232   4.101   5.551   1.936
10445SOL     OW32233   0.729   3.545   2.824
10445SOL    HW132234   0.749   3.594   2.909
10445SOL    HW232235   0.814   3.522   2.778
10446SOL     OW32236   1.766   3.749   6.428
10446SOL    HW132237   1.690   3.767   6.366
10446SOL    HW232238   1.806   3.835   6.458
10447SOL     OW32239   0.067   0.799   2.681
10447SOL    HW132240   0.167   0.808   2.676
10447SOL    HW232241   0.036   0.827   2.772
10448SOL     OW32242   3.596   0.647   2.479
10448SOL    HW132243   3.585   0.745   2.497
10448SOL    HW232244   3.647   0.605   2.554
10449SOL     OW32245   2.678   5.609   6.683
10449SOL    HW132246   2.743   5.677   6.716
10449SOL    HW232247   2.585   5.647   6.685
10450SOL     OW32248   0.000   1.802   6.650
10450SOL    HW132249   7.007   1.901   6.658
10450SOL    HW232250   6.939   1.754   6.680
10451SOL     OW32251   3.074   6.474   3.139
10451SOL    HW132252   3.155   6.507   3.187
10451SOL    HW232253   3.102   6.424   3.056
10452SOL     OW32254   6.609   2.884   3.225
10452SOL    HW132255   6.552   2.839   3.294
10452SOL    HW232256   6.553   2.905   3.145
10453SOL     OW32257   4.913   6.432   1.588
10453SOL    HW132258   4.813   6.427   1.587
10453SOL    HW232259   4.947   6.449   1.496
10454SOL     OW32260   5.102   1.736   0.378
10454SOL    HW132261   5.130   1.671   0.449
10454SOL    HW232262   5.052   1.812   0.421
10455SOL     OW32263   6.787   6.156   3.827
10455SOL    HW132264   6.771   6.225   3.757
10455SOL    HW232265   6.823   6.200   3.909
10456SOL     OW32266   0.858   5.212   0.614
10456SOL    HW132267   0.886   5.258   0.698
10456SOL    HW232268   0.933   5.218   0.547
10457SOL     OW32269   4.506   3.152   0.539
10457SOL    HW132270   4.506   3.202   0.453
10457SOL    HW232271   4.512   3.054   0.520
10458SOL     OW32272   6.355   0.377   6.746
10458SOL    HW132273   6.305   0.295   6.721
10458SOL    HW232274   6.361   0.383   6.846
10459SOL     OW32275   4.222   5.371   1.394
10459SOL    HW132276   4.190   5.399   1.304
10459SOL    HW232277   4.244   5.452   1.449
10460SOL     OW32278   1.521   3.941   1.823
10460SOL    HW132279   1.510   4.040   1.816
10460SOL    HW232280   1.610   3.914   1.789
10461SOL     OW32281   6.044   4.628   5.196
10461SOL    HW132282   6.125   4.574   5.175
10461SOL    HW232283   6.011   4.604   5.288
10462SOL     OW32284   5.911   2.275   3.297
10462SOL    HW132285   5.901   2.368   3.261
10462SOL    HW232286   5.821   2.231   3.302
10463SOL     OW32287   4.050   2.112   6.039
10463SOL    HW132288   3.996   2.047   6.092
10463SOL    HW232289   4.007   2.126   5.949
10464SOL     OW32290   5.776   6.420   2.270
10464SOL    HW132291   5.704   6.450   2.332
10464SOL    HW232292   5.858   6.395   2.322
10465SOL     OW32293   5.205   5.613   1.126
10465SOL    HW132294   5.206   5.694   1.185
10465SOL    HW232295   5.165   5.636   1.037
10466SOL     OW32296   4.794   4.891   5.415
10466SOL    HW132297   4.853   4.841   5.352
10466SOL    HW232298   4.849   4.934   5.486
10467SOL     OW32299   1.768   2.008   0.712
10467SOL    HW132300   1.842   2.018   0.778
10467SOL    HW232301   1.799   1.952   0.635
10468SOL     OW32302   3.658   4.958   3.397
10468SOL    HW132303   3.729   4.935   3.331
10468SOL    HW232304   3.699   4.976   3.486
10469SOL     OW32305   4.333   4.595   5.910
10469SOL    HW132306   4.402   4.538   5.954
10469SOL    HW232307   4.375   4.679   5.876
10470SOL     OW32308   2.035   1.945   3.440
10470SOL    HW132309   1.954   1.906   3.397
10470SOL    HW232310   2.098   1.872   3.466
10471SOL     OW32311   2.342   0.288   0.457
10471SOL    HW132312   2.363   0.358   0.389
10471SOL    HW232313   2.244   0.269   0.457
10472SOL     OW32314   3.391   6.036   0.379
10472SOL    HW132315   3.434   5.972   0.443
10472SOL    HW232316   3.297   6.008   0.363
10473SOL     OW32317   6.451   6.805   6.544
10473SOL    HW132318   6.527   6.743   6.562
10473SOL    HW232319   6.477   6.898   6.569
10474SOL     OW32320   4.105   0.877   4.364
10474SOL    HW132321   4.118   0.948   4.295
10474SOL    HW232322   4.009   0.873   4.391
10475SOL     OW32323   3.574   6.701   1.776
10475SOL    HW132324   3.660   6.721   1.730
10475SOL    HW232325   3.517   6.783   1.779
10476SOL     OW32326   5.569   6.507   6.091
10476SOL    HW132327   5.555   6.526   6.188
10476SOL    HW232328   5.575   6.593   6.040
10477SOL     OW32329   6.795   1.243   4.831
10477SOL    HW132330   6.879   1.265   4.782
10477SOL    HW232331   6.768   1.149   4.810
10478SOL     OW32332   6.653   6.783   0.152
10478SOL    HW132333   6.713   6.716   0.194
10478SOL    HW232334   6.697   6.873   0.153
10479SOL     OW32335   6.889   1.698   2.403
10479SOL    HW132336   6.852   1.757   2.331
10479SOL    HW232337   6.860   1.604   2.386
10480SOL     OW32338   0.814   0.948   2.333
10480SOL    HW132339   0.874   1.021   2.367
10480SOL    HW232340   0.750   0.987   2.267
10481SOL     OW32341   1.984   6.253   3.658
10481SOL    HW132342   1.998   6.294   3.749
10481SOL    HW232343   1.892   6.215   3.652
10482SOL     OW32344   6.295   5.193   4.375
10482SOL    HW132345   6.312   5.119   4.439
10482SOL    HW232346   6.372   5.201   4.312
10483SOL     OW32347   5.958   5.396   0.915
10483SOL    HW132348   5.869   5.352   0.929
10483SOL    HW232349   6.031   5.328   0.926
10484SOL     OW32350   5.809   1.753   1.868
10484SOL    HW132351   5.749   1.776   1.944
10484SOL    HW232352   5.897   1.722   1.904
10485SOL     OW32353   3.536   4.066   0.427
10485SOL    HW132354   3.600   4.115   0.485
10485SOL    HW232355   3.511   3.979   0.471
10486SOL     OW32356   0.209   0.430   0.623
10486SOL    HW132357   0.171   0.371   0.551
10486SOL    HW232358   0.137   0.453   0.689
10487SOL     OW32359   4.828   0.441   1.722
10487SOL    HW132360   4.928   0.443   1.717
10487SOL    HW232361   4.789   0.473   1.636
10488SOL     OW32362   3.500   1.436   6.008
10488SOL    HW132363   3.443   1.379   5.949
10488SOL    HW232364   3.570   1.482   5.954
10489SOL     OW32365   0.698   6.784   5.505
10489SOL    HW132366   0.649   6.748   5.585
10489SOL    HW232367   0.756   6.713   5.467
10490SOL     OW32368   6.063   1.764   0.732
10490SOL    HW132369   5.971   1.739   0.700
10490SOL    HW232370   6.062   1.780   0.830
10491SOL     OW32371   1.981   2.776   0.480
10491SOL    HW132372   1.886   2.778   0.450
10491SOL    HW232373   1.996   2.695   0.538
10492SOL     OW32374   5.844   4.258   5.925
10492SOL    HW132375   5.919   4.242   5.861
10492SOL    HW232376   5.814   4.354   5.918
10493SOL     OW32377   3.424   0.770   2.126
10493SOL    HW132378   3.457   0.676   2.121
10493SOL    HW232379   3.502   0.833   2.125
10494SOL     OW32380   5.271   4.120   5.775
10494SOL    HW132381   5.194   4.097   5.833
10494SOL    HW232382   5.289   4.044   5.712
10495SOL     OW32383   2.165   6.664   6.872
10495SOL    HW132384   2.230   6.694   6.802
10495SOL    HW232385   2.213   6.616   6.945
10496SOL     OW32386   0.375   4.135   6.702
10496SOL    HW132387   0.401   4.053   6.651
10496SOL    HW232388   0.309   4.188   6.649
10497SOL     OW32389   2.055   6.942   2.006
10497SOL    HW132390   2.099   0.006   1.980
10497SOL    HW232391   2.014   6.899   1.925
10498SOL     OW32392   3.446   5.831   1.405
10498SOL    HW132393   3.416   5.926   1.411
10498SOL    HW232394   3.387   5.781   1.342
10499SOL     OW32395   3.584   6.436   2.424
10499SOL    HW132396   3.540   6.346   2.419
10499SOL    HW232397   3.561   6.480   2.510
10500SOL     OW32398   6.967   1.970   6.260
10500SOL    HW132399   6.962   1.870   6.272
10500SOL    HW232400   6.934   2.015   6.343
10501SOL     OW32401   1.946   6.038   2.861
10501SOL    HW132402   1.850   6.032   2.834
10501SOL    HW232403   1.997   6.092   2.794
10502SOL     OW32404   2.491   0.338   1.156
10502SOL    HW132405   2.550   0.326   1.236
10502SOL    HW232406   2.431   0.258   1.147
10503SOL     OW32407   4.568   2.925   0.369
10503SOL    HW132408   4.481   2.906   0.415
10503SOL    HW232409   4.613   2.838   0.347
10504SOL     OW32410   1.410   1.762   6.267
10504SOL    HW132411   1.389   1.745   6.363
10504SOL    HW232412   1.500   1.805   6.260
10505SOL     OW32413   5.529   5.595   0.349
10505SOL    HW132414   5.519   5.551   0.260
10505SOL    HW232415   5.593   5.672   0.342
10506SOL     OW32416   0.101   4.962   0.377
10506SOL    HW132417   0.180   5.022   0.389
10506SOL    HW232418   0.033   5.007   0.320
10507SOL     OW32419   2.039   0.487   0.023
10507SOL    HW132420   2.052   0.454   0.116
10507SOL    HW232421   1.943   0.474   7.018
10508SOL     OW32422   6.293   6.911   4.820
10508SOL    HW132423   6.268   6.852   4.896
10508SOL    HW232424   6.389   6.899   4.797
10509SOL     OW32425   0.680   5.798   4.194
10509SOL    HW132426   0.740   5.742   4.250
10509SOL    HW232427   0.640   5.742   4.121
10510SOL     OW32428   4.365   5.945   5.910
10510SOL    HW132429   4.328   5.874   5.850
10510SOL    HW232430   4.462   5.960   5.888
10511SOL     OW32431   3.989   1.219   1.982
10511SOL    HW132432   4.010   1.293   1.919
10511SOL    HW232433   4.001   1.250   2.077
10512SOL     OW32434   4.311   0.122   5.622
10512SOL    HW132435   4.241   0.051   5.627
10512SOL    HW232436   4.270   0.207   5.588
10513SOL     OW32437   6.309   2.862   4.320
10513SOL    HW132438   6.382   2.879   4.387
10513SOL    HW232439   6.350   2.838   4.232
10514SOL     OW32440   6.809   3.957   0.492
10514SOL    HW132441   6.784   3.992   0.401
10514SOL    HW232442   6.862   3.873   0.481
10515SOL     OW32443   0.925   3.184   2.865
10515SOL    HW132444   0.986   3.177   2.943
10515SOL    HW232445   0.834   3.151   2.890
10516SOL     OW32446   3.968   1.079   0.542
10516SOL    HW132447   3.892   1.023   0.575
10516SOL    HW232448   3.979   1.065   0.443
10517SOL     OW32449   0.943   2.425   2.249
10517SOL    HW132450   0.896   2.383   2.172
10517SOL    HW232451   1.041   2.407   2.243
10518SOL     OW32452   0.891   5.207   6.576
10518SOL    HW132453   0.902   5.108   6.584
10518SOL    HW232454   0.924   5.237   6.487
10519SOL     OW32455   2.386   3.109   6.692
10519SOL    HW132456   2.450   3.178   6.726
10519SOL    HW232457   2.303   3.154   6.658
10520SOL     OW32458   0.974   2.714   6.608
10520SOL    HW132459   0.875   2.721   6.597
10520SOL    HW232460   1.019   2.756   6.529
10521SOL     OW32461   6.151   6.529   2.171
10521SOL    HW132462   6.250   6.516   2.161
10521SOL    HW232463   6.103   6.469   2.107
10522SOL     OW32464   0.086   0.327   5.919
10522SOL    HW132465   0.094   0.257   5.847
10522SOL    HW232466   0.092   0.284   6.009
10523SOL     OW32467   0.039   5.053   3.823
10523SOL    HW132468   6.967   5.049   3.788
10523SOL    HW232469   0.091   4.975   3.788
10524SOL     OW32470   1.495   0.574   4.486
10524SOL    HW132471   1.471   0.499   4.548
10524SOL    HW232472   1.416   0.595   4.427
10525SOL     OW32473   3.652   6.218   6.535
10525SOL    HW132474   3.707   6.192   6.456
10525SOL    HW232475   3.710   6.217   6.617
10526SOL     OW32476   1.213   6.773   3.760
10526SOL    HW132477   1.142   6.703   3.753
10526SOL    HW232478   1.175   6.861   3.732
10527SOL     OW32479   6.876   1.703   5.014
10527SOL    HW132480   6.818   1.784   5.012
10527SOL    HW232481   6.960   1.722   5.065
10528SOL     OW32482   1.880   3.418   6.199
10528SOL    HW132483   1.893   3.438   6.102
10528SOL    HW232484   1.969   3.409   6.243
10529SOL     OW32485   2.338   5.750   4.076
10529SOL    HW132486   2.273   5.826   4.085
10529SOL    HW232487   2.325   5.706   3.988
10530SOL     OW32488   2.441   0.095   6.488
10530SOL    HW132489   2.387   0.138   6.416
10530SOL    HW232490   2.465   0.002   6.460
10531SOL     OW32491   1.460   3.057   3.945
10531SOL    HW132492   1.535   3.031   4.006
10531SOL    HW232493   1.469   3.154   3.922
10532SOL     OW32494   1.134   5.280   5.545
10532SOL    HW132495   1.218   5.226   5.546
10532SOL    HW232496   1.114   5.309   5.452
10533SOL     OW32497   2.541   1.254   4.997
10533SOL    HW132498   2.471   1.240   5.067
10533SOL    HW232499   2.570   1.350   4.998
10534SOL     OW32500   6.260   5.896   1.346
10534SOL    HW132501   6.263   5.833   1.423
10534SOL    HW232502   6.286   5.987   1.377
10535SOL     OW32503   0.670   2.039   1.114
10535SOL    HW132504   0.655   1.948   1.075
10535SOL    HW232505   0.664   2.035   1.213
10536SOL     OW32506   3.787   0.482   3.059
10536SOL    HW132507   3.754   0.558   3.004
10536SOL    HW232508   3.836   0.416   3.001
10537SOL     OW32509   4.222   5.352   4.007
10537SOL    HW132510   4.134   5.316   3.977
10537SOL    HW232511   4.207   5.430   4.068
10538SOL     OW32512   4.927   1.995   0.447
10538SOL    HW132513   4.922   2.053   0.528
10538SOL    HW232514   4.835   1.975   0.414
10539SOL     OW32515   0.577   3.869   0.541
10539SOL    HW132516   0.626   3.782   0.537
10539SOL    HW232517   0.483   3.856   0.507
10540SOL     OW32518   1.780   2.725   5.004
10540SOL    HW132519   1.685   2.697   4.988
10540SOL    HW232520   1.780   2.808   5.060
10541SOL     OW32521   3.697   4.111   2.274
10541SOL    HW132522   3.677   4.098   2.371
10541SOL    HW232523   3.612   4.136   2.226
10542SOL     OW32524   6.721   0.449   5.334
10542SOL    HW132525   6.774   0.534   5.331
10542SOL    HW232526   6.783   0.371   5.341
10543SOL     OW32527   0.648   1.169   5.188
10543SOL    HW132528   0.606   1.083   5.216
10543SOL    HW232529   0.591   1.213   5.118
10544SOL     OW32530   1.955   6.615   2.074
10544SOL    HW132531   1.860   6.590   2.055
10544SOL    HW232532   1.958   6.706   2.115
10545SOL     OW32533   6.062   1.209   2.280
10545SOL    HW132534   6.075   1.298   2.237
10545SOL    HW232535   5.969   1.176   2.261
10546SOL     OW32536   1.862   0.927   0.055
10546SOL    HW132537   1.784   0.924   7.014
10546SOL    HW232538   1.932   0.862   0.025
10547SOL     OW32539   5.927   2.925   2.353
10547SOL    HW132540   5.894   2.939   2.259
10547SOL    HW232541   5.856   2.954   2.418
10548SOL     OW32542   5.603   4.678   4.562
10548SOL    HW132543   5.661   4.714   4.489
10548SOL    HW232544   5.542   4.749   4.595
10549SOL     OW32545   6.783   6.696   1.742
10549SOL    HW132546   6.850   6.754   1.788
10549SOL    HW232547   6.734   6.750   1.673
10550SOL     OW32548   4.359   5.671   3.567
10550SOL    HW132549   4.294   5.726   3.514
10550SOL    HW232550   4.447   5.719   3.572
10551SOL     OW32551   1.466   2.722   6.139
10551SOL    HW132552   1.433   2.801   6.086
10551SOL    HW232553   1.528   2.668   6.082
10552SOL     OW32554   3.166   1.497   6.706
10552SOL    HW132555   3.191   1.446   6.624
10552SOL    HW232556   3.222   1.579   6.712
10553SOL     OW32557   0.792   4.816   1.607
10553SOL    HW132558   0.740   4.854   1.531
10553SOL    HW232559   0.784   4.716   1.606
10554SOL     OW32560   5.716   4.988   0.078
10554SOL    HW132561   5.685   4.896   0.101
10554SOL    HW232562   5.767   4.986   7.014
10555SOL     OW32563   1.810   3.567   0.433
10555SOL    HW132564   1.809   3.489   0.371
10555SOL    HW232565   1.720   3.612   0.430
10556SOL     OW32566   2.341   2.074   5.405
10556SOL    HW132567   2.291   2.132   5.469
10556SOL    HW232568   2.284   1.995   5.380
10557SOL     OW32569   2.266   2.818   2.828
10557SOL    HW132570   2.261   2.721   2.803
10557SOL    HW232571   2.181   2.863   2.802
10558SOL     OW32572   3.684   1.359   3.899
10558SOL    HW132573   3.638   1.414   3.968
10558SOL    HW232574   3.710   1.417   3.822
10559SOL     OW32575   5.246   0.446   0.836
10559SOL    HW132576   5.324   0.489   0.791
10559SOL    HW232577   5.164   0.500   0.820
10560SOL     OW32578   3.600   6.085   3.211
10560SOL    HW132579   3.529   6.090   3.141
10560SOL    HW232580   3.568   6.130   3.295
10561SOL     OW32581   3.151   4.244   0.385
10561SOL    HW132582   3.234   4.298   0.374
10561SOL    HW232583   3.142   4.180   0.309
10562SOL     OW32584   4.714   5.444   0.113
10562SOL    HW132585   4.673   5.530   0.145
10562SOL    HW232586   4.805   5.434   0.153
10563SOL     OW32587   0.857   1.363   3.453
10563SOL    HW132588   0.855   1.273   3.496
10563SOL    HW232589   0.950   1.384   3.424
10564SOL     OW32590   5.551   6.509   1.403
10564SOL    HW132591   5.628   6.445   1.408
10564SOL    HW232592   5.528   6.525   1.307
10565SOL     OW32593   0.041   0.560   6.298
10565SOL    HW132594   0.096   0.482   6.265
10565SOL    HW232595   0.033   0.555   6.397
10566SOL     OW32596   3.933   2.579   0.113
10566SOL    HW132597   3.896   2.597   0.022
10566SOL    HW232598   4.025   2.619   0.120
10567SOL     OW32599   3.161   2.165   4.301
10567SOL    HW132600   3.230   2.200   4.238
10567SOL    HW232601   3.070   2.174   4.259
10568SOL     OW32602   6.205   2.467   1.528
10568SOL    HW132603   6.232   2.371   1.527
10568SOL    HW232604   6.281   2.524   1.497
10569SOL     OW32605   5.854   2.031   1.978
10569SOL    HW132606   5.766   2.071   2.006
10569SOL    HW232607   5.837   1.954   1.916
10570SOL     OW32608   1.603   5.167   3.231
10570SOL    HW132609   1.611   5.132   3.324
10570SOL    HW232610   1.517   5.218   3.221
10571SOL     OW32611   0.027   4.872   5.713
10571SOL    HW132612   6.995   4.955   5.728
10571SOL    HW232613   0.100   4.891   5.648
10572SOL     OW32614   6.954   3.717   3.682
10572SOL    HW132615   6.929   3.747   3.774
10572SOL    HW232616   6.956   3.796   3.621
10573SOL     OW32617   4.135   6.948   5.060
10573SOL    HW132618   4.210   7.014   5.069
10573SOL    HW232619   4.173   6.855   5.061
10574SOL     OW32620   1.073   1.020   3.580
10574SOL    HW132621   1.099   1.061   3.667
10574SOL    HW232622   1.000   0.954   3.595
10575SOL     OW32623   6.222   1.361   3.007
10575SOL    HW132624   6.233   1.456   2.977
10575SOL    HW232625   6.127   1.333   2.996
10576SOL     OW32626   6.969   6.252   5.272
10576SOL    HW132627   6.937   6.182   5.208
10576SOL    HW232628   6.909   6.254   5.352
10577SOL     OW32629   1.895   3.081   0.476
10577SOL    HW132630   1.889   3.080   0.576
10577SOL    HW232631   1.958   3.010   0.445
10578SOL     OW32632   5.640   0.869   3.124
10578SOL    HW132633   5.691   0.951   3.148
10578SOL    HW232634   5.663   0.842   3.030
10579SOL     OW32635   4.114   2.086   1.256
10579SOL    HW132636   4.079   2.096   1.349
10579SOL    HW232637   4.041   2.101   1.190
10580SOL     OW32638   6.646   0.467   6.933
10580SOL    HW132639   6.688   0.553   6.963
10580SOL    HW232640   6.586   0.486   6.855
10581SOL     OW32641   6.936   6.818   3.474
10581SOL    HW132642   6.972   6.727   3.497
10581SOL    HW232643   6.935   6.875   3.557
10582SOL     OW32644   5.548   4.829   6.552
10582SOL    HW132645   5.496   4.746   6.535
10582SOL    HW232646   5.509   4.878   6.630
10583SOL     OW32647   4.025   1.375   5.036
10583SOL    HW132648   3.999   1.305   4.970
10583SOL    HW232649   3.979   1.357   5.123
10584SOL     OW32650   6.764   6.582   1.064
10584SOL    HW132651   6.787   6.502   1.009
10584SOL    HW232652   6.812   6.578   1.152
10585SOL     OW32653   2.260   2.693   6.456
10585SOL    HW132654   2.230   2.777   6.412
10585SOL    HW232655   2.360   2.694   6.467
10586SOL     OW32656   6.793   4.994   4.979
10586SOL    HW132657   6.754   5.071   4.928
10586SOL    HW232658   6.810   4.919   4.916
10587SOL     OW32659   6.159   3.828   0.367
10587SOL    HW132660   6.135   3.763   0.295
10587SOL    HW232661   6.078   3.851   0.419
10588SOL     OW32662   0.625   2.914   3.781
10588SOL    HW132663   0.713   2.913   3.734
10588SOL    HW232664   0.612   3.002   3.827
10589SOL     OW32665   6.031   1.280   4.418
10589SOL    HW132666   6.016   1.273   4.320
10589SOL    HW232667   6.122   1.318   4.435
10590SOL     OW32668   1.115   0.250   1.833
10590SOL    HW132669   1.210   0.272   1.856
10590SOL    HW232670   1.101   0.151   1.839
10591SOL     OW32671   1.073   2.146   6.000
10591SOL    HW132672   1.152   2.194   6.037
10591SOL    HW232673   1.089   2.125   5.903
10592SOL     OW32674   5.715   3.925   1.647
10592SOL    HW132675   5.718   3.912   1.746
10592SOL    HW232676   5.774   4.002   1.622
10593SOL     OW32677   2.658   5.354   0.429
10593SOL    HW132678   2.683   5.285   0.360
10593SOL    HW232679   2.596   5.421   0.388
10594SOL     OW32680   4.827   0.058   2.387
10594SOL    HW132681   4.801   0.054   2.483
10594SOL    HW232682   4.769   0.124   2.339
10595SOL     OW32683   3.581   6.641   5.724
10595SOL    HW132684   3.660   6.623   5.782
10595SOL    HW232685   3.527   6.557   5.714
10596SOL     OW32686   4.294   0.006   6.739
10596SOL    HW132687   4.222   0.005   6.669
10596SOL    HW232688   4.313   0.101   6.766
10597SOL     OW32689   3.421   1.159   5.256
10597SOL    HW132690   3.331   1.204   5.253
10597SOL    HW232691   3.466   1.169   5.167
10598SOL     OW32692   3.141   2.506   0.747
10598SOL    HW132693   3.185   2.583   0.702
10598SOL    HW232694   3.184   2.490   0.836
10599SOL     OW32695   5.188   2.670   5.988
10599SOL    HW132696   5.275   2.630   6.016
10599SOL    HW232697   5.125   2.596   5.962
10600SOL     OW32698   2.044   2.173   0.481
10600SOL    HW132699   2.020   2.216   0.394
10600SOL    HW232700   2.094   2.238   0.538
10601SOL     OW32701   1.632   4.497   5.968
10601SOL    HW132702   1.726   4.505   5.934
10601SOL    HW232703   1.630   4.510   6.067
10602SOL     OW32704   3.642   1.576   2.870
10602SOL    HW132705   3.705   1.517   2.921
10602SOL    HW232706   3.551   1.535   2.870
10603SOL     OW32707   3.097   5.638   3.432
10603SOL    HW132708   3.059   5.550   3.460
10603SOL    HW232709   3.107   5.641   3.333
10604SOL     OW32710   5.932   4.745   5.591
10604SOL    HW132711   6.024   4.785   5.585
10604SOL    HW232712   5.931   4.658   5.541
10605SOL     OW32713   2.016   6.120   0.569
10605SOL    HW132714   2.023   6.043   0.633
10605SOL    HW232715   1.942   6.103   0.505
10606SOL     OW32716   6.922   0.847   2.469
10606SOL    HW132717   6.978   0.833   2.388
10606SOL    HW232718   6.973   0.815   2.550
10607SOL     OW32719   4.275   5.038   5.956
10607SOL    HW132720   4.267   5.028   6.055
10607SOL    HW232721   4.271   5.135   5.931
10608SOL     OW32722   5.189   2.132   5.742
10608SOL    HW132723   5.194   2.191   5.661
10608SOL    HW232724   5.151   2.043   5.717
10609SOL     OW32725   3.334   6.544   0.879
10609SOL    HW132726   3.259   6.608   0.862
10609SOL    HW232727   3.300   6.465   0.929
10610SOL     OW32728   1.527   2.822   5.751
10610SOL    HW132729   1.509   2.920   5.749
10610SOL    HW232730   1.526   2.785   5.658
10611SOL     OW32731   4.258   3.625   5.720
10611SOL    HW132732   4.173   3.589   5.681
10611SOL    HW232733   4.297   3.557   5.782
10612SOL     OW32734   2.799   0.926   5.409
10612SOL    HW132735   2.895   0.954   5.414
10612SOL    HW232736   2.787   0.858   5.337
10613SOL     OW32737   6.232   6.985   5.142
10613SOL    HW132738   6.332   6.988   5.140
10613SOL    HW232739   6.196   0.047   5.101
10614SOL     OW32740   6.571   2.072   4.147
10614SOL    HW132741   6.604   2.125   4.068
10614SOL    HW232742   6.472   2.065   4.143
10615SOL     OW32743   3.168   6.559   6.257
10615SOL    HW132744   3.129   6.605   6.337
10615SOL    HW232745   3.097   6.504   6.213
10616SOL     OW32746   2.757   6.163   0.851
10616SOL    HW132747   2.770   6.133   0.946
10616SOL    HW232748   2.660   6.181   0.836
10617SOL     OW32749   2.599   2.317   1.021
10617SOL    HW132750   2.676   2.374   0.994
10617SOL    HW232751   2.562   2.350   1.108
10618SOL     OW32752   0.010   3.526   6.437
10618SOL    HW132753   0.068   3.477   6.501
10618SOL    HW232754   0.063   3.598   6.392
10619SOL     OW32755   0.365   4.197   2.116
10619SOL    HW132756   0.449   4.152   2.088
10619SOL    HW232757   0.310   4.136   2.173
10620SOL     OW32758   1.468   5.441   5.433
10620SOL    HW132759   1.421   5.399   5.355
10620SOL    HW232760   1.545   5.384   5.460
10621SOL     OW32761   1.254   6.509   1.951
10621SOL    HW132762   1.310   6.479   1.874
10621SOL    HW232763   1.172   6.453   1.957
10622SOL     OW32764   5.158   1.286   1.326
10622SOL    HW132765   5.132   1.305   1.231
10622SOL    HW232766   5.228   1.215   1.328
10623SOL     OW32767   6.789   4.623   5.134
10623SOL    HW132768   6.853   4.688   5.176
10623SOL    HW232769   6.830   4.532   5.137
10624SOL     OW32770   0.516   2.375   4.638
10624SOL    HW132771   0.454   2.376   4.716
10624SOL    HW232772   0.549   2.468   4.620
10625SOL     OW32773   0.656   4.397   6.934
10625SOL    HW132774   0.605   4.327   6.984
10625SOL    HW232775   0.642   4.384   6.836
10626SOL     OW32776   2.543   3.298   0.822
10626SOL    HW132777   2.494   3.274   0.738
10626SOL    HW232778   2.528   3.228   0.891
10627SOL     OW32779   5.546   6.918   0.470
10627SOL    HW132780   5.523   6.831   0.427
10627SOL    HW232781   5.645   6.925   0.481
10628SOL     OW32782   4.648   5.695   0.207
10628SOL    HW132783   4.552   5.719   0.191
10628SOL    HW232784   4.702   5.779   0.219
10629SOL     OW32785   2.663   4.906   5.220
10629SOL    HW132786   2.623   4.833   5.165
10629SOL    HW232787   2.655   4.884   5.317
10630SOL     OW32788   6.730   1.410   3.627
10630SOL    HW132789   6.651   1.378   3.574
10630SOL    HW232790   6.701   1.429   3.721
10631SOL     OW32791   2.782   5.217   4.685
10631SOL    HW132792   2.862   5.217   4.625
10631SOL    HW232793   2.811   5.238   4.779
10632SOL     OW32794   6.268   2.045   4.116
10632SOL    HW132795   6.229   2.003   4.199
10632SOL    HW232796   6.233   1.998   4.035
10633SOL     OW32797   2.808   3.686   1.789
10633SOL    HW132798   2.839   3.712   1.881
10633SOL    HW232799   2.728   3.742   1.764
10634SOL     OW32800   3.104   5.843   0.885
10634SOL    HW132801   3.020   5.889   0.856
10634SOL    HW232802   3.093   5.744   0.876
10635SOL     OW32803   3.701   1.327   1.192
10635SOL    HW132804   3.630   1.308   1.124
10635SOL    HW232805   3.755   1.406   1.161
10636SOL     OW32806   1.048   1.251   1.730
10636SOL    HW132807   1.115   1.281   1.662
10636SOL    HW232808   1.089   1.183   1.790
10637SOL     OW32809   2.365   4.546   5.710
10637SOL    HW132810   2.457   4.515   5.688
10637SOL    HW232811   2.308   4.468   5.733
10638SOL     OW32812   0.007   5.371   2.737
10638SOL    HW132813   6.944   5.359   2.788
10638SOL    HW232814   0.056   5.284   2.732
10639SOL     OW32815   1.393   3.621   2.629
10639SOL    HW132816   1.371   3.717   2.642
10639SOL    HW232817   1.343   3.586   2.549
10640SOL     OW32818   3.538   0.281   5.812
10640SOL    HW132819   3.521   0.206   5.876
10640SOL    HW232820   3.566   0.244   5.724
10641SOL     OW32821   4.024   2.115   0.443
10641SOL    HW132822   3.999   2.207   0.474
10641SOL    HW232823   3.987   2.099   0.352
10642SOL     OW32824   0.083   3.031   1.871
10642SOL    HW132825   0.032   3.073   1.796
10642SOL    HW232826   0.118   3.103   1.931
10643SOL     OW32827   2.194   5.187   5.371
10643SOL    HW132828   2.266   5.156   5.432
10643SOL    HW232829   2.138   5.256   5.418
10644SOL     OW32830   5.018   2.589   3.308
10644SOL    HW132831   5.055   2.680   3.323
10644SOL    HW232832   4.978   2.584   3.216
10645SOL     OW32833   1.107   1.459   4.994
10645SOL    HW132834   1.094   1.537   4.933
10645SOL    HW232835   1.066   1.479   5.083
10646SOL     OW32836   6.988   1.030   6.457
10646SOL    HW132837   6.994   0.937   6.420
10646SOL    HW232838   0.058   1.070   6.462
10647SOL     OW32839   3.227   5.348   6.416
10647SOL    HW132840   3.234   5.292   6.499
10647SOL    HW232841   3.239   5.290   6.335
10648SOL     OW32842   5.302   4.171   6.150
10648SOL    HW132843   5.309   4.266   6.180
10648SOL    HW232844   5.222   4.160   6.091
10649SOL     OW32845   0.603   4.136   3.630
10649SOL    HW132846   0.682   4.091   3.671
10649SOL    HW232847   0.625   4.166   3.537
10650SOL     OW32848   1.009   5.896   3.582
10650SOL    HW132849   0.928   5.912   3.526
10650SOL    HW232850   1.040   5.983   3.621
10651SOL     OW32851   4.338   6.904   6.052
10651SOL    HW132852   4.406   6.867   6.117
10651SOL    HW232853   4.332   7.003   6.064
10652SOL     OW32854   3.610   6.702   6.193
10652SOL    HW132855   3.538   6.632   6.193
10652SOL    HW232856   3.602   6.758   6.110
10653SOL     OW32857   5.246   3.655   3.931
10653SOL    HW132858   5.223   3.745   3.894
10653SOL    HW232859   5.345   3.641   3.926
10654SOL     OW32860   4.570   1.510   0.437
10654SOL    HW132861   4.629   1.585   0.409
10654SOL    HW232862   4.618   1.453   0.504
10655SOL     OW32863   2.790   5.741   0.980
10655SOL    HW132864   2.818   5.799   1.056
10655SOL    HW232865   2.691   5.723   0.987
10656SOL     OW32866   6.875   2.469   1.640
10656SOL    HW132867   6.777   2.469   1.620
10656SOL    HW232868   6.927   2.480   1.555
10657SOL     OW32869   6.304   0.312   6.179
10657SOL    HW132870   6.334   0.407   6.192
10657SOL    HW232871   6.268   0.301   6.087
10658SOL     OW32872   6.220   4.247   5.243
10658SOL    HW132873   6.169   4.294   5.171
10658SOL    HW232874   6.315   4.235   5.213
10659SOL     OW32875   6.854   6.240   0.577
10659SOL    HW132876   6.755   6.249   0.580
10659SOL    HW232877   6.878   6.144   0.560
10660SOL     OW32878   5.542   3.797   0.080
10660SOL    HW132879   5.534   3.834   0.173
10660SOL    HW232880   5.452   3.763   0.050
10661SOL     OW32881   6.784   6.431   2.886
10661SOL    HW132882   6.863   6.468   2.934
10661SOL    HW232883   6.700   6.462   2.931
10662SOL     OW32884   5.458   0.824   2.588
10662SOL    HW132885   5.373   0.787   2.551
10662SOL    HW232886   5.515   0.749   2.622
10663SOL     OW32887   0.394   0.189   1.745
10663SOL    HW132888   0.328   0.253   1.784
10663SOL    HW232889   0.427   0.225   1.658
10664SOL     OW32890   0.977   5.174   4.534
10664SOL    HW132891   1.002   5.086   4.494
10664SOL    HW232892   0.997   5.247   4.468
10665SOL     OW32893   0.428   0.946   0.692
10665SOL    HW132894   0.362   0.992   0.633
10665SOL    HW232895   0.435   0.850   0.664
10666SOL     OW32896   3.150   4.125   0.155
10666SOL    HW132897   3.084   4.113   0.081
10666SOL    HW232898   3.216   4.049   0.154
10667SOL     OW32899   4.165   3.337   5.366
10667SOL    HW132900   4.189   3.415   5.308
10667SOL    HW232901   4.116   3.269   5.311
10668SOL     OW32902   1.736   1.693   5.367
10668SOL    HW132903   1.653   1.702   5.312
10668SOL    HW232904   1.714   1.648   5.454
10669SOL     OW32905   5.960   6.680   0.992
10669SOL    HW132906   5.895   6.635   1.054
10669SOL    HW232907   5.955   6.779   1.005
10670SOL     OW32908   4.793   4.003   4.734
10670SOL    HW132909   4.804   4.094   4.694
10670SOL    HW232910   4.794   3.934   4.661
10671SOL     OW32911   2.397   1.864   2.691
10671SOL    HW132912   2.380   1.962   2.690
10671SOL    HW232913   2.389   1.828   2.598
10672SOL     OW32914   6.615   2.263   0.714
10672SOL    HW132915   6.705   2.219   0.715
10672SOL    HW232916   6.618   2.345   0.657
10673SOL     OW32917   1.055   1.304   0.123
10673SOL    HW132918   1.059   1.362   0.042
10673SOL    HW232919   1.143   1.305   0.169
10674SOL     OW32920   3.090   4.759   1.110
10674SOL    HW132921   3.065   4.665   1.086
10674SOL    HW232922   3.029   4.823   1.062
10675SOL     OW32923   2.076   6.986   5.736
10675SOL    HW132924   2.014   6.978   5.814
10675SOL    HW232925   2.029   0.010   5.661
10676SOL     OW32926   6.334   6.587   6.099
10676SOL    HW132927   6.278   6.601   6.017
10676SOL    HW232928   6.427   6.619   6.081
10677SOL     OW32929   0.972   0.513   2.071
10677SOL    HW132930   0.950   0.488   1.976
10677SOL    HW232931   0.959   0.611   2.083
10678SOL     OW32932   3.583   5.632   2.011
10678SOL    HW132933   3.582   5.538   1.978
10678SOL    HW232934   3.670   5.650   2.059
10679SOL     OW32935   5.459   4.494   6.010
10679SOL    HW132936   5.477   4.399   5.985
10679SOL    HW232937   5.486   4.554   5.935
10680SOL     OW32938   2.711   1.855   3.587
10680SOL    HW132939   2.719   1.828   3.491
10680SOL    HW232940   2.752   1.785   3.646
10681SOL     OW32941   0.168   4.183   6.864
10681SOL    HW132942   0.243   4.131   6.824
10681SOL    HW232943   0.083   4.160   6.817
10682SOL     OW32944   1.726   1.974   3.299
10682SOL    HW132945   1.680   2.024   3.373
10682SOL    HW232946   1.790   2.035   3.253
10683SOL     OW32947   3.532   1.960   3.882
10683SOL    HW132948   3.605   1.987   3.820
10683SOL    HW232949   3.544   2.005   3.970
10684SOL     OW32950   4.810   3.632   0.987
10684SOL    HW132951   4.722   3.619   1.032
10684SOL    HW232952   4.798   3.624   0.888
10685SOL     OW32953   6.524   4.203   2.477
10685SOL    HW132954   6.492   4.118   2.518
10685SOL    HW232955   6.493   4.281   2.532
10686SOL     OW32956   2.790   4.962   6.405
10686SOL    HW132957   2.856   4.888   6.420
10686SOL    HW232958   2.810   5.008   6.319
10687SOL     OW32959   6.857   5.179   1.941
10687SOL    HW132960   6.803   5.258   1.914
10687SOL    HW232961   6.941   5.209   1.987
10688SOL     OW32962   0.079   4.500   2.710
10688SOL    HW132963   0.090   4.401   2.717
10688SOL    HW232964   0.166   4.545   2.727
10689SOL     OW32965   0.563   0.117   4.221
10689SOL    HW132966   0.530   0.203   4.183
10689SOL    HW232967   0.662   0.110   4.207
10690SOL     OW32968   6.661   5.259   3.478
10690SOL    HW132969   6.628   5.324   3.409
10690SOL    HW232970   6.585   5.234   3.539
10691SOL     OW32971   0.336   1.062   2.555
10691SOL    HW132972   0.377   1.151   2.533
10691SOL    HW232973   0.302   1.064   2.649
10692SOL     OW32974   3.448   5.016   2.497
10692SOL    HW132975   3.530   4.960   2.513
10692SOL    HW232976   3.448   5.048   2.402
10693SOL     OW32977   1.773   0.155   1.467
10693SOL    HW132978   1.774   0.251   1.437
10693SOL    HW232979   1.867   0.121   1.471
10694SOL     OW32980   4.282   6.197   1.540
10694SOL    HW132981   4.286   6.259   1.618
10694SOL    HW232982   4.309   6.105   1.569
10695SOL     OW32983   5.864   2.320   2.486
10695SOL    HW132984   5.800   2.300   2.560
10695SOL    HW232985   5.814   2.327   2.400
10696SOL     OW32986   6.626   4.192   2.899
10696SOL    HW132987   6.564   4.129   2.853
10696SOL    HW232988   6.594   4.208   2.993
10697SOL     OW32989   0.026   6.312   4.891
10697SOL    HW132990   6.957   6.270   4.891
10697SOL    HW232991   0.035   6.372   4.970
10698SOL     OW32992   3.834   6.168   3.570
10698SOL    HW132993   3.883   6.093   3.615
10698SOL    HW232994   3.879   6.188   3.483
10699SOL     OW32995   4.422   1.887   2.479
10699SOL    HW132996   4.485   1.855   2.550
10699SOL    HW232997   4.342   1.930   2.523
10700SOL     OW32998   1.263   0.111   0.090
10700SOL    HW132999   1.269   0.206   0.119
10700SOL    HW233000   1.186   0.100   0.027
10701SOL     OW33001   3.649   6.065   0.130
10701SOL    HW133002   3.642   6.029   0.224
10701SOL    HW233003   3.683   5.993   0.069
10702SOL     OW33004   6.797   2.404   2.813
10702SOL    HW133005   6.894   2.383   2.798
10702SOL    HW233006   6.765   2.355   2.893
10703SOL     OW33007   3.875   3.257   3.960
10703SOL    HW133008   3.836   3.349   3.964
10703SOL    HW233009   3.972   3.263   3.935
10704SOL     OW33010   5.677   5.760   1.333
10704SOL    HW133011   5.593   5.815   1.333
10704SOL    HW233012   5.755   5.818   1.357
10705SOL     OW33013   6.977   4.009   1.823
10705SOL    HW133014   0.012   4.090   1.836
10705SOL    HW233015   6.885   4.036   1.794
10706SOL     OW33016   4.872   6.589   1.794
10706SOL    HW133017   4.910   6.527   1.725
10706SOL    HW233018   4.844   6.536   1.874
10707SOL     OW33019   0.431   0.171   4.863
10707SOL    HW133020   0.430   0.112   4.943
10707SOL    HW233021   0.388   0.123   4.786
10708SOL     OW33022   4.459   0.857   2.541
10708SOL    HW133023   4.494   0.950   2.533
10708SOL    HW233024   4.499   0.813   2.621
10709SOL     OW33025   6.729   1.482   5.013
10709SOL    HW133026   6.787   1.562   5.001
10709SOL    HW233027   6.751   1.413   4.944
10710SOL     OW33028   0.831   6.432   4.629
10710SOL    HW133029   0.912   6.379   4.603
10710SOL    HW233030   0.770   6.441   4.551
10711SOL     OW33031   2.054   6.673   3.765
10711SOL    HW133032   2.051   6.724   3.851
10711SOL    HW233033   1.995   6.593   3.772
10712SOL     OW33034   3.763   0.510   2.290
10712SOL    HW133035   3.857   0.545   2.283
10712SOL    HW233036   3.720   0.547   2.372
10713SOL     OW33037   1.448   4.185   2.335
10713SOL    HW133038   1.357   4.164   2.372
10713SOL    HW233039   1.504   4.224   2.407
10714SOL     OW33040   6.406   2.475   4.990
10714SOL    HW133041   6.439   2.448   5.080
10714SOL    HW233042   6.363   2.565   4.996
10715SOL     OW33043   4.059   0.700   3.005
10715SOL    HW133044   4.086   0.615   3.051
10715SOL    HW233045   3.992   0.680   2.933
10716SOL     OW33046   0.224   2.735   3.487
10716SOL    HW133047   0.260   2.716   3.396
10716SOL    HW233048   0.291   2.707   3.556
10717SOL     OW33049   0.861   2.073   0.673
10717SOL    HW133050   0.764   2.078   0.647
10717SOL    HW233051   0.882   2.146   0.739
10718SOL     OW33052   6.517   4.257   0.085
10718SOL    HW133053   6.612   4.262   0.054
10718SOL    HW233054   6.514   4.242   0.184
10719SOL     OW33055   4.498   5.722   1.305
10719SOL    HW133056   4.537   5.784   1.373
10719SOL    HW233057   4.401   5.741   1.294
10720SOL     OW33058   0.414   4.065   6.125
10720SOL    HW133059   0.378   4.078   6.218
10720SOL    HW233060   0.505   4.104   6.119
10721SOL     OW33061   6.426   2.366   4.511
10721SOL    HW133062   6.414   2.286   4.569
10721SOL    HW233063   6.458   2.443   4.566
10722SOL     OW33064   0.036   3.414   0.557
10722SOL    HW133065   0.123   3.394   0.602
10722SOL    HW233066   7.014   3.492   0.603
10723SOL     OW33067   5.925   3.898   0.021
10723SOL    HW133068   6.023   3.884   0.013
10723SOL    HW233069   5.895   3.967   6.976
10724SOL     OW33070   3.404   0.183   6.259
10724SOL    HW133071   3.364   0.094   6.279
10724SOL    HW233072   3.477   0.203   6.324
10725SOL     OW33073   6.880   5.067   4.088
10725SOL    HW133074   6.860   4.969   4.100
10725SOL    HW233075   6.806   5.109   4.035
10726SOL     OW33076   5.705   6.627   5.163
10726SOL    HW133077   5.619   6.578   5.176
10726SOL    HW233078   5.691   6.701   5.098
10727SOL     OW33079   1.705   5.006   4.716
10727SOL    HW133080   1.658   4.964   4.638
10727SOL    HW233081   1.785   5.056   4.683
10728SOL     OW33082   5.990   6.752   2.204
10728SOL    HW133083   5.930   6.716   2.276
10728SOL    HW233084   6.045   6.678   2.166
10729SOL     OW33085   6.416   1.304   2.641
10729SOL    HW133086   6.441   1.250   2.560
10729SOL    HW233087   6.383   1.394   2.611
10730SOL     OW33088   3.004   6.634   1.259
10730SOL    HW133089   2.917   6.678   1.239
10730SOL    HW233090   3.003   6.598   1.352
10731SOL     OW33091   2.203   5.353   0.107
10731SOL    HW133092   2.224   5.378   0.012
10731SOL    HW233093   2.121   5.403   0.137
10732SOL     OW33094   5.943   0.400   2.809
10732SOL    HW133095   5.951   0.490   2.767
10732SOL    HW233096   5.866   0.399   2.872
10733SOL     OW33097   5.777   2.407   0.151
10733SOL    HW133098   5.740   2.397   0.243
10733SOL    HW233099   5.863   2.459   0.155
10734SOL     OW33100   1.326   0.698   6.820
10734SOL    HW133101   1.290   0.676   6.730
10734SOL    HW233102   1.272   0.650   6.890
10735SOL     OW33103   1.488   4.696   2.273
10735SOL    HW133104   1.459   4.642   2.194
10735SOL    HW233105   1.408   4.720   2.328
10736SOL     OW33106   0.971   0.929   3.231
10736SOL    HW133107   0.977   0.830   3.248
10736SOL    HW233108   1.058   0.973   3.256
10737SOL     OW33109   0.534   2.685   0.702
10737SOL    HW133110   0.472   2.610   0.680
10737SOL    HW233111   0.493   2.771   0.672
10738SOL     OW33112   2.379   0.132   2.423
10738SOL    HW133113   2.332   0.048   2.394
10738SOL    HW233114   2.371   0.142   2.522
10739SOL     OW33115   6.871   1.146   2.756
10739SOL    HW133116   6.926   1.212   2.807
10739SOL    HW233117   6.776   1.177   2.751
10740SOL     OW33118   1.242   5.543   5.805
10740SOL    HW133119   1.334   5.506   5.818
10740SOL    HW233120   1.238   5.592   5.718
10741SOL     OW33121   1.285   1.278   3.481
10741SOL    HW133122   1.378   1.292   3.445
10741SOL    HW233123   1.277   1.184   3.515
10742SOL     OW33124   5.956   6.957   2.033
10742SOL    HW133125   6.029   7.018   2.004
10742SOL    HW233126   5.991   6.891   2.100
10743SOL     OW33127   2.413   2.692   3.609
10743SOL    HW133128   2.410   2.705   3.510
10743SOL    HW233129   2.445   2.599   3.629
10744SOL     OW33130   2.875   1.713   2.503
10744SOL    HW133131   2.784   1.693   2.539
10744SOL    HW233132   2.884   1.673   2.412
10745SOL     OW33133   1.786   4.815   6.665
10745SOL    HW133134   1.822   4.837   6.756
10745SOL    HW233135   1.818   4.724   6.637
10746SOL     OW33136   1.686   5.787   1.448
10746SOL    HW133137   1.655   5.700   1.411
10746SOL    HW233138   1.677   5.859   1.379
10747SOL     OW33139   5.244   1.615   3.426
10747SOL    HW133140   5.211   1.705   3.453
10747SOL    HW233141   5.224   1.549   3.499
10748SOL     OW33142   5.961   5.913   1.124
10748SOL    HW133143   5.971   5.842   1.055
10748SOL    HW233144   5.983   5.876   1.214
10749SOL     OW33145   0.306   5.009   3.071
10749SOL    HW133146   0.347   4.918   3.056
10749SOL    HW233147   0.219   4.999   3.119
10750SOL     OW33148   4.421   4.651   4.592
10750SOL    HW133149   4.363   4.706   4.651
10750SOL    HW233150   4.466   4.580   4.647
10751SOL     OW33151   0.975   3.202   5.538
10751SOL    HW133152   1.053   3.201   5.601
10751SOL    HW233153   0.980   3.121   5.479
10752SOL     OW33154   5.994   3.721   6.251
10752SOL    HW133155   6.024   3.644   6.195
10752SOL    HW233156   6.001   3.805   6.198
10753SOL     OW33157   6.351   6.956   4.065
10753SOL    HW133158   6.444   6.919   4.061
10753SOL    HW233159   6.355   0.033   4.082
10754SOL     OW33160   1.969   2.370   2.593
10754SOL    HW133161   1.887   2.317   2.612
10754SOL    HW233162   1.976   2.388   2.495
10755SOL     OW33163   6.949   1.787   0.715
10755SOL    HW133164   6.884   1.719   0.748
10755SOL    HW233165   6.969   1.853   0.789
10756SOL     OW33166   6.291   3.281   1.098
10756SOL    HW133167   6.213   3.277   1.035
10756SOL    HW233168   6.375   3.295   1.047
10757SOL     OW33169   0.208   3.362   0.223
10757SOL    HW133170   0.218   3.302   0.143
10757SOL    HW233171   0.110   3.377   0.240
10758SOL     OW33172   0.559   5.950   5.224
10758SOL    HW133173   0.575   5.882   5.296
10758SOL    HW233174   0.603   6.036   5.249
10759SOL     OW33175   2.047   2.892   0.055
10759SOL    HW133176   2.104   2.912   6.997
10759SOL    HW233177   1.971   2.834   0.028
10760SOL     OW33178   0.192   6.748   0.800
10760SOL    HW133179   0.185   6.665   0.744
10760SOL    HW233180   0.109   6.758   0.855
10761SOL     OW33181   0.928   2.459   6.044
10761SOL    HW133182   0.974   2.547   6.049
10761SOL    HW233183   0.946   2.416   5.955
10762SOL     OW33184   4.774   0.756   4.849
10762SOL    HW133185   4.800   0.723   4.758
10762SOL    HW233186   4.709   0.692   4.890
10763SOL     OW33187   4.241   6.754   1.127
10763SOL    HW133188   4.332   6.793   1.146
10763SOL    HW233189   4.193   6.812   1.063
10764SOL     OW33190   5.054   1.704   6.154
10764SOL    HW133191   5.004   1.778   6.199
10764SOL    HW233192   5.151   1.726   6.152
10765SOL     OW33193   5.443   1.841   1.443
10765SOL    HW133194   5.399   1.926   1.469
10765SOL    HW233195   5.512   1.816   1.511
10766SOL     OW33196   2.888   3.600   0.394
10766SOL    HW133197   2.908   3.675   0.331
10766SOL    HW233198   2.973   3.564   0.432
10767SOL     OW33199   1.456   0.288   0.689
10767SOL    HW133200   1.360   0.262   0.675
10767SOL    HW233201   1.473   0.376   0.643
10768SOL     OW33202   5.302   5.710   0.495
10768SOL    HW133203   5.319   5.699   0.593
10768SOL    HW233204   5.388   5.694   0.445
10769SOL     OW33205   3.097   5.062   5.329
10769SOL    HW133206   3.077   5.060   5.232
10769SOL    HW233207   3.146   5.147   5.351
10770SOL     OW33208   5.495   0.370   5.078
10770SOL    HW133209   5.406   0.417   5.074
10770SOL    HW233210   5.566   0.436   5.101
10771SOL     OW33211   4.225   0.195   5.228
10771SOL    HW133212   4.318   0.185   5.262
10771SOL    HW233213   4.216   0.283   5.181
10772SOL     OW33214   6.763   0.234   3.727
10772SOL    HW133215   6.693   0.263   3.662
10772SOL    HW233216   6.732   0.255   3.820
10773SOL     OW33217   6.853   4.886   6.895
10773SOL    HW133218   6.932   4.864   6.952
10773SOL    HW233219   6.785   4.935   6.950
10774SOL     OW33220   1.161   2.428   0.692
10774SOL    HW133221   1.070   2.461   0.717
10774SOL    HW233222   1.199   2.487   0.620
10775SOL     OW33223   2.384   4.676   0.749
10775SOL    HW133224   2.470   4.658   0.797
10775SOL    HW233225   2.307   4.646   0.805
10776SOL     OW33226   0.737   6.689   1.093
10776SOL    HW133227   0.698   6.597   1.087
10776SOL    HW233228   0.665   6.757   1.081
10777SOL     OW33229   4.241   0.284   3.306
10777SOL    HW133230   4.314   0.334   3.261
10777SOL    HW233231   4.171   0.259   3.239
10778SOL     OW33232   6.490   6.961   4.363
10778SOL    HW133233   6.414   6.900   4.387
10778SOL    HW233234   6.538   6.923   4.284
10779SOL     OW33235   0.351   4.536   2.793
10779SOL    HW133236   0.359   4.624   2.745
10779SOL    HW233237   0.401   4.541   2.880
10780SOL     OW33238   0.577   6.339   2.884
10780SOL    HW133239   0.627   6.254   2.898
10780SOL    HW233240   0.642   6.414   2.871
10781SOL     OW33241   4.640   1.753   4.263
10781SOL    HW133242   4.655   1.678   4.328
10781SOL    HW233243   4.576   1.819   4.302
10782SOL     OW33244   6.481   2.852   3.665
10782SOL    HW133245   6.418   2.900   3.725
10782SOL    HW233246   6.564   2.907   3.654
10783SOL     OW33247   1.846   3.088   2.502
10783SOL    HW133248   1.767   3.085   2.564
10783SOL    HW233249   1.823   3.040   2.418
10784SOL     OW33250   2.315   0.113   1.215
10784SOL    HW133251   2.239   0.085   1.156
10784SOL    HW233252   2.391   0.049   1.204
10785SOL     OW33253   1.825   5.471   1.628
10785SOL    HW133254   1.849   5.454   1.532
10785SOL    HW233255   1.907   5.461   1.684
10786SOL     OW33256   5.367   3.236   1.722
10786SOL    HW133257   5.360   3.168   1.795
10786SOL    HW233258   5.411   3.195   1.642
10787SOL     OW33259   3.657   1.372   4.665
10787SOL    HW133260   3.691   1.465   4.672
10787SOL    HW233261   3.558   1.370   4.683
10788SOL     OW33262   2.083   4.409   0.180
10788SOL    HW133263   2.130   4.394   0.267
10788SOL    HW233264   2.149   4.404   0.105
10789SOL     OW33265   5.124   1.338   0.798
10789SOL    HW133266   5.150   1.250   0.760
10789SOL    HW233267   5.169   1.351   0.886
10790SOL     OW33268   0.608   0.917   5.647
10790SOL    HW133269   0.580   0.909   5.743
10790SOL    HW233270   0.534   0.960   5.595
10791SOL     OW33271   1.420   1.665   1.505
10791SOL    HW133272   1.331   1.688   1.544
10791SOL    HW233273   1.445   1.572   1.530
10792SOL     OW33274   3.160   3.301   1.635
10792SOL    HW133275   3.214   3.280   1.716
10792SOL    HW233276   3.090   3.231   1.622
10793SOL     OW33277   5.547   2.476   4.054
10793SOL    HW133278   5.462   2.515   4.018
10793SOL    HW233279   5.540   2.469   4.153
10794SOL     OW33280   3.407   4.143   2.181
10794SOL    HW133281   3.386   4.214   2.113
10794SOL    HW233282   3.323   4.091   2.201
10795SOL     OW33283   6.309   4.410   3.098
10795SOL    HW133284   6.215   4.445   3.091
10795SOL    HW233285   6.308   4.310   3.094
10796SOL     OW33286   3.570   0.178   6.474
10796SOL    HW133287   3.613   0.264   6.500
10796SOL    HW233288   3.641   0.110   6.456
10797SOL     OW33289   4.102   2.876   0.895
10797SOL    HW133290   4.003   2.869   0.911
10797SOL    HW233291   4.151   2.845   0.976
10798SOL     OW33292   1.960   7.003   0.615
10798SOL    HW133293   2.003   0.016   0.532
10798SOL    HW233294   1.968   0.051   0.687
10799SOL     OW33295   3.810   1.813   1.911
10799SOL    HW133296   3.788   1.729   1.862
10799SOL    HW233297   3.734   1.877   1.903
10800SOL     OW33298   1.793   5.958   6.997
10800SOL    HW133299   1.836   6.038   0.017
10800SOL    HW233300   1.776   5.976   6.900
10801SOL     OW33301   1.037   0.426   4.116
10801SOL    HW133302   1.111   0.395   4.056
10801SOL    HW233303   1.075   0.450   4.205
10802SOL     OW33304   2.190   3.039   4.864
10802SOL    HW133305   2.250   3.016   4.941
10802SOL    HW233306   2.149   3.129   4.879
10803SOL     OW33307   5.050   4.440   4.668
10803SOL    HW133308   4.973   4.396   4.713
10803SOL    HW233309   5.125   4.374   4.657
10804SOL     OW33310   0.163   4.341   1.325
10804SOL    HW133311   0.200   4.286   1.251
10804SOL    HW233312   0.127   4.427   1.288
10805SOL     OW33313   3.530   0.488   6.451
10805SOL    HW133314   3.497   0.581   6.437
10805SOL    HW233315   3.524   0.464   6.548
10806SOL     OW33316   5.466   4.070   0.446
10806SOL    HW133317   5.451   3.973   0.424
10806SOL    HW233318   5.448   4.085   0.543
10807SOL     OW33319   3.667   6.773   3.403
10807SOL    HW133320   3.749   6.775   3.461
10807SOL    HW233321   3.618   6.687   3.416
10808SOL     OW33322   6.705   4.065   0.232
10808SOL    HW133323   6.751   4.123   0.165
10808SOL    HW233324   6.675   3.981   0.188
10809SOL     OW33325   2.919   0.445   3.885
10809SOL    HW133326   3.001   0.388   3.881
10809SOL    HW233327   2.946   0.540   3.901
10810SOL     OW33328   1.184   1.533   6.142
10810SOL    HW133329   1.239   1.579   6.073
10810SOL    HW233330   1.243   1.476   6.200
10811SOL     OW33331   3.635   5.056   4.867
10811SOL    HW133332   3.551   5.004   4.850
10811SOL    HW233333   3.619   5.153   4.851
10812SOL     OW33334   0.394   3.442   1.955
10812SOL    HW133335   0.429   3.378   2.023
10812SOL    HW233336   0.306   3.478   1.985
10813SOL     OW33337   2.870   6.086   0.175
10813SOL    HW133338   2.815   6.150   0.121
10813SOL    HW233339   2.823   5.997   0.178
10814SOL     OW33340   0.951   0.588   5.441
10814SOL    HW133341   0.862   0.563   5.405
10814SOL    HW233342   1.016   0.514   5.422
10815SOL     OW33343   4.889   5.176   3.727
10815SOL    HW133344   4.887   5.275   3.710
10815SOL    HW233345   4.798   5.138   3.716
10816SOL     OW33346   1.699   1.343   2.218
10816SOL    HW133347   1.735   1.272   2.279
10816SOL    HW233348   1.773   1.377   2.159
10817SOL     OW33349   5.841   6.621   3.106
10817SOL    HW133350   5.759   6.564   3.101
10817SOL    HW233351   5.843   6.683   3.028
10818SOL     OW33352   5.688   2.605   5.549
10818SOL    HW133353   5.686   2.524   5.491
10818SOL    HW233354   5.779   2.614   5.590
10819SOL     OW33355   0.815   4.153   6.935
10819SOL    HW133356   0.774   4.239   6.903
10819SOL    HW233357   0.785   4.135   0.007
10820SOL     OW33358   6.813   0.035   4.105
10820SOL    HW133359   6.900   0.020   4.059
10820SOL    HW233360   6.816   0.121   4.156
10821SOL     OW33361   5.575   6.697   2.748
10821SOL    HW133362   5.568   6.708   2.649
10821SOL    HW233363   5.670   6.706   2.776
10822SOL     OW33364   1.306   2.303   2.906
10822SOL    HW133365   1.237   2.375   2.909
10822SOL    HW233366   1.314   2.260   2.996
10823SOL     OW33367   1.601   5.558   1.284
10823SOL    HW133368   1.531   5.509   1.336
10823SOL    HW233369   1.682   5.500   1.275
10824SOL     OW33370   4.713   6.943   3.701
10824SOL    HW133371   4.637   6.900   3.750
10824SOL    HW233372   4.739   6.886   3.623
10825SOL     OW33373   2.522   0.783   0.874
10825SOL    HW133374   2.566   0.694   0.885
10825SOL    HW233375   2.488   0.792   0.781
10826SOL     OW33376   6.977   3.496   3.259
10826SOL    HW133377   0.049   3.465   3.277
10826SOL    HW233378   6.912   3.427   3.291
10827SOL     OW33379   5.971   3.824   4.193
10827SOL    HW133380   6.011   3.875   4.117
10827SOL    HW233381   6.012   3.734   4.198
10828SOL     OW33382   1.058   5.620   2.653
10828SOL    HW133383   1.037   5.536   2.702
10828SOL    HW233384   1.132   5.604   2.588
10829SOL     OW33385   3.134   3.353   0.752
10829SOL    HW133386   3.122   3.269   0.805
10829SOL    HW233387   3.112   3.432   0.809
10830SOL     OW33388   5.139   2.006   3.366
10830SOL    HW133389   5.064   2.072   3.366
10830SOL    HW233390   5.221   2.048   3.405
10831SOL     OW33391   5.232   6.600   1.732
10831SOL    HW133392   5.269   6.536   1.664
10831SOL    HW233393   5.180   6.549   1.801
10832SOL     OW33394   0.094   2.576   0.673
10832SOL    HW133395   0.088   2.674   0.689
10832SOL    HW233396   0.017   2.530   0.717
10833SOL     OW33397   1.238   0.410   3.915
10833SOL    HW133398   1.215   0.495   3.868
10833SOL    HW233399   1.247   0.336   3.847
10834SOL     OW33400   1.350   1.889   5.897
10834SOL    HW133401   1.378   1.798   5.926
10834SOL    HW233402   1.409   1.921   5.824
10835SOL     OW33403   5.046   1.768   0.720
10835SOL    HW133404   5.094   1.854   0.701
10835SOL    HW233405   4.956   1.769   0.677
10836SOL     OW33406   0.273   1.195   5.700
10836SOL    HW133407   0.199   1.132   5.674
10836SOL    HW233408   0.314   1.234   5.618
10837SOL     OW33409   0.586   5.141   0.090
10837SOL    HW133410   0.660   5.099   0.037
10837SOL    HW233411   0.604   5.127   0.188
10838SOL     OW33412   5.959   6.877   4.230
10838SOL    HW133413   6.011   6.864   4.315
10838SOL    HW233414   5.879   6.817   4.231
10839SOL     OW33415   2.886   3.042   0.880
10839SOL    HW133416   2.905   3.005   0.789
10839SOL    HW233417   2.799   3.006   0.913
10840SOL     OW33418   3.780   5.800   1.722
10840SOL    HW133419   3.860   5.776   1.668
10840SOL    HW233420   3.721   5.720   1.733
10841SOL     OW33421   3.295   5.975   6.255
10841SOL    HW133422   3.387   6.009   6.273
10841SOL    HW233423   3.280   5.890   6.306
10842SOL     OW33424   6.557   3.904   0.983
10842SOL    HW133425   6.595   3.980   1.036
10842SOL    HW233426   6.603   3.898   0.895
10843SOL     OW33427   0.417   1.793   2.259
10843SOL    HW133428   0.429   1.889   2.284
10843SOL    HW233429   0.469   1.773   2.176
10844SOL     OW33430   0.669   6.525   4.233
10844SOL    HW133431   0.611   6.606   4.230
10844SOL    HW233432   0.675   6.491   4.327
10845SOL     OW33433   2.002   0.790   1.093
10845SOL    HW133434   1.953   0.842   1.022
10845SOL    HW233435   2.100   0.792   1.074
10846SOL     OW33436   4.581   2.623   0.679
10846SOL    HW133437   4.627   2.536   0.696
10846SOL    HW233438   4.528   2.649   0.760
10847SOL     OW33439   2.574   1.894   6.782
10847SOL    HW133440   2.616   1.897   6.691
10847SOL    HW233441   2.570   1.986   6.820
10848SOL     OW33442   3.106   2.241   6.253
10848SOL    HW133443   3.034   2.291   6.206
10848SOL    HW233444   3.114   2.149   6.215
10849SOL     OW33445   3.676   4.877   3.887
10849SOL    HW133446   3.590   4.858   3.838
10849SOL    HW233447   3.750   4.887   3.821
10850SOL     OW33448   4.217   6.528   6.300
10850SOL    HW133449   4.258   6.586   6.370
10850SOL    HW233450   4.288   6.483   6.247
10851SOL     OW33451   3.071   2.516   6.667
10851SOL    HW133452   3.127   2.564   6.600
10851SOL    HW233453   3.040   2.429   6.628
10852SOL     OW33454   0.366   6.952   6.105
10852SOL    HW133455   0.376   6.853   6.116
10852SOL    HW233456   0.435   6.999   6.159
10853SOL     OW33457   3.681   1.684   4.727
10853SOL    HW133458   3.667   1.718   4.820
10853SOL    HW233459   3.602   1.709   4.671
10854SOL     OW33460   6.449   0.134   6.299
10854SOL    HW133461   6.433   0.059   6.234
10854SOL    HW233462   6.387   0.209   6.278
10855SOL     OW33463   2.934   6.297   2.571
10855SOL    HW133464   2.861   6.347   2.524
10855SOL    HW233465   2.980   6.357   2.635
10856SOL     OW33466   6.222   1.053   1.263
10856SOL    HW133467   6.286   1.099   1.324
10856SOL    HW233468   6.266   0.971   1.225
10857SOL     OW33469   5.196   3.152   3.506
10857SOL    HW133470   5.211   3.247   3.531
10857SOL    HW233471   5.271   3.096   3.542
10858SOL     OW33472   1.541   2.843   6.702
10858SOL    HW133473   1.497   2.783   6.636
10858SOL    HW233474   1.566   2.929   6.658
10859SOL     OW33475   1.961   4.290   3.566
10859SOL    HW133476   1.950   4.375   3.514
10859SOL    HW233477   1.896   4.290   3.642
10860SOL     OW33478   0.011   1.262   6.057
10860SOL    HW133479   0.091   1.312   6.090
10860SOL    HW233480   6.988   1.315   5.984
10861SOL     OW33481   3.557   2.813   1.938
10861SOL    HW133482   3.586   2.806   2.034
10861SOL    HW233483   3.587   2.733   1.887
10862SOL     OW33484   2.940   1.597   6.825
10862SOL    HW133485   2.914   1.515   6.876
10862SOL    HW233486   3.024   1.578   6.774
10863SOL     OW33487   3.521   1.123   2.857
10863SOL    HW133488   3.444   1.060   2.858
10863SOL    HW233489   3.487   1.217   2.868
10864SOL     OW33490   2.513   4.533   1.352
10864SOL    HW133491   2.513   4.609   1.287
10864SOL    HW233492   2.589   4.472   1.332
10865SOL     OW33493   6.031   2.399   3.859
10865SOL    HW133494   6.028   2.476   3.795
10865SOL    HW233495   6.038   2.313   3.808
10866SOL     OW33496   6.025   3.617   1.382
10866SOL    HW133497   6.066   3.685   1.322
10866SOL    HW233498   5.993   3.539   1.327
10867SOL     OW33499   2.607   3.363   0.152
10867SOL    HW133500   2.643   3.371   0.245
10867SOL    HW233501   2.642   3.279   0.110
10868SOL     OW33502   1.305   1.872   2.798
10868SOL    HW133503   1.235   1.802   2.783
10868SOL    HW233504   1.296   1.943   2.729
10869NA      NA33505   0.501   2.412   5.947
10870NA      NA33506   4.476   4.629   5.149
10871NA      NA33507   2.335   4.518   2.172
10872NA      NA33508   5.191   4.877   3.411
10873NA      NA33509   4.166   2.228   5.146
10874NA      NA33510   3.476   4.336   1.460
10875NA      NA33511   1.189   4.493   0.440
10876NA      NA33512   4.174   4.205   1.488
10877NA      NA33513   4.926   4.556   0.899
10878NA      NA33514   3.093   0.575   5.465
10879NA      NA33515   5.697   5.528   1.294
10880NA      NA33516   1.027   0.700   5.908
10881NA      NA33517   4.880   4.919   2.029
10882NA      NA33518   3.722   3.076   0.974
   7.02147   7.02147   7.02147
