Generated by trjconv : CNT in water t= 288.00000
33518
    1C        C    1   2.843   2.770   4.745
    1C        C    2   2.899   2.719   4.864
    1C        C    3   2.842   2.772   4.981
    1C        C    4   2.847   2.772   4.261
    1C        C    5   2.903   2.726   4.382
    1C        C    6   2.848   2.773   4.504
    1C        C    7   3.013   2.639   4.626
    1C        C    8   2.897   2.720   4.625
    1C        C    9   3.074   2.597   4.746
    1C        C   10   3.009   2.630   4.867
    1C        C   11   3.184   2.496   4.982
    1C        C   12   3.061   2.564   4.979
    1C        C   13   2.853   2.771   3.768
    1C        C   14   2.901   2.721   3.891
    1C        C   15   2.852   2.771   4.014
    1C        C   16   3.019   2.647   4.138
    1C        C   17   2.903   2.728   4.139
    1C        C   18   3.080   2.612   4.260
    1C        C   19   3.015   2.641   4.383
    1C        C   20   3.208   2.553   4.507
    1C        C   21   3.075   2.602   4.505
    1C        C   22   3.276   2.527   4.628
    1C        C   23   3.204   2.539   4.749
    1C        C   24   3.413   2.481   4.869
    1C        C   25   3.271   2.502   4.869
    1C        C   26   3.490   2.475   4.986
    1C        C   27   2.849   2.770   3.282
    1C        C   28   2.903   2.718   3.402
    1C        C   29   2.854   2.772   3.524
    1C        C   30   3.020   2.640   3.649
    1C        C   31   2.908   2.726   3.646
    1C        C   32   3.078   2.601   3.772
    1C        C   33   3.015   2.637   3.893
    1C        C   34   3.205   2.547   4.017
    1C        C   35   3.075   2.603   4.016
    1C        C   36   3.273   2.532   4.140
    1C        C   37   3.212   2.563   4.263
    1C        C   38   3.415   2.505   4.382
    1C        C   39   3.277   2.535   4.385
    1C        C   40   3.483   2.505   4.506
    1C        C   41   3.414   2.498   4.629
    1C        C   42   3.630   2.479   4.746
    1C        C   43   3.487   2.477   4.748
    1C        C   44   3.704   2.487   4.865
    1C        C   45   3.629   2.474   4.983
    1C        C   46   2.841   2.754   2.794
    1C        C   47   2.893   2.709   2.917
    1C        C   48   2.843   2.763   3.038
    1C        C   49   3.017   2.641   3.160
    1C        C   50   2.901   2.722   3.160
    1C        C   51   3.079   2.603   3.281
    1C        C   52   3.018   2.637   3.404
    1C        C   53   3.208   2.542   3.525
    1C        C   54   3.081   2.604   3.527
    1C        C   55   3.274   2.521   3.648
    1C        C   56   3.209   2.546   3.771
    1C        C   57   3.413   2.506   3.894
    1C        C   58   3.274   2.529   3.895
    1C        C   59   3.483   2.500   4.017
    1C        C   60   3.412   2.505   4.139
    1C        C   61   3.625   2.499   4.258
    1C        C   62   3.484   2.492   4.259
    1C        C   63   3.696   2.509   4.380
    1C        C   64   3.624   2.504   4.502
    1C        C   65   3.832   2.538   4.622
    1C        C   66   3.697   2.498   4.623
    1C        C   67   3.906   2.557   4.741
    1C        C   68   3.840   2.522   4.861
    1C        C   69   4.047   2.587   4.977
    1C        C   70   3.919   2.530   4.977
    1C        C   71   2.826   2.737   2.307
    1C        C   72   2.889   2.698   2.427
    1C        C   73   2.839   2.752   2.548
    1C        C   74   3.006   2.623   2.673
    1C        C   75   2.891   2.706   2.671
    1C        C   76   3.070   2.592   2.795
    1C        C   77   3.009   2.629   2.917
    1C        C   78   3.205   2.543   3.037
    1C        C   79   3.075   2.598   3.039
    1C        C   80   3.276   2.527   3.158
    1C        C   81   3.209   2.548   3.281
    1C        C   82   3.414   2.495   3.403
    1C        C   83   3.275   2.521   3.403
    1C        C   84   3.482   2.489   3.526
    1C        C   85   3.412   2.491   3.650
    1C        C   86   3.624   2.493   3.771
    1C        C   87   3.483   2.490   3.772
    1C        C   88   3.696   2.505   3.892
    1C        C   89   3.624   2.503   4.014
    1C        C   90   3.830   2.549   4.135
    1C        C   91   3.695   2.509   4.136
    1C        C   92   3.895   2.576   4.257
    1C        C   93   3.831   2.548   4.380
    1C        C   94   4.023   2.638   4.501
    1C        C   95   3.901   2.567   4.502
    1C        C   96   4.087   2.673   4.621
    1C        C   97   4.032   2.624   4.741
    1C        C   98   4.186   2.767   4.861
    1C        C   99   4.102   2.652   4.862
    1C        C  100   4.210   2.843   4.977
    1C        C  101   2.820   2.731   2.070
    1C        C  102   2.991   2.597   2.191
    1C        C  103   2.871   2.675   2.188
    1C        C  104   3.069   2.580   2.308
    1C        C  105   3.006   2.619   2.429
    1C        C  106   3.196   2.527   2.551
    1C        C  107   3.067   2.585   2.552
    1C        C  108   3.267   2.514   2.672
    1C        C  109   3.201   2.540   2.794
    1C        C  110   3.411   2.493   2.914
    1C        C  111   3.273   2.523   2.915
    1C        C  112   3.482   2.486   3.035
    1C        C  113   3.414   2.495   3.159
    1C        C  114   3.626   2.493   3.280
    1C        C  115   3.484   2.487   3.281
    1C        C  116   3.694   2.504   3.403
    1C        C  117   3.623   2.497   3.525
    1C        C  118   3.828   2.544   3.647
    1C        C  119   3.693   2.503   3.648
    1C        C  120   3.894   2.572   3.769
    1C        C  121   3.833   2.541   3.893
    1C        C  122   4.019   2.647   4.014
    1C        C  123   3.899   2.573   4.013
    1C        C  124   4.084   2.674   4.136
    1C        C  125   4.023   2.635   4.258
    1C        C  126   4.189   2.771   4.375
    1C        C  127   4.080   2.680   4.379
    1C        C  128   4.235   2.823   4.498
    1C        C  129   4.193   2.767   4.621
    1C        C  130   4.325   2.937   4.741
    1C        C  131   4.241   2.822   4.742
    1C        C  132   4.351   3.007   4.860
    1C        C  133   4.280   2.963   4.973
    1C        C  134   3.170   2.474   2.083
    1C        C  135   3.035   2.510   2.086
    1C        C  136   3.260   2.482   2.190
    1C        C  137   3.198   2.521   2.311
    1C        C  138   3.405   2.474   2.428
    1C        C  139   3.266   2.495   2.433
    1C        C  140   3.478   2.475   2.549
    1C        C  141   3.406   2.489   2.670
    1C        C  142   3.621   2.489   2.792
    1C        C  143   3.480   2.487   2.790
    1C        C  144   3.694   2.496   2.913
    1C        C  145   3.623   2.487   3.035
    1C        C  146   3.832   2.529   3.155
    1C        C  147   3.695   2.494   3.157
    1C        C  148   3.896   2.561   3.277
    1C        C  149   3.830   2.540   3.400
    1C        C  150   4.022   2.626   3.523
    1C        C  151   3.893   2.566   3.524
    1C        C  152   4.079   2.669   3.645
    1C        C  153   4.019   2.638   3.769
    1C        C  154   4.191   2.766   3.889
    1C        C  155   4.079   2.681   3.890
    1C        C  156   4.244   2.814   4.011
    1C        C  157   4.191   2.766   4.133
    1C        C  158   4.338   2.923   4.252
    1C        C  159   4.243   2.818   4.254
    1C        C  160   4.372   2.984   4.374
    1C        C  161   4.326   2.931   4.497
    1C        C  162   4.440   3.113   4.615
    1C        C  163   4.368   2.991   4.618
    1C        C  164   4.472   3.178   4.736
    1C        C  165   4.438   3.118   4.859
    1C        C  166   4.510   3.323   4.975
    1C        C  167   4.474   3.188   4.975
    1C        C  168   3.475   2.437   2.072
    1C        C  169   3.399   2.459   2.188
    1C        C  170   3.618   2.463   2.307
    1C        C  171   3.476   2.462   2.306
    1C        C  172   3.693   2.484   2.425
    1C        C  173   3.619   2.484   2.546
    1C        C  174   3.824   2.536   2.668
    1C        C  175   3.689   2.494   2.668
    1C        C  176   3.890   2.564   2.789
    1C        C  177   3.828   2.541   2.914
    1C        C  178   4.028   2.616   3.030
    1C        C  179   3.900   2.557   3.034
    1C        C  180   4.086   2.654   3.153
    1C        C  181   4.021   2.626   3.276
    1C        C  182   4.184   2.757   3.398
    1C        C  183   4.078   2.664   3.399
    1C        C  184   4.239   2.805   3.519
    1C        C  185   4.192   2.753   3.642
    1C        C  186   4.331   2.917   3.763
    1C        C  187   4.241   2.809   3.763
    1C        C  188   4.373   2.978   3.883
    1C        C  189   4.331   2.925   4.007
    1C        C  190   4.446   3.104   4.127
    1C        C  191   4.377   2.980   4.129
    1C        C  192   4.469   3.169   4.250
    1C        C  193   4.441   3.107   4.374
    1C        C  194   4.503   3.315   4.491
    1C        C  195   4.465   3.179   4.493
    1C        C  196   4.517   3.385   4.613
    1C        C  197   4.510   3.316   4.736
    1C        C  198   4.551   3.532   4.851
    1C        C  199   4.533   3.390   4.855
    1C        C  200   4.578   3.617   4.963
    1C        C  201   3.614   2.417   2.075
    1C        C  202   3.826   2.512   2.184
    1C        C  203   3.693   2.459   2.186
    1C        C  204   3.897   2.539   2.304
    1C        C  205   3.831   2.516   2.426
    1C        C  206   4.017   2.623   2.542
    1C        C  207   3.894   2.554   2.546
    1C        C  208   4.078   2.660   2.664
    1C        C  209   4.018   2.625   2.787
    1C        C  210   4.190   2.753   2.907
    1C        C  211   4.080   2.664   2.907
    1C        C  212   4.241   2.799   3.030
    1C        C  213   4.190   2.749   3.152
    1C        C  214   4.326   2.911   3.272
    1C        C  215   4.239   2.800   3.275
    1C        C  216   4.362   2.974   3.393
    1C        C  217   4.328   2.914   3.516
    1C        C  218   4.429   3.101   3.635
    1C        C  219   4.368   2.973   3.638
    1C        C  220   4.457   3.166   3.757
    1C        C  221   4.439   3.103   3.882
    1C        C  222   4.505   3.304   4.004
    1C        C  223   4.474   3.166   4.004
    1C        C  224   4.519   3.378   4.124
    1C        C  225   4.503   3.306   4.245
    1C        C  226   4.521   3.520   4.365
    1C        C  227   4.512   3.379   4.366
    1C        C  228   4.522   3.592   4.486
    1C        C  229   4.535   3.525   4.610
    1C        C  230   4.499   3.738   4.723
    1C        C  231   4.541   3.602   4.728
    1C        C  232   4.488   3.813   4.843
    1C        C  233   4.545   3.753   4.956
    1C        C  234   4.020   2.605   2.063
    1C        C  235   3.893   2.548   2.066
    1C        C  236   4.089   2.642   2.180
    1C        C  237   4.024   2.603   2.299
    1C        C  238   4.193   2.739   2.419
    1C        C  239   4.081   2.652   2.419
    1C        C  240   4.245   2.790   2.540
    1C        C  241   4.187   2.749   2.663
    1C        C  242   4.332   2.905   2.783
    1C        C  243   4.245   2.794   2.784
    1C        C  244   4.376   2.961   2.905
    1C        C  245   4.338   2.902   3.027
    1C        C  246   4.433   3.092   3.148
    1C        C  247   4.372   2.965   3.149
    1C        C  248   4.461   3.160   3.269
    1C        C  249   4.426   3.100   3.391
    1C        C  250   4.495   3.301   3.513
    1C        C  251   4.457   3.165   3.513
    1C        C  252   4.507   3.370   3.636
    1C        C  253   4.492   3.303   3.759
    1C        C  254   4.526   3.513   3.877
    1C        C  255   4.513   3.372   3.881
    1C        C  256   4.521   3.586   3.998
    1C        C  257   4.523   3.519   4.122
    1C        C  258   4.485   3.730   4.241
    1C        C  259   4.515   3.592   4.243
    1C        C  260   4.470   3.799   4.363
    1C        C  261   4.495   3.731   4.485
    1C        C  262   4.422   3.938   4.602
    1C        C  263   4.473   3.806   4.602
    1C        C  264   4.398   4.008   4.722
    1C        C  265   4.428   3.940   4.842
    1C        C  266   4.306   4.127   4.958
    1C        C  267   4.383   4.011   4.955
    1C        C  268   4.262   2.775   2.061
    1C        C  269   4.202   2.727   2.178
    1C        C  270   4.347   2.888   2.298
    1C        C  271   4.251   2.784   2.298
    1C        C  272   4.388   2.950   2.418
    1C        C  273   4.340   2.894   2.538
    1C        C  274   4.445   3.082   2.657
    1C        C  275   4.376   2.958   2.659
    1C        C  276   4.471   3.149   2.779
    1C        C  277   4.441   3.086   2.901
    1C        C  278   4.501   3.289   3.024
    1C        C  279   4.463   3.153   3.024
    1C        C  280   4.511   3.363   3.144
    1C        C  281   4.498   3.297   3.268
    1C        C  282   4.523   3.509   3.389
    1C        C  283   4.512   3.368   3.390
    1C        C  284   4.516   3.581   3.510
    1C        C  285   4.520   3.511   3.633
    1C        C  286   4.493   3.722   3.751
    1C        C  287   4.519   3.583   3.754
    1C        C  288   4.477   3.791   3.873
    1C        C  289   4.496   3.725   3.997
    1C        C  290   4.421   3.927   4.114
    1C        C  291   4.473   3.796   4.117
    1C        C  292   4.398   3.995   4.236
    1C        C  293   4.427   3.933   4.359
    1C        C  294   4.327   4.125   4.479
    1C        C  295   4.395   4.002   4.479
    1C        C  296   4.283   4.186   4.599
    1C        C  297   4.330   4.133   4.721
    1C        C  298   4.200   4.314   4.837
    1C        C  299   4.282   4.196   4.839
    1C        C  300   4.175   4.406   4.943
    1C        C  301   4.346   2.886   2.061
    1C        C  302   4.468   3.070   2.174
    1C        C  303   4.396   2.946   2.178
    1C        C  304   4.483   3.143   2.294
    1C        C  305   4.454   3.075   2.415
    1C        C  306   4.502   3.285   2.537
    1C        C  307   4.474   3.146   2.535
    1C        C  308   4.513   3.358   2.657
    1C        C  309   4.503   3.287   2.779
    1C        C  310   4.524   3.498   2.899
    1C        C  311   4.518   3.357   2.901
    1C        C  312   4.515   3.570   3.020
    1C        C  313   4.516   3.504   3.145
    1C        C  314   4.489   3.717   3.262
    1C        C  315   4.516   3.578   3.265
    1C        C  316   4.469   3.786   3.384
    1C        C  317   4.486   3.719   3.506
    1C        C  318   4.420   3.921   3.626
    1C        C  319   4.470   3.789   3.628
    1C        C  320   4.391   3.985   3.749
    1C        C  321   4.423   3.921   3.871
    1C        C  322   4.318   4.110   3.991
    1C        C  323   4.391   3.989   3.991
    1C        C  324   4.273   4.164   4.114
    1C        C  325   4.319   4.112   4.237
    1C        C  326   4.186   4.283   4.352
    1C        C  327   4.282   4.179   4.356
    1C        C  328   4.135   4.337   4.472
    1C        C  329   4.187   4.289   4.595
    1C        C  330   4.023   4.432   4.711
    1C        C  331   4.136   4.346   4.714
    1C        C  332   3.971   4.492   4.828
    1C        C  333   4.055   4.479   4.939
    1C        C  334   4.556   3.266   2.060
    1C        C  335   4.537   3.127   2.062
    1C        C  336   4.543   3.349   2.173
    1C        C  337   4.518   3.281   2.294
    1C        C  338   4.527   3.495   2.411
    1C        C  339   4.519   3.354   2.415
    1C        C  340   4.521   3.568   2.532
    1C        C  341   4.523   3.499   2.655
    1C        C  342   4.493   3.709   2.775
    1C        C  343   4.520   3.570   2.778
    1C        C  344   4.478   3.782   2.895
    1C        C  345   4.492   3.709   3.015
    1C        C  346   4.417   3.909   3.138
    1C        C  347   4.467   3.777   3.136
    1C        C  348   4.392   3.981   3.257
    1C        C  349   4.422   3.920   3.381
    1C        C  350   4.317   4.104   3.502
    1C        C  351   4.391   3.983   3.503
    1C        C  352   4.274   4.160   3.624
    1C        C  353   4.318   4.106   3.747
    1C        C  354   4.174   4.262   3.864
    1C        C  355   4.276   4.165   3.868
    1C        C  356   4.125   4.314   3.986
    1C        C  357   4.178   4.268   4.109
    1C        C  358   4.012   4.403   4.228
    1C        C  359   4.127   4.321   4.230
    1C        C  360   3.953   4.446   4.349
    1C        C  361   4.020   4.418   4.471
    1C        C  362   3.827   4.517   4.589
    1C        C  363   3.955   4.458   4.590
    1C        C  364   3.764   4.551   4.711
    1C        C  365   3.842   4.550   4.828
    1C        C  366   3.630   4.586   4.948
    1C        C  367   3.768   4.568   4.946
    1C        C  368   4.506   3.563   2.053
    1C        C  369   4.528   3.489   2.170
    1C        C  370   4.504   3.705   2.288
    1C        C  371   4.522   3.565   2.289
    1C        C  372   4.480   3.775   2.408
    1C        C  373   4.500   3.707   2.530
    1C        C  374   4.419   3.904   2.647
    1C        C  375   4.474   3.774   2.652
    1C        C  376   4.390   3.972   2.767
    1C        C  377   4.419   3.911   2.890
    1C        C  378   4.311   4.089   3.011
    1C        C  379   4.391   3.972   3.014
    1C        C  380   4.267   4.149   3.131
    1C        C  381   4.318   4.101   3.254
    1C        C  382   4.172   4.252   3.375
    1C        C  383   4.277   4.158   3.377
    1C        C  384   4.120   4.301   3.497
    1C        C  385   4.175   4.261   3.621
    1C        C  386   4.007   4.393   3.743
    1C        C  387   4.122   4.310   3.742
    1C        C  388   3.944   4.429   3.864
    1C        C  389   4.008   4.394   3.985
    1C        C  390   3.821   4.498   4.107
    1C        C  391   3.948   4.435   4.106
    1C        C  392   3.753   4.520   4.229
    1C        C  393   3.825   4.505   4.349
    1C        C  394   3.616   4.555   4.472
    1C        C  395   3.757   4.537   4.468
    1C        C  396   3.547   4.563   4.595
    1C        C  397   3.623   4.562   4.714
    1C        C  398   3.410   4.548   4.839
    1C        C  399   3.550   4.570   4.835
    1C        C  400   3.342   4.516   4.957
    1C        C  401   4.506   3.702   2.052
    1C        C  402   4.454   3.914   2.167
    1C        C  403   4.497   3.779   2.168
    1C        C  404   4.411   3.979   2.285
    1C        C  405   4.431   3.908   2.405
    1C        C  406   4.318   4.092   2.525
    1C        C  407   4.391   3.971   2.525
    1C        C  408   4.275   4.152   2.645
    1C        C  409   4.313   4.091   2.766
    1C        C  410   4.173   4.249   2.889
    1C        C  411   4.267   4.144   2.889
    1C        C  412   4.123   4.303   3.010
    1C        C  413   4.169   4.250   3.132
    1C        C  414   3.997   4.375   3.252
    1C        C  415   4.116   4.298   3.254
    1C        C  416   3.943   4.413   3.377
    1C        C  417   4.002   4.379   3.500
    1C        C  418   3.813   4.478   3.619
    1C        C  419   3.942   4.422   3.621
    1C        C  420   3.748   4.510   3.741
    1C        C  421   3.815   4.485   3.863
    1C        C  422   3.613   4.544   3.985
    1C        C  423   3.751   4.514   3.986
    1C        C  424   3.542   4.552   4.107
    1C        C  425   3.614   4.546   4.229
    1C        C  426   3.403   4.546   4.355
    1C        C  427   3.543   4.558   4.351
    1C        C  428   3.333   4.548   4.477
    1C        C  429   3.406   4.561   4.597
    1C        C  430   3.198   4.512   4.721
    1C        C  431   3.337   4.544   4.719
    1C        C  432   3.125   4.493   4.842
    1C        C  433   3.204   4.500   4.958
    1C        C  434   4.377   4.121   2.048
    1C        C  435   4.445   3.998   2.056
    1C        C  436   4.306   4.165   2.163
    1C        C  437   4.334   4.099   2.286
    1C        C  438   4.178   4.253   2.403
    1C        C  439   4.278   4.153   2.404
    1C        C  440   4.127   4.306   2.524
    1C        C  441   4.176   4.253   2.645
    1C        C  442   4.008   4.383   2.766
    1C        C  443   4.121   4.298   2.767
    1C        C  444   3.945   4.421   2.887
    1C        C  445   4.005   4.381   3.008
    1C        C  446   3.811   4.472   3.131
    1C        C  447   3.941   4.416   3.129
    1C        C  448   3.746   4.494   3.255
    1C        C  449   3.814   4.469   3.377
    1C        C  450   3.608   4.531   3.496
    1C        C  451   3.746   4.498   3.497
    1C        C  452   3.540   4.540   3.620
    1C        C  453   3.610   4.539   3.743
    1C        C  454   3.399   4.541   3.866
    1C        C  455   3.539   4.551   3.865
    1C        C  456   3.330   4.530   3.989
    1C        C  457   3.401   4.547   4.110
    1C        C  458   3.194   4.506   4.235
    1C        C  459   3.332   4.539   4.233
    1C        C  460   3.129   4.481   4.358
    1C        C  461   3.196   4.512   4.479
    1C        C  462   3.000   4.431   4.601
    1C        C  463   3.128   4.490   4.601
    1C        C  464   2.933   4.399   4.721
    1C        C  465   2.991   4.441   4.844
    1C        C  466   2.804   4.332   4.958
    1C        C  467   2.905   4.429   4.957
    1C        C  468   4.126   4.284   2.043
    1C        C  469   4.195   4.256   2.161
    1C        C  470   4.009   4.376   2.278
    1C        C  471   4.126   4.296   2.279
    1C        C  472   3.942   4.404   2.399
    1C        C  473   4.007   4.381   2.522
    1C        C  474   3.813   4.468   2.642
    1C        C  475   3.943   4.412   2.644
    1C        C  476   3.746   4.496   2.763
    1C        C  477   3.815   4.476   2.885
    1C        C  478   3.608   4.523   3.009
    1C        C  479   3.746   4.492   3.007
    1C        C  480   3.538   4.530   3.131
    1C        C  481   3.608   4.522   3.254
    1C        C  482   3.395   4.539   3.377
    1C        C  483   3.536   4.537   3.375
    1C        C  484   3.326   4.530   3.500
    1C        C  485   3.399   4.541   3.620
    1C        C  486   3.192   4.497   3.744
    1C        C  487   3.329   4.530   3.743
    1C        C  488   3.127   4.473   3.867
    1C        C  489   3.193   4.496   3.990
    1C        C  490   3.004   4.411   4.113
    1C        C  491   3.128   4.479   4.114
    1C        C  492   2.946   4.376   4.237
    1C        C  493   3.000   4.424   4.358
    1C        C  494   2.833   4.296   4.483
    1C        C  495   2.937   4.391   4.481
    1C        C  496   2.777   4.248   4.603
    1C        C  497   2.823   4.309   4.722
    1C        C  498   2.665   4.164   4.844
    1C        C  499   2.757   4.271   4.841
    1C        C  500   2.595   4.119   4.957
    1C        C  501   4.006   4.355   2.042
    1C        C  502   3.816   4.468   2.154
    1C        C  503   3.943   4.406   2.157
    1C        C  504   3.746   4.484   2.275
    1C        C  505   3.813   4.461   2.398
    1C        C  506   3.606   4.510   2.519
    1C        C  507   3.746   4.489   2.519
    1C        C  508   3.537   4.520   2.641
    1C        C  509   3.606   4.515   2.764
    1C        C  510   3.397   4.517   2.888
    1C        C  511   3.538   4.525   2.887
    1C        C  512   3.324   4.521   3.009
    1C        C  513   3.396   4.529   3.131
    1C        C  514   3.190   4.489   3.254
    1C        C  515   3.328   4.523   3.254
    1C        C  516   3.122   4.467   3.375
    1C        C  517   3.189   4.494   3.497
    1C        C  518   3.001   4.406   3.624
    1C        C  519   3.126   4.471   3.621
    1C        C  520   2.940   4.371   3.746
    1C        C  521   3.002   4.407   3.868
    1C        C  522   2.833   4.284   3.993
    1C        C  523   2.943   4.373   3.992
    1C        C  524   2.787   4.235   4.117
    1C        C  525   2.840   4.282   4.239
    1C        C  526   2.699   4.128   4.361
    1C        C  527   2.784   4.241   4.362
    1C        C  528   2.657   4.070   4.483
    1C        C  529   2.689   4.138   4.603
    1C        C  530   2.580   3.961   4.732
    1C        C  531   2.640   4.090   4.727
    1C        C  532   2.540   3.902   4.855
    1C        C  533   2.530   3.995   4.962
    1C        C  534   3.617   4.557   2.038
    1C        C  535   3.750   4.511   2.038
    1C        C  536   3.537   4.532   2.154
    1C        C  537   3.607   4.510   2.276
    1C        C  538   3.394   4.507   2.400
    1C        C  539   3.534   4.516   2.397
    1C        C  540   3.324   4.503   2.523
    1C        C  541   3.396   4.513   2.644
    1C        C  542   3.187   4.477   2.764
    1C        C  543   3.325   4.510   2.767
    1C        C  544   3.121   4.458   2.887
    1C        C  545   3.188   4.484   3.009
    1C        C  546   2.997   4.398   3.132
    1C        C  547   3.123   4.463   3.133
    1C        C  548   2.939   4.361   3.256
    1C        C  549   2.997   4.402   3.378
    1C        C  550   2.829   4.279   3.503
    1C        C  551   2.940   4.367   3.503
    1C        C  552   2.778   4.232   3.626
    1C        C  553   2.831   4.281   3.748
    1C        C  554   2.701   4.117   3.875
    1C        C  555   2.786   4.230   3.871
    1C        C  556   2.664   4.058   3.997
    1C        C  557   2.701   4.122   4.118
    1C        C  558   2.602   3.937   4.244
    1C        C  559   2.662   4.065   4.241
    1C        C  560   2.568   3.878   4.367
    1C        C  561   2.588   3.947   4.489
    1C        C  562   2.529   3.749   4.615
    1C        C  563   2.558   3.887   4.613
    1C        C  564   2.516   3.682   4.738
    1C        C  565   2.517   3.760   4.857
    1C        C  566   2.528   3.544   4.974
    1C        C  567   2.515   3.683   4.974
    1C        C  568   3.325   4.474   2.041
    1C        C  569   3.397   4.509   2.156
    1C        C  570   3.185   4.468   2.279
    1C        C  571   3.323   4.502   2.277
    1C        C  572   3.117   4.451   2.402
    1C        C  573   3.185   4.479   2.522
    1C        C  574   2.987   4.398   2.644
    1C        C  575   3.117   4.455   2.643
    1C        C  576   2.929   4.362   2.767
    1C        C  577   2.992   4.402   2.887
    1C        C  578   2.830   4.267   3.014
    1C        C  579   2.939   4.357   3.010
    1C        C  580   2.780   4.218   3.137
    1C        C  581   2.836   4.264   3.259
    1C        C  582   2.695   4.110   3.385
    1C        C  583   2.785   4.219   3.383
    1C        C  584   2.658   4.054   3.509
    1C        C  585   2.694   4.118   3.629
    1C        C  586   2.595   3.933   3.754
    1C        C  587   2.661   4.058   3.753
    1C        C  588   2.572   3.869   3.878
    1C        C  589   2.593   3.936   4.000
    1C        C  590   2.534   3.734   4.124
    1C        C  591   2.569   3.870   4.123
    1C        C  592   2.527   3.669   4.250
    1C        C  593   2.530   3.742   4.371
    1C        C  594   2.502   3.535   4.495
    1C        C  595   2.521   3.675   4.495
    1C        C  596   2.513   3.464   4.617
    1C        C  597   2.514   3.539   4.736
    1C        C  598   2.534   3.327   4.860
    1C        C  599   2.520   3.467   4.858
    1C        C  600   2.534   3.247   4.975
    1C        C  601   3.193   4.435   2.038
    1C        C  602   2.984   4.393   2.157
    1C        C  603   3.118   4.443   2.156
    1C        C  604   2.926   4.356   2.282
    1C        C  605   2.989   4.392   2.403
    1C        C  606   2.813   4.272   2.528
    1C        C  607   2.923   4.361   2.524
    1C        C  608   2.765   4.222   2.651
    1C        C  609   2.819   4.273   2.771
    1C        C  610   2.685   4.110   2.895
    1C        C  611   2.773   4.221   2.894
    1C        C  612   2.652   4.050   3.019
    1C        C  613   2.692   4.108   3.142
    1C        C  614   2.585   3.926   3.264
    1C        C  615   2.651   4.051   3.264
    1C        C  616   2.565   3.863   3.389
    1C        C  617   2.593   3.929   3.511
    1C        C  618   2.525   3.729   3.638
    1C        C  619   2.562   3.866   3.634
    1C        C  620   2.512   3.662   3.761
    1C        C  621   2.531   3.734   3.882
    1C        C  622   2.505   3.522   4.007
    1C        C  623   2.521   3.662   4.003
    1C        C  624   2.507   3.454   4.131
    1C        C  625   2.514   3.529   4.251
    1C        C  626   2.530   3.321   4.378
    1C        C  627   2.507   3.461   4.374
    1C        C  628   2.554   3.253   4.500
    1C        C  629   2.539   3.325   4.620
    1C        C  630   2.589   3.116   4.742
    1C        C  631   2.552   3.253   4.740
    1C        C  632   2.614   3.048   4.864
    1C        C  633   2.564   3.111   4.983
    1C        C  634   2.783   4.301   2.053
    1C        C  635   2.889   4.392   2.049
    1C        C  636   2.749   4.228   2.168
    1C        C  637   2.813   4.270   2.286
    1C        C  638   2.674   4.108   2.410
    1C        C  639   2.764   4.217   2.408
    1C        C  640   2.634   4.048   2.532
    1C        C  641   2.681   4.108   2.651
    1C        C  642   2.580   3.923   2.776
    1C        C  643   2.643   4.050   2.774
    1C        C  644   2.557   3.858   2.899
    1C        C  645   2.590   3.923   3.019
    1C        C  646   2.520   3.725   3.149
    1C        C  647   2.559   3.860   3.142
    1C        C  648   2.508   3.655   3.271
    1C        C  649   2.526   3.727   3.392
    1C        C  650   2.507   3.518   3.517
    1C        C  651   2.513   3.660   3.515
    1C        C  652   2.510   3.450   3.641
    1C        C  653   2.508   3.521   3.763
    1C        C  654   2.536   3.312   3.887
    1C        C  655   2.505   3.450   3.885
    1C        C  656   2.549   3.246   4.011
    1C        C  657   2.535   3.315   4.133
    1C        C  658   2.610   3.122   4.259
    1C        C  659   2.552   3.251   4.258
    1C        C  660   2.641   3.058   4.381
    1C        C  661   2.600   3.119   4.502
    1C        C  662   2.703   2.932   4.624
    1C        C  663   2.625   3.050   4.622
    1C        C  664   2.748   2.876   4.745
    1C        C  665   2.697   2.931   4.865
    1C        C  666   2.740   2.867   4.982
    1C        C  667   2.671   4.024   2.055
    1C        C  668   2.677   4.106   2.168
    1C        C  669   2.583   3.913   2.291
    1C        C  670   2.640   4.044   2.289
    1C        C  671   2.550   3.851   2.413
    1C        C  672   2.576   3.919   2.534
    1C        C  673   2.519   3.715   2.659
    1C        C  674   2.556   3.851   2.657
    1C        C  675   2.507   3.648   2.783
    1C        C  676   2.521   3.721   2.903
    1C        C  677   2.505   3.512   3.031
    1C        C  678   2.511   3.654   3.027
    1C        C  679   2.508   3.441   3.153
    1C        C  680   2.502   3.514   3.274
    1C        C  681   2.531   3.306   3.400
    1C        C  682   2.503   3.444   3.397
    1C        C  683   2.548   3.239   3.523
    1C        C  684   2.533   3.311   3.644
    1C        C  685   2.607   3.111   3.771
    1C        C  686   2.555   3.243   3.766
    1C        C  687   2.641   3.052   3.895
    1C        C  688   2.609   3.118   4.016
    1C        C  689   2.720   2.938   4.135
    1C        C  690   2.642   3.055   4.138
    1C        C  691   2.754   2.878   4.259
    1C        C  692   2.712   2.936   4.381
    1C        C  693   2.753   2.878   4.503
    1C        C  694   2.630   3.891   2.061
    1C        C  695   2.521   3.701   2.177
    1C        C  696   2.571   3.833   2.175
    1C        C  697   2.492   3.640   2.301
    1C        C  698   2.507   3.717   2.419
    1C        C  699   2.489   3.503   2.543
    1C        C  700   2.494   3.645   2.539
    1C        C  701   2.499   3.435   2.666
    1C        C  702   2.497   3.507   2.788
    1C        C  703   2.522   3.298   2.913
    1C        C  704   2.498   3.437   2.911
    1C        C  705   2.537   3.229   3.035
    1C        C  706   2.526   3.301   3.156
    1C        C  707   2.578   3.097   3.280
    1C        C  708   2.543   3.234   3.279
    1C        C  709   2.623   3.040   3.401
    1C        C  710   2.603   3.109   3.523
    1C        C  711   2.719   2.934   3.645
    1C        C  712   2.636   3.049   3.647
    1C        C  713   2.761   2.878   3.768
    1C        C  714   2.721   2.936   3.891
    1C        C  715   2.763   2.881   4.014
    1C        C  716   2.441   3.496   2.061
    1C        C  717   2.493   3.627   2.062
    1C        C  718   2.462   3.421   2.182
    1C        C  719   2.475   3.499   2.300
    1C        C  720   2.514   3.291   2.424
    1C        C  721   2.488   3.430   2.422
    1C        C  722   2.535   3.224   2.547
    1C        C  723   2.518   3.295   2.668
    1C        C  724   2.592   3.098   2.790
    1C        C  725   2.538   3.228   2.791
    1C        C  726   2.619   3.034   2.913
    1C        C  727   2.584   3.095   3.035
    1C        C  728   2.703   2.923   3.156
    1C        C  729   2.616   3.035   3.159
    1C        C  730   2.750   2.871   3.279
    1C        C  731   2.708   2.927   3.402
    1C        C  732   2.757   2.874   3.523
    1C        C  733   2.489   3.196   2.073
    1C        C  734   2.488   3.281   2.185
    1C        C  735   2.582   3.086   2.305
    1C        C  736   2.518   3.213   2.306
    1C        C  737   2.613   3.024   2.427
    1C        C  738   2.585   3.092   2.548
    1C        C  739   2.699   2.912   2.669
    1C        C  740   2.624   3.032   2.670
    1C        C  741   2.744   2.856   2.791
    1C        C  742   2.703   2.920   2.911
    1C        C  743   2.752   2.872   3.034
    1C        C  744   2.549   3.071   2.071
    1C        C  745   2.688   2.899   2.184
    1C        C  746   2.607   3.015   2.185
    1C        C  747   2.733   2.844   2.306
    1C        C  748   2.690   2.906   2.426
    1C        C  749   2.740   2.853   2.548
    1C        C  750   2.735   2.841   2.066
    1C        C  751   3.667   2.299   2.002
    1C        O  752   3.674   2.183   2.052
    1C        O  753   3.745   2.317   1.887
    1C        C  754   4.610   3.046   1.962
    1C        O  755   4.553   3.006   1.857
    1C        O  756   4.749   3.032   1.968
    1C        C  757   4.441   4.214   1.952
    1C        O  758   4.493   4.320   1.994
    1C        O  759   4.426   4.194   1.814
    1C        C  760   3.599   4.684   1.964
    1C        O  761   3.628   4.796   2.014
    1C        O  762   3.529   4.692   1.843
    1C        C  763   2.859   4.526   1.994
    1C        O  764   2.910   4.581   1.892
    1C        O  765   2.747   4.595   2.041
    1C        C  766   2.316   3.478   1.985
    1C        O  767   2.313   3.481   1.859
    1C        O  768   2.194   3.531   2.029
    1C        C  769   4.677   3.583   5.068
    1C        O  770   4.643   3.564   5.188
    1C        O  771   4.816   3.587   5.050
    1C        C  772   4.281   4.457   5.033
    1C        O  773   4.284   4.429   5.156
    1C        O  774   4.401   4.507   4.983
    1C        C  775   4.136   2.548   5.089
    1C        O  776   4.179   2.431   5.103
    1C        O  777   4.106   2.590   5.219
    1C        C  778   2.873   4.540   5.049
    1C        O  779   2.790   4.626   5.006
    1C        O  780   2.938   4.582   5.166
    1C        C  781   2.475   3.038   5.076
    1C        O  782   2.364   2.993   5.037
    1C        O  783   2.504   3.035   5.212
    1C        C  784   2.421   3.992   5.063
    1C        O  785   2.306   4.034   5.032
    1C        O  786   2.445   3.997   5.200
    1C        C  787   2.954   2.408   2.015
    1C        O  788   2.923   2.428   1.894
    1C        O  789   2.935   2.276   2.054
    1C        C  790   3.172   2.371   5.061
    1C        O  791   3.146   2.264   4.998
    1C        O  792   3.117   2.362   5.189
    1C        H  793   4.290   3.016   5.066
    1C        H  794   4.182   2.806   5.073
    1C        H  795   4.448   3.153   5.072
    1C        H  796   4.475   3.380   5.059
    1C        H  797   4.546   3.801   5.052
    1C        H  798   4.425   3.982   5.048
    1C        H  799   4.263   4.161   5.050
    1C        H  800   4.007   4.493   5.033
    1C        H  801   3.820   4.629   5.017
    1C        H  802   3.595   4.635   5.037
    1C        H  803   3.397   4.477   5.040
    1C        H  804   3.160   4.544   5.044
    1C        H  805   3.914   2.438   5.031
    1C        H  806   3.679   2.465   5.077
    1C        H  807   3.030   2.605   5.073
    1C        H  808   3.446   2.419   5.066
    1C        H  809   2.839   2.700   5.060
    1C        H  810   2.717   2.909   5.078
    1C        H  811   2.544   3.296   5.070
    1C        H  812   2.527   3.499   5.071
    1C        H  813   2.575   3.726   5.051
    1C        H  814   2.542   4.199   5.005
    1C        H  815   2.784   4.283   5.051
    1C        H  816   2.706   2.877   1.969
    1C        H  817   2.853   2.697   1.974
    1C        H  818   3.209   2.424   1.996
    1C        H  819   3.428   2.426   1.977
    1C        H  820   3.844   2.543   1.972
    1C        H  821   4.072   2.585   1.972
    1C        H  822   4.246   2.727   1.967
    1C        H  823   4.337   2.948   1.974
    1C        H  824   4.529   3.307   1.965
    1C        H  825   4.440   3.515   1.984
    1C        H  826   4.536   3.754   1.963
    1C        H  827   3.786   4.493   1.939
    1C        H  828   3.959   4.381   1.950
    1C        H  829   4.132   4.209   1.967
    1C        H  830   4.461   3.955   1.960
    1C        H  831   2.630   3.837   1.969
    1C        H  832   2.648   4.075   1.964
    1C        H  833   2.707   4.327   1.982
    1C        H  834   3.348   4.520   1.947
    1C        H  835   3.143   4.463   1.948
    1C        H  836   2.497   3.002   2.008
    1C        H  837   2.464   3.239   1.978
    1C        H  838   2.556   3.645   1.978
    2V3OU   H29  839   2.816   3.550   2.773
    2V3OU   C27  840   2.795   3.502   2.872
    2V3OU   H27  841   2.733   3.577   2.927
    2V3OU   H28  842   2.737   3.407   2.857
    2V3OU   O11  843   2.914   3.480   2.948
    2V3OU   C15  844   2.928   3.400   3.059
    2V3OU   C13  845   3.054   3.373   3.116
    2V3OU   C14  846   3.081   3.271   3.208
    2V3OU   C16  847   2.978   3.189   3.252
    2V3OU    H6  848   2.991   3.105   3.322
    2V3OU   C12  849   3.214   3.228   3.256
    2V3OU    O2  850   3.238   3.126   3.324
    2V3OU   C10  851   3.328   3.309   3.208
    2V3OU    C8  852   3.458   3.268   3.234
    2V3OU   O10  853   3.488   3.155   3.304
    2V3OU   H26  854   3.401   3.113   3.316
    2V3OU    C6  855   3.567   3.350   3.192
    2V3OU    C5  856   3.538   3.465   3.120
    2V3OU    C4  857   3.706   3.295   3.192
    2V3OU    H4  858   3.722   3.225   3.279
    2V3OU    H5  859   3.714   3.224   3.104
    2V3OU    C2  860   3.818   3.399   3.189
    2V3OU    O6  861   3.803   3.471   3.311
    2V3OU   H21  862   3.759   3.555   3.288
    2V3OU    C3  863   3.783   3.494   3.074
    2V3OU    H2  864   3.861   3.575   3.069
    2V3OU    H3  865   3.783   3.436   2.978
    2V3OU   C25  866   3.950   3.323   3.174
    2V3OU    O7  867   3.998   3.287   3.067
    2V3OU   C26  868   4.028   3.287   3.299
    2V3OU   H22  869   4.065   3.378   3.354
    2V3OU   H23  870   4.119   3.228   3.272
    2V3OU    O8  871   3.957   3.210   3.394
    2V3OU   H24  872   3.917   3.269   3.460
    2V3OU    C1  873   3.648   3.562   3.086
    2V3OU    H1  874   3.629   3.621   2.992
    2V3OU    O3  875   3.656   3.652   3.196
    2V3OU   C19  876   3.617   3.789   3.189
    2V3OU    H9  877   3.519   3.806   3.134
    2V3OU    O4  878   3.710   3.852   3.104
    2V3OU   C20  879   3.842   3.876   3.153
    2V3OU   H10  880   3.888   3.772   3.158
    2V3OU   C24  881   3.611   3.850   3.329
    2V3OU   H16  882   3.544   3.789   3.395
    2V3OU   H17  883   3.568   3.953   3.315
    2V3OU   C23  884   3.751   3.876   3.384
    2V3OU   H15  885   3.793   3.771   3.400
    2V3OU    N1  886   3.739   3.957   3.504
    2V3OU   H19  887   3.804   3.925   3.574
    2V3OU   H20  888   3.646   3.941   3.537
    2V3OU   C21  889   3.850   3.948   3.288
    2V3OU   H11  890   3.950   3.923   3.334
    2V3OU    O5  891   3.828   4.088   3.290
    2V3OU   H18  892   3.781   4.101   3.374
    2V3OU   C22  893   3.910   3.954   3.041
    2V3OU   H12  894   3.865   4.056   3.030
    2V3OU   H13  895   3.900   3.899   2.944
    2V3OU   H14  896   4.020   3.958   3.059
    2V3OU   C11  897   3.162   3.471   3.101
    2V3OU    O1  898   3.138   3.590   3.068
    2V3OU    C9  899   3.299   3.430   3.141
    2V3OU    C7  900   3.404   3.508   3.093
    2V3OU    O9  901   3.388   3.612   3.004
    2V3OU   H25  902   3.294   3.636   3.005
    2V3OU   C17  903   2.826   3.316   3.109
    2V3OU    H7  904   2.731   3.351   3.067
    2V3OU   C18  905   2.852   3.214   3.199
    2V3OU    H8  906   2.780   3.168   3.268
    3SOL     OW  907   2.642   5.269   6.539
    3SOL    HW1  908   2.698   5.253   6.621
    3SOL    HW2  909   2.681   5.343   6.485
    4SOL     OW  910   6.903   0.553   1.175
    4SOL    HW1  911   6.908   0.607   1.091
    4SOL    HW2  912   6.807   0.544   1.202
    5SOL     OW  913   4.461   2.391   2.296
    5SOL    HW1  914   4.433   2.412   2.203
    5SOL    HW2  915   4.497   2.473   2.340
    6SOL     OW  916   4.335   1.436   1.652
    6SOL    HW1  917   4.299   1.527   1.633
    6SOL    HW2  918   4.391   1.405   1.575
    7SOL     OW  919   0.614   4.013   3.771
    7SOL    HW1  920   0.617   4.057   3.682
    7SOL    HW2  921   0.682   4.054   3.832
    8SOL     OW  922   2.987   1.791   5.722
    8SOL    HW1  923   2.986   1.721   5.651
    8SOL    HW2  924   3.059   1.857   5.702
    9SOL     OW  925   4.856   1.432   5.811
    9SOL    HW1  926   4.893   1.511   5.762
    9SOL    HW2  927   4.832   1.459   5.905
   10SOL     OW  928   2.360   5.513   5.010
   10SOL    HW1  929   2.311   5.429   5.031
   10SOL    HW2  930   2.419   5.498   4.930
   11SOL     OW  931   2.478   0.845   5.659
   11SOL    HW1  932   2.436   0.925   5.701
   11SOL    HW2  933   2.519   0.871   5.572
   12SOL     OW  934   3.012   4.947   3.678
   12SOL    HW1  935   2.918   4.946   3.644
   12SOL    HW2  936   3.029   5.033   3.726
   13SOL     OW  937   3.163   6.538   4.245
   13SOL    HW1  938   3.157   6.444   4.211
   13SOL    HW2  939   3.207   6.537   4.335
   14SOL     OW  940   3.895   5.234   6.029
   14SOL    HW1  941   3.799   5.258   6.043
   14SOL    HW2  942   3.938   5.211   6.116
   15SOL     OW  943   0.818   6.669   1.097
   15SOL    HW1  944   0.811   6.765   1.120
   15SOL    HW2  945   0.911   6.649   1.065
   16SOL     OW  946   5.479   2.986   6.246
   16SOL    HW1  947   5.483   2.984   6.346
   16SOL    HW2  948   5.399   3.038   6.216
   17SOL     OW  949   5.878   5.782   6.653
   17SOL    HW1  950   5.858   5.876   6.681
   17SOL    HW2  951   5.944   5.784   6.578
   18SOL     OW  952   2.842   1.132   5.449
   18SOL    HW1  953   2.913   1.061   5.444
   18SOL    HW2  954   2.878   1.211   5.498
   19SOL     OW  955   0.491   2.248   3.033
   19SOL    HW1  956   0.586   2.217   3.033
   19SOL    HW2  957   0.481   2.324   2.968
   20SOL     OW  958   4.784   1.431   4.562
   20SOL    HW1  959   4.714   1.427   4.490
   20SOL    HW2  960   4.861   1.487   4.530
   21SOL     OW  961   2.704   1.528   2.243
   21SOL    HW1  962   2.735   1.548   2.336
   21SOL    HW2  963   2.650   1.605   2.208
   22SOL     OW  964   1.190   6.434   6.918
   22SOL    HW1  965   1.185   6.489   6.835
   22SOL    HW2  966   1.185   6.494   6.998
   23SOL     OW  967   4.785   5.570   2.596
   23SOL    HW1  968   4.822   5.479   2.578
   23SOL    HW2  969   4.796   5.593   2.692
   24SOL     OW  970   3.354   0.318   2.579
   24SOL    HW1  971   3.267   0.344   2.538
   24SOL    HW2  972   3.351   0.222   2.607
   25SOL     OW  973   3.405   0.259   3.502
   25SOL    HW1  974   3.466   0.272   3.425
   25SOL    HW2  975   3.368   0.166   3.500
   26SOL     OW  976   6.569   1.416   0.528
   26SOL    HW1  977   6.558   1.370   0.616
   26SOL    HW2  978   6.562   1.515   0.541
   27SOL     OW  979   1.837   1.340   2.490
   27SOL    HW1  980   1.907   1.392   2.443
   27SOL    HW2  981   1.755   1.334   2.433
   28SOL     OW  982   1.867   6.985   4.961
   28SOL    HW1  983   1.936   6.951   5.024
   28SOL    HW2  984   1.902   6.982   4.867
   29SOL     OW  985   6.017   1.923   1.599
   29SOL    HW1  986   6.091   1.881   1.546
   29SOL    HW2  987   5.983   1.858   1.667
   30SOL     OW  988   4.338   0.381   3.573
   30SOL    HW1  989   4.330   0.376   3.673
   30SOL    HW2  990   4.425   0.339   3.545
   31SOL     OW  991   0.493   2.555   6.655
   31SOL    HW1  992   0.395   2.575   6.651
   31SOL    HW2  993   0.508   2.457   6.640
   32SOL     OW  994   0.692   1.944   2.972
   32SOL    HW1  995   0.770   1.889   2.943
   32SOL    HW2  996   0.643   1.896   3.045
   33SOL     OW  997   1.472   4.567   5.181
   33SOL    HW1  998   1.444   4.473   5.201
   33SOL    HW2  999   1.415   4.605   5.108
   34SOL     OW 1000   2.594   6.645   4.853
   34SOL    HW1 1001   2.649   6.697   4.918
   34SOL    HW2 1002   2.578   6.553   4.889
   35SOL     OW 1003   4.924   2.763   5.909
   35SOL    HW1 1004   4.852   2.764   5.840
   35SOL    HW2 1005   4.894   2.708   5.987
   36SOL     OW 1006   5.054   1.882   4.237
   36SOL    HW1 1007   5.028   1.792   4.272
   36SOL    HW2 1008   5.130   1.873   4.173
   37SOL     OW 1009   1.826   1.679   5.926
   37SOL    HW1 1010   1.737   1.725   5.926
   37SOL    HW2 1011   1.835   1.625   5.842
   38SOL     OW 1012   0.959   5.245   2.150
   38SOL    HW1 1013   0.962   5.155   2.105
   38SOL    HW2 1014   1.019   5.244   2.230
   39SOL     OW 1015   6.586   4.114   6.404
   39SOL    HW1 1016   6.511   4.134   6.466
   39SOL    HW2 1017   6.620   4.021   6.422
   40SOL     OW 1018   4.509   1.667   0.585
   40SOL    HW1 1019   4.578   1.739   0.583
   40SOL    HW2 1020   4.548   1.582   0.550
   41SOL     OW 1021   6.257   3.452   3.908
   41SOL    HW1 1022   6.347   3.463   3.867
   41SOL    HW2 1023   6.188   3.493   3.849
   42SOL     OW 1024   3.552   5.557   4.168
   42SOL    HW1 1025   3.585   5.463   4.159
   42SOL    HW2 1026   3.551   5.583   4.265
   43SOL     OW 1027   4.531   6.954   5.263
   43SOL    HW1 1028   4.598   6.893   5.304
   43SOL    HW2 1029   4.469   6.989   5.334
   44SOL     OW 1030   4.707   2.061   5.621
   44SOL    HW1 1031   4.738   2.043   5.714
   44SOL    HW2 1032   4.632   2.000   5.597
   45SOL     OW 1033   4.578   4.635   1.524
   45SOL    HW1 1034   4.620   4.581   1.451
   45SOL    HW2 1035   4.650   4.683   1.575
   46SOL     OW 1036   0.266   3.015   3.757
   46SOL    HW1 1037   0.273   2.937   3.819
   46SOL    HW2 1038   0.279   3.099   3.808
   47SOL     OW 1039   4.187   3.741   0.772
   47SOL    HW1 1040   4.095   3.764   0.742
   47SOL    HW2 1041   4.201   3.643   0.764
   48SOL     OW 1042   6.292   2.734   5.795
   48SOL    HW1 1043   6.368   2.798   5.796
   48SOL    HW2 1044   6.291   2.682   5.880
   49SOL     OW 1045   6.008   2.996   2.259
   49SOL    HW1 1046   6.019   2.972   2.356
   49SOL    HW2 1047   5.971   2.918   2.209
   50SOL     OW 1048   5.867   0.930   5.037
   50SOL    HW1 1049   5.921   1.014   5.039
   50SOL    HW2 1050   5.774   0.949   5.066
   51SOL     OW 1051   2.414   6.554   3.033
   51SOL    HW1 1052   2.322   6.581   3.003
   51SOL    HW2 1053   2.478   6.563   2.956
   52SOL     OW 1054   5.458   3.131   1.740
   52SOL    HW1 1055   5.471   3.226   1.768
   52SOL    HW2 1056   5.546   3.089   1.722
   53SOL     OW 1057   5.203   1.346   3.476
   53SOL    HW1 1058   5.205   1.362   3.575
   53SOL    HW2 1059   5.136   1.274   3.456
   54SOL     OW 1060   5.484   6.022   1.008
   54SOL    HW1 1061   5.531   5.935   0.990
   54SOL    HW2 1062   5.441   6.054   0.924
   55SOL     OW 1063   2.421   2.583   5.260
   55SOL    HW1 1064   2.369   2.612   5.340
   55SOL    HW2 1065   2.363   2.589   5.179
   56SOL     OW 1066   0.488   0.609   1.193
   56SOL    HW1 1067   0.539   0.689   1.225
   56SOL    HW2 1068   0.391   0.619   1.214
   57SOL     OW 1069   4.219   0.850   1.467
   57SOL    HW1 1070   4.195   0.936   1.512
   57SOL    HW2 1071   4.214   0.861   1.368
   58SOL     OW 1072   0.657   6.977   5.338
   58SOL    HW1 1073   0.577   6.943   5.387
   58SOL    HW2 1074   0.670   0.052   5.357
   59SOL     OW 1075   0.005   2.809   6.629
   59SOL    HW1 1076   0.040   2.900   6.653
   59SOL    HW2 1077   6.973   2.815   6.545
   60SOL     OW 1078   5.159   2.740   4.735
   60SOL    HW1 1079   5.157   2.824   4.682
   60SOL    HW2 1080   5.242   2.689   4.715
   61SOL     OW 1081   6.529   1.660   4.279
   61SOL    HW1 1082   6.455   1.616   4.328
   61SOL    HW2 1083   6.607   1.597   4.270
   62SOL     OW 1084   2.180   0.926   1.770
   62SOL    HW1 1085   2.082   0.933   1.787
   62SOL    HW2 1086   2.195   0.876   1.684
   63SOL     OW 1087   4.143   0.508   4.343
   63SOL    HW1 1088   4.190   0.471   4.263
   63SOL    HW2 1089   4.067   0.448   4.368
   64SOL     OW 1090   6.603   2.910   6.127
   64SOL    HW1 1091   6.637   3.004   6.124
   64SOL    HW2 1092   6.551   2.896   6.212
   65SOL     OW 1093   0.317   4.621   6.655
   65SOL    HW1 1094   0.219   4.625   6.672
   65SOL    HW2 1095   0.361   4.568   6.728
   66SOL     OW 1096   3.157   0.612   3.739
   66SOL    HW1 1097   3.228   0.579   3.678
   66SOL    HW2 1098   3.072   0.627   3.688
   67SOL     OW 1099   6.484   2.925   5.859
   67SOL    HW1 1100   6.563   2.917   5.798
   67SOL    HW2 1101   6.510   2.896   5.952
   68SOL     OW 1102   0.418   1.482   6.878
   68SOL    HW1 1103   0.472   1.410   6.921
   68SOL    HW2 1104   0.321   1.462   6.889
   69SOL     OW 1105   1.349   2.809   5.387
   69SOL    HW1 1106   1.430   2.757   5.417
   69SOL    HW2 1107   1.379   2.891   5.339
   70SOL     OW 1108   5.217   4.863   4.062
   70SOL    HW1 1109   5.200   4.881   3.965
   70SOL    HW2 1110   5.220   4.764   4.077
   71SOL     OW 1111   4.177   2.281   3.870
   71SOL    HW1 1112   4.201   2.310   3.777
   71SOL    HW2 1113   4.246   2.315   3.934
   72SOL     OW 1114   1.070   1.570   3.433
   72SOL    HW1 1115   1.070   1.663   3.470
   72SOL    HW2 1116   1.118   1.510   3.496
   73SOL     OW 1117   3.396   6.964   0.685
   73SOL    HW1 1118   3.300   6.974   0.662
   73SOL    HW2 1119   3.435   6.887   0.635
   74SOL     OW 1120   4.217   0.421   0.156
   74SOL    HW1 1121   4.151   0.395   0.227
   74SOL    HW2 1122   4.280   0.489   0.193
   75SOL     OW 1123   4.121   0.405   1.427
   75SOL    HW1 1124   4.197   0.371   1.482
   75SOL    HW2 1125   4.129   0.371   1.334
   76SOL     OW 1126   3.005   3.708   0.176
   76SOL    HW1 1127   3.078   3.716   0.245
   76SOL    HW2 1128   3.012   3.618   0.132
   77SOL     OW 1129   1.070   0.220   3.555
   77SOL    HW1 1130   1.099   0.138   3.506
   77SOL    HW2 1131   0.984   0.202   3.603
   78SOL     OW 1132   5.002   1.660   0.736
   78SOL    HW1 1133   4.978   1.606   0.817
   78SOL    HW2 1134   5.098   1.648   0.714
   79SOL     OW 1135   2.948   5.757   1.265
   79SOL    HW1 1136   2.902   5.719   1.345
   79SOL    HW2 1137   2.983   5.848   1.286
   80SOL     OW 1138   4.588   0.911   4.154
   80SOL    HW1 1139   4.523   0.836   4.145
   80SOL    HW2 1140   4.543   0.989   4.197
   81SOL     OW 1141   1.814   0.337   2.309
   81SOL    HW1 1142   1.743   0.371   2.247
   81SOL    HW2 1143   1.797   0.240   2.328
   82SOL     OW 1144   5.520   5.187   0.913
   82SOL    HW1 1145   5.539   5.089   0.926
   82SOL    HW2 1146   5.499   5.228   1.001
   83SOL     OW 1147   0.301   0.692   6.893
   83SOL    HW1 1148   0.201   0.687   6.898
   83SOL    HW2 1149   0.340   0.661   6.980
   84SOL     OW 1150   6.262   3.416   2.953
   84SOL    HW1 1151   6.228   3.475   3.027
   84SOL    HW2 1152   6.203   3.336   2.945
   85SOL     OW 1153   1.674   1.602   2.541
   85SOL    HW1 1154   1.612   1.556   2.604
   85SOL    HW2 1155   1.749   1.541   2.516
   86SOL     OW 1156   6.862   1.458   6.734
   86SOL    HW1 1157   6.834   1.511   6.814
   86SOL    HW2 1158   6.960   1.473   6.719
   87SOL     OW 1159   4.668   4.446   1.172
   87SOL    HW1 1160   4.735   4.371   1.173
   87SOL    HW2 1161   4.681   4.501   1.090
   88SOL     OW 1162   2.997   2.287   6.034
   88SOL    HW1 1163   2.929   2.316   5.966
   88SOL    HW2 1164   3.039   2.368   6.075
   89SOL     OW 1165   2.792   3.111   0.110
   89SOL    HW1 1166   2.812   3.114   0.012
   89SOL    HW2 1167   2.730   3.035   0.130
   90SOL     OW 1168   3.974   5.392   2.108
   90SOL    HW1 1169   3.992   5.435   2.197
   90SOL    HW2 1170   3.917   5.311   2.122
   91SOL     OW 1171   6.858   4.276   6.181
   91SOL    HW1 1172   6.783   4.215   6.154
   91SOL    HW2 1173   6.821   4.349   6.239
   92SOL     OW 1174   4.347   4.118   1.336
   92SOL    HW1 1175   4.288   4.178   1.390
   92SOL    HW2 1176   4.438   4.160   1.327
   93SOL     OW 1177   3.558   3.641   0.129
   93SOL    HW1 1178   3.492   3.568   0.110
   93SOL    HW2 1179   3.621   3.650   0.052
   94SOL     OW 1180   2.792   5.788   6.525
   94SOL    HW1 1181   2.727   5.862   6.542
   94SOL    HW2 1182   2.785   5.720   6.598
   95SOL     OW 1183   1.883   1.130   2.865
   95SOL    HW1 1184   1.860   1.087   2.953
   95SOL    HW2 1185   1.929   1.062   2.807
   96SOL     OW 1186   4.050   5.915   5.343
   96SOL    HW1 1187   3.991   5.862   5.282
   96SOL    HW2 1188   4.043   5.880   5.436
   97SOL     OW 1189   2.625   3.748   6.174
   97SOL    HW1 1190   2.588   3.718   6.086
   97SOL    HW2 1191   2.589   3.839   6.197
   98SOL     OW 1192   1.161   2.178   0.209
   98SOL    HW1 1193   1.226   2.204   0.281
   98SOL    HW2 1194   1.165   2.079   0.196
   99SOL     OW 1195   4.499   3.262   1.317
   99SOL    HW1 1196   4.471   3.357   1.330
   99SOL    HW2 1197   4.585   3.260   1.265
  100SOL     OW 1198   0.640   6.818   4.105
  100SOL    HW1 1199   0.699   6.743   4.136
  100SOL    HW2 1200   0.651   6.830   4.006
  101SOL     OW 1201   0.746   4.617   2.299
  101SOL    HW1 1202   0.751   4.534   2.355
  101SOL    HW2 1203   0.822   4.678   2.321
  102SOL     OW 1204   3.647   5.555   2.086
  102SOL    HW1 1205   3.554   5.520   2.099
  102SOL    HW2 1206   3.696   5.496   2.021
  103SOL     OW 1207   2.258   2.445   2.107
  103SOL    HW1 1208   2.319   2.368   2.125
  103SOL    HW2 1209   2.304   2.531   2.130
  104SOL     OW 1210   0.911   6.360   2.671
  104SOL    HW1 1211   0.962   6.443   2.646
  104SOL    HW2 1212   0.946   6.282   2.619
  105SOL     OW 1213   5.773   1.083   6.357
  105SOL    HW1 1214   5.818   0.996   6.376
  105SOL    HW2 1215   5.832   1.140   6.300
  106SOL     OW 1216   3.517   6.422   3.556
  106SOL    HW1 1217   3.603   6.421   3.505
  106SOL    HW2 1218   3.516   6.346   3.621
  107SOL     OW 1219   0.459   0.926   0.007
  107SOL    HW1 1220   0.456   0.937   0.106
  107SOL    HW2 1221   0.392   0.857   7.001
  108SOL     OW 1222   3.849   6.685   6.539
  108SOL    HW1 1223   3.933   6.724   6.578
  108SOL    HW2 1224   3.847   6.587   6.555
  109SOL     OW 1225   2.887   1.951   2.763
  109SOL    HW1 1226   2.926   2.036   2.727
  109SOL    HW2 1227   2.928   1.873   2.717
  110SOL     OW 1228   3.218   5.231   4.552
  110SOL    HW1 1229   3.249   5.139   4.575
  110SOL    HW2 1230   3.125   5.244   4.586
  111SOL     OW 1231   2.263   1.765   4.273
  111SOL    HW1 1232   2.195   1.765   4.200
  111SOL    HW2 1233   2.351   1.732   4.238
  112SOL     OW 1234   3.648   6.094   0.275
  112SOL    HW1 1235   3.599   6.016   0.237
  112SOL    HW2 1236   3.735   6.105   0.226
  113SOL     OW 1237   0.545   6.607   3.105
  113SOL    HW1 1238   0.607   6.566   3.038
  113SOL    HW2 1239   0.548   6.554   3.189
  114SOL     OW 1240   0.841   6.097   1.632
  114SOL    HW1 1241   0.861   6.126   1.538
  114SOL    HW2 1242   0.763   6.035   1.632
  115SOL     OW 1243   5.286   0.493   2.775
  115SOL    HW1 1244   5.219   0.501   2.702
  115SOL    HW2 1245   5.365   0.440   2.743
  116SOL     OW 1246   6.651   6.254   1.381
  116SOL    HW1 1247   6.622   6.299   1.465
  116SOL    HW2 1248   6.661   6.322   1.308
  117SOL     OW 1249   0.198   1.244   0.641
  117SOL    HW1 1250   0.172   1.300   0.720
  117SOL    HW2 1251   0.119   1.232   0.581
  118SOL     OW 1252   1.384   1.316   2.140
  118SOL    HW1 1253   1.362   1.401   2.189
  118SOL    HW2 1254   1.318   1.245   2.167
  119SOL     OW 1255   0.776   0.228   0.198
  119SOL    HW1 1256   0.770   0.262   0.104
  119SOL    HW2 1257   0.685   0.231   0.240
  120SOL     OW 1258   5.343   0.906   5.195
  120SOL    HW1 1259   5.244   0.921   5.191
  120SOL    HW2 1260   5.367   0.865   5.283
  121SOL     OW 1261   0.993   3.269   0.484
  121SOL    HW1 1262   0.982   3.186   0.538
  121SOL    HW2 1263   1.011   3.245   0.388
  122SOL     OW 1264   1.818   3.677   0.490
  122SOL    HW1 1265   1.764   3.598   0.462
  122SOL    HW2 1266   1.831   3.676   0.589
  123SOL     OW 1267   1.195   1.990   2.489
  123SOL    HW1 1268   1.102   2.026   2.481
  123SOL    HW2 1269   1.260   2.057   2.454
  124SOL     OW 1270   3.343   2.831   1.173
  124SOL    HW1 1271   3.304   2.743   1.199
  124SOL    HW2 1272   3.362   2.831   1.075
  125SOL     OW 1273   4.208   2.512   0.672
  125SOL    HW1 1274   4.294   2.562   0.668
  125SOL    HW2 1275   4.226   2.416   0.694
  126SOL     OW 1276   3.562   3.323   2.315
  126SOL    HW1 1277   3.601   3.257   2.250
  126SOL    HW2 1278   3.466   3.301   2.331
  127SOL     OW 1279   0.268   5.123   6.458
  127SOL    HW1 1280   0.339   5.054   6.477
  127SOL    HW2 1281   0.254   5.129   6.359
  128SOL     OW 1282   4.961   3.285   1.275
  128SOL    HW1 1283   4.973   3.362   1.338
  128SOL    HW2 1284   4.867   3.284   1.241
  129SOL     OW 1285   3.009   3.474   0.007
  129SOL    HW1 1286   3.081   3.436   0.065
  129SOL    HW2 1287   3.049   3.511   6.945
  130SOL     OW 1288   0.248   0.482   4.558
  130SOL    HW1 1289   0.181   0.409   4.555
  130SOL    HW2 1290   0.325   0.455   4.616
  131SOL     OW 1291   5.058   0.641   3.769
  131SOL    HW1 1292   5.107   0.699   3.704
  131SOL    HW2 1293   5.068   0.677   3.861
  132SOL     OW 1294   3.068   2.586   1.730
  132SOL    HW1 1295   3.143   2.535   1.688
  132SOL    HW2 1296   3.020   2.527   1.795
  133SOL     OW 1297   5.275   0.374   4.184
  133SOL    HW1 1298   5.360   0.408   4.224
  133SOL    HW2 1299   5.295   0.298   4.122
  134SOL     OW 1300   0.525   0.668   2.316
  134SOL    HW1 1301   0.427   0.654   2.332
  134SOL    HW2 1302   0.569   0.700   2.400
  135SOL     OW 1303   5.596   3.592   4.507
  135SOL    HW1 1304   5.686   3.623   4.538
  135SOL    HW2 1305   5.578   3.501   4.546
  136SOL     OW 1306   1.562   4.976   5.183
  136SOL    HW1 1307   1.511   4.905   5.233
  136SOL    HW2 1308   1.605   5.038   5.248
  137SOL     OW 1309   4.523   1.475   3.804
  137SOL    HW1 1310   4.561   1.555   3.759
  137SOL    HW2 1311   4.502   1.405   3.736
  138SOL     OW 1312   1.428   3.563   3.011
  138SOL    HW1 1313   1.499   3.514   2.961
  138SOL    HW2 1314   1.448   3.661   3.012
  139SOL     OW 1315   2.116   6.198   5.238
  139SOL    HW1 1316   2.159   6.260   5.303
  139SOL    HW2 1317   2.017   6.217   5.234
  140SOL     OW 1318   1.613   6.260   3.479
  140SOL    HW1 1319   1.650   6.267   3.572
  140SOL    HW2 1320   1.652   6.332   3.422
  141SOL     OW 1321   0.347   2.658   5.075
  141SOL    HW1 1322   0.270   2.595   5.067
  141SOL    HW2 1323   0.326   2.728   5.143
  142SOL     OW 1324   2.069   3.551   2.262
  142SOL    HW1 1325   2.105   3.546   2.169
  142SOL    HW2 1326   2.072   3.460   2.304
  143SOL     OW 1327   5.100   5.048   0.679
  143SOL    HW1 1328   5.200   5.055   0.679
  143SOL    HW2 1329   5.071   4.984   0.608
  144SOL     OW 1330   2.083   4.929   5.786
  144SOL    HW1 1331   2.074   4.829   5.795
  144SOL    HW2 1332   2.163   4.960   5.838
  145SOL     OW 1333   2.569   5.292   1.191
  145SOL    HW1 1334   2.501   5.320   1.124
  145SOL    HW2 1335   2.543   5.204   1.230
  146SOL     OW 1336   5.284   0.291   6.361
  146SOL    HW1 1337   5.381   0.291   6.337
  146SOL    HW2 1338   5.235   0.349   6.296
  147SOL     OW 1339   5.328   1.321   5.734
  147SOL    HW1 1340   5.327   1.292   5.638
  147SOL    HW2 1341   5.419   1.305   5.772
  148SOL     OW 1342   7.022   5.341   1.243
  148SOL    HW1 1343   7.020   5.243   1.263
  148SOL    HW2 1344   0.095   5.373   1.243
  149SOL     OW 1345   3.644   1.975   5.089
  149SOL    HW1 1346   3.716   2.013   5.148
  149SOL    HW2 1347   3.663   1.997   4.994
  150SOL     OW 1348   5.575   0.143   6.636
  150SOL    HW1 1349   5.624   0.184   6.558
  150SOL    HW2 1350   5.630   0.155   6.719
  151SOL     OW 1351   3.372   0.807   1.511
  151SOL    HW1 1352   3.414   0.887   1.555
  151SOL    HW2 1353   3.439   0.733   1.505
  152SOL     OW 1354   0.078   1.712   0.666
  152SOL    HW1 1355   0.133   1.764   0.601
  152SOL    HW2 1356   0.124   1.712   0.755
  153SOL     OW 1357   2.502   6.958   3.020
  153SOL    HW1 1358   2.517   6.908   2.935
  153SOL    HW2 1359   2.558   0.019   3.019
  154SOL     OW 1360   0.465   3.249   0.660
  154SOL    HW1 1361   0.530   3.179   0.689
  154SOL    HW2 1362   0.428   3.296   0.741
  155SOL     OW 1363   0.879   1.222   3.783
  155SOL    HW1 1364   0.931   1.139   3.804
  155SOL    HW2 1365   0.942   1.294   3.754
  156SOL     OW 1366   6.670   0.489   6.953
  156SOL    HW1 1367   6.693   0.428   0.006
  156SOL    HW2 1368   6.701   0.449   6.867
  157SOL     OW 1369   5.608   3.888   0.281
  157SOL    HW1 1370   5.650   3.969   0.239
  157SOL    HW2 1371   5.572   3.828   0.210
  158SOL     OW 1372   1.935   2.866   1.682
  158SOL    HW1 1373   1.905   2.882   1.588
  158SOL    HW2 1374   1.856   2.846   1.740
  159SOL     OW 1375   4.162   5.005   1.619
  159SOL    HW1 1376   4.118   4.999   1.530
  159SOL    HW2 1377   4.231   5.077   1.616
  160SOL     OW 1378   5.951   0.004   0.508
  160SOL    HW1 1379   5.932   6.928   0.503
  160SOL    HW2 1380   5.869   0.056   0.482
  161SOL     OW 1381   1.394   0.698   2.897
  161SOL    HW1 1382   1.439   0.611   2.915
  161SOL    HW2 1383   1.379   0.747   2.983
  162SOL     OW 1384   3.803   6.392   6.569
  162SOL    HW1 1385   3.746   6.371   6.490
  162SOL    HW2 1386   3.771   6.339   6.648
  163SOL     OW 1387   7.003   6.083   2.381
  163SOL    HW1 1388   6.939   6.010   2.356
  163SOL    HW2 1389   6.997   6.157   2.314
  164SOL     OW 1390   0.897   3.542   2.944
  164SOL    HW1 1391   0.846   3.462   2.913
  164SOL    HW2 1392   0.905   3.540   3.043
  165SOL     OW 1393   4.858   4.720   6.462
  165SOL    HW1 1394   4.806   4.715   6.377
  165SOL    HW2 1395   4.933   4.654   6.459
  166SOL     OW 1396   0.119   3.307   2.167
  166SOL    HW1 1397   0.085   3.317   2.261
  166SOL    HW2 1398   0.204   3.359   2.158
  167SOL     OW 1399   6.139   1.754   6.798
  167SOL    HW1 1400   6.199   1.733   6.721
  167SOL    HW2 1401   6.125   1.852   6.804
  168SOL     OW 1402   4.051   1.678   0.656
  168SOL    HW1 1403   4.086   1.661   0.749
  168SOL    HW2 1404   4.125   1.712   0.599
  169SOL     OW 1405   6.083   2.823   0.436
  169SOL    HW1 1406   6.018   2.778   0.498
  169SOL    HW2 1407   6.176   2.804   0.466
  170SOL     OW 1408   6.513   6.033   2.450
  170SOL    HW1 1409   6.567   5.993   2.523
  170SOL    HW2 1410   6.520   5.976   2.368
  171SOL     OW 1411   2.365   4.715   0.248
  171SOL    HW1 1412   2.319   4.804   0.245
  171SOL    HW2 1413   2.325   4.660   0.322
  172SOL     OW 1414   6.322   1.966   3.392
  172SOL    HW1 1415   6.403   2.024   3.402
  172SOL    HW2 1416   6.240   2.023   3.395
  173SOL     OW 1417   5.288   1.009   4.393
  173SOL    HW1 1418   5.336   0.973   4.313
  173SOL    HW2 1419   5.350   1.066   4.447
  174SOL     OW 1420   4.897   5.420   3.880
  174SOL    HW1 1421   4.928   5.333   3.917
  174SOL    HW2 1422   4.868   5.479   3.955
  175SOL     OW 1423   3.814   0.797   1.111
  175SOL    HW1 1424   3.885   0.867   1.116
  175SOL    HW2 1425   3.852   0.714   1.068
  176SOL     OW 1426   5.965   4.995   1.917
  176SOL    HW1 1427   6.038   4.930   1.894
  176SOL    HW2 1428   5.998   5.057   1.988
  177SOL     OW 1429   5.336   3.367   4.816
  177SOL    HW1 1430   5.314   3.311   4.896
  177SOL    HW2 1431   5.314   3.317   4.733
  178SOL     OW 1432   2.960   4.379   5.883
  178SOL    HW1 1433   2.904   4.362   5.802
  178SOL    HW2 1434   2.973   4.478   5.893
  179SOL     OW 1435   3.671   0.648   6.688
  179SOL    HW1 1436   3.709   0.700   6.765
  179SOL    HW2 1437   3.576   0.623   6.710
  180SOL     OW 1438   2.246   0.866   1.088
  180SOL    HW1 1439   2.227   0.916   1.172
  180SOL    HW2 1440   2.343   0.874   1.066
  181SOL     OW 1441   2.766   3.668   5.666
  181SOL    HW1 1442   2.750   3.716   5.752
  181SOL    HW2 1443   2.844   3.606   5.677
  182SOL     OW 1444   4.094   1.818   6.163
  182SOL    HW1 1445   4.189   1.812   6.195
  182SOL    HW2 1446   4.034   1.834   6.241
  183SOL     OW 1447   3.417   2.028   3.859
  183SOL    HW1 1448   3.501   2.068   3.895
  183SOL    HW2 1449   3.388   2.078   3.777
  184SOL     OW 1450   0.174   6.855   3.497
  184SOL    HW1 1451   0.197   6.778   3.437
  184SOL    HW2 1452   0.085   6.892   3.470
  185SOL     OW 1453   1.573   1.771   4.766
  185SOL    HW1 1454   1.494   1.718   4.735
  185SOL    HW2 1455   1.654   1.713   4.766
  186SOL     OW 1456   6.722   1.450   4.241
  186SOL    HW1 1457   6.771   1.519   4.294
  186SOL    HW2 1458   6.770   1.434   4.154
  187SOL     OW 1459   5.110   6.936   2.482
  187SOL    HW1 1460   5.181   7.006   2.493
  187SOL    HW2 1461   5.048   6.940   2.561
  188SOL     OW 1462   0.904   3.435   3.620
  188SOL    HW1 1463   0.876   3.355   3.673
  188SOL    HW2 1464   0.859   3.434   3.531
  189SOL     OW 1465   1.277   5.550   0.176
  189SOL    HW1 1466   1.317   5.627   0.126
  189SOL    HW2 1467   1.327   5.467   0.154
  190SOL     OW 1468   6.317   4.142   6.130
  190SOL    HW1 1469   6.391   4.084   6.165
  190SOL    HW2 1470   6.357   4.218   6.079
  191SOL     OW 1471   6.206   1.418   6.955
  191SOL    HW1 1472   6.222   1.499   7.011
  191SOL    HW2 1473   6.198   1.445   6.859
  192SOL     OW 1474   0.092   5.141   1.619
  192SOL    HW1 1475   0.107   5.235   1.650
  192SOL    HW2 1476   0.123   5.077   1.690
  193SOL     OW 1477   5.021   3.595   5.220
  193SOL    HW1 1478   5.094   3.527   5.219
  193SOL    HW2 1479   4.952   3.573   5.151
  194SOL     OW 1480   3.950   6.667   3.529
  194SOL    HW1 1481   4.006   6.737   3.573
  194SOL    HW2 1482   3.864   6.656   3.579
  195SOL     OW 1483   1.628   0.978   4.493
  195SOL    HW1 1484   1.600   1.041   4.420
  195SOL    HW2 1485   1.723   0.950   4.479
  196SOL     OW 1486   2.682   6.898   6.626
  196SOL    HW1 1487   2.635   6.897   6.714
  196SOL    HW2 1488   2.774   6.936   6.638
  197SOL     OW 1489   2.359   0.541   1.230
  197SOL    HW1 1490   2.327   0.534   1.135
  197SOL    HW2 1491   2.441   0.485   1.241
  198SOL     OW 1492   4.451   6.851   2.307
  198SOL    HW1 1493   4.374   6.881   2.251
  198SOL    HW2 1494   4.458   6.910   2.388
  199SOL     OW 1495   6.964   1.124   3.809
  199SOL    HW1 1496   6.960   1.223   3.801
  199SOL    HW2 1497   0.008   1.099   3.881
  200SOL     OW 1498   1.001   4.011   1.938
  200SOL    HW1 1499   1.027   4.104   1.911
  200SOL    HW2 1500   0.907   3.993   1.909
  201SOL     OW 1501   5.602   6.777   6.346
  201SOL    HW1 1502   5.510   6.739   6.331
  201SOL    HW2 1503   5.612   6.801   6.442
  202SOL     OW 1504   5.041   0.212   5.454
  202SOL    HW1 1505   5.141   0.220   5.463
  202SOL    HW2 1506   4.997   0.266   5.526
  203SOL     OW 1507   5.132   2.185   4.833
  203SOL    HW1 1508   5.184   2.200   4.917
  203SOL    HW2 1509   5.035   2.201   4.849
  204SOL     OW 1510   6.523   0.621   6.266
  204SOL    HW1 1511   6.479   0.686   6.329
  204SOL    HW2 1512   6.558   0.544   6.318
  205SOL     OW 1513   0.612   0.794   2.548
  205SOL    HW1 1514   0.581   0.743   2.628
  205SOL    HW2 1515   0.701   0.834   2.567
  206SOL     OW 1516   0.567   4.965   2.341
  206SOL    HW1 1517   0.555   4.894   2.410
  206SOL    HW2 1518   0.477   5.000   2.314
  207SOL     OW 1519   5.032   0.378   3.743
  207SOL    HW1 1520   5.016   0.477   3.740
  207SOL    HW2 1521   5.072   0.354   3.831
  208SOL     OW 1522   5.461   3.729   5.326
  208SOL    HW1 1523   5.517   3.811   5.319
  208SOL    HW2 1524   5.365   3.755   5.328
  209SOL     OW 1525   1.300   5.216   4.069
  209SOL    HW1 1526   1.271   5.312   4.070
  209SOL    HW2 1527   1.357   5.198   4.149
  210SOL     OW 1528   4.389   2.195   1.819
  210SOL    HW1 1529   4.478   2.214   1.861
  210SOL    HW2 1530   4.384   2.241   1.731
  211SOL     OW 1531   1.357   6.164   3.451
  211SOL    HW1 1532   1.451   6.195   3.450
  211SOL    HW2 1533   1.303   6.218   3.386
  212SOL     OW 1534   1.800   4.787   1.858
  212SOL    HW1 1535   1.801   4.724   1.780
  212SOL    HW2 1536   1.886   4.837   1.861
  213SOL     OW 1537   3.499   0.464   5.857
  213SOL    HW1 1538   3.405   0.438   5.834
  213SOL    HW2 1539   3.531   0.533   5.792
  214SOL     OW 1540   4.003   5.581   1.888
  214SOL    HW1 1541   3.992   5.508   1.955
  214SOL    HW2 1542   4.100   5.600   1.874
  215SOL     OW 1543   2.466   3.885   1.649
  215SOL    HW1 1544   2.399   3.856   1.718
  215SOL    HW2 1545   2.555   3.846   1.671
  216SOL     OW 1546   1.545   5.947   4.830
  216SOL    HW1 1547   1.456   5.965   4.871
  216SOL    HW2 1548   1.533   5.904   4.741
  217SOL     OW 1549   2.385   2.743   3.603
  217SOL    HW1 1550   2.449   2.810   3.640
  217SOL    HW2 1551   2.348   2.777   3.516
  218SOL     OW 1552   0.936   2.972   4.462
  218SOL    HW1 1553   0.921   3.031   4.541
  218SOL    HW2 1554   0.959   3.027   4.382
  219SOL     OW 1555   3.650   6.242   5.906
  219SOL    HW1 1556   3.562   6.198   5.923
  219SOL    HW2 1557   3.720   6.172   5.890
  220SOL     OW 1558   3.413   6.500   7.003
  220SOL    HW1 1559   3.398   6.564   0.057
  220SOL    HW2 1560   3.506   6.509   6.970
  221SOL     OW 1561   6.500   4.140   2.764
  221SOL    HW1 1562   6.502   4.057   2.821
  221SOL    HW2 1563   6.456   4.119   2.677
  222SOL     OW 1564   2.443   4.879   5.634
  222SOL    HW1 1565   2.518   4.822   5.600
  222SOL    HW2 1566   2.427   4.954   5.570
  223SOL     OW 1567   5.469   3.427   0.859
  223SOL    HW1 1568   5.519   3.376   0.789
  223SOL    HW2 1569   5.422   3.504   0.816
  224SOL     OW 1570   2.772   1.880   4.092
  224SOL    HW1 1571   2.839   1.863   4.020
  224SOL    HW2 1572   2.769   1.978   4.112
  225SOL     OW 1573   5.646   1.952   5.359
  225SOL    HW1 1574   5.692   1.923   5.443
  225SOL    HW2 1575   5.565   2.005   5.383
  226SOL     OW 1576   1.674   0.379   6.199
  226SOL    HW1 1577   1.624   0.404   6.116
  226SOL    HW2 1578   1.666   0.452   6.266
  227SOL     OW 1579   1.678   3.975   2.243
  227SOL    HW1 1580   1.740   4.008   2.172
  227SOL    HW2 1581   1.684   3.876   2.249
  228SOL     OW 1582   3.157   6.264   4.172
  228SOL    HW1 1583   3.058   6.276   4.173
  228SOL    HW2 1584   3.179   6.178   4.125
  229SOL     OW 1585   5.217   6.404   0.237
  229SOL    HW1 1586   5.292   6.461   0.271
  229SOL    HW2 1587   5.194   6.335   0.305
  230SOL     OW 1588   2.706   4.654   2.820
  230SOL    HW1 1589   2.665   4.601   2.746
  230SOL    HW2 1590   2.638   4.669   2.891
  231SOL     OW 1591   6.448   1.996   6.802
  231SOL    HW1 1592   6.395   2.010   6.718
  231SOL    HW2 1593   6.486   1.904   6.802
  232SOL     OW 1594   1.319   3.918   6.083
  232SOL    HW1 1595   1.289   3.923   6.179
  232SOL    HW2 1596   1.351   4.008   6.054
  233SOL     OW 1597   2.449   1.409   4.438
  233SOL    HW1 1598   2.475   1.505   4.455
  233SOL    HW2 1599   2.464   1.387   4.342
  234SOL     OW 1600   3.563   6.026   5.700
  234SOL    HW1 1601   3.662   6.030   5.684
  234SOL    HW2 1602   3.514   6.035   5.613
  235SOL     OW 1603   3.139   3.025   2.036
  235SOL    HW1 1604   3.143   2.963   1.958
  235SOL    HW2 1605   3.180   3.113   2.012
  236SOL     OW 1606   5.818   2.858   6.151
  236SOL    HW1 1607   5.813   2.954   6.177
  236SOL    HW2 1608   5.739   2.834   6.095
  237SOL     OW 1609   6.267   5.992   1.443
  237SOL    HW1 1610   6.351   5.945   1.419
  237SOL    HW2 1611   6.275   6.089   1.421
  238SOL     OW 1612   6.058   2.013   0.399
  238SOL    HW1 1613   6.063   2.097   0.344
  238SOL    HW2 1614   6.145   2.000   0.446
  239SOL     OW 1615   0.370   5.630   6.608
  239SOL    HW1 1616   0.292   5.569   6.594
  239SOL    HW2 1617   0.372   5.699   6.536
  240SOL     OW 1618   0.119   2.480   5.813
  240SOL    HW1 1619   0.103   2.398   5.759
  240SOL    HW2 1620   0.033   2.512   5.853
  241SOL     OW 1621   1.789   6.595   4.389
  241SOL    HW1 1622   1.851   6.626   4.461
  241SOL    HW2 1623   1.781   6.666   4.319
  242SOL     OW 1624   2.684   3.044   6.248
  242SOL    HW1 1625   2.660   3.140   6.264
  242SOL    HW2 1626   2.636   3.011   6.166
  243SOL     OW 1627   5.150   0.422   6.144
  243SOL    HW1 1628   5.055   0.427   6.174
  243SOL    HW2 1629   5.159   0.352   6.072
  244SOL     OW 1630   5.009   2.669   4.940
  244SOL    HW1 1631   4.994   2.752   4.994
  244SOL    HW2 1632   5.072   2.688   4.865
  245SOL     OW 1633   0.008   2.544   5.510
  245SOL    HW1 1634   6.983   2.613   5.564
  245SOL    HW2 1635   6.999   2.548   5.415
  246SOL     OW 1636   4.869   2.707   2.388
  246SOL    HW1 1637   4.906   2.765   2.316
  246SOL    HW2 1638   4.826   2.764   2.458
  247SOL     OW 1639   2.809   1.182   1.967
  247SOL    HW1 1640   2.872   1.137   1.904
  247SOL    HW2 1641   2.741   1.116   2.000
  248SOL     OW 1642   4.719   2.022   4.753
  248SOL    HW1 1643   4.757   1.966   4.679
  248SOL    HW2 1644   4.631   1.984   4.781
  249SOL     OW 1645   5.136   6.950   5.650
  249SOL    HW1 1646   5.074   6.873   5.655
  249SOL    HW2 1647   5.084   0.013   5.644
  250SOL     OW 1648   4.932   1.690   6.591
  250SOL    HW1 1649   4.842   1.723   6.619
  250SOL    HW2 1650   4.945   1.597   6.625
  251SOL     OW 1651   4.348   4.775   6.739
  251SOL    HW1 1652   4.397   4.861   6.725
  251SOL    HW2 1653   4.268   4.772   6.679
  252SOL     OW 1654   6.506   0.394   6.469
  252SOL    HW1 1655   6.562   0.416   6.549
  252SOL    HW2 1656   6.415   0.364   6.500
  253SOL     OW 1657   1.732   4.322   6.965
  253SOL    HW1 1658   1.738   4.377   0.027
  253SOL    HW2 1659   1.809   4.259   6.961
  254SOL     OW 1660   5.523   3.313   3.497
  254SOL    HW1 1661   5.529   3.213   3.501
  254SOL    HW2 1662   5.573   3.346   3.416
  255SOL     OW 1663   1.582   3.265   4.271
  255SOL    HW1 1664   1.557   3.351   4.316
  255SOL    HW2 1665   1.526   3.191   4.307
  256SOL     OW 1666   6.369   4.151   6.582
  256SOL    HW1 1667   6.357   4.075   6.647
  256SOL    HW2 1668   6.280   4.184   6.552
  257SOL     OW 1669   4.209   6.331   4.362
  257SOL    HW1 1670   4.112   6.342   4.387
  257SOL    HW2 1671   4.241   6.243   4.397
  258SOL     OW 1672   5.735   4.952   4.931
  258SOL    HW1 1673   5.736   4.853   4.916
  258SOL    HW2 1674   5.696   4.972   5.021
  259SOL     OW 1675   1.873   2.951   2.361
  259SOL    HW1 1676   1.887   3.027   2.298
  259SOL    HW2 1677   1.952   2.943   2.421
  260SOL     OW 1678   4.545   0.892   1.245
  260SOL    HW1 1679   4.500   0.943   1.171
  260SOL    HW2 1680   4.508   0.922   1.333
  261SOL     OW 1681   6.254   3.811   1.379
  261SOL    HW1 1682   6.201   3.806   1.294
  261SOL    HW2 1683   6.206   3.868   1.445
  262SOL     OW 1684   0.592   3.616   1.329
  262SOL    HW1 1685   0.577   3.677   1.406
  262SOL    HW2 1686   0.691   3.604   1.314
  263SOL     OW 1687   0.478   1.693   3.793
  263SOL    HW1 1688   0.507   1.665   3.701
  263SOL    HW2 1689   0.453   1.612   3.846
  264SOL     OW 1690   5.201   3.759   5.344
  264SOL    HW1 1691   5.135   3.684   5.335
  264SOL    HW2 1692   5.168   3.824   5.412
  265SOL     OW 1693   4.257   4.732   3.165
  265SOL    HW1 1694   4.310   4.653   3.134
  265SOL    HW2 1695   4.200   4.765   3.090
  266SOL     OW 1696   3.644   3.522   5.755
  266SOL    HW1 1697   3.626   3.531   5.657
  266SOL    HW2 1698   3.572   3.468   5.798
  267SOL     OW 1699   6.029   2.668   5.721
  267SOL    HW1 1700   6.031   2.571   5.746
  267SOL    HW2 1701   6.123   2.701   5.709
  268SOL     OW 1702   4.710   6.215   5.314
  268SOL    HW1 1703   4.610   6.211   5.312
  268SOL    HW2 1704   4.746   6.205   5.221
  269SOL     OW 1705   2.025   3.013   0.912
  269SOL    HW1 1706   2.029   3.018   1.012
  269SOL    HW2 1707   1.956   2.946   0.885
  270SOL     OW 1708   6.492   0.167   1.876
  270SOL    HW1 1709   6.494   0.102   1.952
  270SOL    HW2 1710   6.417   0.231   1.888
  271SOL     OW 1711   2.794   2.690   0.980
  271SOL    HW1 1712   2.769   2.595   0.959
  271SOL    HW2 1713   2.728   2.752   0.939
  272SOL     OW 1714   3.538   5.280   4.141
  272SOL    HW1 1715   3.499   5.299   4.232
  272SOL    HW2 1716   3.506   5.191   4.109
  273SOL     OW 1717   2.064   5.036   5.096
  273SOL    HW1 1718   2.022   4.945   5.104
  273SOL    HW2 1719   2.058   5.067   5.001
  274SOL     OW 1720   4.657   2.158   3.749
  274SOL    HW1 1721   4.746   2.142   3.707
  274SOL    HW2 1722   4.603   2.219   3.690
  275SOL     OW 1723   6.451   6.036   6.641
  275SOL    HW1 1724   6.549   6.023   6.659
  275SOL    HW2 1725   6.423   6.126   6.674
  276SOL     OW 1726   0.115   5.414   3.281
  276SOL    HW1 1727   0.207   5.410   3.318
  276SOL    HW2 1728   0.118   5.442   3.185
  277SOL     OW 1729   2.712   2.404   0.512
  277SOL    HW1 1730   2.756   2.454   0.437
  277SOL    HW2 1731   2.693   2.310   0.482
  278SOL     OW 1732   6.732   3.827   1.893
  278SOL    HW1 1733   6.829   3.823   1.867
  278SOL    HW2 1734   6.686   3.744   1.860
  279SOL     OW 1735   6.587   2.567   4.579
  279SOL    HW1 1736   6.567   2.650   4.526
  279SOL    HW2 1737   6.658   2.587   4.647
  280SOL     OW 1738   3.517   6.684   2.727
  280SOL    HW1 1739   3.445   6.676   2.657
  280SOL    HW2 1740   3.519   6.601   2.782
  281SOL     OW 1741   2.907   5.027   2.222
  281SOL    HW1 1742   2.873   5.099   2.161
  281SOL    HW2 1743   2.973   4.970   2.173
  282SOL     OW 1744   4.166   2.229   5.317
  282SOL    HW1 1745   4.199   2.175   5.239
  282SOL    HW2 1746   4.069   2.252   5.303
  283SOL     OW 1747   6.570   1.293   5.647
  283SOL    HW1 1748   6.633   1.327   5.577
  283SOL    HW2 1749   6.612   1.214   5.694
  284SOL     OW 1750   0.574   4.328   5.145
  284SOL    HW1 1751   0.492   4.383   5.159
  284SOL    HW2 1752   0.655   4.386   5.154
  285SOL     OW 1753   5.505   5.513   6.761
  285SOL    HW1 1754   5.418   5.464   6.757
  285SOL    HW2 1755   5.580   5.451   6.736
  286SOL     OW 1756   3.635   4.871   5.168
  286SOL    HW1 1757   3.665   4.948   5.112
  286SOL    HW2 1758   3.539   4.851   5.147
  287SOL     OW 1759   0.546   5.072   6.681
  287SOL    HW1 1760   0.533   4.986   6.631
  287SOL    HW2 1761   0.552   5.148   6.617
  288SOL     OW 1762   4.061   1.446   0.492
  288SOL    HW1 1763   4.032   1.526   0.545
  288SOL    HW2 1764   3.998   1.433   0.415
  289SOL     OW 1765   0.421   5.354   4.796
  289SOL    HW1 1766   0.455   5.261   4.780
  289SOL    HW2 1767   0.461   5.390   4.880
  290SOL     OW 1768   5.119   2.264   3.602
  290SOL    HW1 1769   5.171   2.276   3.687
  290SOL    HW2 1770   5.141   2.338   3.539
  291SOL     OW 1771   3.810   0.893   4.274
  291SOL    HW1 1772   3.817   0.877   4.175
  291SOL    HW2 1773   3.856   0.818   4.323
  292SOL     OW 1774   4.132   1.681   3.086
  292SOL    HW1 1775   4.131   1.732   2.999
  292SOL    HW2 1776   4.084   1.734   3.156
  293SOL     OW 1777   3.913   5.768   2.194
  293SOL    HW1 1778   3.851   5.693   2.212
  293SOL    HW2 1779   3.926   5.778   2.095
  294SOL     OW 1780   7.016   5.356   6.735
  294SOL    HW1 1781   7.009   5.421   6.810
  294SOL    HW2 1782   6.931   5.303   6.728
  295SOL     OW 1783   3.086   1.570   4.759
  295SOL    HW1 1784   3.021   1.612   4.695
  295SOL    HW2 1785   3.162   1.632   4.774
  296SOL     OW 1786   6.512   2.147   2.225
  296SOL    HW1 1787   6.448   2.191   2.288
  296SOL    HW2 1788   6.467   2.135   2.136
  297SOL     OW 1789   2.857   4.892   2.684
  297SOL    HW1 1790   2.800   4.908   2.603
  297SOL    HW2 1791   2.831   4.805   2.725
  298SOL     OW 1792   3.993   0.047   0.213
  298SOL    HW1 1793   3.930   6.994   0.233
  298SOL    HW2 1794   4.072   0.041   0.274
  299SOL     OW 1795   5.219   1.892   6.818
  299SOL    HW1 1796   5.176   1.932   6.899
  299SOL    HW2 1797   5.179   1.933   6.735
  300SOL     OW 1798   4.620   0.749   2.185
  300SOL    HW1 1799   4.710   0.718   2.215
  300SOL    HW2 1800   4.587   0.822   2.245
  301SOL     OW 1801   5.074   2.149   0.388
  301SOL    HW1 1802   5.123   2.142   0.301
  301SOL    HW2 1803   5.044   2.243   0.403
  302SOL     OW 1804   6.625   0.843   3.235
  302SOL    HW1 1805   6.634   0.878   3.328
  302SOL    HW2 1806   6.674   0.756   3.226
  303SOL     OW 1807   5.781   6.661   2.461
  303SOL    HW1 1808   5.799   6.676   2.559
  303SOL    HW2 1809   5.742   6.744   2.422
  304SOL     OW 1810   1.844   6.327   5.867
  304SOL    HW1 1811   1.941   6.326   5.894
  304SOL    HW2 1812   1.788   6.298   5.944
  305SOL     OW 1813   1.609   2.562   0.299
  305SOL    HW1 1814   1.610   2.654   0.261
  305SOL    HW2 1815   1.638   2.497   0.229
  306SOL     OW 1816   1.180   0.974   3.303
  306SOL    HW1 1817   1.138   0.948   3.390
  306SOL    HW2 1818   1.132   0.930   3.228
  307SOL     OW 1819   4.770   4.591   0.725
  307SOL    HW1 1820   4.851   4.619   0.673
  307SOL    HW2 1821   4.734   4.506   0.688
  308SOL     OW 1822   6.337   3.861   4.719
  308SOL    HW1 1823   6.375   3.769   4.706
  308SOL    HW2 1824   6.359   3.918   4.639
  309SOL     OW 1825   1.860   5.972   0.475
  309SOL    HW1 1826   1.797   5.909   0.520
  309SOL    HW2 1827   1.945   5.976   0.527
  310SOL     OW 1828   4.961   5.890   5.706
  310SOL    HW1 1829   5.034   5.861   5.768
  310SOL    HW2 1830   4.884   5.925   5.760
  311SOL     OW 1831   3.379   4.881   2.963
  311SOL    HW1 1832   3.317   4.960   2.955
  311SOL    HW2 1833   3.416   4.859   2.873
  312SOL     OW 1834   4.580   1.278   3.995
  312SOL    HW1 1835   4.549   1.333   3.917
  312SOL    HW2 1836   4.507   1.215   4.023
  313SOL     OW 1837   3.178   3.304   1.989
  313SOL    HW1 1838   3.234   3.339   1.914
  313SOL    HW2 1839   3.211   3.341   2.075
  314SOL     OW 1840   3.042   4.741   0.116
  314SOL    HW1 1841   3.022   4.776   0.208
  314SOL    HW2 1842   2.957   4.729   0.065
  315SOL     OW 1843   1.149   3.234   3.904
  315SOL    HW1 1844   1.137   3.332   3.920
  315SOL    HW2 1845   1.144   3.185   3.991
  316SOL     OW 1846   3.174   1.051   5.026
  316SOL    HW1 1847   3.237   1.061   5.103
  316SOL    HW2 1848   3.210   1.098   4.946
  317SOL     OW 1849   0.677   1.868   1.438
  317SOL    HW1 1850   0.702   1.826   1.350
  317SOL    HW2 1851   0.624   1.951   1.422
  318SOL     OW 1852   0.192   5.855   0.240
  318SOL    HW1 1853   0.125   5.833   0.168
  318SOL    HW2 1854   0.234   5.943   0.220
  319SOL     OW 1855   6.338   1.333   3.888
  319SOL    HW1 1856   6.327   1.234   3.885
  319SOL    HW2 1857   6.435   1.355   3.901
  320SOL     OW 1858   5.740   2.491   6.866
  320SOL    HW1 1859   5.824   2.441   6.844
  320SOL    HW2 1860   5.762   2.582   6.899
  321SOL     OW 1861   3.327   1.520   6.157
  321SOL    HW1 1862   3.309   1.531   6.255
  321SOL    HW2 1863   3.404   1.580   6.132
  322SOL     OW 1864   3.268   3.682   3.397
  322SOL    HW1 1865   3.341   3.628   3.439
  322SOL    HW2 1866   3.266   3.772   3.441
  323SOL     OW 1867   1.506   3.129   6.150
  323SOL    HW1 1868   1.430   3.160   6.093
  323SOL    HW2 1869   1.585   3.107   6.092
  324SOL     OW 1870   3.065   0.776   3.053
  324SOL    HW1 1871   3.039   0.788   2.957
  324SOL    HW2 1872   2.986   0.741   3.104
  325SOL     OW 1873   0.312   2.702   2.427
  325SOL    HW1 1874   0.243   2.630   2.424
  325SOL    HW2 1875   0.276   2.780   2.478
  326SOL     OW 1876   1.610   5.220   6.476
  326SOL    HW1 1877   1.532   5.218   6.539
  326SOL    HW2 1878   1.677   5.286   6.508
  327SOL     OW 1879   1.673   4.489   2.209
  327SOL    HW1 1880   1.750   4.432   2.240
  327SOL    HW2 1881   1.587   4.443   2.232
  328SOL     OW 1882   1.163   5.904   1.782
  328SOL    HW1 1883   1.144   5.839   1.856
  328SOL    HW2 1884   1.146   5.860   1.694
  329SOL     OW 1885   2.994   3.187   4.460
  329SOL    HW1 1886   3.021   3.205   4.365
  329SOL    HW2 1887   3.057   3.121   4.501
  330SOL     OW 1888   3.259   6.255   1.327
  330SOL    HW1 1889   3.277   6.217   1.417
  330SOL    HW2 1890   3.215   6.185   1.269
  331SOL     OW 1891   3.956   5.824   0.714
  331SOL    HW1 1892   3.906   5.896   0.667
  331SOL    HW2 1893   3.906   5.738   0.706
  332SOL     OW 1894   4.984   1.852   5.588
  332SOL    HW1 1895   5.011   1.756   5.590
  332SOL    HW2 1896   4.914   1.865   5.518
  333SOL     OW 1897   4.281   0.398   6.050
  333SOL    HW1 1898   4.323   0.336   6.117
  333SOL    HW2 1899   4.346   0.470   6.027
  334SOL     OW 1900   3.509   1.165   0.396
  334SOL    HW1 1901   3.597   1.143   0.439
  334SOL    HW2 1902   3.438   1.108   0.437
  335SOL     OW 1903   4.493   6.673   5.856
  335SOL    HW1 1904   4.396   6.697   5.858
  335SOL    HW2 1905   4.514   6.613   5.934
  336SOL     OW 1906   2.714   1.006   3.471
  336SOL    HW1 1907   2.703   0.943   3.395
  336SOL    HW2 1908   2.682   1.097   3.444
  337SOL     OW 1909   0.065   2.698   6.271
  337SOL    HW1 1910   0.024   2.787   6.289
  337SOL    HW2 1911   0.158   2.711   6.235
  338SOL     OW 1912   3.065   2.495   1.442
  338SOL    HW1 1913   2.999   2.567   1.422
  338SOL    HW2 1914   3.025   2.429   1.506
  339SOL     OW 1915   4.721   5.834   4.718
  339SOL    HW1 1916   4.731   5.914   4.658
  339SOL    HW2 1917   4.629   5.798   4.709
  340SOL     OW 1918   4.795   4.056   4.998
  340SOL    HW1 1919   4.824   3.964   4.973
  340SOL    HW2 1920   4.790   4.113   4.916
  341SOL     OW 1921   6.297   6.770   4.423
  341SOL    HW1 1922   6.378   6.744   4.371
  341SOL    HW2 1923   6.227   6.806   4.361
  342SOL     OW 1924   5.528   3.772   0.521
  342SOL    HW1 1925   5.579   3.808   0.443
  342SOL    HW2 1926   5.486   3.848   0.571
  343SOL     OW 1927   1.512   6.176   1.667
  343SOL    HW1 1928   1.418   6.173   1.633
  343SOL    HW2 1929   1.575   6.162   1.592
  344SOL     OW 1930   1.192   3.114   1.958
  344SOL    HW1 1931   1.181   3.213   1.970
  344SOL    HW2 1932   1.199   3.070   2.048
  345SOL     OW 1933   4.715   2.170   4.020
  345SOL    HW1 1934   4.812   2.153   4.034
  345SOL    HW2 1935   4.689   2.139   3.928
  346SOL     OW 1936   1.987   1.148   3.331
  346SOL    HW1 1937   2.063   1.207   3.302
  346SOL    HW2 1938   1.963   1.087   3.256
  347SOL     OW 1939   2.444   5.398   6.710
  347SOL    HW1 1940   2.367   5.336   6.695
  347SOL    HW2 1941   2.526   5.361   6.667
  348SOL     OW 1942   4.703   4.175   2.331
  348SOL    HW1 1943   4.661   4.197   2.243
  348SOL    HW2 1944   4.721   4.077   2.336
  349SOL     OW 1945   6.806   5.453   1.134
  349SOL    HW1 1946   6.724   5.397   1.147
  349SOL    HW2 1947   6.885   5.404   1.172
  350SOL     OW 1948   3.069   2.999   1.223
  350SOL    HW1 1949   3.037   3.033   1.311
  350SOL    HW2 1950   3.169   2.994   1.224
  351SOL     OW 1951   2.449   3.977   0.949
  351SOL    HW1 1952   2.399   4.062   0.934
  351SOL    HW2 1953   2.414   3.931   1.031
  352SOL     OW 1954   3.217   6.807   4.166
  352SOL    HW1 1955   3.270   6.822   4.082
  352SOL    HW2 1956   3.202   6.709   4.179
  353SOL     OW 1957   2.896   0.234   0.270
  353SOL    HW1 1958   2.863   0.227   0.365
  353SOL    HW2 1959   2.831   0.186   0.210
  354SOL     OW 1960   3.962   2.812   0.645
  354SOL    HW1 1961   3.874   2.816   0.597
  354SOL    HW2 1962   4.032   2.857   0.589
  355SOL     OW 1963   1.323   3.552   2.636
  355SOL    HW1 1964   1.360   3.493   2.564
  355SOL    HW2 1965   1.389   3.558   2.711
  356SOL     OW 1966   2.217   6.928   5.862
  356SOL    HW1 1967   2.316   6.921   5.867
  356SOL    HW2 1968   2.182   6.860   5.797
  357SOL     OW 1969   6.949   5.738   5.362
  357SOL    HW1 1970   6.948   5.825   5.313
  357SOL    HW2 1971   0.002   5.681   5.326
  358SOL     OW 1972   4.739   6.251   0.885
  358SOL    HW1 1973   4.696   6.248   0.795
  358SOL    HW2 1974   4.669   6.237   0.956
  359SOL     OW 1975   3.020   2.198   1.779
  359SOL    HW1 1976   3.113   2.165   1.797
  359SOL    HW2 1977   2.987   2.250   1.858
  360SOL     OW 1978   1.325   4.835   6.351
  360SOL    HW1 1979   1.420   4.866   6.355
  360SOL    HW2 1980   1.321   4.737   6.373
  361SOL     OW 1981   6.300   6.993   2.761
  361SOL    HW1 1982   6.205   6.965   2.753
  361SOL    HW2 1983   6.350   6.967   2.678
  362SOL     OW 1984   3.751   2.973   1.219
  362SOL    HW1 1985   3.819   3.035   1.257
  362SOL    HW2 1986   3.711   3.013   1.136
  363SOL     OW 1987   5.605   4.135   2.905
  363SOL    HW1 1988   5.533   4.113   2.839
  363SOL    HW2 1989   5.685   4.077   2.887
  364SOL     OW 1990   6.314   5.271   0.065
  364SOL    HW1 1991   6.224   5.302   0.098
  364SOL    HW2 1992   6.303   5.228   6.998
  365SOL     OW 1993   5.761   6.604   1.555
  365SOL    HW1 1994   5.790   6.516   1.516
  365SOL    HW2 1995   5.666   6.596   1.587
  366SOL     OW 1996   5.534   0.349   6.296
  366SOL    HW1 1997   5.494   0.388   6.213
  366SOL    HW2 1998   5.630   0.376   6.302
  367SOL     OW 1999   5.193   2.809   1.661
  367SOL    HW1 2000   5.221   2.892   1.612
  367SOL    HW2 2001   5.155   2.834   1.750
  368SOL     OW 2002   0.602   2.761   5.373
  368SOL    HW1 2003   0.623   2.726   5.282
  368SOL    HW2 2004   0.678   2.741   5.435
  369SOL     OW 2005   6.056   5.157   2.120
  369SOL    HW1 2006   6.150   5.139   2.090
  369SOL    HW2 2007   6.056   5.175   2.219
  370SOL     OW 2008   2.269   1.146   5.207
  370SOL    HW1 2009   2.282   1.176   5.302
  370SOL    HW2 2010   2.197   1.077   5.204
  371SOL     OW 2011   1.920   4.184   5.747
  371SOL    HW1 2012   1.843   4.211   5.690
  371SOL    HW2 2013   1.989   4.138   5.692
  372SOL     OW 2014   0.948   6.779   6.612
  372SOL    HW1 2015   1.023   6.844   6.618
  372SOL    HW2 2016   0.925   6.764   6.516
  373SOL     OW 2017   5.907   6.251   4.416
  373SOL    HW1 2018   5.905   6.225   4.319
  373SOL    HW2 2019   6.000   6.241   4.451
  374SOL     OW 2020   3.018   1.863   3.935
  374SOL    HW1 2021   3.037   1.946   3.988
  374SOL    HW2 2022   3.087   1.853   3.864
  375SOL     OW 2023   1.307   4.727   4.075
  375SOL    HW1 2024   1.304   4.722   4.175
  375SOL    HW2 2025   1.341   4.640   4.039
  376SOL     OW 2026   2.650   0.837   5.148
  376SOL    HW1 2027   2.633   0.759   5.087
  376SOL    HW2 2028   2.590   0.913   5.123
  377SOL     OW 2029   1.151   2.102   1.027
  377SOL    HW1 2030   1.117   2.009   1.010
  377SOL    HW2 2031   1.073   2.162   1.045
  378SOL     OW 2032   4.832   2.718   6.186
  378SOL    HW1 2033   4.883   2.795   6.223
  378SOL    HW2 2034   4.860   2.634   6.233
  379SOL     OW 2035   5.869   2.994   1.465
  379SOL    HW1 2036   5.777   2.984   1.504
  379SOL    HW2 2037   5.905   2.903   1.442
  380SOL     OW 2038   2.359   1.274   0.891
  380SOL    HW1 2039   2.348   1.328   0.807
  380SOL    HW2 2040   2.320   1.183   0.877
  381SOL     OW 2041   0.865   3.914   2.559
  381SOL    HW1 2042   0.959   3.883   2.546
  381SOL    HW2 2043   0.832   3.883   2.648
  382SOL     OW 2044   5.498   0.445   6.775
  382SOL    HW1 2045   5.439   0.523   6.760
  382SOL    HW2 2046   5.543   0.419   6.689
  383SOL     OW 2047   3.811   3.910   6.335
  383SOL    HW1 2048   3.799   3.895   6.434
  383SOL    HW2 2049   3.796   3.823   6.287
  384SOL     OW 2050   0.259   5.649   3.837
  384SOL    HW1 2051   0.297   5.557   3.845
  384SOL    HW2 2052   0.207   5.670   3.920
  385SOL     OW 2053   3.205   4.648   5.489
  385SOL    HW1 2054   3.121   4.687   5.452
  385SOL    HW2 2055   3.186   4.607   5.579
  386SOL     OW 2056   2.495   0.186   5.290
  386SOL    HW1 2057   2.555   0.264   5.306
  386SOL    HW2 2058   2.420   0.188   5.356
  387SOL     OW 2059   1.364   6.925   2.696
  387SOL    HW1 2060   1.292   6.894   2.759
  387SOL    HW2 2061   1.341   6.898   2.603
  388SOL     OW 2062   1.597   1.511   4.942
  388SOL    HW1 2063   1.681   1.558   4.968
  388SOL    HW2 2064   1.566   1.544   4.853
  389SOL     OW 2065   3.903   3.766   1.519
  389SOL    HW1 2066   3.928   3.829   1.445
  389SOL    HW2 2067   3.860   3.684   1.481
  390SOL     OW 2068   3.509   1.428   0.895
  390SOL    HW1 2069   3.449   1.487   0.949
  390SOL    HW2 2070   3.551   1.359   0.954
  391SOL     OW 2071   2.107   3.089   6.893
  391SOL    HW1 2072   2.062   3.063   6.978
  391SOL    HW2 2073   2.202   3.058   6.896
  392SOL     OW 2074   1.295   4.325   0.766
  392SOL    HW1 2075   1.308   4.253   0.835
  392SOL    HW2 2076   1.198   4.338   0.749
  393SOL     OW 2077   1.630   4.301   6.509
  393SOL    HW1 2078   1.707   4.237   6.515
  393SOL    HW2 2079   1.623   4.353   6.594
  394SOL     OW 2080   7.004   2.122   0.379
  394SOL    HW1 2081   0.050   2.106   0.451
  394SOL    HW2 2082   6.931   2.180   0.414
  395SOL     OW 2083   5.220   4.145   3.151
  395SOL    HW1 2084   5.298   4.200   3.120
  395SOL    HW2 2085   5.220   4.058   3.103
  396SOL     OW 2086   3.314   3.782   1.483
  396SOL    HW1 2087   3.399   3.733   1.504
  396SOL    HW2 2088   3.278   3.823   1.566
  397SOL     OW 2089   6.121   1.276   5.485
  397SOL    HW1 2090   6.113   1.245   5.580
  397SOL    HW2 2091   6.206   1.240   5.446
  398SOL     OW 2092   1.506   0.257   2.473
  398SOL    HW1 2093   1.422   0.245   2.526
  398SOL    HW2 2094   1.581   0.208   2.517
  399SOL     OW 2095   5.658   5.891   2.349
  399SOL    HW1 2096   5.587   5.831   2.313
  399SOL    HW2 2097   5.623   5.941   2.429
  400SOL     OW 2098   6.789   6.211   5.244
  400SOL    HW1 2099   6.797   6.229   5.342
  400SOL    HW2 2100   6.838   6.281   5.193
  401SOL     OW 2101   5.793   0.200   6.446
  401SOL    HW1 2102   5.836   0.227   6.360
  401SOL    HW2 2103   5.776   0.282   6.502
  402SOL     OW 2104   6.138   0.355   3.646
  402SOL    HW1 2105   6.237   0.339   3.643
  402SOL    HW2 2106   6.110   0.401   3.561
  403SOL     OW 2107   3.865   1.822   4.525
  403SOL    HW1 2108   3.887   1.837   4.429
  403SOL    HW2 2109   3.942   1.852   4.582
  404SOL     OW 2110   1.860   5.113   3.889
  404SOL    HW1 2111   1.850   5.038   3.954
  404SOL    HW2 2112   1.932   5.092   3.823
  405SOL     OW 2113   2.004   3.103   2.624
  405SOL    HW1 2114   2.077   3.082   2.559
  405SOL    HW2 2115   2.041   3.105   2.716
  406SOL     OW 2116   1.140   4.247   4.776
  406SOL    HW1 2117   1.100   4.170   4.826
  406SOL    HW2 2118   1.199   4.212   4.703
  407SOL     OW 2119   1.123   1.004   4.853
  407SOL    HW1 2120   1.117   0.912   4.815
  407SOL    HW2 2121   1.036   1.028   4.895
  408SOL     OW 2122   1.539   2.111   2.771
  408SOL    HW1 2123   1.550   2.097   2.672
  408SOL    HW2 2124   1.629   2.122   2.813
  409SOL     OW 2125   6.767   2.851   2.436
  409SOL    HW1 2126   6.866   2.860   2.430
  409SOL    HW2 2127   6.742   2.808   2.523
  410SOL     OW 2128   1.922   1.526   0.893
  410SOL    HW1 2129   1.831   1.542   0.931
  410SOL    HW2 2130   1.976   1.610   0.900
  411SOL     OW 2131   6.474   0.699   1.721
  411SOL    HW1 2132   6.421   0.639   1.781
  411SOL    HW2 2133   6.571   0.692   1.745
  412SOL     OW 2134   3.004   5.881   3.602
  412SOL    HW1 2135   3.062   5.856   3.524
  412SOL    HW2 2136   2.963   5.798   3.640
  413SOL     OW 2137   5.643   3.850   1.545
  413SOL    HW1 2138   5.603   3.921   1.603
  413SOL    HW2 2139   5.591   3.843   1.460
  414SOL     OW 2140   3.177   5.178   3.328
  414SOL    HW1 2141   3.118   5.258   3.342
  414SOL    HW2 2142   3.272   5.207   3.323
  415SOL     OW 2143   0.956   6.289   6.858
  415SOL    HW1 2144   0.890   6.345   6.908
  415SOL    HW2 2145   1.049   6.319   6.881
  416SOL     OW 2146   4.760   6.488   4.999
  416SOL    HW1 2147   4.734   6.561   5.061
  416SOL    HW2 2148   4.690   6.478   4.928
  417SOL     OW 2149   1.675   6.214   6.046
  417SOL    HW1 2150   1.695   6.118   6.025
  417SOL    HW2 2151   1.581   6.222   6.078
  418SOL     OW 2152   3.967   6.945   6.814
  418SOL    HW1 2153   3.870   6.921   6.825
  418SOL    HW2 2154   3.988   0.003   6.871
  419SOL     OW 2155   1.784   6.624   1.277
  419SOL    HW1 2156   1.824   6.664   1.195
  419SOL    HW2 2157   1.776   6.525   1.267
  420SOL     OW 2158   6.123   1.236   0.274
  420SOL    HW1 2159   6.050   1.241   0.206
  420SOL    HW2 2160   6.175   1.322   0.274
  421SOL     OW 2161   0.249   4.023   5.015
  421SOL    HW1 2162   0.253   3.960   4.936
  421SOL    HW2 2163   0.193   3.983   5.087
  422SOL     OW 2164   5.370   3.647   1.314
  422SOL    HW1 2165   5.305   3.622   1.386
  422SOL    HW2 2166   5.377   3.571   1.249
  423SOL     OW 2167   0.253   1.959   5.824
  423SOL    HW1 2168   0.315   1.929   5.751
  423SOL    HW2 2169   0.176   1.896   5.830
  424SOL     OW 2170   1.384   5.546   1.007
  424SOL    HW1 2171   1.394   5.609   0.930
  424SOL    HW2 2172   1.466   5.550   1.065
  425SOL     OW 2173   4.810   1.835   3.625
  425SOL    HW1 2174   4.804   1.737   3.639
  425SOL    HW2 2175   4.748   1.863   3.551
  426SOL     OW 2176   3.603   1.869   4.423
  426SOL    HW1 2177   3.595   1.915   4.335
  426SOL    HW2 2178   3.697   1.837   4.436
  427SOL     OW 2179   5.691   6.134   4.006
  427SOL    HW1 2180   5.623   6.207   3.997
  427SOL    HW2 2181   5.677   6.066   3.935
  428SOL     OW 2182   4.703   0.115   3.575
  428SOL    HW1 2183   4.727   0.188   3.639
  428SOL    HW2 2184   4.613   0.135   3.535
  429SOL     OW 2185   1.089   4.780   1.926
  429SOL    HW1 2186   1.104   4.781   1.827
  429SOL    HW2 2187   1.107   4.871   1.964
  430SOL     OW 2188   0.816   0.051   4.149
  430SOL    HW1 2189   0.848   0.063   4.243
  430SOL    HW2 2190   0.753   6.995   4.144
  431SOL     OW 2191   2.843   0.668   1.174
  431SOL    HW1 2192   2.877   0.754   1.138
  431SOL    HW2 2193   2.907   0.632   1.242
  432SOL     OW 2194   6.466   1.652   0.974
  432SOL    HW1 2195   6.511   1.563   0.969
  432SOL    HW2 2196   6.531   1.724   0.952
  433SOL     OW 2197   2.037   6.404   4.750
  433SOL    HW1 2198   1.943   6.434   4.734
  433SOL    HW2 2199   2.039   6.340   4.827
  434SOL     OW 2200   3.695   5.423   3.651
  434SOL    HW1 2201   3.708   5.364   3.572
  434SOL    HW2 2202   3.713   5.372   3.735
  435SOL     OW 2203   4.450   2.345   6.780
  435SOL    HW1 2204   4.368   2.397   6.756
  435SOL    HW2 2205   4.428   2.248   6.783
  436SOL     OW 2206   3.198   5.526   2.069
  436SOL    HW1 2207   3.116   5.470   2.082
  436SOL    HW2 2208   3.279   5.471   2.091
  437SOL     OW 2209   0.755   1.180   6.720
  437SOL    HW1 2210   0.668   1.136   6.741
  437SOL    HW2 2211   0.820   1.112   6.686
  438SOL     OW 2212   2.237   4.029   3.730
  438SOL    HW1 2213   2.215   3.932   3.731
  438SOL    HW2 2214   2.242   4.061   3.635
  439SOL     OW 2215   6.129   5.649   2.264
  439SOL    HW1 2216   6.185   5.578   2.223
  439SOL    HW2 2217   6.050   5.668   2.206
  440SOL     OW 2218   2.638   1.706   5.219
  440SOL    HW1 2219   2.586   1.788   5.196
  440SOL    HW2 2220   2.702   1.684   5.145
  441SOL     OW 2221   0.837   3.213   3.836
  441SOL    HW1 2222   0.898   3.241   3.910
  441SOL    HW2 2223   0.747   3.189   3.874
  442SOL     OW 2224   3.827   6.103   5.586
  442SOL    HW1 2225   3.895   6.031   5.594
  442SOL    HW2 2226   3.791   6.105   5.493
  443SOL     OW 2227   6.070   4.475   3.823
  443SOL    HW1 2228   6.145   4.470   3.757
  443SOL    HW2 2229   6.108   4.483   3.916
  444SOL     OW 2230   5.335   0.643   6.671
  444SOL    HW1 2231   5.263   0.712   6.681
  444SOL    HW2 2232   5.297   0.560   6.630
  445SOL     OW 2233   1.368   5.682   2.788
  445SOL    HW1 2234   1.432   5.753   2.819
  445SOL    HW2 2235   1.313   5.652   2.866
  446SOL     OW 2236   3.465   4.964   3.213
  446SOL    HW1 2237   3.410   4.905   3.273
  446SOL    HW2 2238   3.457   4.932   3.118
  447SOL     OW 2239   0.353   2.851   6.269
  447SOL    HW1 2240   0.329   2.853   6.173
  447SOL    HW2 2241   0.375   2.943   6.300
  448SOL     OW 2242   2.537   0.922   3.055
  448SOL    HW1 2243   2.564   1.018   3.053
  448SOL    HW2 2244   2.465   0.906   2.987
  449SOL     OW 2245   2.894   1.441   4.082
  449SOL    HW1 2246   2.959   1.516   4.069
  449SOL    HW2 2247   2.935   1.371   4.141
  450SOL     OW 2248   1.214   5.068   3.126
  450SOL    HW1 2249   1.296   5.126   3.132
  450SOL    HW2 2250   1.181   5.068   3.032
  451SOL     OW 2251   1.433   2.198   4.526
  451SOL    HW1 2252   1.361   2.203   4.595
  451SOL    HW2 2253   1.406   2.253   4.446
  452SOL     OW 2254   5.357   6.566   0.410
  452SOL    HW1 2255   5.400   6.552   0.500
  452SOL    HW2 2256   5.406   6.638   0.361
  453SOL     OW 2257   4.060   0.322   6.637
  453SOL    HW1 2258   4.028   0.228   6.623
  453SOL    HW2 2259   3.987   0.385   6.610
  454SOL     OW 2260   0.309   4.195   6.483
  454SOL    HW1 2261   0.402   4.163   6.502
  454SOL    HW2 2262   0.311   4.293   6.461
  455SOL     OW 2263   5.562   2.254   4.647
  455SOL    HW1 2264   5.466   2.274   4.668
  455SOL    HW2 2265   5.618   2.272   4.729
  456SOL     OW 2266   0.584   0.194   3.998
  456SOL    HW1 2267   0.559   0.265   4.064
  456SOL    HW2 2268   0.654   0.135   4.039
  457SOL     OW 2269   1.725   3.479   4.602
  457SOL    HW1 2270   1.669   3.524   4.671
  457SOL    HW2 2271   1.792   3.419   4.647
  458SOL     OW 2272   3.153   6.045   2.671
  458SOL    HW1 2273   3.125   5.956   2.637
  458SOL    HW2 2274   3.227   6.034   2.738
  459SOL     OW 2275   1.886   6.927   5.923
  459SOL    HW1 2276   1.829   7.007   5.944
  459SOL    HW2 2277   1.921   6.888   6.008
  460SOL     OW 2278   2.343   6.866   4.698
  460SOL    HW1 2279   2.296   6.785   4.664
  460SOL    HW2 2280   2.299   6.897   4.783
  461SOL     OW 2281   0.012   5.403   5.707
  461SOL    HW1 2282   0.108   5.427   5.717
  461SOL    HW2 2283   7.003   5.426   5.614
  462SOL     OW 2284   3.774   3.434   6.975
  462SOL    HW1 2285   3.760   3.523   6.932
  462SOL    HW2 2286   3.793   3.366   6.904
  463SOL     OW 2287   5.933   6.169   4.121
  463SOL    HW1 2288   5.841   6.156   4.083
  463SOL    HW2 2289   6.001   6.144   4.053
  464SOL     OW 2290   3.194   1.166   5.360
  464SOL    HW1 2291   3.177   1.218   5.443
  464SOL    HW2 2292   3.284   1.122   5.367
  465SOL     OW 2293   0.893   2.303   0.147
  465SOL    HW1 2294   0.976   2.263   0.185
  465SOL    HW2 2295   0.891   2.401   0.166
  466SOL     OW 2296   1.646   6.508   4.061
  466SOL    HW1 2297   1.631   6.428   4.119
  466SOL    HW2 2298   1.730   6.554   4.090
  467SOL     OW 2299   1.975   1.068   1.002
  467SOL    HW1 2300   2.051   1.051   1.065
  467SOL    HW2 2301   1.998   1.143   0.941
  468SOL     OW 2302   3.740   6.348   5.661
  468SOL    HW1 2303   3.680   6.352   5.741
  468SOL    HW2 2304   3.777   6.256   5.651
  469SOL     OW 2305   2.829   3.476   6.295
  469SOL    HW1 2306   2.824   3.395   6.354
  469SOL    HW2 2307   2.918   3.521   6.306
  470SOL     OW 2308   5.000   6.560   1.115
  470SOL    HW1 2309   5.081   6.505   1.135
  470SOL    HW2 2310   4.958   6.589   1.201
  471SOL     OW 2311   2.206   2.610   3.985
  471SOL    HW1 2312   2.221   2.698   4.030
  471SOL    HW2 2313   2.126   2.565   4.025
  472SOL     OW 2314   4.918   4.452   6.151
  472SOL    HW1 2315   4.925   4.361   6.111
  472SOL    HW2 2316   4.955   4.452   6.244
  473SOL     OW 2317   1.074   2.726   2.437
  473SOL    HW1 2318   1.031   2.743   2.349
  473SOL    HW2 2319   1.058   2.803   2.498
  474SOL     OW 2320   5.386   6.163   4.771
  474SOL    HW1 2321   5.391   6.074   4.816
  474SOL    HW2 2322   5.292   6.196   4.772
  475SOL     OW 2323   6.096   2.033   6.808
  475SOL    HW1 2324   6.145   2.084   6.738
  475SOL    HW2 2325   6.000   2.024   6.783
  476SOL     OW 2326   6.859   3.597   2.307
  476SOL    HW1 2327   6.877   3.533   2.382
  476SOL    HW2 2328   6.900   3.562   2.223
  477SOL     OW 2329   2.874   6.101   2.868
  477SOL    HW1 2330   2.785   6.145   2.882
  477SOL    HW2 2331   2.904   6.117   2.774
  478SOL     OW 2332   3.303   6.421   2.308
  478SOL    HW1 2333   3.299   6.388   2.402
  478SOL    HW2 2334   3.337   6.515   2.306
  479SOL     OW 2335   3.655   2.991   5.552
  479SOL    HW1 2336   3.709   3.075   5.538
  479SOL    HW2 2337   3.581   2.988   5.485
  480SOL     OW 2338   2.387   0.913   0.641
  480SOL    HW1 2339   2.343   0.924   0.730
  480SOL    HW2 2340   2.317   0.905   0.570
  481SOL     OW 2341   1.299   6.351   1.262
  481SOL    HW1 2342   1.241   6.388   1.190
  481SOL    HW2 2343   1.337   6.426   1.316
  482SOL     OW 2344   4.247   4.691   2.106
  482SOL    HW1 2345   4.233   4.790   2.096
  482SOL    HW2 2346   4.334   4.665   2.065
  483SOL     OW 2347   6.288   2.164   3.089
  483SOL    HW1 2348   6.243   2.081   3.123
  483SOL    HW2 2349   6.303   2.227   3.165
  484SOL     OW 2350   2.170   3.174   5.550
  484SOL    HW1 2351   2.242   3.183   5.481
  484SOL    HW2 2352   2.145   3.265   5.583
  485SOL     OW 2353   4.099   4.729   2.538
  485SOL    HW1 2354   4.050   4.794   2.596
  485SOL    HW2 2355   4.067   4.737   2.444
  486SOL     OW 2356   6.968   0.868   0.312
  486SOL    HW1 2357   0.042   0.843   0.324
  486SOL    HW2 2358   6.949   0.883   0.215
  487SOL     OW 2359   0.858   0.720   3.523
  487SOL    HW1 2360   0.768   0.747   3.489
  487SOL    HW2 2361   0.863   0.621   3.533
  488SOL     OW 2362   1.321   0.711   2.566
  488SOL    HW1 2363   1.303   0.691   2.663
  488SOL    HW2 2364   1.348   0.807   2.557
  489SOL     OW 2365   5.324   5.812   5.577
  489SOL    HW1 2366   5.259   5.835   5.649
  489SOL    HW2 2367   5.392   5.748   5.614
  490SOL     OW 2368   0.897   6.373   3.365
  490SOL    HW1 2369   0.834   6.308   3.408
  490SOL    HW2 2370   0.927   6.337   3.277
  491SOL     OW 2371   1.196   3.376   1.956
  491SOL    HW1 2372   1.160   3.456   1.908
  491SOL    HW2 2373   1.278   3.402   2.006
  492SOL     OW 2374   1.725   0.503   5.743
  492SOL    HW1 2375   1.694   0.439   5.673
  492SOL    HW2 2376   1.825   0.504   5.745
  493SOL     OW 2377   3.847   6.553   5.509
  493SOL    HW1 2378   3.941   6.524   5.496
  493SOL    HW2 2379   3.803   6.496   5.578
  494SOL     OW 2380   0.906   0.078   6.452
  494SOL    HW1 2381   0.853   0.161   6.468
  494SOL    HW2 2382   0.943   0.079   6.359
  495SOL     OW 2383   4.090   5.785   3.588
  495SOL    HW1 2384   4.171   5.843   3.593
  495SOL    HW2 2385   4.039   5.808   3.505
  496SOL     OW 2386   5.493   2.936   1.443
  496SOL    HW1 2387   5.491   2.966   1.539
  496SOL    HW2 2388   5.481   3.015   1.383
  497SOL     OW 2389   3.375   1.719   4.474
  497SOL    HW1 2390   3.452   1.782   4.466
  497SOL    HW2 2391   3.394   1.654   4.548
  498SOL     OW 2392   0.957   5.015   2.014
  498SOL    HW1 2393   0.976   5.063   1.928
  498SOL    HW2 2394   0.873   4.962   2.003
  499SOL     OW 2395   1.871   5.370   4.533
  499SOL    HW1 2396   1.809   5.449   4.526
  499SOL    HW2 2397   1.875   5.322   4.445
  500SOL     OW 2398   6.978   2.210   6.064
  500SOL    HW1 2399   6.905   2.182   6.002
  500SOL    HW2 2400   6.963   2.167   6.153
  501SOL     OW 2401   4.257   0.382   1.155
  501SOL    HW1 2402   4.285   0.472   1.187
  501SOL    HW2 2403   4.316   0.312   1.195
  502SOL     OW 2404   0.705   4.340   5.795
  502SOL    HW1 2405   0.785   4.368   5.743
  502SOL    HW2 2406   0.646   4.420   5.811
  503SOL     OW 2407   0.114   4.864   6.544
  503SOL    HW1 2408   0.063   4.950   6.550
  503SOL    HW2 2409   0.119   4.835   6.449
  504SOL     OW 2410   0.843   5.296   2.495
  504SOL    HW1 2411   0.856   5.211   2.444
  504SOL    HW2 2412   0.916   5.360   2.473
  505SOL     OW 2413   3.244   6.122   4.595
  505SOL    HW1 2414   3.219   6.026   4.603
  505SOL    HW2 2415   3.161   6.176   4.579
  506SOL     OW 2416   3.428   5.480   3.137
  506SOL    HW1 2417   3.527   5.479   3.122
  506SOL    HW2 2418   3.393   5.572   3.121
  507SOL     OW 2419   3.602   0.286   3.298
  507SOL    HW1 2420   3.695   0.298   3.263
  507SOL    HW2 2421   3.537   0.325   3.233
  508SOL     OW 2422   0.058   3.560   2.896
  508SOL    HW1 2423   0.036   3.655   2.919
  508SOL    HW2 2424   0.017   3.537   2.808
  509SOL     OW 2425   3.052   1.616   1.435
  509SOL    HW1 2426   3.032   1.650   1.527
  509SOL    HW2 2427   3.077   1.519   1.440
  510SOL     OW 2428   6.337   4.242   0.161
  510SOL    HW1 2429   6.359   4.154   0.119
  510SOL    HW2 2430   6.256   4.280   0.117
  511SOL     OW 2431   0.858   2.797   5.843
  511SOL    HW1 2432   0.929   2.825   5.778
  511SOL    HW2 2433   0.802   2.876   5.868
  512SOL     OW 2434   0.345   2.092   6.772
  512SOL    HW1 2435   0.429   2.103   6.825
  512SOL    HW2 2436   0.360   2.127   6.679
  513SOL     OW 2437   5.801   6.738   3.493
  513SOL    HW1 2438   5.756   6.668   3.549
  513SOL    HW2 2439   5.785   6.828   3.533
  514SOL     OW 2440   6.161   0.245   4.504
  514SOL    HW1 2441   6.078   0.200   4.539
  514SOL    HW2 2442   6.219   0.271   4.580
  515SOL     OW 2443   1.195   0.169   1.302
  515SOL    HW1 2444   1.220   0.099   1.369
  515SOL    HW2 2445   1.165   0.252   1.350
  516SOL     OW 2446   2.693   4.897   1.975
  516SOL    HW1 2447   2.736   4.817   2.017
  516SOL    HW2 2448   2.702   4.890   1.875
  517SOL     OW 2449   3.707   5.281   1.617
  517SOL    HW1 2450   3.734   5.185   1.609
  517SOL    HW2 2451   3.709   5.325   1.527
  518SOL     OW 2452   2.112   2.108   4.098
  518SOL    HW1 2453   2.192   2.139   4.048
  518SOL    HW2 2454   2.048   2.184   4.111
  519SOL     OW 2455   0.777   6.387   3.725
  519SOL    HW1 2456   0.704   6.420   3.665
  519SOL    HW2 2457   0.791   6.453   3.799
  520SOL     OW 2458   5.796   3.942   6.909
  520SOL    HW1 2459   5.796   3.842   6.898
  520SOL    HW2 2460   5.709   3.970   6.951
  521SOL     OW 2461   6.094   5.699   5.118
  521SOL    HW1 2462   6.115   5.616   5.065
  521SOL    HW2 2463   6.064   5.771   5.056
  522SOL     OW 2464   3.508   3.199   3.584
  522SOL    HW1 2465   3.513   3.107   3.625
  522SOL    HW2 2466   3.543   3.197   3.491
  523SOL     OW 2467   0.242   6.168   1.684
  523SOL    HW1 2468   0.246   6.264   1.713
  523SOL    HW2 2469   0.146   6.137   1.684
  524SOL     OW 2470   0.823   2.013   2.642
  524SOL    HW1 2471   0.729   2.048   2.634
  524SOL    HW2 2472   0.887   2.086   2.619
  525SOL     OW 2473   1.978   4.419   6.361
  525SOL    HW1 2474   1.990   4.435   6.263
  525SOL    HW2 2475   2.047   4.353   6.392
  526SOL     OW 2476   3.366   6.204   4.317
  526SOL    HW1 2477   3.281   6.239   4.278
  526SOL    HW2 2478   3.347   6.166   4.408
  527SOL     OW 2479   6.908   2.949   0.683
  527SOL    HW1 2480   6.986   3.006   0.659
  527SOL    HW2 2481   6.824   2.990   0.645
  528SOL     OW 2482   1.429   2.910   3.760
  528SOL    HW1 2483   1.361   2.891   3.831
  528SOL    HW2 2484   1.435   3.009   3.745
  529SOL     OW 2485   1.318   5.349   5.140
  529SOL    HW1 2486   1.319   5.449   5.140
  529SOL    HW2 2487   1.281   5.316   5.227
  530SOL     OW 2488   4.116   3.356   3.725
  530SOL    HW1 2489   4.113   3.403   3.813
  530SOL    HW2 2490   4.134   3.423   3.652
  531SOL     OW 2491   0.566   2.062   2.771
  531SOL    HW1 2492   0.566   2.161   2.790
  531SOL    HW2 2493   0.610   2.014   2.846
  532SOL     OW 2494   0.812   3.027   0.235
  532SOL    HW1 2495   0.871   3.095   0.191
  532SOL    HW2 2496   0.797   2.950   0.173
  533SOL     OW 2497   4.408   0.141   3.742
  533SOL    HW1 2498   4.329   0.090   3.709
  533SOL    HW2 2499   4.461   0.084   3.804
  534SOL     OW 2500   5.231   6.233   2.726
  534SOL    HW1 2501   5.222   6.147   2.775
  534SOL    HW2 2502   5.213   6.309   2.789
  535SOL     OW 2503   6.869   3.930   4.479
  535SOL    HW1 2504   6.891   3.843   4.522
  535SOL    HW2 2505   6.800   3.916   4.408
  536SOL     OW 2506   5.973   5.082   2.858
  536SOL    HW1 2507   6.049   5.018   2.872
  536SOL    HW2 2508   5.921   5.056   2.776
  537SOL     OW 2509   2.655   6.408   5.007
  537SOL    HW1 2510   2.719   6.418   5.083
  537SOL    HW2 2511   2.707   6.395   4.922
  538SOL     OW 2512   1.047   4.533   3.833
  538SOL    HW1 2513   0.960   4.564   3.793
  538SOL    HW2 2514   1.119   4.599   3.812
  539SOL     OW 2515   1.646   5.296   1.327
  539SOL    HW1 2516   1.717   5.248   1.277
  539SOL    HW2 2517   1.581   5.337   1.263
  540SOL     OW 2518   1.245   1.706   2.487
  540SOL    HW1 2519   1.225   1.804   2.478
  540SOL    HW2 2520   1.300   1.676   2.409
  541SOL     OW 2521   5.237   5.601   3.571
  541SOL    HW1 2522   5.329   5.633   3.595
  541SOL    HW2 2523   5.213   5.522   3.628
  542SOL     OW 2524   5.837   6.452   6.567
  542SOL    HW1 2525   5.826   6.519   6.641
  542SOL    HW2 2526   5.854   6.362   6.606
  543SOL     OW 2527   0.286   3.546   4.807
  543SOL    HW1 2528   0.222   3.545   4.884
  543SOL    HW2 2529   0.340   3.461   4.807
  544SOL     OW 2530   1.428   5.046   0.177
  544SOL    HW1 2531   1.471   4.956   0.176
  544SOL    HW2 2532   1.488   5.112   0.131
  545SOL     OW 2533   3.334   1.664   0.882
  545SOL    HW1 2534   3.405   1.675   0.813
  545SOL    HW2 2535   3.334   1.743   0.943
  546SOL     OW 2536   2.197   3.435   0.536
  546SOL    HW1 2537   2.152   3.513   0.492
  546SOL    HW2 2538   2.131   3.389   0.596
  547SOL     OW 2539   3.672   1.493   0.053
  547SOL    HW1 2540   3.622   1.461   0.133
  547SOL    HW2 2541   3.619   1.565   0.007
  548SOL     OW 2542   3.320   3.198   2.344
  548SOL    HW1 2543   3.250   3.142   2.388
  548SOL    HW2 2544   3.371   3.143   2.278
  549SOL     OW 2545   6.034   2.936   1.088
  549SOL    HW1 2546   6.018   3.033   1.106
  549SOL    HW2 2547   6.095   2.926   1.010
  550SOL     OW 2548   1.397   5.841   3.940
  550SOL    HW1 2549   1.307   5.850   3.898
  550SOL    HW2 2550   1.466   5.827   3.869
  551SOL     OW 2551   1.269   0.115   2.278
  551SOL    HW1 2552   1.302   0.183   2.211
  551SOL    HW2 2553   1.203   0.158   2.339
  552SOL     OW 2554   6.707   4.613   6.760
  552SOL    HW1 2555   6.611   4.631   6.782
  552SOL    HW2 2556   6.744   4.689   6.707
  553SOL     OW 2557   2.747   6.136   3.388
  553SOL    HW1 2558   2.753   6.183   3.476
  553SOL    HW2 2559   2.780   6.198   3.316
  554SOL     OW 2560   6.578   6.675   6.738
  554SOL    HW1 2561   6.482   6.665   6.764
  554SOL    HW2 2562   6.620   6.748   6.792
  555SOL     OW 2563   2.450   4.516   4.638
  555SOL    HW1 2564   2.381   4.443   4.638
  555SOL    HW2 2565   2.481   4.533   4.732
  556SOL     OW 2566   4.221   1.888   3.843
  556SOL    HW1 2567   4.287   1.912   3.915
  556SOL    HW2 2568   4.261   1.909   3.754
  557SOL     OW 2569   6.971   5.778   1.227
  557SOL    HW1 2570   6.977   5.863   1.280
  557SOL    HW2 2571   0.034   5.765   1.176
  558SOL     OW 2572   3.002   3.542   3.580
  558SOL    HW1 2573   2.985   3.573   3.487
  558SOL    HW2 2574   3.099   3.553   3.602
  559SOL     OW 2575   7.004   5.527   6.955
  559SOL    HW1 2576   6.947   5.600   6.992
  559SOL    HW2 2577   0.073   5.564   6.935
  560SOL     OW 2578   5.298   4.669   5.225
  560SOL    HW1 2579   5.229   4.624   5.167
  560SOL    HW2 2580   5.331   4.603   5.293
  561SOL     OW 2581   1.025   1.979   1.420
  561SOL    HW1 2582   0.977   1.949   1.502
  561SOL    HW2 2583   1.011   1.913   1.346
  562SOL     OW 2584   4.428   6.982   6.065
  562SOL    HW1 2585   4.360   7.004   6.135
  562SOL    HW2 2586   4.506   6.936   6.108
  563SOL     OW 2587   2.850   6.959   3.470
  563SOL    HW1 2588   2.813   6.884   3.415
  563SOL    HW2 2589   2.843   0.023   3.419
  564SOL     OW 2590   1.545   2.517   6.558
  564SOL    HW1 2591   1.492   2.537   6.475
  564SOL    HW2 2592   1.564   2.419   6.562
  565SOL     OW 2593   3.196   2.994   4.859
  565SOL    HW1 2594   3.276   2.937   4.873
  565SOL    HW2 2595   3.199   3.072   4.921
  566SOL     OW 2596   0.057   4.799   3.444
  566SOL    HW1 2597   6.983   4.825   3.428
  566SOL    HW2 2598   0.099   4.863   3.507
  567SOL     OW 2599   2.956   3.091   1.486
  567SOL    HW1 2600   2.969   2.993   1.505
  567SOL    HW2 2601   2.873   3.123   1.531
  568SOL     OW 2602   5.083   0.626   0.013
  568SOL    HW1 2603   5.005   0.618   6.974
  568SOL    HW2 2604   5.148   0.552   7.015
  569SOL     OW 2605   1.873   3.148   6.712
  569SOL    HW1 2606   1.906   3.099   6.632
  569SOL    HW2 2607   1.935   3.132   6.789
  570SOL     OW 2608   3.999   5.636   6.605
  570SOL    HW1 2609   4.044   5.725   6.609
  570SOL    HW2 2610   4.051   5.570   6.660
  571SOL     OW 2611   3.453   6.572   2.012
  571SOL    HW1 2612   3.387   6.577   2.087
  571SOL    HW2 2613   3.546   6.571   2.049
  572SOL     OW 2614   2.659   4.728   5.503
  572SOL    HW1 2615   2.595   4.651   5.511
  572SOL    HW2 2616   2.675   4.747   5.406
  573SOL     OW 2617   5.319   1.218   5.168
  573SOL    HW1 2618   5.320   1.240   5.266
  573SOL    HW2 2619   5.291   1.123   5.156
  574SOL     OW 2620   3.971   1.523   4.421
  574SOL    HW1 2621   3.917   1.472   4.488
  574SOL    HW2 2622   3.914   1.591   4.376
  575SOL     OW 2623   4.824   3.927   6.838
  575SOL    HW1 2624   4.838   3.828   6.841
  575SOL    HW2 2625   4.731   3.948   6.872
  576SOL     OW 2626   0.812   1.794   3.519
  576SOL    HW1 2627   0.793   1.890   3.499
  576SOL    HW2 2628   0.850   1.749   3.438
  577SOL     OW 2629   1.508   1.493   2.790
  577SOL    HW1 2630   1.498   1.442   2.876
  577SOL    HW2 2631   1.485   1.589   2.805
  578SOL     OW 2632   5.555   5.606   3.966
  578SOL    HW1 2633   5.469   5.608   3.915
  578SOL    HW2 2634   5.557   5.525   4.025
  579SOL     OW 2635   1.745   3.604   3.296
  579SOL    HW1 2636   1.829   3.556   3.272
  579SOL    HW2 2637   1.668   3.541   3.289
  580SOL     OW 2638   4.757   5.653   6.739
  580SOL    HW1 2639   4.783   5.745   6.767
  580SOL    HW2 2640   4.831   5.612   6.685
  581SOL     OW 2641   2.023   3.738   1.673
  581SOL    HW1 2642   2.087   3.814   1.685
  581SOL    HW2 2643   2.001   3.729   1.576
  582SOL     OW 2644   4.197   6.423   1.891
  582SOL    HW1 2645   4.215   6.517   1.861
  582SOL    HW2 2646   4.275   6.390   1.943
  583SOL     OW 2647   3.287   6.212   5.505
  583SOL    HW1 2648   3.273   6.244   5.599
  583SOL    HW2 2649   3.216   6.251   5.446
  584SOL     OW 2650   2.985   4.969   6.876
  584SOL    HW1 2651   3.035   5.018   6.947
  584SOL    HW2 2652   2.967   5.030   6.800
  585SOL     OW 2653   5.426   2.409   6.342
  585SOL    HW1 2654   5.346   2.465   6.323
  585SOL    HW2 2655   5.494   2.462   6.392
  586SOL     OW 2656   3.427   0.621   6.084
  586SOL    HW1 2657   3.484   0.614   6.166
  586SOL    HW2 2658   3.467   0.567   6.011
  587SOL     OW 2659   4.518   1.858   4.849
  587SOL    HW1 2660   4.482   1.921   4.918
  587SOL    HW2 2661   4.469   1.770   4.855
  588SOL     OW 2662   1.564   4.858   2.354
  588SOL    HW1 2663   1.657   4.822   2.352
  588SOL    HW2 2664   1.498   4.783   2.347
  589SOL     OW 2665   3.337   4.730   1.521
  589SOL    HW1 2666   3.299   4.785   1.447
  589SOL    HW2 2667   3.372   4.791   1.592
  590SOL     OW 2668   4.800   2.836   2.843
  590SOL    HW1 2669   4.820   2.919   2.894
  590SOL    HW2 2670   4.864   2.764   2.869
  591SOL     OW 2671   3.245   5.228   3.982
  591SOL    HW1 2672   3.195   5.276   4.054
  591SOL    HW2 2673   3.320   5.175   4.022
  592SOL     OW 2674   3.998   1.342   1.346
  592SOL    HW1 2675   3.904   1.332   1.312
  592SOL    HW2 2676   4.002   1.419   1.410
  593SOL     OW 2677   4.525   2.583   4.610
  593SOL    HW1 2678   4.592   2.653   4.638
  593SOL    HW2 2679   4.537   2.563   4.513
  594SOL     OW 2680   6.820   1.913   0.297
  594SOL    HW1 2681   6.849   1.869   0.383
  594SOL    HW2 2682   6.881   1.988   0.275
  595SOL     OW 2683   5.764   0.245   3.170
  595SOL    HW1 2684   5.812   0.224   3.085
  595SOL    HW2 2685   5.692   0.312   3.151
  596SOL     OW 2686   0.757   5.586   3.286
  596SOL    HW1 2687   0.783   5.676   3.322
  596SOL    HW2 2688   0.754   5.590   3.186
  597SOL     OW 2689   2.958   0.392   6.946
  597SOL    HW1 2690   2.899   0.459   6.992
  597SOL    HW2 2691   2.913   0.302   6.948
  598SOL     OW 2692   4.170   4.754   5.696
  598SOL    HW1 2693   4.169   4.822   5.623
  598SOL    HW2 2694   4.154   4.663   5.657
  599SOL     OW 2695   2.200   6.374   1.808
  599SOL    HW1 2696   2.244   6.462   1.790
  599SOL    HW2 2697   2.101   6.384   1.800
  600SOL     OW 2698   6.928   1.185   6.348
  600SOL    HW1 2699   6.885   1.250   6.410
  600SOL    HW2 2700   6.874   1.101   6.344
  601SOL     OW 2701   1.503   0.376   4.609
  601SOL    HW1 2702   1.522   0.301   4.672
  601SOL    HW2 2703   1.584   0.394   4.553
  602SOL     OW 2704   2.233   2.132   6.579
  602SOL    HW1 2705   2.201   2.135   6.485
  602SOL    HW2 2706   2.185   2.202   6.633
  603SOL     OW 2707   2.592   2.124   5.146
  603SOL    HW1 2708   2.513   2.070   5.176
  603SOL    HW2 2709   2.671   2.102   5.203
  604SOL     OW 2710   1.265   2.724   1.773
  604SOL    HW1 2711   1.196   2.755   1.708
  604SOL    HW2 2712   1.323   2.655   1.730
  605SOL     OW 2713   6.548   6.638   0.834
  605SOL    HW1 2714   6.573   6.720   0.887
  605SOL    HW2 2715   6.477   6.588   0.883
  606SOL     OW 2716   4.263   6.830   6.809
  606SOL    HW1 2717   4.288   6.893   6.736
  606SOL    HW2 2718   4.341   6.770   6.830
  607SOL     OW 2719   6.946   5.980   5.918
  607SOL    HW1 2720   6.989   6.018   5.836
  607SOL    HW2 2721   6.893   6.052   5.963
  608SOL     OW 2722   3.576   5.823   6.702
  608SOL    HW1 2723   3.527   5.877   6.770
  608SOL    HW2 2724   3.600   5.880   6.624
  609SOL     OW 2725   3.951   3.113   2.844
  609SOL    HW1 2726   3.897   3.033   2.870
  609SOL    HW2 2727   4.003   3.146   2.923
  610SOL     OW 2728   5.353   3.964   1.831
  610SOL    HW1 2729   5.337   3.986   1.927
  610SOL    HW2 2730   5.444   3.997   1.805
  611SOL     OW 2731   3.896   6.938   0.936
  611SOL    HW1 2732   3.859   6.846   0.947
  611SOL    HW2 2733   3.995   6.936   0.949
  612SOL     OW 2734   3.946   6.814   5.482
  612SOL    HW1 2735   3.893   6.731   5.465
  612SOL    HW2 2736   4.030   6.790   5.532
  613SOL     OW 2737   4.124   6.191   5.505
  613SOL    HW1 2738   4.216   6.167   5.534
  613SOL    HW2 2739   4.100   6.140   5.422
  614SOL     OW 2740   5.019   5.419   0.956
  614SOL    HW1 2741   4.997   5.385   1.047
  614SOL    HW2 2742   4.974   5.507   0.941
  615SOL     OW 2743   6.279   2.277   1.776
  615SOL    HW1 2744   6.341   2.300   1.700
  615SOL    HW2 2745   6.191   2.322   1.762
  616SOL     OW 2746   0.090   2.821   4.111
  616SOL    HW1 2747   0.160   2.892   4.105
  616SOL    HW2 2748   0.036   2.835   4.194
  617SOL     OW 2749   6.381   4.390   6.419
  617SOL    HW1 2750   6.469   4.393   6.370
  617SOL    HW2 2751   6.389   4.328   6.497
  618SOL     OW 2752   6.924   2.204   6.881
  618SOL    HW1 2753   6.976   2.182   6.799
  618SOL    HW2 2754   6.866   2.127   6.907
  619SOL     OW 2755   4.450   1.031   6.941
  619SOL    HW1 2756   4.547   1.014   6.959
  619SOL    HW2 2757   4.396   1.009   0.001
  620SOL     OW 2758   4.551   2.896   1.171
  620SOL    HW1 2759   4.525   2.965   1.238
  620SOL    HW2 2760   4.497   2.813   1.186
  621SOL     OW 2761   2.731   6.588   6.864
  621SOL    HW1 2762   2.758   6.529   6.788
  621SOL    HW2 2763   2.633   6.608   6.858
  622SOL     OW 2764   1.420   0.352   4.958
  622SOL    HW1 2765   1.391   0.441   4.922
  622SOL    HW2 2766   1.432   0.288   4.882
  623SOL     OW 2767   0.726   5.295   5.764
  623SOL    HW1 2768   0.819   5.263   5.746
  623SOL    HW2 2769   0.666   5.269   5.689
  624SOL     OW 2770   6.985   2.356   1.431
  624SOL    HW1 2771   6.979   2.281   1.365
  624SOL    HW2 2772   6.942   2.438   1.393
  625SOL     OW 2773   1.709   1.608   2.166
  625SOL    HW1 2774   1.695   1.566   2.076
  625SOL    HW2 2775   1.757   1.695   2.154
  626SOL     OW 2776   2.202   5.778   3.171
  626SOL    HW1 2777   2.234   5.873   3.174
  626SOL    HW2 2778   2.178   5.754   3.077
  627SOL     OW 2779   5.943   6.560   0.128
  627SOL    HW1 2780   5.915   6.475   0.173
  627SOL    HW2 2781   5.907   6.562   0.035
  628SOL     OW 2782   6.322   5.618   5.857
  628SOL    HW1 2783   6.241   5.618   5.798
  628SOL    HW2 2784   6.403   5.642   5.802
  629SOL     OW 2785   0.013   0.113   6.636
  629SOL    HW1 2786   0.012   0.195   6.693
  629SOL    HW2 2787   6.986   0.131   6.550
  630SOL     OW 2788   0.666   1.548   1.070
  630SOL    HW1 2789   0.653   1.522   1.166
  630SOL    HW2 2790   0.589   1.517   1.016
  631SOL     OW 2791   3.576   0.017   5.055
  631SOL    HW1 2792   3.481   0.013   5.086
  631SOL    HW2 2793   3.629   6.967   5.099
  632SOL     OW 2794   3.296   1.094   0.808
  632SOL    HW1 2795   3.270   1.153   0.732
  632SOL    HW2 2796   3.396   1.097   0.819
  633SOL     OW 2797   3.203   3.888   6.845
  633SOL    HW1 2798   3.128   3.945   6.880
  633SOL    HW2 2799   3.287   3.942   6.841
  634SOL     OW 2800   3.781   3.529   1.445
  634SOL    HW1 2801   3.743   3.498   1.532
  634SOL    HW2 2802   3.784   3.453   1.380
  635SOL     OW 2803   4.428   5.423   1.787
  635SOL    HW1 2804   4.425   5.519   1.761
  635SOL    HW2 2805   4.377   5.410   1.872
  636SOL     OW 2806   2.908   5.820   0.272
  636SOL    HW1 2807   2.973   5.769   0.215
  636SOL    HW2 2808   2.815   5.801   0.242
  637SOL     OW 2809   6.792   3.386   3.288
  637SOL    HW1 2810   6.798   3.335   3.373
  637SOL    HW2 2811   6.885   3.406   3.255
  638SOL     OW 2812   5.298   2.375   4.162
  638SOL    HW1 2813   5.335   2.467   4.146
  638SOL    HW2 2814   5.363   2.307   4.128
  639SOL     OW 2815   5.103   3.656   2.715
  639SOL    HW1 2816   5.142   3.615   2.797
  639SOL    HW2 2817   5.154   3.626   2.634
  640SOL     OW 2818   0.506   5.503   3.639
  640SOL    HW1 2819   0.459   5.557   3.569
  640SOL    HW2 2820   0.489   5.406   3.622
  641SOL     OW 2821   6.820   4.949   4.570
  641SOL    HW1 2822   6.910   4.967   4.531
  641SOL    HW2 2823   6.758   5.024   4.545
  642SOL     OW 2824   6.658   3.326   4.546
  642SOL    HW1 2825   6.680   3.423   4.542
  642SOL    HW2 2826   6.634   3.301   4.640
  643SOL     OW 2827   6.179   5.684   5.605
  643SOL    HW1 2828   6.119   5.606   5.588
  643SOL    HW2 2829   6.224   5.710   5.519
  644SOL     OW 2830   1.438   6.405   4.713
  644SOL    HW1 2831   1.429   6.307   4.694
  644SOL    HW2 2832   1.467   6.453   4.630
  645SOL     OW 2833   3.555   1.047   4.014
  645SOL    HW1 2834   3.485   0.999   4.067
  645SOL    HW2 2835   3.646   1.018   4.045
  646SOL     OW 2836   3.399   1.264   4.499
  646SOL    HW1 2837   3.400   1.281   4.401
  646SOL    HW2 2838   3.453   1.334   4.545
  647SOL     OW 2839   5.167   1.349   4.647
  647SOL    HW1 2840   5.266   1.343   4.629
  647SOL    HW2 2841   5.147   1.434   4.694
  648SOL     OW 2842   0.585   3.608   4.105
  648SOL    HW1 2843   0.635   3.633   4.188
  648SOL    HW2 2844   0.574   3.688   4.047
  649SOL     OW 2845   2.961   4.090   0.845
  649SOL    HW1 2846   2.905   4.088   0.762
  649SOL    HW2 2847   2.907   4.058   0.922
  650SOL     OW 2848   5.913   4.082   0.540
  650SOL    HW1 2849   5.948   4.168   0.504
  650SOL    HW2 2850   5.929   4.078   0.639
  651SOL     OW 2851   0.039   5.626   6.028
  651SOL    HW1 2852   0.037   5.726   6.040
  651SOL    HW2 2853   0.106   5.603   5.956
  652SOL     OW 2854   4.742   6.730   3.555
  652SOL    HW1 2855   4.827   6.781   3.569
  652SOL    HW2 2856   4.667   6.794   3.543
  653SOL     OW 2857   1.474   5.568   5.628
  653SOL    HW1 2858   1.418   5.639   5.585
  653SOL    HW2 2859   1.469   5.485   5.574
  654SOL     OW 2860   0.562   4.108   6.274
  654SOL    HW1 2861   0.541   4.151   6.361
  654SOL    HW2 2862   0.537   4.171   6.199
  655SOL     OW 2863   0.308   5.771   2.309
  655SOL    HW1 2864   0.286   5.846   2.372
  655SOL    HW2 2865   0.293   5.801   2.215
  656SOL     OW 2866   1.137   5.834   1.516
  656SOL    HW1 2867   1.203   5.760   1.498
  656SOL    HW2 2868   1.048   5.794   1.538
  657SOL     OW 2869   2.052   3.119   1.790
  657SOL    HW1 2870   1.979   3.075   1.738
  657SOL    HW2 2871   2.137   3.116   1.738
  658SOL     OW 2872   2.596   4.262   6.606
  658SOL    HW1 2873   2.629   4.221   6.521
  658SOL    HW2 2874   2.668   4.321   6.645
  659SOL     OW 2875   1.859   5.980   5.533
  659SOL    HW1 2876   1.881   5.888   5.566
  659SOL    HW2 2877   1.921   6.046   5.576
  660SOL     OW 2878   5.431   4.738   2.239
  660SOL    HW1 2879   5.527   4.714   2.254
  660SOL    HW2 2880   5.376   4.655   2.236
  661SOL     OW 2881   4.979   5.093   3.654
  661SOL    HW1 2882   5.026   5.076   3.568
  661SOL    HW2 2883   4.880   5.082   3.642
  662SOL     OW 2884   3.583   0.524   5.036
  662SOL    HW1 2885   3.493   0.550   5.071
  662SOL    HW2 2886   3.654   0.568   5.091
  663SOL     OW 2887   2.088   3.867   6.945
  663SOL    HW1 2888   2.105   3.772   6.970
  663SOL    HW2 2889   2.151   3.926   6.995
  664SOL     OW 2890   0.207   5.264   6.178
  664SOL    HW1 2891   0.301   5.281   6.148
  664SOL    HW2 2892   0.157   5.350   6.185
  665SOL     OW 2893   4.814   4.942   1.525
  665SOL    HW1 2894   4.856   4.854   1.549
  665SOL    HW2 2895   4.856   5.015   1.578
  666SOL     OW 2896   4.948   2.004   2.608
  666SOL    HW1 2897   4.871   2.061   2.636
  666SOL    HW2 2898   5.024   2.016   2.672
  667SOL     OW 2899   6.556   4.499   3.569
  667SOL    HW1 2900   6.596   4.549   3.492
  667SOL    HW2 2901   6.580   4.402   3.561
  668SOL     OW 2902   5.157   6.305   6.529
  668SOL    HW1 2903   5.251   6.311   6.563
  668SOL    HW2 2904   5.156   6.324   6.430
  669SOL     OW 2905   4.046   0.357   3.944
  669SOL    HW1 2906   4.018   0.445   3.905
  669SOL    HW2 2907   4.005   0.345   4.034
  670SOL     OW 2908   2.667   3.109   0.910
  670SOL    HW1 2909   2.681   3.082   1.006
  670SOL    HW2 2910   2.737   3.175   0.884
  671SOL     OW 2911   1.852   6.236   1.070
  671SOL    HW1 2912   1.842   6.262   0.974
  671SOL    HW2 2913   1.905   6.306   1.118
  672SOL     OW 2914   1.395   5.125   1.653
  672SOL    HW1 2915   1.461   5.053   1.677
  672SOL    HW2 2916   1.335   5.142   1.731
  673SOL     OW 2917   0.482   0.344   1.694
  673SOL    HW1 2918   0.499   0.372   1.599
  673SOL    HW2 2919   0.566   0.308   1.733
  674SOL     OW 2920   0.637   2.619   5.140
  674SOL    HW1 2921   0.690   2.611   5.056
  674SOL    HW2 2922   0.540   2.604   5.119
  675SOL     OW 2923   0.399   0.674   4.011
  675SOL    HW1 2924   0.319   0.726   4.041
  675SOL    HW2 2925   0.451   0.644   4.091
  676SOL     OW 2926   3.610   6.212   2.929
  676SOL    HW1 2927   3.704   6.228   2.900
  676SOL    HW2 2928   3.605   6.126   2.981
  677SOL     OW 2929   6.754   1.505   0.294
  677SOL    HW1 2930   6.709   1.433   0.346
  677SOL    HW2 2931   6.837   1.534   0.341
  678SOL     OW 2932   2.064   0.992   5.390
  678SOL    HW1 2933   1.988   1.049   5.360
  678SOL    HW2 2934   2.127   1.046   5.446
  679SOL     OW 2935   4.372   1.781   4.322
  679SOL    HW1 2936   4.447   1.806   4.384
  679SOL    HW2 2937   4.407   1.774   4.229
  680SOL     OW 2938   5.512   5.215   5.392
  680SOL    HW1 2939   5.439   5.204   5.324
  680SOL    HW2 2940   5.481   5.179   5.480
  681SOL     OW 2941   5.390   5.348   1.087
  681SOL    HW1 2942   5.390   5.407   1.007
  681SOL    HW2 2943   5.366   5.401   1.169
  682SOL     OW 2944   0.938   0.975   0.274
  682SOL    HW1 2945   0.944   0.880   0.305
  682SOL    HW2 2946   0.968   0.981   0.178
  683SOL     OW 2947   3.907   3.858   0.677
  683SOL    HW1 2948   3.898   3.957   0.676
  683SOL    HW2 2949   3.907   3.823   0.583
  684SOL     OW 2950   0.107   0.731   6.675
  684SOL    HW1 2951   0.195   0.774   6.696
  684SOL    HW2 2952   0.047   0.797   6.632
  685SOL     OW 2953   4.708   1.314   4.250
  685SOL    HW1 2954   4.765   1.238   4.283
  685SOL    HW2 2955   4.664   1.288   4.164
  686SOL     OW 2956   5.387   2.572   3.867
  686SOL    HW1 2957   5.369   2.665   3.898
  686SOL    HW2 2958   5.482   2.549   3.887
  687SOL     OW 2959   0.631   2.511   4.593
  687SOL    HW1 2960   0.708   2.496   4.531
  687SOL    HW2 2961   0.547   2.523   4.539
  688SOL     OW 2962   1.112   2.099   0.574
  688SOL    HW1 2963   1.125   2.041   0.654
  688SOL    HW2 2964   1.077   2.044   0.498
  689SOL     OW 2965   6.539   3.617   6.540
  689SOL    HW1 2966   6.544   3.539   6.478
  689SOL    HW2 2967   6.574   3.590   6.630
  690SOL     OW 2968   0.462   4.542   2.807
  690SOL    HW1 2969   0.529   4.500   2.869
  690SOL    HW2 2970   0.377   4.558   2.857
  691SOL     OW 2971   2.430   6.637   6.844
  691SOL    HW1 2972   2.383   6.613   6.759
  691SOL    HW2 2973   2.416   6.565   6.912
  692SOL     OW 2974   3.086   6.476   3.307
  692SOL    HW1 2975   3.072   6.493   3.404
  692SOL    HW2 2976   3.029   6.398   3.278
  693SOL     OW 2977   6.184   0.733   3.205
  693SOL    HW1 2978   6.236   0.658   3.165
  693SOL    HW2 2979   6.179   0.721   3.305
  694SOL     OW 2980   4.189   5.817   2.602
  694SOL    HW1 2981   4.262   5.849   2.662
  694SOL    HW2 2982   4.123   5.765   2.656
  695SOL     OW 2983   4.165   6.095   3.908
  695SOL    HW1 2984   4.106   6.057   3.979
  695SOL    HW2 2985   4.121   6.177   3.869
  696SOL     OW 2986   4.000   4.786   2.288
  696SOL    HW1 2987   4.007   4.710   2.223
  696SOL    HW2 2988   3.912   4.832   2.275
  697SOL     OW 2989   1.917   3.350   3.600
  697SOL    HW1 2990   1.998   3.328   3.654
  697SOL    HW2 2991   1.860   3.416   3.650
  698SOL     OW 2992   5.371   6.640   6.754
  698SOL    HW1 2993   5.343   6.702   6.682
  698SOL    HW2 2994   5.466   6.610   6.738
  699SOL     OW 2995   2.177   3.232   6.606
  699SOL    HW1 2996   2.225   3.163   6.552
  699SOL    HW2 2997   2.099   3.190   6.652
  700SOL     OW 2998   3.069   1.462   2.777
  700SOL    HW1 2999   3.075   1.486   2.680
  700SOL    HW2 3000   3.017   1.378   2.787
  701SOL     OW 3001   6.516   3.479   5.457
  701SOL    HW1 3002   6.493   3.566   5.500
  701SOL    HW2 3003   6.524   3.408   5.527
  702SOL     OW 3004   1.084   5.523   5.177
  702SOL    HW1 3005   1.045   5.564   5.260
  702SOL    HW2 3006   1.168   5.572   5.153
  703SOL     OW 3007   3.478   4.545   6.080
  703SOL    HW1 3008   3.549   4.614   6.063
  703SOL    HW2 3009   3.497   4.463   6.027
  704SOL     OW 3010   1.748   2.128   0.264
  704SOL    HW1 3011   1.702   2.197   0.207
  704SOL    HW2 3012   1.832   2.099   0.218
  705SOL     OW 3013   6.214   5.982   2.335
  705SOL    HW1 3014   6.270   6.050   2.381
  705SOL    HW2 3015   6.146   5.945   2.399
  706SOL     OW 3016   4.578   2.660   4.950
  706SOL    HW1 3017   4.543   2.752   4.965
  706SOL    HW2 3018   4.592   2.645   4.852
  707SOL     OW 3019   4.831   5.515   2.863
  707SOL    HW1 3020   4.891   5.540   2.939
  707SOL    HW2 3021   4.817   5.416   2.861
  708SOL     OW 3022   4.525   6.613   1.608
  708SOL    HW1 3023   4.510   6.696   1.662
  708SOL    HW2 3024   4.621   6.587   1.613
  709SOL     OW 3025   0.673   5.997   1.365
  709SOL    HW1 3026   0.641   6.055   1.290
  709SOL    HW2 3027   0.645   5.902   1.348
  710SOL     OW 3028   4.037   3.263   2.244
  710SOL    HW1 3029   4.062   3.278   2.149
  710SOL    HW2 3030   4.004   3.170   2.255
  711SOL     OW 3031   7.022   3.424   5.712
  711SOL    HW1 3032   6.956   3.388   5.646
  711SOL    HW2 3033   0.090   3.431   5.669
  712SOL     OW 3034   4.202   3.073   1.217
  712SOL    HW1 3035   4.273   3.026   1.270
  712SOL    HW2 3036   4.245   3.127   1.144
  713SOL     OW 3037   4.454   2.226   5.694
  713SOL    HW1 3038   4.412   2.161   5.632
  713SOL    HW2 3039   4.526   2.276   5.646
  714SOL     OW 3040   6.105   4.086   3.638
  714SOL    HW1 3041   6.155   4.053   3.558
  714SOL    HW2 3042   6.164   4.146   3.691
  715SOL     OW 3043   5.938   5.731   0.179
  715SOL    HW1 3044   5.874   5.805   0.197
  715SOL    HW2 3045   5.895   5.644   0.202
  716SOL     OW 3046   0.408   0.706   1.908
  716SOL    HW1 3047   0.429   0.749   1.819
  716SOL    HW2 3048   0.388   0.609   1.894
  717SOL     OW 3049   6.498   4.207   5.850
  717SOL    HW1 3050   6.463   4.300   5.859
  717SOL    HW2 3051   6.595   4.209   5.829
  718SOL     OW 3052   5.422   2.603   6.048
  718SOL    HW1 3053   5.504   2.548   6.064
  718SOL    HW2 3054   5.345   2.543   6.026
  719SOL     OW 3055   6.052   0.861   1.606
  719SOL    HW1 3056   6.017   0.885   1.516
  719SOL    HW2 3057   6.002   0.911   1.677
  720SOL     OW 3058   3.213   0.519   5.816
  720SOL    HW1 3059   3.181   0.548   5.906
  720SOL    HW2 3060   3.161   0.565   5.745
  721SOL     OW 3061   2.601   2.100   3.716
  721SOL    HW1 3062   2.685   2.068   3.760
  721SOL    HW2 3063   2.581   2.193   3.745
  722SOL     OW 3064   2.882   0.521   5.442
  722SOL    HW1 3065   2.846   0.428   5.435
  722SOL    HW2 3066   2.863   0.570   5.357
  723SOL     OW 3067   2.056   5.029   2.936
  723SOL    HW1 3068   2.005   4.961   2.883
  723SOL    HW2 3069   1.998   5.109   2.950
  724SOL     OW 3070   1.210   3.289   4.758
  724SOL    HW1 3071   1.205   3.189   4.761
  724SOL    HW2 3072   1.287   3.317   4.700
  725SOL     OW 3073   2.517   5.588   1.049
  725SOL    HW1 3074   2.584   5.651   1.088
  725SOL    HW2 3075   2.425   5.621   1.069
  726SOL     OW 3076   3.849   5.243   1.054
  726SOL    HW1 3077   3.926   5.306   1.045
  726SOL    HW2 3078   3.826   5.232   1.150
  727SOL     OW 3079   5.615   4.616   5.303
  727SOL    HW1 3080   5.639   4.551   5.376
  727SOL    HW2 3081   5.516   4.619   5.292
  728SOL     OW 3082   6.721   2.981   5.165
  728SOL    HW1 3083   6.781   2.902   5.163
  728SOL    HW2 3084   6.627   2.952   5.146
  729SOL     OW 3085   1.308   2.421   1.222
  729SOL    HW1 3086   1.289   2.326   1.246
  729SOL    HW2 3087   1.289   2.479   1.302
  730SOL     OW 3088   5.182   0.254   4.878
  730SOL    HW1 3089   5.232   0.190   4.936
  730SOL    HW2 3090   5.086   0.256   4.906
  731SOL     OW 3091   5.119   4.198   6.036
  731SOL    HW1 3092   5.038   4.140   6.042
  731SOL    HW2 3093   5.113   4.255   5.953
  732SOL     OW 3094   0.124   2.723   1.470
  732SOL    HW1 3095   0.081   2.679   1.548
  732SOL    HW2 3096   0.110   2.667   1.388
  733SOL     OW 3097   5.500   6.529   5.292
  733SOL    HW1 3098   5.505   6.448   5.351
  733SOL    HW2 3099   5.423   6.586   5.320
  734SOL     OW 3100   6.965   4.948   2.777
  734SOL    HW1 3101   6.991   4.923   2.683
  734SOL    HW2 3102   0.026   4.953   2.834
  735SOL     OW 3103   4.390   1.904   0.272
  735SOL    HW1 3104   4.423   1.824   0.222
  735SOL    HW2 3105   4.409   1.986   0.219
  736SOL     OW 3106   0.066   1.436   4.057
  736SOL    HW1 3107   0.042   1.374   4.132
  736SOL    HW2 3108   0.113   1.516   4.093
  737SOL     OW 3109   5.366   1.870   4.855
  737SOL    HW1 3110   5.409   1.879   4.765
  737SOL    HW2 3111   5.271   1.902   4.849
  738SOL     OW 3112   2.291   4.434   1.154
  738SOL    HW1 3113   2.355   4.506   1.179
  738SOL    HW2 3114   2.208   4.475   1.116
  739SOL     OW 3115   4.934   0.290   4.120
  739SOL    HW1 3116   4.994   0.233   4.064
  739SOL    HW2 3117   4.853   0.236   4.147
  740SOL     OW 3118   6.415   0.638   1.135
  740SOL    HW1 3119   6.331   0.615   1.183
  740SOL    HW2 3120   6.417   0.591   1.046
  741SOL     OW 3121   2.198   6.349   3.139
  741SOL    HW1 3122   2.280   6.363   3.194
  741SOL    HW2 3123   2.175   6.434   3.091
  742SOL     OW 3124   2.751   6.566   2.369
  742SOL    HW1 3125   2.691   6.501   2.322
  742SOL    HW2 3126   2.836   6.576   2.318
  743SOL     OW 3127   6.999   4.754   3.036
  743SOL    HW1 3128   6.993   4.853   3.038
  743SOL    HW2 3129   6.959   4.720   2.951
  744SOL     OW 3130   5.764   0.558   6.897
  744SOL    HW1 3131   5.670   0.594   6.892
  744SOL    HW2 3132   5.803   0.579   6.987
  745SOL     OW 3133   1.491   4.639   4.444
  745SOL    HW1 3134   1.520   4.545   4.464
  745SOL    HW2 3135   1.460   4.683   4.528
  746SOL     OW 3136   0.046   3.902   6.704
  746SOL    HW1 3137   0.098   3.926   6.786
  746SOL    HW2 3138   6.995   3.969   6.690
  747SOL     OW 3139   3.508   6.472   4.282
  747SOL    HW1 3140   3.517   6.492   4.184
  747SOL    HW2 3141   3.463   6.384   4.294
  748SOL     OW 3142   3.830   5.162   2.098
  748SOL    HW1 3143   3.878   5.152   2.011
  748SOL    HW2 3144   3.760   5.090   2.106
  749SOL     OW 3145   6.027   3.824   5.347
  749SOL    HW1 3146   6.049   3.729   5.326
  749SOL    HW2 3147   6.083   3.885   5.291
  750SOL     OW 3148   1.683   2.386   1.355
  750SOL    HW1 3149   1.625   2.337   1.420
  750SOL    HW2 3150   1.644   2.477   1.338
  751SOL     OW 3151   3.747   2.047   0.025
  751SOL    HW1 3152   3.723   1.963   0.073
  751SOL    HW2 3153   3.846   2.063   0.033
  752SOL     OW 3154   2.946   1.152   1.712
  752SOL    HW1 3155   2.956   1.084   1.639
  752SOL    HW2 3156   3.015   1.223   1.700
  753SOL     OW 3157   2.343   2.963   5.711
  753SOL    HW1 3158   2.415   2.902   5.676
  753SOL    HW2 3159   2.289   2.998   5.635
  754SOL     OW 3160   5.227   2.951   5.548
  754SOL    HW1 3161   5.231   2.976   5.451
  754SOL    HW2 3162   5.151   2.887   5.563
  755SOL     OW 3163   1.769   4.633   6.133
  755SOL    HW1 3164   1.729   4.602   6.219
  755SOL    HW2 3165   1.749   4.566   6.061
  756SOL     OW 3166   2.958   6.798   6.193
  756SOL    HW1 3167   2.903   6.871   6.234
  756SOL    HW2 3168   2.979   6.730   6.263
  757SOL     OW 3169   0.172   0.403   3.501
  757SOL    HW1 3170   0.254   0.377   3.552
  757SOL    HW2 3171   0.091   0.363   3.545
  758SOL     OW 3172   3.343   0.738   2.470
  758SOL    HW1 3173   3.280   0.667   2.438
  758SOL    HW2 3174   3.392   0.706   2.550
  759SOL     OW 3175   6.955   1.600   1.655
  759SOL    HW1 3176   6.949   1.700   1.660
  759SOL    HW2 3177   6.927   1.570   1.564
  760SOL     OW 3178   5.773   6.879   4.976
  760SOL    HW1 3179   5.713   6.812   5.020
  760SOL    HW2 3180   5.810   6.841   4.891
  761SOL     OW 3181   5.044   3.641   5.982
  761SOL    HW1 3182   5.034   3.661   6.079
  761SOL    HW2 3183   5.054   3.726   5.931
  762SOL     OW 3184   2.032   0.219   4.660
  762SOL    HW1 3185   2.092   0.149   4.621
  762SOL    HW2 3186   2.082   0.305   4.669
  763SOL     OW 3187   4.224   5.365   6.591
  763SOL    HW1 3188   4.143   5.310   6.609
  763SOL    HW2 3189   4.305   5.306   6.592
  764SOL     OW 3190   4.770   0.998   4.737
  764SOL    HW1 3191   4.783   0.931   4.810
  764SOL    HW2 3192   4.842   1.067   4.742
  765SOL     OW 3193   1.843   5.871   1.675
  765SOL    HW1 3194   1.777   5.906   1.741
  765SOL    HW2 3195   1.878   5.946   1.620
  766SOL     OW 3196   2.575   3.316   6.142
  766SOL    HW1 3197   2.660   3.335   6.094
  766SOL    HW2 3198   2.510   3.272   6.079
  767SOL     OW 3199   6.247   5.334   1.427
  767SOL    HW1 3200   6.230   5.432   1.442
  767SOL    HW2 3201   6.274   5.292   1.514
  768SOL     OW 3202   2.701   6.864   2.408
  768SOL    HW1 3203   2.615   6.839   2.363
  768SOL    HW2 3204   2.753   6.781   2.429
  769SOL     OW 3205   2.719   0.628   4.878
  769SOL    HW1 3206   2.734   0.547   4.822
  769SOL    HW2 3207   2.740   0.710   4.824
  770SOL     OW 3208   2.192   5.111   2.677
  770SOL    HW1 3209   2.278   5.071   2.645
  770SOL    HW2 3210   2.172   5.077   2.769
  771SOL     OW 3211   1.345   5.639   2.088
  771SOL    HW1 3212   1.299   5.580   2.155
  771SOL    HW2 3213   1.357   5.588   2.002
  772SOL     OW 3214   5.660   5.938   6.992
  772SOL    HW1 3215   5.719   5.938   0.051
  772SOL    HW2 3216   5.622   5.847   6.977
  773SOL     OW 3217   6.884   4.347   3.770
  773SOL    HW1 3218   6.895   4.248   3.778
  773SOL    HW2 3219   6.941   4.382   3.695
  774SOL     OW 3220   1.938   1.547   1.638
  774SOL    HW1 3221   1.921   1.533   1.735
  774SOL    HW2 3222   1.911   1.466   1.587
  775SOL     OW 3223   1.076   2.427   3.558
  775SOL    HW1 3224   1.066   2.343   3.610
  775SOL    HW2 3225   1.117   2.498   3.615
  776SOL     OW 3226   1.340   0.117   6.087
  776SOL    HW1 3227   1.345   0.181   6.011
  776SOL    HW2 3228   1.332   0.167   6.173
  777SOL     OW 3229   1.883   4.525   1.758
  777SOL    HW1 3230   1.933   4.466   1.695
  777SOL    HW2 3231   1.786   4.500   1.757
  778SOL     OW 3232   2.300   1.558   2.085
  778SOL    HW1 3233   2.390   1.518   2.065
  778SOL    HW2 3234   2.285   1.636   2.025
  779SOL     OW 3235   6.278   2.442   2.094
  779SOL    HW1 3236   6.266   2.536   2.124
  779SOL    HW2 3237   6.371   2.429   2.059
  780SOL     OW 3238   6.912   4.065   3.794
  780SOL    HW1 3239   6.938   4.013   3.875
  780SOL    HW2 3240   6.978   4.047   3.721
  781SOL     OW 3241   6.324   6.894   6.832
  781SOL    HW1 3242   6.307   6.799   6.859
  781SOL    HW2 3243   6.273   6.955   6.891
  782SOL     OW 3244   2.002   3.861   6.262
  782SOL    HW1 3245   2.072   3.798   6.295
  782SOL    HW2 3246   1.950   3.817   6.188
  783SOL     OW 3247   4.807   4.920   1.847
  783SOL    HW1 3248   4.863   4.966   1.778
  783SOL    HW2 3249   4.712   4.947   1.837
  784SOL     OW 3250   4.751   4.862   0.899
  784SOL    HW1 3251   4.790   4.938   0.951
  784SOL    HW2 3252   4.658   4.843   0.932
  785SOL     OW 3253   0.321   2.765   3.445
  785SOL    HW1 3254   0.401   2.741   3.500
  785SOL    HW2 3255   0.311   2.864   3.441
  786SOL     OW 3256   1.298   1.145   2.783
  786SOL    HW1 3257   1.363   1.087   2.833
  786SOL    HW2 3258   1.342   1.230   2.756
  787SOL     OW 3259   2.462   0.276   6.867
  787SOL    HW1 3260   2.513   0.258   6.782
  787SOL    HW2 3261   2.487   0.367   6.902
  788SOL     OW 3262   3.657   2.581   6.564
  788SOL    HW1 3263   3.737   2.626   6.603
  788SOL    HW2 3264   3.598   2.649   6.521
  789SOL     OW 3265   4.468   4.298   0.494
  789SOL    HW1 3266   4.423   4.354   0.563
  789SOL    HW2 3267   4.413   4.298   0.410
  790SOL     OW 3268   2.447   1.579   3.791
  790SOL    HW1 3269   2.521   1.581   3.859
  790SOL    HW2 3270   2.375   1.642   3.819
  791SOL     OW 3271   2.182   5.816   3.842
  791SOL    HW1 3272   2.215   5.819   3.747
  791SOL    HW2 3273   2.165   5.721   3.868
  792SOL     OW 3274   0.880   0.788   1.043
  792SOL    HW1 3275   0.814   0.738   0.988
  792SOL    HW2 3276   0.907   0.732   1.121
  793SOL     OW 3277   4.745   4.866   3.433
  793SOL    HW1 3278   4.796   4.784   3.408
  793SOL    HW2 3279   4.647   4.847   3.427
  794SOL     OW 3280   3.415   3.843   5.707
  794SOL    HW1 3281   3.494   3.859   5.767
  794SOL    HW2 3282   3.392   3.929   5.661
  795SOL     OW 3283   2.928   6.685   4.277
  795SOL    HW1 3284   2.912   6.722   4.186
  795SOL    HW2 3285   3.008   6.625   4.275
  796SOL     OW 3286   0.145   1.836   6.655
  796SOL    HW1 3287   0.057   1.876   6.681
  796SOL    HW2 3288   0.172   1.768   6.723
  797SOL     OW 3289   5.933   2.736   0.643
  797SOL    HW1 3290   5.917   2.639   0.627
  797SOL    HW2 3291   5.904   2.760   0.736
  798SOL     OW 3292   3.455   6.274   2.127
  798SOL    HW1 3293   3.535   6.335   2.127
  798SOL    HW2 3294   3.382   6.314   2.183
  799SOL     OW 3295   0.281   6.571   5.407
  799SOL    HW1 3296   0.342   6.645   5.435
  799SOL    HW2 3297   0.335   6.493   5.375
  800SOL     OW 3298   5.202   2.032   2.786
  800SOL    HW1 3299   5.282   2.012   2.842
  800SOL    HW2 3300   5.219   2.115   2.732
  801SOL     OW 3301   1.674   3.951   4.494
  801SOL    HW1 3302   1.731   3.885   4.544
  801SOL    HW2 3303   1.685   3.936   4.396
  802SOL     OW 3304   3.811   2.358   0.768
  802SOL    HW1 3305   3.785   2.267   0.800
  802SOL    HW2 3306   3.902   2.381   0.802
  803SOL     OW 3307   0.222   6.958   5.512
  803SOL    HW1 3308   0.300   6.896   5.514
  803SOL    HW2 3309   0.222   7.008   5.425
  804SOL     OW 3310   5.858   5.349   6.426
  804SOL    HW1 3311   5.810   5.387   6.346
  804SOL    HW2 3312   5.824   5.257   6.445
  805SOL     OW 3313   3.041   0.313   4.197
  805SOL    HW1 3314   3.093   0.238   4.157
  805SOL    HW2 3315   2.944   0.302   4.175
  806SOL     OW 3316   4.679   1.581   4.123
  806SOL    HW1 3317   4.671   1.496   4.176
  806SOL    HW2 3318   4.737   1.645   4.172
  807SOL     OW 3319   1.499   1.171   5.740
  807SOL    HW1 3320   1.417   1.121   5.712
  807SOL    HW2 3321   1.536   1.130   5.823
  808SOL     OW 3322   3.844   3.699   6.602
  808SOL    HW1 3323   3.818   3.640   6.525
  808SOL    HW2 3324   3.768   3.705   6.666
  809SOL     OW 3325   0.176   4.769   0.982
  809SOL    HW1 3326   0.136   4.861   0.989
  809SOL    HW2 3327   0.260   4.774   0.928
  810SOL     OW 3328   3.621   3.540   0.899
  810SOL    HW1 3329   3.538   3.566   0.948
  810SOL    HW2 3330   3.625   3.590   0.812
  811SOL     OW 3331   4.585   5.415   5.304
  811SOL    HW1 3332   4.535   5.499   5.323
  811SOL    HW2 3333   4.555   5.343   5.367
  812SOL     OW 3334   0.429   0.974   2.290
  812SOL    HW1 3335   0.356   0.906   2.293
  812SOL    HW2 3336   0.457   0.998   2.383
  813SOL     OW 3337   3.947   0.008   4.084
  813SOL    HW1 3338   3.946   0.063   4.001
  813SOL    HW2 3339   4.009   6.953   4.072
  814SOL     OW 3340   5.896   6.420   2.491
  814SOL    HW1 3341   5.854   6.506   2.463
  814SOL    HW2 3342   5.992   6.419   2.464
  815SOL     OW 3343   0.414   3.794   3.426
  815SOL    HW1 3344   0.341   3.851   3.387
  815SOL    HW2 3345   0.499   3.846   3.429
  816SOL     OW 3346   6.350   6.608   6.955
  816SOL    HW1 3347   6.365   6.510   6.943
  816SOL    HW2 3348   6.334   6.628   0.030
  817SOL     OW 3349   1.231   4.795   0.918
  817SOL    HW1 3350   1.216   4.893   0.927
  817SOL    HW2 3351   1.282   4.777   0.833
  818SOL     OW 3352   6.352   2.797   2.934
  818SOL    HW1 3353   6.408   2.824   2.856
  818SOL    HW2 3354   6.346   2.698   2.938
  819SOL     OW 3355   5.487   2.555   2.699
  819SOL    HW1 3356   5.518   2.650   2.711
  819SOL    HW2 3357   5.427   2.550   2.620
  820SOL     OW 3358   3.540   1.702   5.182
  820SOL    HW1 3359   3.568   1.796   5.160
  820SOL    HW2 3360   3.445   1.703   5.214
  821SOL     OW 3361   0.689   4.437   0.985
  821SOL    HW1 3362   0.746   4.448   0.904
  821SOL    HW2 3363   0.654   4.527   1.013
  822SOL     OW 3364   1.472   4.475   3.374
  822SOL    HW1 3365   1.435   4.510   3.289
  822SOL    HW2 3366   1.469   4.375   3.374
  823SOL     OW 3367   4.679   3.698   6.577
  823SOL    HW1 3368   4.704   3.703   6.480
  823SOL    HW2 3369   4.607   3.764   6.596
  824SOL     OW 3370   5.415   1.550   6.393
  824SOL    HW1 3371   5.465   1.568   6.309
  824SOL    HW2 3372   5.318   1.567   6.379
  825SOL     OW 3373   6.790   4.671   1.409
  825SOL    HW1 3374   6.716   4.738   1.396
  825SOL    HW2 3375   6.862   4.712   1.464
  826SOL     OW 3376   4.123   2.979   5.674
  826SOL    HW1 3377   4.139   3.068   5.633
  826SOL    HW2 3378   4.051   2.932   5.623
  827SOL     OW 3379   2.822   4.417   5.631
  827SOL    HW1 3380   2.825   4.411   5.531
  827SOL    HW2 3381   2.833   4.512   5.659
  828SOL     OW 3382   6.111   6.456   6.853
  828SOL    HW1 3383   6.086   6.437   6.758
  828SOL    HW2 3384   6.163   6.541   6.857
  829SOL     OW 3385   3.862   4.031   2.691
  829SOL    HW1 3386   3.779   4.001   2.738
  829SOL    HW2 3387   3.890   4.120   2.727
  830SOL     OW 3388   4.949   5.381   6.368
  830SOL    HW1 3389   4.957   5.288   6.401
  830SOL    HW2 3390   4.948   5.444   6.446
  831SOL     OW 3391   6.144   0.270   0.070
  831SOL    HW1 3392   6.102   0.252   0.159
  831SOL    HW2 3393   6.122   0.363   0.041
  832SOL     OW 3394   3.538   0.722   2.212
  832SOL    HW1 3395   3.636   0.710   2.225
  832SOL    HW2 3396   3.491   0.709   2.299
  833SOL     OW 3397   1.293   3.808   5.848
  833SOL    HW1 3398   1.267   3.830   5.942
  833SOL    HW2 3399   1.220   3.834   5.785
  834SOL     OW 3400   3.573   3.657   0.637
  834SOL    HW1 3401   3.571   3.665   0.538
  834SOL    HW2 3402   3.484   3.626   0.671
  835SOL     OW 3403   3.739   0.373   5.659
  835SOL    HW1 3404   3.752   0.380   5.758
  835SOL    HW2 3405   3.822   0.338   5.616
  836SOL     OW 3406   4.017   5.882   5.889
  836SOL    HW1 3407   4.042   5.798   5.937
  836SOL    HW2 3408   4.052   5.880   5.796
  837SOL     OW 3409   5.522   0.394   0.557
  837SOL    HW1 3410   5.509   0.488   0.526
  837SOL    HW2 3411   5.443   0.366   0.612
  838SOL     OW 3412   2.491   0.545   4.276
  838SOL    HW1 3413   2.535   0.571   4.362
  838SOL    HW2 3414   2.426   0.470   4.293
  839SOL     OW 3415   1.135   2.434   2.334
  839SOL    HW1 3416   1.138   2.534   2.342
  839SOL    HW2 3417   1.056   2.407   2.278
  840SOL     OW 3418   6.730   5.631   0.798
  840SOL    HW1 3419   6.709   5.678   0.713
  840SOL    HW2 3420   6.787   5.690   0.856
  841SOL     OW 3421   3.907   5.046   0.091
  841SOL    HW1 3422   3.920   4.983   0.015
  841SOL    HW2 3423   3.923   5.140   0.060
  842SOL     OW 3424   3.916   0.410   4.551
  842SOL    HW1 3425   3.874   0.487   4.504
  842SOL    HW2 3426   3.871   0.325   4.524
  843SOL     OW 3427   0.913   1.484   0.965
  843SOL    HW1 3428   0.983   1.506   1.033
  843SOL    HW2 3429   0.822   1.495   1.005
  844SOL     OW 3430   5.447   0.649   0.473
  844SOL    HW1 3431   5.349   0.669   0.467
  844SOL    HW2 3432   5.479   0.617   0.384
  845SOL     OW 3433   4.922   4.343   5.046
  845SOL    HW1 3434   4.920   4.386   4.955
  845SOL    HW2 3435   4.892   4.248   5.038
  846SOL     OW 3436   2.163   1.675   6.251
  846SOL    HW1 3437   2.145   1.729   6.333
  846SOL    HW2 3438   2.176   1.579   6.276
  847SOL     OW 3439   1.258   3.125   1.455
  847SOL    HW1 3440   1.290   3.220   1.458
  847SOL    HW2 3441   1.158   3.124   1.449
  848SOL     OW 3442   6.206   0.531   5.840
  848SOL    HW1 3443   6.234   0.513   5.746
  848SOL    HW2 3444   6.287   0.546   5.897
  849SOL     OW 3445   0.316   3.181   6.046
  849SOL    HW1 3446   0.252   3.105   6.057
  849SOL    HW2 3447   0.268   3.267   6.066
  850SOL     OW 3448   5.528   0.640   2.969
  850SOL    HW1 3449   5.554   0.729   2.930
  850SOL    HW2 3450   5.442   0.610   2.929
  851SOL     OW 3451   0.101   2.004   2.903
  851SOL    HW1 3452   0.011   1.971   2.929
  851SOL    HW2 3453   0.166   1.985   2.977
  852SOL     OW 3454   1.040   3.629   6.704
  852SOL    HW1 3455   1.011   3.574   6.782
  852SOL    HW2 3456   0.960   3.672   6.662
  853SOL     OW 3457   1.281   4.274   1.494
  853SOL    HW1 3458   1.281   4.284   1.394
  853SOL    HW2 3459   1.316   4.183   1.518
  854SOL     OW 3460   5.171   5.833   0.626
  854SOL    HW1 3461   5.097   5.784   0.671
  854SOL    HW2 3462   5.253   5.777   0.626
  855SOL     OW 3463   6.888   6.948   1.640
  855SOL    HW1 3464   6.854   6.968   1.731
  855SOL    HW2 3465   6.950   7.021   1.611
  856SOL     OW 3466   1.180   2.699   5.199
  856SOL    HW1 3467   1.226   2.729   5.283
  856SOL    HW2 3468   1.179   2.599   5.196
  857SOL     OW 3469   5.731   4.314   2.044
  857SOL    HW1 3470   5.823   4.275   2.039
  857SOL    HW2 3471   5.714   4.369   1.962
  858SOL     OW 3472   2.668   3.449   1.093
  858SOL    HW1 3473   2.569   3.442   1.082
  858SOL    HW2 3474   2.690   3.458   1.190
  859SOL     OW 3475   5.946   5.806   5.317
  859SOL    HW1 3476   5.994   5.773   5.236
  859SOL    HW2 3477   5.861   5.755   5.329
  860SOL     OW 3478   5.874   3.070   0.468
  860SOL    HW1 3479   5.957   3.026   0.433
  860SOL    HW2 3480   5.831   3.123   0.394
  861SOL     OW 3481   2.684   5.619   3.247
  861SOL    HW1 3482   2.701   5.712   3.277
  861SOL    HW2 3483   2.688   5.615   3.147
  862SOL     OW 3484   1.275   4.023   4.875
  862SOL    HW1 3485   1.285   4.052   4.970
  862SOL    HW2 3486   1.342   4.071   4.818
  863SOL     OW 3487   6.166   1.109   0.678
  863SOL    HW1 3488   6.241   1.045   0.690
  863SOL    HW2 3489   6.201   1.196   0.644
  864SOL     OW 3490   4.422   5.182   4.180
  864SOL    HW1 3491   4.438   5.248   4.107
  864SOL    HW2 3492   4.337   5.132   4.162
  865SOL     OW 3493   1.248   6.765   5.742
  865SOL    HW1 3494   1.230   6.863   5.738
  865SOL    HW2 3495   1.264   6.731   5.649
  866SOL     OW 3496   1.998   2.275   2.049
  866SOL    HW1 3497   1.979   2.234   1.960
  866SOL    HW2 3498   2.058   2.354   2.038
  867SOL     OW 3499   4.095   3.590   0.454
  867SOL    HW1 3500   4.102   3.562   0.550
  867SOL    HW2 3501   4.040   3.524   0.404
  868SOL     OW 3502   6.067   1.253   0.892
  868SOL    HW1 3503   6.103   1.180   0.833
  868SOL    HW2 3504   6.042   1.332   0.836
  869SOL     OW 3505   0.641   4.663   3.176
  869SOL    HW1 3506   0.617   4.607   3.096
  869SOL    HW2 3507   0.561   4.675   3.234
  870SOL     OW 3508   4.516   3.087   0.553
  870SOL    HW1 3509   4.488   3.181   0.534
  870SOL    HW2 3510   4.451   3.046   0.618
  871SOL     OW 3511   4.624   2.338   3.026
  871SOL    HW1 3512   4.557   2.355   2.953
  871SOL    HW2 3513   4.609   2.247   3.064
  872SOL     OW 3514   5.564   2.958   3.897
  872SOL    HW1 3515   5.653   2.929   3.864
  872SOL    HW2 3516   5.503   2.974   3.819
  873SOL     OW 3517   5.575   0.203   4.176
  873SOL    HW1 3518   5.653   0.199   4.113
  873SOL    HW2 3519   5.580   0.127   4.241
  874SOL     OW 3520   1.051   4.146   6.007
  874SOL    HW1 3521   0.967   4.188   6.039
  874SOL    HW2 3522   1.064   4.166   5.910
  875SOL     OW 3523   3.710   3.403   0.469
  875SOL    HW1 3524   3.694   3.497   0.438
  875SOL    HW2 3525   3.804   3.377   0.449
  876SOL     OW 3526   0.354   4.318   2.453
  876SOL    HW1 3527   0.364   4.315   2.354
  876SOL    HW2 3528   0.445   4.317   2.495
  877SOL     OW 3529   3.950   4.660   6.404
  877SOL    HW1 3530   4.010   4.708   6.341
  877SOL    HW2 3531   3.927   4.570   6.366
  878SOL     OW 3532   3.644   6.395   5.170
  878SOL    HW1 3533   3.675   6.487   5.148
  878SOL    HW2 3534   3.613   6.392   5.265
  879SOL     OW 3535   4.044   2.344   0.923
  879SOL    HW1 3536   4.135   2.371   0.892
  879SOL    HW2 3537   4.042   2.245   0.937
  880SOL     OW 3538   3.159   3.924   4.419
  880SOL    HW1 3539   3.229   3.937   4.489
  880SOL    HW2 3540   3.072   3.901   4.462
  881SOL     OW 3541   5.192   3.938   4.804
  881SOL    HW1 3542   5.171   3.880   4.883
  881SOL    HW2 3543   5.255   3.890   4.743
  882SOL     OW 3544   0.628   2.529   4.259
  882SOL    HW1 3545   0.628   2.486   4.168
  882SOL    HW2 3546   0.557   2.600   4.261
  883SOL     OW 3547   4.567   6.992   6.762
  883SOL    HW1 3548   4.476   0.011   6.761
  883SOL    HW2 3549   4.562   6.900   6.802
  884SOL     OW 3550   6.900   4.176   0.535
  884SOL    HW1 3551   6.840   4.141   0.462
  884SOL    HW2 3552   6.996   4.166   0.507
  885SOL     OW 3553   4.723   6.180   6.456
  885SOL    HW1 3554   4.752   6.227   6.539
  885SOL    HW2 3555   4.704   6.247   6.384
  886SOL     OW 3556   4.156   0.944   1.195
  886SOL    HW1 3557   4.067   0.987   1.179
  886SOL    HW2 3558   4.226   1.014   1.207
  887SOL     OW 3559   3.821   5.595   3.944
  887SOL    HW1 3560   3.783   5.679   3.906
  887SOL    HW2 3561   3.842   5.609   4.041
  888SOL     OW 3562   6.555   5.515   2.601
  888SOL    HW1 3563   6.563   5.437   2.663
  888SOL    HW2 3564   6.504   5.488   2.520
  889SOL     OW 3565   1.021   0.218   5.920
  889SOL    HW1 3566   1.026   0.309   5.879
  889SOL    HW2 3567   0.934   0.175   5.896
  890SOL     OW 3568   1.582   5.681   2.211
  890SOL    HW1 3569   1.499   5.678   2.155
  890SOL    HW2 3570   1.626   5.591   2.209
  891SOL     OW 3571   6.439   3.356   0.463
  891SOL    HW1 3572   6.421   3.300   0.383
  891SOL    HW2 3573   6.380   3.326   0.538
  892SOL     OW 3574   3.752   4.592   6.044
  892SOL    HW1 3575   3.785   4.678   6.083
  892SOL    HW2 3576   3.828   4.530   6.029
  893SOL     OW 3577   2.212   0.758   2.188
  893SOL    HW1 3578   2.278   0.729   2.118
  893SOL    HW2 3579   2.122   0.768   2.147
  894SOL     OW 3580   0.939   2.711   3.402
  894SOL    HW1 3581   0.978   2.784   3.346
  894SOL    HW2 3582   0.991   2.627   3.389
  895SOL     OW 3583   0.941   5.379   3.768
  895SOL    HW1 3584   1.018   5.363   3.706
  895SOL    HW2 3585   0.921   5.295   3.819
  896SOL     OW 3586   6.146   6.764   1.349
  896SOL    HW1 3587   6.071   6.806   1.400
  896SOL    HW2 3588   6.222   6.745   1.411
  897SOL     OW 3589   4.296   0.983   6.520
  897SOL    HW1 3590   4.319   0.992   6.423
  897SOL    HW2 3591   4.201   1.008   6.535
  898SOL     OW 3592   3.486   6.576   3.077
  898SOL    HW1 3593   3.417   6.600   3.145
  898SOL    HW2 3594   3.519   6.659   3.032
  899SOL     OW 3595   0.669   5.543   1.142
  899SOL    HW1 3596   0.648   5.624   1.088
  899SOL    HW2 3597   0.760   5.509   1.117
  900SOL     OW 3598   4.878   6.171   0.229
  900SOL    HW1 3599   4.974   6.185   0.208
  900SOL    HW2 3600   4.828   6.144   0.147
  901SOL     OW 3601   1.468   0.915   5.471
  901SOL    HW1 3602   1.452   0.840   5.535
  901SOL    HW2 3603   1.403   0.989   5.490
  902SOL     OW 3604   0.795   2.656   0.833
  902SOL    HW1 3605   0.868   2.627   0.771
  902SOL    HW2 3606   0.720   2.695   0.779
  903SOL     OW 3607   6.950   3.382   6.403
  903SOL    HW1 3608   6.958   3.480   6.418
  903SOL    HW2 3609   6.900   3.340   6.479
  904SOL     OW 3610   2.213   2.501   2.761
  904SOL    HW1 3611   2.179   2.579   2.813
  904SOL    HW2 3612   2.168   2.498   2.672
  905SOL     OW 3613   4.957   3.780   5.626
  905SOL    HW1 3614   4.922   3.816   5.713
  905SOL    HW2 3615   4.885   3.729   5.580
  906SOL     OW 3616   0.784   3.211   6.393
  906SOL    HW1 3617   0.870   3.262   6.403
  906SOL    HW2 3618   0.728   3.254   6.322
  907SOL     OW 3619   4.939   2.359   2.670
  907SOL    HW1 3620   4.852   2.379   2.716
  907SOL    HW2 3621   4.984   2.445   2.646
  908SOL     OW 3622   2.495   4.989   2.602
  908SOL    HW1 3623   2.552   5.071   2.608
  908SOL    HW2 3624   2.475   4.968   2.507
  909SOL     OW 3625   2.738   5.892   1.753
  909SOL    HW1 3626   2.676   5.816   1.735
  909SOL    HW2 3627   2.693   5.978   1.729
  910SOL     OW 3628   2.554   1.169   0.291
  910SOL    HW1 3629   2.528   1.167   0.387
  910SOL    HW2 3630   2.500   1.102   0.240
  911SOL     OW 3631   6.719   5.790   0.588
  911SOL    HW1 3632   6.670   5.800   0.501
  911SOL    HW2 3633   6.758   5.878   0.614
  912SOL     OW 3634   5.493   0.501   3.871
  912SOL    HW1 3635   5.592   0.493   3.883
  912SOL    HW2 3636   5.471   0.505   3.774
  913SOL     OW 3637   2.021   0.892   3.459
  913SOL    HW1 3638   2.048   0.894   3.556
  913SOL    HW2 3639   2.007   0.986   3.426
  914SOL     OW 3640   1.876   5.873   5.133
  914SOL    HW1 3641   1.812   5.934   5.179
  914SOL    HW2 3642   1.922   5.815   5.200
  915SOL     OW 3643   0.935   3.127   0.775
  915SOL    HW1 3644   0.966   3.090   0.863
  915SOL    HW2 3645   0.972   3.219   0.763
  916SOL     OW 3646   1.329   2.961   2.405
  916SOL    HW1 3647   1.313   2.953   2.504
  916SOL    HW2 3648   1.411   3.016   2.389
  917SOL     OW 3649   5.756   0.810   2.302
  917SOL    HW1 3650   5.732   0.733   2.361
  917SOL    HW2 3651   5.761   0.894   2.357
  918SOL     OW 3652   3.278   0.148   0.481
  918SOL    HW1 3653   3.271   0.177   0.385
  918SOL    HW2 3654   3.279   0.048   0.485
  919SOL     OW 3655   6.470   5.885   3.074
  919SOL    HW1 3656   6.381   5.925   3.052
  919SOL    HW2 3657   6.539   5.920   3.010
  920SOL     OW 3658   2.141   5.387   2.660
  920SOL    HW1 3659   2.116   5.426   2.748
  920SOL    HW2 3660   2.174   5.293   2.673
  921SOL     OW 3661   4.921   4.343   3.085
  921SOL    HW1 3662   4.973   4.286   3.021
  921SOL    HW2 3663   4.981   4.374   3.158
  922SOL     OW 3664   3.159   3.604   6.035
  922SOL    HW1 3665   3.190   3.613   5.940
  922SOL    HW2 3666   3.066   3.641   6.043
  923SOL     OW 3667   2.973   4.788   6.008
  923SOL    HW1 3668   3.032   4.728   5.954
  923SOL    HW2 3669   2.947   4.741   6.092
  924SOL     OW 3670   5.714   2.713   3.184
  924SOL    HW1 3671   5.701   2.767   3.101
  924SOL    HW2 3672   5.648   2.638   3.187
  925SOL     OW 3673   0.654   1.374   6.527
  925SOL    HW1 3674   0.715   1.323   6.588
  925SOL    HW2 3675   0.665   1.342   6.433
  926SOL     OW 3676   6.103   0.620   0.582
  926SOL    HW1 3677   6.069   0.570   0.662
  926SOL    HW2 3678   6.026   0.649   0.525
  927SOL     OW 3679   6.140   4.058   3.220
  927SOL    HW1 3680   6.123   3.983   3.285
  927SOL    HW2 3681   6.071   4.130   3.235
  928SOL     OW 3682   1.137   5.753   0.871
  928SOL    HW1 3683   1.105   5.711   0.956
  928SOL    HW2 3684   1.093   5.842   0.860
  929SOL     OW 3685   0.174   1.063   0.929
  929SOL    HW1 3686   0.180   0.964   0.941
  929SOL    HW2 3687   0.249   1.094   0.871
  930SOL     OW 3688   5.719   5.882   4.130
  930SOL    HW1 3689   5.714   5.979   4.109
  930SOL    HW2 3690   5.749   5.832   4.049
  931SOL     OW 3691   6.079   2.131   3.340
  931SOL    HW1 3692   6.028   2.132   3.426
  931SOL    HW2 3693   6.056   2.212   3.287
  932SOL     OW 3694   3.166   6.636   3.101
  932SOL    HW1 3695   3.152   6.604   3.194
  932SOL    HW2 3696   3.202   6.560   3.045
  933SOL     OW 3697   1.108   5.943   3.223
  933SOL    HW1 3698   1.181   5.953   3.156
  933SOL    HW2 3699   1.133   5.869   3.287
  934SOL     OW 3700   2.095   0.114   5.758
  934SOL    HW1 3701   2.131   0.027   5.791
  934SOL    HW2 3702   2.149   0.190   5.796
  935SOL     OW 3703   4.742   4.732   4.791
  935SOL    HW1 3704   4.800   4.789   4.733
  935SOL    HW2 3705   4.653   4.718   4.746
  936SOL     OW 3706   1.165   0.442   6.109
  936SOL    HW1 3707   1.107   0.521   6.089
  936SOL    HW2 3708   1.127   0.360   6.066
  937SOL     OW 3709   5.011   1.138   4.738
  937SOL    HW1 3710   5.072   1.213   4.711
  937SOL    HW2 3711   5.041   1.054   4.692
  938SOL     OW 3712   6.597   5.326   5.523
  938SOL    HW1 3713   6.650   5.336   5.607
  938SOL    HW2 3714   6.562   5.416   5.494
  939SOL     OW 3715   6.148   0.017   5.543
  939SOL    HW1 3716   6.082   6.974   5.579
  939SOL    HW2 3717   6.123   0.110   5.572
  940SOL     OW 3718   0.203   2.735   2.176
  940SOL    HW1 3719   0.155   2.653   2.147
  940SOL    HW2 3720   0.262   2.713   2.254
  941SOL     OW 3721   5.399   1.045   5.597
  941SOL    HW1 3722   5.375   0.995   5.680
  941SOL    HW2 3723   5.496   1.031   5.576
  942SOL     OW 3724   5.243   6.854   3.263
  942SOL    HW1 3725   5.224   6.862   3.361
  942SOL    HW2 3726   5.337   6.885   3.245
  943SOL     OW 3727   2.115   3.300   3.794
  943SOL    HW1 3728   2.180   3.225   3.785
  943SOL    HW2 3729   2.090   3.311   3.890
  944SOL     OW 3730   0.282   3.915   5.862
  944SOL    HW1 3731   0.230   3.868   5.933
  944SOL    HW2 3732   0.350   3.976   5.904
  945SOL     OW 3733   5.936   4.251   4.645
  945SOL    HW1 3734   6.020   4.227   4.596
  945SOL    HW2 3735   5.857   4.212   4.597
  946SOL     OW 3736   5.231   2.626   6.381
  946SOL    HW1 3737   5.292   2.684   6.434
  946SOL    HW2 3738   5.209   2.671   6.294
  947SOL     OW 3739   4.076   3.226   4.151
  947SOL    HW1 3740   4.007   3.180   4.094
  947SOL    HW2 3741   4.116   3.302   4.101
  948SOL     OW 3742   3.869   0.112   1.328
  948SOL    HW1 3743   3.790   0.078   1.380
  948SOL    HW2 3744   3.911   0.037   1.278
  949SOL     OW 3745   1.058   6.434   6.525
  949SOL    HW1 3746   1.095   6.415   6.434
  949SOL    HW2 3747   1.045   6.347   6.574
  950SOL     OW 3748   4.655   5.340   1.668
  950SOL    HW1 3749   4.721   5.394   1.720
  950SOL    HW2 3750   4.562   5.374   1.686
  951SOL     OW 3751   2.092   1.368   3.899
  951SOL    HW1 3752   2.184   1.332   3.911
  951SOL    HW2 3753   2.080   1.399   3.805
  952SOL     OW 3754   5.110   1.677   3.107
  952SOL    HW1 3755   5.016   1.711   3.099
  952SOL    HW2 3756   5.109   1.591   3.160
  953SOL     OW 3757   5.562   5.366   4.109
  953SOL    HW1 3758   5.505   5.295   4.069
  953SOL    HW2 3759   5.513   5.409   4.185
  954SOL     OW 3760   4.219   5.522   0.616
  954SOL    HW1 3761   4.229   5.601   0.677
  954SOL    HW2 3762   4.308   5.480   0.600
  955SOL     OW 3763   7.016   3.791   3.382
  955SOL    HW1 3764   6.985   3.772   3.289
  955SOL    HW2 3765   0.033   3.883   3.387
  956SOL     OW 3766   6.756   1.824   2.534
  956SOL    HW1 3767   6.699   1.867   2.464
  956SOL    HW2 3768   6.838   1.785   2.491
  957SOL     OW 3769   6.523   4.039   5.103
  957SOL    HW1 3770   6.549   4.077   5.014
  957SOL    HW2 3771   6.441   4.087   5.136
  958SOL     OW 3772   4.288   1.913   1.923
  958SOL    HW1 3773   4.297   2.007   1.891
  958SOL    HW2 3774   4.199   1.876   1.897
  959SOL     OW 3775   3.638   5.680   2.613
  959SOL    HW1 3776   3.544   5.671   2.648
  959SOL    HW2 3777   3.655   5.776   2.588
  960SOL     OW 3778   1.052   6.188   1.817
  960SOL    HW1 3779   0.992   6.125   1.768
  960SOL    HW2 3780   1.012   6.279   1.817
  961SOL     OW 3781   5.403   0.035   3.480
  961SOL    HW1 3782   5.306   0.009   3.488
  961SOL    HW2 3783   5.410   0.119   3.426
  962SOL     OW 3784   0.637   0.936   5.345
  962SOL    HW1 3785   0.617   0.900   5.254
  962SOL    HW2 3786   0.551   0.953   5.394
  963SOL     OW 3787   6.801   1.734   6.431
  963SOL    HW1 3788   6.805   1.674   6.351
  963SOL    HW2 3789   6.888   1.781   6.441
  964SOL     OW 3790   5.882   4.277   0.070
  964SOL    HW1 3791   5.820   4.314   0.001
  964SOL    HW2 3792   5.973   4.267   0.030
  965SOL     OW 3793   5.508   1.937   1.065
  965SOL    HW1 3794   5.474   1.846   1.038
  965SOL    HW2 3795   5.430   1.996   1.085
  966SOL     OW 3796   5.225   2.174   1.970
  966SOL    HW1 3797   5.186   2.242   1.907
  966SOL    HW2 3798   5.223   2.210   2.063
  967SOL     OW 3799   2.392   4.472   1.450
  967SOL    HW1 3800   2.423   4.430   1.365
  967SOL    HW2 3801   2.460   4.538   1.482
  968SOL     OW 3802   3.515   1.111   1.320
  968SOL    HW1 3803   3.514   1.013   1.300
  968SOL    HW2 3804   3.483   1.127   1.413
  969SOL     OW 3805   3.380   5.982   6.159
  969SOL    HW1 3806   3.406   5.885   6.159
  969SOL    HW2 3807   3.328   6.003   6.242
  970SOL     OW 3808   5.523   0.654   5.819
  970SOL    HW1 3809   5.454   0.723   5.797
  970SOL    HW2 3810   5.516   0.629   5.916
  971SOL     OW 3811   6.729   2.081   3.158
  971SOL    HW1 3812   6.707   2.122   3.246
  971SOL    HW2 3813   6.644   2.051   3.113
  972SOL     OW 3814   5.268   3.722   2.196
  972SOL    HW1 3815   5.226   3.812   2.181
  972SOL    HW2 3816   5.328   3.700   2.119
  973SOL     OW 3817   0.370   4.744   0.196
  973SOL    HW1 3818   0.421   4.827   0.217
  973SOL    HW2 3819   0.429   4.664   0.208
  974SOL     OW 3820   5.279   6.647   2.276
  974SOL    HW1 3821   5.193   6.622   2.232
  974SOL    HW2 3822   5.339   6.567   2.280
  975SOL     OW 3823   0.892   6.552   6.726
  975SOL    HW1 3824   0.934   6.483   6.668
  975SOL    HW2 3825   0.904   6.643   6.684
  976SOL     OW 3826   6.816   3.478   2.981
  976SOL    HW1 3827   6.909   3.513   2.977
  976SOL    HW2 3828   6.805   3.420   3.062
  977SOL     OW 3829   1.470   0.672   2.168
  977SOL    HW1 3830   1.435   0.612   2.240
  977SOL    HW2 3831   1.540   0.733   2.207
  978SOL     OW 3832   3.963   3.713   5.701
  978SOL    HW1 3833   3.876   3.728   5.654
  978SOL    HW2 3834   4.019   3.648   5.650
  979SOL     OW 3835   6.982   2.298   0.794
  979SOL    HW1 3836   6.994   2.387   0.750
  979SOL    HW2 3837   6.982   2.310   0.894
  980SOL     OW 3838   4.939   2.342   4.445
  980SOL    HW1 3839   4.859   2.327   4.502
  980SOL    HW2 3840   4.998   2.261   4.447
  981SOL     OW 3841   0.451   1.830   4.812
  981SOL    HW1 3842   0.469   1.892   4.889
  981SOL    HW2 3843   0.422   1.741   4.846
  982SOL     OW 3844   2.489   2.527   4.026
  982SOL    HW1 3845   2.566   2.590   4.040
  982SOL    HW2 3846   2.405   2.580   4.014
  983SOL     OW 3847   6.100   2.403   5.216
  983SOL    HW1 3848   6.124   2.316   5.259
  983SOL    HW2 3849   6.176   2.466   5.222
  984SOL     OW 3850   2.350   1.649   4.850
  984SOL    HW1 3851   2.441   1.656   4.808
  984SOL    HW2 3852   2.359   1.652   4.950
  985SOL     OW 3853   5.591   4.199   4.976
  985SOL    HW1 3854   5.492   4.193   4.966
  985SOL    HW2 3855   5.635   4.153   4.899
  986SOL     OW 3856   5.797   4.667   1.027
  986SOL    HW1 3857   5.778   4.716   1.111
  986SOL    HW2 3858   5.778   4.569   1.041
  987SOL     OW 3859   4.704   6.720   2.237
  987SOL    HW1 3860   4.769   6.770   2.294
  987SOL    HW2 3861   4.612   6.756   2.251
  988SOL     OW 3862   3.206   3.333   2.823
  988SOL    HW1 3863   3.120   3.283   2.819
  988SOL    HW2 3864   3.194   3.424   2.782
  989SOL     OW 3865   6.174   0.822   5.848
  989SOL    HW1 3866   6.189   0.724   5.864
  989SOL    HW2 3867   6.128   0.862   5.927
  990SOL     OW 3868   3.978   0.581   1.964
  990SOL    HW1 3869   3.967   0.576   2.063
  990SOL    HW2 3870   3.923   0.656   1.928
  991SOL     OW 3871   0.885   2.740   5.448
  991SOL    HW1 3872   0.935   2.723   5.364
  991SOL    HW2 3873   0.863   2.653   5.493
  992SOL     OW 3874   6.901   2.652   2.002
  992SOL    HW1 3875   6.839   2.590   2.050
  992SOL    HW2 3876   6.848   2.724   1.957
  993SOL     OW 3877   1.015   4.476   1.407
  993SOL    HW1 3878   0.962   4.475   1.491
  993SOL    HW2 3879   1.003   4.564   1.361
  994SOL     OW 3880   3.745   4.343   1.721
  994SOL    HW1 3881   3.828   4.304   1.680
  994SOL    HW2 3882   3.753   4.442   1.727
  995SOL     OW 3883   3.843   2.923   4.829
  995SOL    HW1 3884   3.863   2.834   4.789
  995SOL    HW2 3885   3.873   2.924   4.925
  996SOL     OW 3886   3.076   4.976   4.734
  996SOL    HW1 3887   3.058   4.948   4.640
  996SOL    HW2 3888   2.994   5.018   4.774
  997SOL     OW 3889   0.861   0.942   2.838
  997SOL    HW1 3890   0.796   0.923   2.912
  997SOL    HW2 3891   0.942   0.986   2.876
  998SOL     OW 3892   4.537   0.299   4.237
  998SOL    HW1 3893   4.573   0.256   4.154
  998SOL    HW2 3894   4.593   0.271   4.316
  999SOL     OW 3895   5.006   4.133   2.789
  999SOL    HW1 3896   5.029   4.040   2.819
  999SOL    HW2 3897   4.909   4.151   2.806
 1000SOL     OW 3898   2.620   1.035   2.058
 1000SOL    HW1 3899   2.614   1.058   2.155
 1000SOL    HW2 3900   2.528   1.025   2.021
 1001SOL     OW 3901   4.755   5.950   0.362
 1001SOL    HW1 3902   4.806   6.025   0.320
 1001SOL    HW2 3903   4.734   5.973   0.457
 1002SOL     OW 3904   6.197   1.660   1.617
 1002SOL    HW1 3905   6.190   1.573   1.568
 1002SOL    HW2 3906   6.113   1.676   1.669
 1003SOL     OW 3907   2.005   6.597   2.327
 1003SOL    HW1 3908   2.096   6.602   2.368
 1003SOL    HW2 3909   1.968   6.505   2.338
 1004SOL     OW 3910   0.326   6.943   2.557
 1004SOL    HW1 3911   0.396   6.918   2.490
 1004SOL    HW2 3912   0.271   7.018   2.522
 1005SOL     OW 3913   2.231   3.035   3.950
 1005SOL    HW1 3914   2.226   3.133   3.969
 1005SOL    HW2 3915   2.227   3.021   3.851
 1006SOL     OW 3916   0.525   4.788   1.608
 1006SOL    HW1 3917   0.452   4.851   1.582
 1006SOL    HW2 3918   0.580   4.828   1.681
 1007SOL     OW 3919   4.207   6.767   4.999
 1007SOL    HW1 3920   4.287   6.826   4.983
 1007SOL    HW2 3921   4.149   6.766   4.918
 1008SOL     OW 3922   1.761   3.066   5.267
 1008SOL    HW1 3923   1.702   3.136   5.227
 1008SOL    HW2 3924   1.745   3.062   5.366
 1009SOL     OW 3925   0.440   5.528   5.026
 1009SOL    HW1 3926   0.462   5.465   5.101
 1009SOL    HW2 3927   0.486   5.615   5.042
 1010SOL     OW 3928   3.489   2.989   5.957
 1010SOL    HW1 3929   3.566   2.952   6.009
 1010SOL    HW2 3930   3.484   2.943   5.868
 1011SOL     OW 3931   2.288   4.604   2.389
 1011SOL    HW1 3932   2.239   4.628   2.473
 1011SOL    HW2 3933   2.341   4.683   2.359
 1012SOL     OW 3934   6.955   0.638   2.080
 1012SOL    HW1 3935   6.865   0.658   2.116
 1012SOL    HW2 3936   6.956   0.545   2.044
 1013SOL     OW 3937   1.425   0.734   5.664
 1013SOL    HW1 3938   1.472   0.645   5.663
 1013SOL    HW2 3939   1.331   0.721   5.694
 1014SOL     OW 3940   6.126   5.227   6.526
 1014SOL    HW1 3941   6.028   5.223   6.506
 1014SOL    HW2 3942   6.173   5.152   6.479
 1015SOL     OW 3943   2.098   6.523   5.679
 1015SOL    HW1 3944   2.040   6.518   5.760
 1015SOL    HW2 3945   2.189   6.490   5.701
 1016SOL     OW 3946   4.032   3.544   6.731
 1016SOL    HW1 3947   4.030   3.453   6.691
 1016SOL    HW2 3948   3.968   3.604   6.683
 1017SOL     OW 3949   4.260   2.502   1.065
 1017SOL    HW1 3950   4.330   2.536   1.002
 1017SOL    HW2 3951   4.294   2.419   1.110
 1018SOL     OW 3952   0.176   4.275   3.432
 1018SOL    HW1 3953   0.176   4.359   3.486
 1018SOL    HW2 3954   0.184   4.196   3.493
 1019SOL     OW 3955   0.028   6.847   1.077
 1019SOL    HW1 3956   6.997   6.932   1.069
 1019SOL    HW2 3957   0.086   6.836   0.996
 1020SOL     OW 3958   0.368   0.899   1.220
 1020SOL    HW1 3959   0.315   0.935   1.297
 1020SOL    HW2 3960   0.307   0.845   1.162
 1021SOL     OW 3961   5.396   0.494   1.279
 1021SOL    HW1 3962   5.416   0.535   1.190
 1021SOL    HW2 3963   5.297   0.491   1.293
 1022SOL     OW 3964   3.483   4.723   5.552
 1022SOL    HW1 3965   3.505   4.685   5.642
 1022SOL    HW2 3966   3.386   4.710   5.533
 1023SOL     OW 3967   0.855   0.076   3.226
 1023SOL    HW1 3968   0.774   0.018   3.238
 1023SOL    HW2 3969   0.926   0.048   3.289
 1024SOL     OW 3970   0.640   2.452   3.972
 1024SOL    HW1 3971   0.715   2.483   3.914
 1024SOL    HW2 3972   0.640   2.352   3.977
 1025SOL     OW 3973   3.537   3.045   1.062
 1025SOL    HW1 3974   3.518   2.947   1.053
 1025SOL    HW2 3975   3.535   3.070   1.159
 1026SOL     OW 3976   2.275   2.751   0.767
 1026SOL    HW1 3977   2.183   2.713   0.782
 1026SOL    HW2 3978   2.267   2.842   0.726
 1027SOL     OW 3979   3.069   6.433   1.461
 1027SOL    HW1 3980   3.126   6.392   1.389
 1027SOL    HW2 3981   2.973   6.417   1.439
 1028SOL     OW 3982   2.713   6.298   0.514
 1028SOL    HW1 3983   2.620   6.281   0.546
 1028SOL    HW2 3984   2.768   6.215   0.526
 1029SOL     OW 3985   1.812   0.183   6.766
 1029SOL    HW1 3986   1.856   0.189   6.676
 1029SOL    HW2 3987   1.875   0.219   6.835
 1030SOL     OW 3988   3.200   2.824   1.821
 1030SOL    HW1 3989   3.132   2.754   1.802
 1030SOL    HW2 3990   3.241   2.856   1.736
 1031SOL     OW 3991   5.515   4.372   1.045
 1031SOL    HW1 3992   5.603   4.381   0.999
 1031SOL    HW2 3993   5.442   4.396   0.981
 1032SOL     OW 3994   2.178   2.314   5.436
 1032SOL    HW1 3995   2.139   2.362   5.358
 1032SOL    HW2 3996   2.116   2.321   5.515
 1033SOL     OW 3997   1.564   6.878   1.290
 1033SOL    HW1 3998   1.560   6.976   1.312
 1033SOL    HW2 3999   1.659   6.852   1.271
 1034SOL     OW 4000   0.543   5.127   4.690
 1034SOL    HW1 4001   0.599   5.197   4.645
 1034SOL    HW2 4002   0.600   5.046   4.706
 1035SOL     OW 4003   0.143   0.776   5.083
 1035SOL    HW1 4004   0.062   0.748   5.134
 1035SOL    HW2 4005   0.140   0.875   5.067
 1036SOL     OW 4006   3.438   1.407   1.853
 1036SOL    HW1 4007   3.527   1.449   1.832
 1036SOL    HW2 4008   3.440   1.371   1.946
 1037SOL     OW 4009   1.907   0.969   1.848
 1037SOL    HW1 4010   1.824   0.951   1.796
 1037SOL    HW2 4011   1.886   1.035   1.921
 1038SOL     OW 4012   1.027   0.503   4.998
 1038SOL    HW1 4013   1.046   0.555   5.081
 1038SOL    HW2 4014   1.007   0.566   4.923
 1039SOL     OW 4015   3.218   3.772   5.504
 1039SOL    HW1 4016   3.247   3.826   5.425
 1039SOL    HW2 4017   3.295   3.761   5.566
 1040SOL     OW 4018   4.446   1.899   2.818
 1040SOL    HW1 4019   4.498   1.900   2.733
 1040SOL    HW2 4020   4.474   1.820   2.873
 1041SOL     OW 4021   6.993   0.245   3.577
 1041SOL    HW1 4022   6.930   0.170   3.556
 1041SOL    HW2 4023   6.941   0.329   3.593
 1042SOL     OW 4024   4.672   5.199   2.054
 1042SOL    HW1 4025   4.636   5.176   2.145
 1042SOL    HW2 4026   4.772   5.200   2.057
 1043SOL     OW 4027   3.737   1.296   5.256
 1043SOL    HW1 4028   3.827   1.283   5.299
 1043SOL    HW2 4029   3.730   1.237   5.175
 1044SOL     OW 4030   5.288   5.353   2.544
 1044SOL    HW1 4031   5.372   5.373   2.495
 1044SOL    HW2 4032   5.285   5.405   2.629
 1045SOL     OW 4033   4.125   6.659   2.240
 1045SOL    HW1 4034   4.220   6.648   2.265
 1045SOL    HW2 4035   4.074   6.699   2.316
 1046SOL     OW 4036   1.272   0.796   0.152
 1046SOL    HW1 4037   1.360   0.833   0.122
 1046SOL    HW2 4038   1.286   0.708   0.196
 1047SOL     OW 4039   1.731   1.342   3.417
 1047SOL    HW1 4040   1.813   1.284   3.416
 1047SOL    HW2 4041   1.757   1.436   3.391
 1048SOL     OW 4042   4.823   6.229   4.096
 1048SOL    HW1 4043   4.857   6.283   4.174
 1048SOL    HW2 4044   4.895   6.168   4.064
 1049SOL     OW 4045   6.351   6.335   3.758
 1049SOL    HW1 4046   6.337   6.268   3.685
 1049SOL    HW2 4047   6.445   6.367   3.756
 1050SOL     OW 4048   4.194   5.177   1.167
 1050SOL    HW1 4049   4.266   5.229   1.213
 1050SOL    HW2 4050   4.152   5.234   1.096
 1051SOL     OW 4051   2.297   6.301   1.131
 1051SOL    HW1 4052   2.253   6.212   1.140
 1051SOL    HW2 4053   2.249   6.368   1.187
 1052SOL     OW 4054   3.701   0.915   4.682
 1052SOL    HW1 4055   3.789   0.872   4.701
 1052SOL    HW2 4056   3.630   0.844   4.678
 1053SOL     OW 4057   5.665   5.231   3.191
 1053SOL    HW1 4058   5.752   5.261   3.153
 1053SOL    HW2 4059   5.610   5.311   3.215
 1054SOL     OW 4060   3.132   4.140   6.243
 1054SOL    HW1 4061   3.065   4.199   6.289
 1054SOL    HW2 4062   3.114   4.140   6.145
 1055SOL     OW 4063   3.401   6.713   5.222
 1055SOL    HW1 4064   3.493   6.710   5.261
 1055SOL    HW2 4065   3.400   6.663   5.135
 1056SOL     OW 4066   1.499   5.336   6.231
 1056SOL    HW1 4067   1.553   5.318   6.313
 1056SOL    HW2 4068   1.483   5.249   6.183
 1057SOL     OW 4069   2.846   3.103   1.794
 1057SOL    HW1 4070   2.851   3.120   1.893
 1057SOL    HW2 4071   2.921   3.044   1.766
 1058SOL     OW 4072   5.121   1.437   3.236
 1058SOL    HW1 4073   5.180   1.405   3.310
 1058SOL    HW2 4074   5.076   1.359   3.193
 1059SOL     OW 4075   2.543   0.634   1.581
 1059SOL    HW1 4076   2.445   0.620   1.568
 1059SOL    HW2 4077   2.560   0.731   1.602
 1060SOL     OW 4078   0.138   4.347   4.745
 1060SOL    HW1 4079   0.110   4.282   4.816
 1060SOL    HW2 4080   0.060   4.368   4.687
 1061SOL     OW 4081   6.215   2.948   0.883
 1061SOL    HW1 4082   6.221   2.903   0.794
 1061SOL    HW2 4083   6.301   2.995   0.903
 1062SOL     OW 4084   5.606   3.851   6.146
 1062SOL    HW1 4085   5.625   3.949   6.145
 1062SOL    HW2 4086   5.574   3.823   6.055
 1063SOL     OW 4087   1.818   5.027   2.155
 1063SOL    HW1 4088   1.864   5.028   2.066
 1063SOL    HW2 4089   1.867   4.968   2.218
 1064SOL     OW 4090   1.872   4.180   1.869
 1064SOL    HW1 4091   1.833   4.106   1.814
 1064SOL    HW2 4092   1.827   4.266   1.846
 1065SOL     OW 4093   3.369   0.205   3.780
 1065SOL    HW1 4094   3.313   0.278   3.819
 1065SOL    HW2 4095   3.377   0.218   3.682
 1066SOL     OW 4096   4.752   6.375   3.108
 1066SOL    HW1 4097   4.796   6.429   3.180
 1066SOL    HW2 4098   4.708   6.295   3.148
 1067SOL     OW 4099   0.638   3.453   0.821
 1067SOL    HW1 4100   0.540   3.470   0.831
 1067SOL    HW2 4101   0.676   3.422   0.908
 1068SOL     OW 4102   5.523   5.880   2.993
 1068SOL    HW1 4103   5.498   5.827   3.074
 1068SOL    HW2 4104   5.584   5.826   2.935
 1069SOL     OW 4105   4.288   5.350   1.410
 1069SOL    HW1 4106   4.225   5.310   1.477
 1069SOL    HW2 4107   4.265   5.447   1.397
 1070SOL     OW 4108   6.972   0.198   2.155
 1070SOL    HW1 4109   6.891   0.158   2.112
 1070SOL    HW2 4110   0.009   0.125   2.189
 1071SOL     OW 4111   1.418   0.526   3.602
 1071SOL    HW1 4112   1.344   0.474   3.645
 1071SOL    HW2 4113   1.506   0.493   3.636
 1072SOL     OW 4114   2.430   1.043   1.255
 1072SOL    HW1 4115   2.402   1.084   1.342
 1072SOL    HW2 4116   2.468   1.114   1.195
 1073SOL     OW 4117   4.937   6.903   1.860
 1073SOL    HW1 4118   5.003   6.862   1.923
 1073SOL    HW2 4119   4.901   6.987   1.900
 1074SOL     OW 4120   1.857   5.225   1.167
 1074SOL    HW1 4121   1.906   5.152   1.119
 1074SOL    HW2 4122   1.921   5.295   1.196
 1075SOL     OW 4123   5.050   6.804   4.158
 1075SOL    HW1 4124   5.124   6.869   4.176
 1075SOL    HW2 4125   5.068   6.756   4.072
 1076SOL     OW 4126   7.008   2.788   5.675
 1076SOL    HW1 4127   6.980   2.825   5.763
 1076SOL    HW2 4128   0.079   2.818   5.653
 1077SOL     OW 4129   5.911   0.669   1.036
 1077SOL    HW1 4130   5.910   0.768   1.053
 1077SOL    HW2 4131   5.912   0.621   1.124
 1078SOL     OW 4132   1.147   1.403   2.382
 1078SOL    HW1 4133   1.207   1.428   2.458
 1078SOL    HW2 4134   1.171   1.311   2.350
 1079SOL     OW 4135   2.288   6.175   2.237
 1079SOL    HW1 4136   2.220   6.169   2.310
 1079SOL    HW2 4137   2.295   6.270   2.206
 1080SOL     OW 4138   0.935   4.150   3.597
 1080SOL    HW1 4139   0.969   4.111   3.511
 1080SOL    HW2 4140   0.991   4.116   3.672
 1081SOL     OW 4141   0.569   5.450   5.921
 1081SOL    HW1 4142   0.538   5.514   5.851
 1081SOL    HW2 4143   0.638   5.389   5.883
 1082SOL     OW 4144   4.098   2.184   5.592
 1082SOL    HW1 4145   4.117   2.181   5.494
 1082SOL    HW2 4146   4.034   2.112   5.616
 1083SOL     OW 4147   4.171   3.831   7.019
 1083SOL    HW1 4148   4.213   3.764   0.058
 1083SOL    HW2 4149   4.225   3.838   6.935
 1084SOL     OW 4150   5.650   6.075   6.754
 1084SOL    HW1 4151   5.562   6.064   6.710
 1084SOL    HW2 4152   5.662   6.004   6.824
 1085SOL     OW 4153   1.226   3.709   4.058
 1085SOL    HW1 4154   1.260   3.787   4.111
 1085SOL    HW2 4155   1.302   3.646   4.040
 1086SOL     OW 4156   6.636   6.372   0.937
 1086SOL    HW1 4157   6.549   6.324   0.926
 1086SOL    HW2 4158   6.632   6.459   0.887
 1087SOL     OW 4159   5.438   1.437   4.848
 1087SOL    HW1 4160   5.385   1.500   4.903
 1087SOL    HW2 4161   5.524   1.416   4.894
 1088SOL     OW 4162   6.829   4.874   3.350
 1088SOL    HW1 4163   6.803   4.778   3.343
 1088SOL    HW2 4164   6.747   4.930   3.360
 1089SOL     OW 4165   1.606   6.285   4.188
 1089SOL    HW1 4166   1.548   6.218   4.142
 1089SOL    HW2 4167   1.653   6.242   4.264
 1090SOL     OW 4168   2.270   2.325   3.955
 1090SOL    HW1 4169   2.263   2.423   3.970
 1090SOL    HW2 4170   2.226   2.301   3.868
 1091SOL     OW 4171   3.263   1.764   5.192
 1091SOL    HW1 4172   3.253   1.854   5.150
 1091SOL    HW2 4173   3.176   1.715   5.188
 1092SOL     OW 4174   2.141   4.041   1.716
 1092SOL    HW1 4175   2.065   4.036   1.780
 1092SOL    HW2 4176   2.191   3.954   1.717
 1093SOL     OW 4177   2.101   1.367   2.123
 1093SOL    HW1 4178   2.154   1.283   2.113
 1093SOL    HW2 4179   2.162   1.446   2.118
 1094SOL     OW 4180   0.683   6.948   3.635
 1094SOL    HW1 4181   0.587   6.944   3.609
 1094SOL    HW2 4182   0.730   6.866   3.602
 1095SOL     OW 4183   0.482   2.853   6.613
 1095SOL    HW1 4184   0.575   2.879   6.640
 1095SOL    HW2 4185   0.469   2.874   6.516
 1096SOL     OW 4186   3.452   4.488   1.709
 1096SOL    HW1 4187   3.522   4.418   1.705
 1096SOL    HW2 4188   3.488   4.570   1.754
 1097SOL     OW 4189   2.143   4.519   4.057
 1097SOL    HW1 4190   2.133   4.585   3.983
 1097SOL    HW2 4191   2.065   4.527   4.119
 1098SOL     OW 4192   4.131   3.467   6.967
 1098SOL    HW1 4193   4.047   3.444   7.017
 1098SOL    HW2 4194   4.109   3.528   6.892
 1099SOL     OW 4195   4.184   1.797   5.726
 1099SOL    HW1 4196   4.105   1.766   5.779
 1099SOL    HW2 4197   4.261   1.735   5.742
 1100SOL     OW 4198   3.659   1.629   5.509
 1100SOL    HW1 4199   3.608   1.697   5.561
 1100SOL    HW2 4200   3.641   1.641   5.411
 1101SOL     OW 4201   6.290   2.401   6.735
 1101SOL    HW1 4202   6.275   2.313   6.688
 1101SOL    HW2 4203   6.379   2.399   6.781
 1102SOL     OW 4204   0.441   6.408   5.267
 1102SOL    HW1 4205   0.473   6.320   5.301
 1102SOL    HW2 4206   0.436   6.406   5.167
 1103SOL     OW 4207   3.916   1.415   0.259
 1103SOL    HW1 4208   3.979   1.344   0.228
 1103SOL    HW2 4209   3.843   1.427   0.193
 1104SOL     OW 4210   2.269   2.719   5.482
 1104SOL    HW1 4211   2.303   2.670   5.563
 1104SOL    HW2 4212   2.314   2.808   5.476
 1105SOL     OW 4213   6.608   3.922   5.356
 1105SOL    HW1 4214   6.585   3.963   5.267
 1105SOL    HW2 4215   6.524   3.904   5.407
 1106SOL     OW 4216   0.605   2.166   1.749
 1106SOL    HW1 4217   0.652   2.212   1.673
 1106SOL    HW2 4218   0.513   2.140   1.720
 1107SOL     OW 4219   1.422   0.475   6.978
 1107SOL    HW1 4220   1.469   0.559   6.951
 1107SOL    HW2 4221   1.482   0.420   0.015
 1108SOL     OW 4222   3.851   0.421   5.910
 1108SOL    HW1 4223   3.943   0.400   5.876
 1108SOL    HW2 4224   3.858   0.472   5.996
 1109SOL     OW 4225   5.041   0.672   4.494
 1109SOL    HW1 4226   5.042   0.604   4.421
 1109SOL    HW2 4227   5.110   0.649   4.563
 1110SOL     OW 4228   2.430   1.469   3.237
 1110SOL    HW1 4229   2.499   1.504   3.300
 1110SOL    HW2 4230   2.472   1.447   3.149
 1111SOL     OW 4231   4.502   5.211   6.172
 1111SOL    HW1 4232   4.404   5.213   6.155
 1111SOL    HW2 4233   4.532   5.301   6.205
 1112SOL     OW 4234   4.871   1.308   2.202
 1112SOL    HW1 4235   4.805   1.234   2.193
 1112SOL    HW2 4236   4.851   1.360   2.286
 1113SOL     OW 4237   6.251   3.904   1.887
 1113SOL    HW1 4238   6.302   3.853   1.818
 1113SOL    HW2 4239   6.250   3.852   1.973
 1114SOL     OW 4240   3.754   1.919   6.709
 1114SOL    HW1 4241   3.819   1.983   6.668
 1114SOL    HW2 4242   3.671   1.968   6.734
 1115SOL     OW 4243   4.057   3.312   6.549
 1115SOL    HW1 4244   4.053   3.364   6.464
 1115SOL    HW2 4245   4.148   3.272   6.559
 1116SOL     OW 4246   4.865   6.375   5.468
 1116SOL    HW1 4247   4.793   6.320   5.424
 1116SOL    HW2 4248   4.892   6.450   5.407
 1117SOL     OW 4249   2.109   2.244   2.359
 1117SOL    HW1 4250   2.194   2.295   2.366
 1117SOL    HW2 4251   2.075   2.249   2.265
 1118SOL     OW 4252   2.845   4.660   0.992
 1118SOL    HW1 4253   2.906   4.724   1.037
 1118SOL    HW2 4254   2.841   4.575   1.045
 1119SOL     OW 4255   4.005   4.449   1.445
 1119SOL    HW1 4256   3.925   4.469   1.389
 1119SOL    HW2 4257   4.004   4.352   1.472
 1120SOL     OW 4258   6.311   6.795   6.047
 1120SOL    HW1 4259   6.281   6.700   6.042
 1120SOL    HW2 4260   6.231   6.853   6.065
 1121SOL     OW 4261   5.064   4.986   3.407
 1121SOL    HW1 4262   5.018   5.043   3.339
 1121SOL    HW2 4263   5.159   4.971   3.379
 1122SOL     OW 4264   5.310   2.987   6.916
 1122SOL    HW1 4265   5.232   3.049   6.912
 1122SOL    HW2 4266   5.281   2.895   6.888
 1123SOL     OW 4267   4.724   0.920   3.427
 1123SOL    HW1 4268   4.800   0.914   3.361
 1123SOL    HW2 4269   4.641   0.948   3.380
 1124SOL     OW 4270   0.579   3.877   5.263
 1124SOL    HW1 4271   0.481   3.857   5.259
 1124SOL    HW2 4272   0.592   3.974   5.284
 1125SOL     OW 4273   3.298   2.131   4.574
 1125SOL    HW1 4274   3.254   2.041   4.572
 1125SOL    HW2 4275   3.228   2.202   4.571
 1126SOL     OW 4276   6.151   4.852   6.768
 1126SOL    HW1 4277   6.156   4.837   6.669
 1126SOL    HW2 4278   6.219   4.921   6.794
 1127SOL     OW 4279   5.198   5.291   4.795
 1127SOL    HW1 4280   5.289   5.267   4.830
 1127SOL    HW2 4281   5.129   5.271   4.864
 1128SOL     OW 4282   5.575   1.659   5.327
 1128SOL    HW1 4283   5.630   1.741   5.328
 1128SOL    HW2 4284   5.482   1.681   5.295
 1129SOL     OW 4285   2.154   0.345   6.834
 1129SOL    HW1 4286   2.249   0.318   6.849
 1129SOL    HW2 4287   2.133   0.341   6.736
 1130SOL     OW 4288   2.562   4.649   0.577
 1130SOL    HW1 4289   2.623   4.572   0.557
 1130SOL    HW2 4290   2.571   4.673   0.674
 1131SOL     OW 4291   6.920   5.393   6.004
 1131SOL    HW1 4292   6.980   5.329   5.955
 1131SOL    HW2 4293   6.966   5.482   6.011
 1132SOL     OW 4294   5.419   0.647   1.722
 1132SOL    HW1 4295   5.475   0.603   1.652
 1132SOL    HW2 4296   5.354   0.580   1.760
 1133SOL     OW 4297   0.874   0.237   1.377
 1133SOL    HW1 4298   0.853   0.255   1.281
 1133SOL    HW2 4299   0.880   0.139   1.392
 1134SOL     OW 4300   5.134   0.615   1.966
 1134SOL    HW1 4301   5.089   0.687   1.914
 1134SOL    HW2 4302   5.155   0.648   2.058
 1135SOL     OW 4303   2.560   1.018   2.705
 1135SOL    HW1 4304   2.640   0.963   2.728
 1135SOL    HW2 4305   2.497   0.964   2.650
 1136SOL     OW 4306   3.765   5.044   3.571
 1136SOL    HW1 4307   3.772   5.135   3.530
 1136SOL    HW2 4308   3.754   4.976   3.498
 1137SOL     OW 4309   1.388   0.885   6.517
 1137SOL    HW1 4310   1.389   0.842   6.427
 1137SOL    HW2 4311   1.476   0.932   6.532
 1138SOL     OW 4312   0.066   0.764   5.677
 1138SOL    HW1 4313   0.033   0.856   5.696
 1138SOL    HW2 4314   0.001   0.697   5.711
 1139SOL     OW 4315   3.374   5.198   1.549
 1139SOL    HW1 4316   3.431   5.231   1.623
 1139SOL    HW2 4317   3.280   5.231   1.561
 1140SOL     OW 4318   4.221   1.455   1.941
 1140SOL    HW1 4319   4.259   1.536   1.985
 1140SOL    HW2 4320   4.265   1.442   1.852
 1141SOL     OW 4321   0.333   5.895   6.931
 1141SOL    HW1 4322   0.432   5.881   6.943
 1141SOL    HW2 4323   0.297   5.948   7.007
 1142SOL     OW 4324   2.744   6.843   4.432
 1142SOL    HW1 4325   2.662   6.799   4.397
 1142SOL    HW2 4326   2.825   6.790   4.406
 1143SOL     OW 4327   1.527   3.865   2.708
 1143SOL    HW1 4328   1.439   3.889   2.665
 1143SOL    HW2 4329   1.584   3.947   2.714
 1144SOL     OW 4330   6.617   4.783   4.634
 1144SOL    HW1 4331   6.690   4.846   4.610
 1144SOL    HW2 4332   6.654   4.709   4.690
 1145SOL     OW 4333   6.699   3.460   2.746
 1145SOL    HW1 4334   6.731   3.477   2.839
 1145SOL    HW2 4335   6.616   3.404   2.750
 1146SOL     OW 4336   6.565   0.540   2.376
 1146SOL    HW1 4337   6.655   0.530   2.334
 1146SOL    HW2 4338   6.567   0.501   2.468
 1147SOL     OW 4339   2.324   5.115   1.414
 1147SOL    HW1 4340   2.242   5.057   1.406
 1147SOL    HW2 4341   2.301   5.199   1.463
 1148SOL     OW 4342   4.864   5.949   0.873
 1148SOL    HW1 4343   4.951   5.902   0.889
 1148SOL    HW2 4344   4.853   6.023   0.940
 1149SOL     OW 4345   6.962   4.046   3.305
 1149SOL    HW1 4346   6.992   4.135   3.271
 1149SOL    HW2 4347   6.865   4.032   3.283
 1150SOL     OW 4348   2.380   3.622   0.200
 1150SOL    HW1 4349   2.451   3.661   0.141
 1150SOL    HW2 4350   2.417   3.545   0.250
 1151SOL     OW 4351   4.911   4.807   6.718
 1151SOL    HW1 4352   4.880   4.774   6.629
 1151SOL    HW2 4353   4.832   4.824   6.777
 1152SOL     OW 4354   5.401   4.925   6.153
 1152SOL    HW1 4355   5.411   4.835   6.112
 1152SOL    HW2 4356   5.489   4.973   6.151
 1153SOL     OW 4357   1.678   0.661   1.498
 1153SOL    HW1 4358   1.668   0.576   1.447
 1153SOL    HW2 4359   1.774   0.672   1.526
 1154SOL     OW 4360   0.213   4.260   1.254
 1154SOL    HW1 4361   0.244   4.297   1.166
 1154SOL    HW2 4362   0.242   4.165   1.262
 1155SOL     OW 4363   2.519   5.613   6.863
 1155SOL    HW1 4364   2.452   5.649   6.928
 1155SOL    HW2 4365   2.480   5.535   6.815
 1156SOL     OW 4366   4.076   1.880   4.688
 1156SOL    HW1 4367   4.167   1.856   4.656
 1156SOL    HW2 4368   4.069   1.864   4.787
 1157SOL     OW 4369   5.712   0.636   5.465
 1157SOL    HW1 4370   5.708   0.583   5.550
 1157SOL    HW2 4371   5.696   0.576   5.387
 1158SOL     OW 4372   0.186   5.337   5.362
 1158SOL    HW1 4373   0.094   5.343   5.399
 1158SOL    HW2 4374   0.204   5.243   5.331
 1159SOL     OW 4375   6.244   6.937   4.137
 1159SOL    HW1 4376   6.272   7.020   4.186
 1159SOL    HW2 4377   6.147   6.943   4.114
 1160SOL     OW 4378   4.420   3.960   0.778
 1160SOL    HW1 4379   4.350   3.897   0.744
 1160SOL    HW2 4380   4.384   4.011   0.856
 1161SOL     OW 4381   6.274   0.281   6.550
 1161SOL    HW1 4382   6.213   0.277   6.629
 1161SOL    HW2 4383   6.260   0.200   6.493
 1162SOL     OW 4384   3.125   2.227   6.502
 1162SOL    HW1 4385   3.057   2.242   6.574
 1162SOL    HW2 4386   3.078   2.200   6.417
 1163SOL     OW 4387   6.363   3.310   2.163
 1163SOL    HW1 4388   6.401   3.372   2.232
 1163SOL    HW2 4389   6.393   3.217   2.182
 1164SOL     OW 4390   6.324   3.184   4.862
 1164SOL    HW1 4391   6.265   3.128   4.920
 1164SOL    HW2 4392   6.391   3.125   4.816
 1165SOL     OW 4393   2.975   4.826   3.927
 1165SOL    HW1 4394   2.982   4.899   3.995
 1165SOL    HW2 4395   2.995   4.862   3.836
 1166SOL     OW 4396   3.971   6.697   0.239
 1166SOL    HW1 4397   3.889   6.645   0.263
 1166SOL    HW2 4398   3.979   6.704   0.140
 1167SOL     OW 4399   4.166   6.499   6.381
 1167SOL    HW1 4400   4.148   6.572   6.446
 1167SOL    HW2 4401   4.087   6.437   6.377
 1168SOL     OW 4402   5.240   2.483   3.439
 1168SOL    HW1 4403   5.320   2.502   3.495
 1168SOL    HW2 4404   5.264   2.418   3.367
 1169SOL     OW 4405   5.114   2.040   5.759
 1169SOL    HW1 4406   5.100   2.002   5.850
 1169SOL    HW2 4407   5.059   1.989   5.693
 1170SOL     OW 4408   5.145   0.754   3.184
 1170SOL    HW1 4409   5.245   0.750   3.196
 1170SOL    HW2 4410   5.116   0.682   3.121
 1171SOL     OW 4411   2.967   6.186   6.907
 1171SOL    HW1 4412   2.925   6.258   6.963
 1171SOL    HW2 4413   3.062   6.173   6.935
 1172SOL     OW 4414   2.865   4.158   1.629
 1172SOL    HW1 4415   2.849   4.097   1.707
 1172SOL    HW2 4416   2.835   4.251   1.653
 1173SOL     OW 4417   2.925   0.634   6.239
 1173SOL    HW1 4418   2.843   0.665   6.192
 1173SOL    HW2 4419   2.901   0.601   6.330
 1174SOL     OW 4420   3.480   5.039   1.200
 1174SOL    HW1 4421   3.514   5.025   1.107
 1174SOL    HW2 4422   3.527   4.975   1.262
 1175SOL     OW 4423   3.704   3.703   6.892
 1175SOL    HW1 4424   3.620   3.747   6.861
 1175SOL    HW2 4425   3.776   3.772   6.901
 1176SOL     OW 4426   6.181   4.794   6.497
 1176SOL    HW1 4427   6.169   4.865   6.428
 1176SOL    HW2 4428   6.273   4.755   6.489
 1177SOL     OW 4429   6.842   1.933   5.543
 1177SOL    HW1 4430   6.831   1.840   5.509
 1177SOL    HW2 4431   6.825   1.998   5.470
 1178SOL     OW 4432   3.190   3.902   0.826
 1178SOL    HW1 4433   3.114   3.965   0.842
 1178SOL    HW2 4434   3.190   3.831   0.896
 1179SOL     OW 4435   3.278   6.269   0.510
 1179SOL    HW1 4436   3.234   6.308   0.591
 1179SOL    HW2 4437   3.373   6.246   0.532
 1180SOL     OW 4438   1.880   5.862   3.940
 1180SOL    HW1 4439   1.977   5.865   3.913
 1180SOL    HW2 4440   1.833   5.944   3.907
 1181SOL     OW 4441   0.388   3.123   5.510
 1181SOL    HW1 4442   0.471   3.104   5.458
 1181SOL    HW2 4443   0.365   3.220   5.502
 1182SOL     OW 4444   2.974   4.834   3.082
 1182SOL    HW1 4445   2.986   4.758   3.017
 1182SOL    HW2 4446   2.926   4.801   3.163
 1183SOL     OW 4447   3.450   5.385   2.056
 1183SOL    HW1 4448   3.471   5.289   2.072
 1183SOL    HW2 4449   3.433   5.400   1.959
 1184SOL     OW 4450   5.888   6.887   5.916
 1184SOL    HW1 4451   5.985   6.898   5.936
 1184SOL    HW2 4452   5.849   6.818   5.977
 1185SOL     OW 4453   0.498   0.949   0.971
 1185SOL    HW1 4454   0.443   0.967   1.052
 1185SOL    HW2 4455   0.485   1.024   0.905
 1186SOL     OW 4456   5.805   5.628   5.658
 1186SOL    HW1 4457   5.874   5.558   5.675
 1186SOL    HW2 4458   5.813   5.699   5.728
 1187SOL     OW 4459   5.214   6.324   5.760
 1187SOL    HW1 4460   5.174   6.304   5.670
 1187SOL    HW2 4461   5.288   6.390   5.750
 1188SOL     OW 4462   3.327   5.216   6.062
 1188SOL    HW1 4463   3.342   5.314   6.051
 1188SOL    HW2 4464   3.273   5.181   5.986
 1189SOL     OW 4465   6.322   0.523   0.876
 1189SOL    HW1 4466   6.370   0.479   0.800
 1189SOL    HW2 4467   6.230   0.484   0.886
 1190SOL     OW 4468   3.049   5.803   2.576
 1190SOL    HW1 4469   3.072   5.748   2.497
 1190SOL    HW2 4470   3.021   5.744   2.652
 1191SOL     OW 4471   2.625   6.329   4.570
 1191SOL    HW1 4472   2.659   6.335   4.664
 1191SOL    HW2 4473   2.627   6.234   4.540
 1192SOL     OW 4474   5.971   6.128   3.372
 1192SOL    HW1 4475   6.008   6.048   3.325
 1192SOL    HW2 4476   5.876   6.143   3.344
 1193SOL     OW 4477   0.001   0.461   5.056
 1193SOL    HW1 4478   6.938   0.497   5.094
 1193SOL    HW2 4479   0.042   0.529   4.995
 1194SOL     OW 4480   6.876   1.503   1.383
 1194SOL    HW1 4481   6.841   1.416   1.419
 1194SOL    HW2 4482   6.974   1.493   1.363
 1195SOL     OW 4483   6.926   3.317   0.526
 1195SOL    HW1 4484   7.020   3.345   0.544
 1195SOL    HW2 4485   6.880   3.387   0.471
 1196SOL     OW 4486   6.277   4.506   3.654
 1196SOL    HW1 4487   6.301   4.560   3.734
 1196SOL    HW2 4488   6.356   4.454   3.624
 1197SOL     OW 4489   4.502   6.342   4.459
 1197SOL    HW1 4490   4.453   6.429   4.457
 1197SOL    HW2 4491   4.541   6.324   4.369
 1198SOL     OW 4492   1.400   3.660   2.084
 1198SOL    HW1 4493   1.315   3.689   2.128
 1198SOL    HW2 4494   1.411   3.710   1.998
 1199SOL     OW 4495   3.242   3.822   2.776
 1199SOL    HW1 4496   3.306   3.862   2.841
 1199SOL    HW2 4497   3.187   3.894   2.734
 1200SOL     OW 4498   3.875   4.064   4.486
 1200SOL    HW1 4499   3.837   4.137   4.428
 1200SOL    HW2 4500   3.822   4.058   4.571
 1201SOL     OW 4501   6.462   0.983   5.127
 1201SOL    HW1 4502   6.525   0.958   5.201
 1201SOL    HW2 4503   6.510   1.042   5.061
 1202SOL     OW 4504   7.004   6.101   5.672
 1202SOL    HW1 4505   6.913   6.124   5.638
 1202SOL    HW2 4506   0.048   6.168   5.637
 1203SOL     OW 4507   0.511   6.448   0.424
 1203SOL    HW1 4508   0.425   6.488   0.395
 1203SOL    HW2 4509   0.582   6.519   0.430
 1204SOL     OW 4510   4.535   0.979   1.507
 1204SOL    HW1 4511   4.517   0.982   1.606
 1204SOL    HW2 4512   4.631   1.003   1.490
 1205SOL     OW 4513   3.604   4.017   0.419
 1205SOL    HW1 4514   3.554   3.948   0.367
 1205SOL    HW2 4515   3.605   4.103   0.368
 1206SOL     OW 4516   0.938   3.304   4.865
 1206SOL    HW1 4517   0.944   3.278   4.962
 1206SOL    HW2 4518   1.030   3.315   4.828
 1207SOL     OW 4519   0.369   0.704   0.878
 1207SOL    HW1 4520   0.410   0.614   0.894
 1207SOL    HW2 4521   0.425   0.774   0.922
 1208SOL     OW 4522   3.502   3.152   1.309
 1208SOL    HW1 4523   3.490   3.087   1.384
 1208SOL    HW2 4524   3.443   3.231   1.324
 1209SOL     OW 4525   5.129   0.062   4.415
 1209SOL    HW1 4526   5.182   0.027   4.337
 1209SOL    HW2 4527   5.171   0.147   4.447
 1210SOL     OW 4528   4.242   6.470   3.733
 1210SOL    HW1 4529   4.167   6.457   3.670
 1210SOL    HW2 4530   4.206   6.480   3.826
 1211SOL     OW 4531   1.048   3.561   2.647
 1211SOL    HW1 4532   1.004   3.530   2.731
 1211SOL    HW2 4533   1.147   3.563   2.661
 1212SOL     OW 4534   6.753   6.828   5.869
 1212SOL    HW1 4535   6.726   6.868   5.781
 1212SOL    HW2 4536   6.689   6.854   5.940
 1213SOL     OW 4537   5.446   2.596   2.051
 1213SOL    HW1 4538   5.482   2.676   2.100
 1213SOL    HW2 4539   5.432   2.521   2.116
 1214SOL     OW 4540   0.803   2.467   6.810
 1214SOL    HW1 4541   0.721   2.429   6.768
 1214SOL    HW2 4542   0.868   2.394   6.831
 1215SOL     OW 4543   1.448   4.956   2.662
 1215SOL    HW1 4544   1.423   5.007   2.579
 1215SOL    HW2 4545   1.394   4.872   2.667
 1216SOL     OW 4546   5.259   1.327   0.967
 1216SOL    HW1 4547   5.281   1.255   1.033
 1216SOL    HW2 4548   5.343   1.366   0.930
 1217SOL     OW 4549   2.393   4.884   0.516
 1217SOL    HW1 4550   2.397   4.962   0.578
 1217SOL    HW2 4551   2.470   4.822   0.535
 1218SOL     OW 4552   1.845   2.356   5.051
 1218SOL    HW1 4553   1.844   2.283   4.982
 1218SOL    HW2 4554   1.815   2.441   5.010
 1219SOL     OW 4555   5.650   5.737   1.958
 1219SOL    HW1 4556   5.634   5.645   1.923
 1219SOL    HW2 4557   5.707   5.789   1.894
 1220SOL     OW 4558   6.858   4.169   2.427
 1220SOL    HW1 4559   6.767   4.190   2.464
 1220SOL    HW2 4560   6.852   4.161   2.328
 1221SOL     OW 4561   4.967   3.566   6.522
 1221SOL    HW1 4562   5.029   3.644   6.523
 1221SOL    HW2 4563   4.888   3.585   6.581
 1222SOL     OW 4564   6.546   1.230   6.516
 1222SOL    HW1 4565   6.525   1.242   6.613
 1222SOL    HW2 4566   6.632   1.277   6.494
 1223SOL     OW 4567   4.213   0.763   0.025
 1223SOL    HW1 4568   4.245   0.669   0.011
 1223SOL    HW2 4569   4.195   0.805   6.958
 1224SOL     OW 4570   2.786   6.428   6.665
 1224SOL    HW1 4571   2.826   6.366   6.598
 1224SOL    HW2 4572   2.756   6.512   6.620
 1225SOL     OW 4573   3.415   2.410   6.943
 1225SOL    HW1 4574   3.455   2.318   6.935
 1225SOL    HW2 4575   3.453   2.455   0.002
 1226SOL     OW 4576   3.742   6.314   0.393
 1226SOL    HW1 4577   3.828   6.269   0.417
 1226SOL    HW2 4578   3.688   6.254   0.333
 1227SOL     OW 4579   5.041   4.827   5.726
 1227SOL    HW1 4580   5.081   4.749   5.775
 1227SOL    HW2 4581   5.108   4.865   5.662
 1228SOL     OW 4582   3.233   2.469   6.405
 1228SOL    HW1 4583   3.154   2.528   6.420
 1228SOL    HW2 4584   3.220   2.384   6.456
 1229SOL     OW 4585   2.391   5.397   0.059
 1229SOL    HW1 4586   2.375   5.422   0.154
 1229SOL    HW2 4587   2.377   5.477   0.000
 1230SOL     OW 4588   5.496   6.469   1.640
 1230SOL    HW1 4589   5.412   6.505   1.602
 1230SOL    HW2 4590   5.498   6.485   1.739
 1231SOL     OW 4591   1.868   2.041   5.527
 1231SOL    HW1 4592   1.810   2.077   5.454
 1231SOL    HW2 4593   1.956   2.012   5.490
 1232SOL     OW 4594   6.741   1.002   4.967
 1232SOL    HW1 4595   6.805   1.079   4.977
 1232SOL    HW2 4596   6.658   1.033   4.922
 1233SOL     OW 4597   1.164   5.575   4.871
 1233SOL    HW1 4598   1.186   5.578   4.969
 1233SOL    HW2 4599   1.138   5.482   4.846
 1234SOL     OW 4600   5.875   3.090   5.757
 1234SOL    HW1 4601   5.808   3.054   5.822
 1234SOL    HW2 4602   5.901   3.183   5.784
 1235SOL     OW 4603   5.905   5.401   2.037
 1235SOL    HW1 4604   5.910   5.408   1.937
 1235SOL    HW2 4605   5.965   5.327   2.068
 1236SOL     OW 4606   4.357   0.772   1.035
 1236SOL    HW1 4607   4.263   0.777   1.069
 1236SOL    HW2 4608   4.397   0.863   1.034
 1237SOL     OW 4609   1.998   4.446   5.872
 1237SOL    HW1 4610   1.987   4.353   5.836
 1237SOL    HW2 4611   1.911   4.478   5.909
 1238SOL     OW 4612   1.362   0.784   6.277
 1238SOL    HW1 4613   1.314   0.837   6.207
 1238SOL    HW2 4614   1.422   0.717   6.232
 1239SOL     OW 4615   0.255   0.261   0.317
 1239SOL    HW1 4616   0.260   0.187   0.249
 1239SOL    HW2 4617   0.183   0.325   0.291
 1240SOL     OW 4618   5.831   6.123   0.896
 1240SOL    HW1 4619   5.748   6.126   0.841
 1240SOL    HW2 4620   5.854   6.027   0.916
 1241SOL     OW 4621   5.945   4.094   5.582
 1241SOL    HW1 4622   5.921   4.002   5.549
 1241SOL    HW2 4623   6.033   4.090   5.628
 1242SOL     OW 4624   1.671   3.570   1.329
 1242SOL    HW1 4625   1.716   3.553   1.417
 1242SOL    HW2 4626   1.609   3.494   1.309
 1243SOL     OW 4627   1.221   0.289   5.181
 1243SOL    HW1 4628   1.257   0.252   5.096
 1243SOL    HW2 4629   1.227   0.389   5.179
 1244SOL     OW 4630   5.292   6.614   4.093
 1244SOL    HW1 4631   5.382   6.597   4.052
 1244SOL    HW2 4632   5.303   6.669   4.176
 1245SOL     OW 4633   5.580   4.306   0.375
 1245SOL    HW1 4634   5.489   4.266   0.371
 1245SOL    HW2 4635   5.617   4.294   0.467
 1246SOL     OW 4636   3.344   1.342   1.126
 1246SOL    HW1 4637   3.310   1.371   1.037
 1246SOL    HW2 4638   3.338   1.242   1.134
 1247SOL     OW 4639   0.162   6.525   5.805
 1247SOL    HW1 4640   0.116   6.614   5.803
 1247SOL    HW2 4641   0.148   6.478   5.718
 1248SOL     OW 4642   1.996   6.701   4.536
 1248SOL    HW1 4643   2.054   6.690   4.455
 1248SOL    HW2 4644   2.025   6.637   4.607
 1249SOL     OW 4645   6.722   2.297   2.131
 1249SOL    HW1 4646   6.705   2.394   2.150
 1249SOL    HW2 4647   6.643   2.243   2.161
 1250SOL     OW 4648   5.497   5.423   3.223
 1250SOL    HW1 4649   5.432   5.490   3.186
 1250SOL    HW2 4650   5.556   5.467   3.290
 1251SOL     OW 4651   2.654   1.210   3.290
 1251SOL    HW1 4652   2.561   1.209   3.325
 1251SOL    HW2 4653   2.707   1.280   3.338
 1252SOL     OW 4654   4.421   4.291   6.717
 1252SOL    HW1 4655   4.344   4.292   6.654
 1252SOL    HW2 4656   4.436   4.383   6.753
 1253SOL     OW 4657   3.123   6.432   1.759
 1253SOL    HW1 4658   3.201   6.494   1.758
 1253SOL    HW2 4659   3.127   6.372   1.679
 1254SOL     OW 4660   0.332   3.030   3.473
 1254SOL    HW1 4661   0.406   3.097   3.474
 1254SOL    HW2 4662   0.287   3.029   3.562
 1255SOL     OW 4663   5.640   1.473   5.862
 1255SOL    HW1 4664   5.621   1.481   5.764
 1255SOL    HW2 4665   5.739   1.473   5.877
 1256SOL     OW 4666   6.946   0.492   3.312
 1256SOL    HW1 4667   6.983   0.536   3.231
 1256SOL    HW2 4668   6.986   0.402   3.324
 1257SOL     OW 4669   0.052   5.019   4.458
 1257SOL    HW1 4670   0.099   5.097   4.499
 1257SOL    HW2 4671   0.020   5.043   4.366
 1258SOL     OW 4672   1.590   5.111   2.890
 1258SOL    HW1 4673   1.522   5.046   2.858
 1258SOL    HW2 4674   1.671   5.108   2.831
 1259SOL     OW 4675   3.188   0.687   4.279
 1259SOL    HW1 4676   3.240   0.705   4.362
 1259SOL    HW2 4677   3.210   0.755   4.209
 1260SOL     OW 4678   3.071   2.071   6.928
 1260SOL    HW1 4679   3.139   2.107   6.991
 1260SOL    HW2 4680   3.048   1.977   6.954
 1261SOL     OW 4681   6.735   5.402   6.509
 1261SOL    HW1 4682   6.792   5.358   6.578
 1261SOL    HW2 4683   6.680   5.474   6.552
 1262SOL     OW 4684   6.146   3.930   1.610
 1262SOL    HW1 4685   6.151   3.896   1.704
 1262SOL    HW2 4686   6.054   3.915   1.574
 1263SOL     OW 4687   0.302   1.971   1.337
 1263SOL    HW1 4688   0.228   2.017   1.288
 1263SOL    HW2 4689   0.300   1.873   1.316
 1264SOL     OW 4690   6.569   3.776   2.165
 1264SOL    HW1 4691   6.573   3.677   2.180
 1264SOL    HW2 4692   6.575   3.795   2.067
 1265SOL     OW 4693   5.006   6.038   4.012
 1265SOL    HW1 4694   4.935   5.968   4.018
 1265SOL    HW2 4695   5.096   5.994   4.009
 1266SOL     OW 4696   0.237   1.345   4.829
 1266SOL    HW1 4697   0.171   1.365   4.901
 1266SOL    HW2 4698   0.262   1.248   4.832
 1267SOL     OW 4699   4.601   6.452   1.157
 1267SOL    HW1 4700   4.611   6.477   1.061
 1267SOL    HW2 4701   4.618   6.532   1.214
 1268SOL     OW 4702   3.333   2.761   0.447
 1268SOL    HW1 4703   3.401   2.716   0.389
 1268SOL    HW2 4704   3.288   2.834   0.395
 1269SOL     OW 4705   5.774   5.182   4.795
 1269SOL    HW1 4706   5.773   5.086   4.822
 1269SOL    HW2 4707   5.776   5.240   4.877
 1270SOL     OW 4708   1.575   3.620   3.509
 1270SOL    HW1 4709   1.540   3.527   3.499
 1270SOL    HW2 4710   1.651   3.634   3.444
 1271SOL     OW 4711   2.841   2.331   3.576
 1271SOL    HW1 4712   2.806   2.424   3.568
 1271SOL    HW2 4713   2.792   2.271   3.513
 1272SOL     OW 4714   5.515   5.598   0.193
 1272SOL    HW1 4715   5.434   5.647   0.225
 1272SOL    HW2 4716   5.533   5.520   0.252
 1273SOL     OW 4717   0.111   3.828   0.423
 1273SOL    HW1 4718   0.168   3.830   0.505
 1273SOL    HW2 4719   0.137   3.750   0.366
 1274SOL     OW 4720   6.549   4.419   1.292
 1274SOL    HW1 4721   6.571   4.470   1.209
 1274SOL    HW2 4722   6.631   4.410   1.349
 1275SOL     OW 4723   3.706   2.067   4.854
 1275SOL    HW1 4724   3.805   2.076   4.861
 1275SOL    HW2 4725   3.675   2.098   4.764
 1276SOL     OW 4726   0.382   5.628   4.403
 1276SOL    HW1 4727   0.460   5.604   4.460
 1276SOL    HW2 4728   0.298   5.625   4.457
 1277SOL     OW 4729   1.323   5.796   6.170
 1277SOL    HW1 4730   1.247   5.764   6.113
 1277SOL    HW2 4731   1.400   5.734   6.160
 1278SOL     OW 4732   0.611   6.782   4.750
 1278SOL    HW1 4733   0.517   6.760   4.724
 1278SOL    HW2 4734   0.624   6.760   4.847
 1279SOL     OW 4735   2.435   6.209   0.901
 1279SOL    HW1 4736   2.460   6.112   0.896
 1279SOL    HW2 4737   2.389   6.227   0.987
 1280SOL     OW 4738   3.380   6.518   4.991
 1280SOL    HW1 4739   3.316   6.499   4.917
 1280SOL    HW2 4740   3.470   6.481   4.967
 1281SOL     OW 4741   1.891   6.638   3.432
 1281SOL    HW1 4742   1.911   6.719   3.375
 1281SOL    HW2 4743   1.943   6.643   3.517
 1282SOL     OW 4744   0.609   1.877   0.016
 1282SOL    HW1 4745   0.704   1.848   0.011
 1282SOL    HW2 4746   0.601   1.968   6.997
 1283SOL     OW 4747   0.870   3.407   5.585
 1283SOL    HW1 4748   0.930   3.335   5.550
 1283SOL    HW2 4749   0.924   3.487   5.609
 1284SOL     OW 4750   4.805   2.272   1.310
 1284SOL    HW1 4751   4.811   2.372   1.316
 1284SOL    HW2 4752   4.804   2.244   1.214
 1285SOL     OW 4753   4.564   2.390   6.539
 1285SOL    HW1 4754   4.564   2.488   6.522
 1285SOL    HW2 4755   4.542   2.372   6.635
 1286SOL     OW 4756   4.757   3.725   1.483
 1286SOL    HW1 4757   4.659   3.742   1.495
 1286SOL    HW2 4758   4.805   3.813   1.474
 1287SOL     OW 4759   5.845   5.543   5.361
 1287SOL    HW1 4760   5.810   5.541   5.455
 1287SOL    HW2 4761   5.856   5.449   5.328
 1288SOL     OW 4762   4.126   3.275   6.119
 1288SOL    HW1 4763   4.159   3.306   6.030
 1288SOL    HW2 4764   4.158   3.182   6.135
 1289SOL     OW 4765   0.196   6.635   1.458
 1289SOL    HW1 4766   0.200   6.713   1.396
 1289SOL    HW2 4767   0.268   6.643   1.526
 1290SOL     OW 4768   0.623   6.040   6.651
 1290SOL    HW1 4769   0.545   6.080   6.606
 1290SOL    HW2 4770   0.631   5.943   6.626
 1291SOL     OW 4771   0.199   3.893   4.801
 1291SOL    HW1 4772   0.124   3.828   4.810
 1291SOL    HW2 4773   0.225   3.899   4.704
 1292SOL     OW 4774   0.219   5.959   2.457
 1292SOL    HW1 4775   0.285   6.033   2.447
 1292SOL    HW2 4776   0.127   5.995   2.441
 1293SOL     OW 4777   0.916   1.750   0.060
 1293SOL    HW1 4778   0.872   1.774   0.146
 1293SOL    HW2 4779   0.878   1.665   0.025
 1294SOL     OW 4780   0.732   2.973   6.616
 1294SOL    HW1 4781   0.753   3.056   6.565
 1294SOL    HW2 4782   0.789   2.898   6.582
 1295SOL     OW 4783   6.641   3.476   2.078
 1295SOL    HW1 4784   6.634   3.415   2.157
 1295SOL    HW2 4785   6.735   3.479   2.046
 1296SOL     OW 4786   4.009   6.871   5.857
 1296SOL    HW1 4787   4.037   6.776   5.862
 1296SOL    HW2 4788   3.928   6.885   5.914
 1297SOL     OW 4789   6.992   0.942   1.625
 1297SOL    HW1 4790   6.997   1.027   1.677
 1297SOL    HW2 4791   6.898   0.910   1.623
 1298SOL     OW 4792   5.765   5.257   2.617
 1298SOL    HW1 4793   5.766   5.341   2.672
 1298SOL    HW2 4794   5.684   5.204   2.638
 1299SOL     OW 4795   1.452   3.846   2.975
 1299SOL    HW1 4796   1.503   3.919   3.021
 1299SOL    HW2 4797   1.480   3.842   2.879
 1300SOL     OW 4798   2.589   3.131   1.402
 1300SOL    HW1 4799   2.587   3.077   1.486
 1300SOL    HW2 4800   2.573   3.228   1.425
 1301SOL     OW 4801   0.698   6.448   1.162
 1301SOL    HW1 4802   0.730   6.540   1.141
 1301SOL    HW2 4803   0.746   6.382   1.104
 1302SOL     OW 4804   4.951   0.112   5.770
 1302SOL    HW1 4805   4.873   0.054   5.792
 1302SOL    HW2 4806   4.921   0.192   5.718
 1303SOL     OW 4807   4.711   2.205   1.560
 1303SOL    HW1 4808   4.719   2.217   1.461
 1303SOL    HW2 4809   4.801   2.220   1.602
 1304SOL     OW 4810   2.065   1.064   6.749
 1304SOL    HW1 4811   2.038   1.132   6.682
 1304SOL    HW2 4812   1.986   1.007   6.773
 1305SOL     OW 4813   5.294   3.630   0.401
 1305SOL    HW1 4814   5.366   3.579   0.353
 1305SOL    HW2 4815   5.337   3.695   0.465
 1306SOL     OW 4816   0.918   5.244   3.406
 1306SOL    HW1 4817   0.972   5.174   3.452
 1306SOL    HW2 4818   0.967   5.331   3.409
 1307SOL     OW 4819   0.957   4.820   3.926
 1307SOL    HW1 4820   1.043   4.863   3.954
 1307SOL    HW2 4821   0.910   4.785   4.007
 1308SOL     OW 4822   6.103   6.287   5.128
 1308SOL    HW1 4823   6.125   6.200   5.171
 1308SOL    HW2 4824   6.083   6.272   5.031
 1309SOL     OW 4825   5.661   3.936   5.357
 1309SOL    HW1 4826   5.708   3.848   5.361
 1309SOL    HW2 4827   5.701   3.991   5.283
 1310SOL     OW 4828   6.599   4.248   4.144
 1310SOL    HW1 4829   6.693   4.273   4.168
 1310SOL    HW2 4830   6.596   4.152   4.117
 1311SOL     OW 4831   0.476   6.140   4.756
 1311SOL    HW1 4832   0.439   6.221   4.802
 1311SOL    HW2 4833   0.403   6.094   4.706
 1312SOL     OW 4834   1.343   6.888   6.810
 1312SOL    HW1 4835   1.441   6.878   6.790
 1312SOL    HW2 4836   1.305   6.798   6.833
 1313SOL     OW 4837   0.473   4.330   3.379
 1313SOL    HW1 4838   0.377   4.303   3.389
 1313SOL    HW2 4839   0.521   4.316   3.466
 1314SOL     OW 4840   4.367   1.285   5.518
 1314SOL    HW1 4841   4.453   1.266   5.472
 1314SOL    HW2 4842   4.343   1.209   5.578
 1315SOL     OW 4843   0.381   1.444   1.908
 1315SOL    HW1 4844   0.449   1.501   1.952
 1315SOL    HW2 4845   0.290   1.485   1.919
 1316SOL     OW 4846   1.583   5.652   5.044
 1316SOL    HW1 4847   1.628   5.592   5.111
 1316SOL    HW2 4848   1.587   5.747   5.077
 1317SOL     OW 4849   2.382   4.690   6.780
 1317SOL    HW1 4850   2.454   4.621   6.790
 1317SOL    HW2 4851   2.294   4.643   6.768
 1318SOL     OW 4852   0.728   1.812   1.183
 1318SOL    HW1 4853   0.800   1.872   1.149
 1318SOL    HW2 4854   0.727   1.728   1.129
 1319SOL     OW 4855   6.672   6.851   0.334
 1319SOL    HW1 4856   6.742   6.804   0.389
 1319SOL    HW2 4857   6.676   6.949   0.353
 1320SOL     OW 4858   4.555   4.267   0.938
 1320SOL    HW1 4859   4.554   4.367   0.933
 1320SOL    HW2 4860   4.494   4.230   0.868
 1321SOL     OW 4861   5.774   1.497   6.557
 1321SOL    HW1 4862   5.805   1.532   6.646
 1321SOL    HW2 4863   5.759   1.398   6.564
 1322SOL     OW 4864   3.969   0.949   3.416
 1322SOL    HW1 4865   3.877   0.975   3.444
 1322SOL    HW2 4866   4.014   0.901   3.491
 1323SOL     OW 4867   4.462   0.494   5.425
 1323SOL    HW1 4868   4.548   0.508   5.473
 1323SOL    HW2 4869   4.471   0.526   5.331
 1324SOL     OW 4870   1.309   3.475   0.686
 1324SOL    HW1 4871   1.249   3.404   0.724
 1324SOL    HW2 4872   1.267   3.565   0.700
 1325SOL     OW 4873   2.373   0.590   2.800
 1325SOL    HW1 4874   2.345   0.513   2.857
 1325SOL    HW2 4875   2.397   0.557   2.708
 1326SOL     OW 4876   4.931   3.373   4.916
 1326SOL    HW1 4877   4.916   3.293   4.974
 1326SOL    HW2 4878   4.896   3.455   4.963
 1327SOL     OW 4879   0.611   6.062   1.870
 1327SOL    HW1 4880   0.688   6.012   1.909
 1327SOL    HW2 4881   0.597   6.033   1.775
 1328SOL     OW 4882   1.397   3.157   0.398
 1328SOL    HW1 4883   1.489   3.120   0.408
 1328SOL    HW2 4884   1.343   3.097   0.339
 1329SOL     OW 4885   0.172   2.347   1.610
 1329SOL    HW1 4886   0.134   2.289   1.682
 1329SOL    HW2 4887   0.101   2.367   1.542
 1330SOL     OW 4888   0.688   1.441   1.615
 1330SOL    HW1 4889   0.644   1.361   1.654
 1330SOL    HW2 4890   0.627   1.520   1.622
 1331SOL     OW 4891   5.218   2.715   3.068
 1331SOL    HW1 4892   5.282   2.727   3.144
 1331SOL    HW2 4893   5.265   2.670   2.991
 1332SOL     OW 4894   2.712   6.766   6.064
 1332SOL    HW1 4895   2.808   6.772   6.090
 1332SOL    HW2 4896   2.662   6.845   6.100
 1333SOL     OW 4897   3.761   3.765   4.247
 1333SOL    HW1 4898   3.811   3.685   4.279
 1333SOL    HW2 4899   3.668   3.762   4.284
 1334SOL     OW 4900   6.129   1.445   4.330
 1334SOL    HW1 4901   6.112   1.392   4.246
 1334SOL    HW2 4902   6.042   1.471   4.372
 1335SOL     OW 4903   2.412   2.200   3.079
 1335SOL    HW1 4904   2.396   2.284   3.130
 1335SOL    HW2 4905   2.445   2.129   3.141
 1336SOL     OW 4906   1.870   2.691   4.984
 1336SOL    HW1 4907   1.779   2.693   4.943
 1336SOL    HW2 4908   1.940   2.691   4.913
 1337SOL     OW 4909   2.011   2.634   4.752
 1337SOL    HW1 4910   2.058   2.553   4.785
 1337SOL    HW2 4911   2.046   2.659   4.662
 1338SOL     OW 4912   5.244   1.982   5.359
 1338SOL    HW1 4913   5.163   2.040   5.372
 1338SOL    HW2 4914   5.323   2.040   5.339
 1339SOL     OW 4915   0.039   1.832   6.354
 1339SOL    HW1 4916   0.070   1.771   6.280
 1339SOL    HW2 4917   0.103   1.826   6.431
 1340SOL     OW 4918   6.991   2.303   2.243
 1340SOL    HW1 4919   7.012   2.216   2.288
 1340SOL    HW2 4920   6.892   2.309   2.227
 1341SOL     OW 4921   5.174   6.640   6.042
 1341SOL    HW1 4922   5.247   6.704   6.018
 1341SOL    HW2 4923   5.160   6.640   6.142
 1342SOL     OW 4924   2.154   5.782   5.758
 1342SOL    HW1 4925   2.203   5.869   5.763
 1342SOL    HW2 4926   2.180   5.724   5.835
 1343SOL     OW 4927   4.446   5.659   2.895
 1343SOL    HW1 4928   4.521   5.604   2.932
 1343SOL    HW2 4929   4.361   5.633   2.939
 1344SOL     OW 4930   6.512   5.630   4.492
 1344SOL    HW1 4931   6.593   5.652   4.437
 1344SOL    HW2 4932   6.538   5.619   4.587
 1345SOL     OW 4933   1.693   0.899   2.763
 1345SOL    HW1 4934   1.650   0.981   2.725
 1345SOL    HW2 4935   1.676   0.821   2.702
 1346SOL     OW 4936   0.852   6.368   4.998
 1346SOL    HW1 4937   0.761   6.405   4.976
 1346SOL    HW2 4938   0.851   6.269   4.987
 1347SOL     OW 4939   6.479   6.596   4.900
 1347SOL    HW1 4940   6.504   6.518   4.957
 1347SOL    HW2 4941   6.412   6.652   4.948
 1348SOL     OW 4942   5.600   5.564   2.464
 1348SOL    HW1 4943   5.552   5.531   2.382
 1348SOL    HW2 4944   5.699   5.564   2.446
 1349SOL     OW 4945   4.526   2.410   5.855
 1349SOL    HW1 4946   4.626   2.400   5.850
 1349SOL    HW2 4947   4.482   2.335   5.805
 1350SOL     OW 4948   5.144   4.976   5.332
 1350SOL    HW1 4949   5.209   5.041   5.292
 1350SOL    HW2 4950   5.096   4.927   5.260
 1351SOL     OW 4951   6.039   1.865   3.256
 1351SOL    HW1 4952   5.973   1.814   3.312
 1351SOL    HW2 4953   6.037   1.962   3.282
 1352SOL     OW 4954   6.992   6.398   2.496
 1352SOL    HW1 4955   6.967   6.403   2.593
 1352SOL    HW2 4956   6.912   6.372   2.442
 1353SOL     OW 4957   0.548   3.080   0.269
 1353SOL    HW1 4958   0.647   3.075   0.281
 1353SOL    HW2 4959   0.503   3.047   0.353
 1354SOL     OW 4960   1.025   3.221   1.316
 1354SOL    HW1 4961   0.950   3.265   1.366
 1354SOL    HW2 4962   0.994   3.195   1.225
 1355SOL     OW 4963   0.001   2.704   4.881
 1355SOL    HW1 4964   0.084   2.752   4.855
 1355SOL    HW2 4965   0.024   2.626   4.940
 1356SOL     OW 4966   3.180   2.956   2.895
 1356SOL    HW1 4967   3.134   3.033   2.851
 1356SOL    HW2 4968   3.248   2.918   2.831
 1357SOL     OW 4969   1.277   3.130   5.594
 1357SOL    HW1 4970   1.322   3.099   5.511
 1357SOL    HW2 4971   1.336   3.195   5.642
 1358SOL     OW 4972   4.330   0.304   5.676
 1358SOL    HW1 4973   4.378   0.281   5.591
 1358SOL    HW2 4974   4.395   0.346   5.740
 1359SOL     OW 4975   5.624   4.440   1.824
 1359SOL    HW1 4976   5.542   4.427   1.879
 1359SOL    HW2 4977   5.613   4.393   1.736
 1360SOL     OW 4978   3.721   2.940   0.164
 1360SOL    HW1 4979   3.671   2.914   0.082
 1360SOL    HW2 4980   3.660   2.933   0.243
 1361SOL     OW 4981   0.132   5.338   4.794
 1361SOL    HW1 4982   0.216   5.393   4.802
 1361SOL    HW2 4983   0.074   5.355   4.873
 1362SOL     OW 4984   3.309   4.078   4.154
 1362SOL    HW1 4985   3.249   4.112   4.081
 1362SOL    HW2 4986   3.254   4.028   4.221
 1363SOL     OW 4987   6.972   5.627   3.089
 1363SOL    HW1 4988   6.991   5.723   3.067
 1363SOL    HW2 4989   6.955   5.619   3.187
 1364SOL     OW 4990   6.524   2.486   1.170
 1364SOL    HW1 4991   6.496   2.551   1.241
 1364SOL    HW2 4992   6.474   2.400   1.184
 1365SOL     OW 4993   1.185   3.226   6.372
 1365SOL    HW1 4994   1.104   3.280   6.350
 1365SOL    HW2 4995   1.264   3.288   6.381
 1366SOL     OW 4996   0.929   4.597   6.920
 1366SOL    HW1 4997   0.915   4.664   6.848
 1366SOL    HW2 4998   1.012   4.620   6.972
 1367SOL     OW 4999   2.179   6.888   2.849
 1367SOL    HW1 5000   2.187   6.853   2.942
 1367SOL    HW2 5001   2.217   6.981   2.844
 1368SOL     OW 5002   6.540   0.464   3.510
 1368SOL    HW1 5003   6.518   0.399   3.583
 1368SOL    HW2 5004   6.501   0.553   3.531
 1369SOL     OW 5005   2.344   0.024   1.471
 1369SOL    HW1 5006   2.420   0.071   1.428
 1369SOL    HW2 5007   2.258   0.071   1.449
 1370SOL     OW 5008   4.261   1.702   1.630
 1370SOL    HW1 5009   4.190   1.717   1.699
 1370SOL    HW2 5010   4.311   1.787   1.614
 1371SOL     OW 5011   6.067   1.298   4.095
 1371SOL    HW1 5012   5.970   1.312   4.073
 1371SOL    HW2 5013   6.120   1.293   4.010
 1372SOL     OW 5014   1.313   3.408   0.424
 1372SOL    HW1 5015   1.321   3.310   0.406
 1372SOL    HW2 5016   1.296   3.423   0.521
 1373SOL     OW 5017   4.719   2.295   6.899
 1373SOL    HW1 5018   4.639   2.327   6.849
 1373SOL    HW2 5019   4.802   2.331   6.856
 1374SOL     OW 5020   5.095   1.926   0.039
 1374SOL    HW1 5021   5.152   1.992   0.088
 1374SOL    HW2 5022   5.099   1.837   0.084
 1375SOL     OW 5023   0.572   4.165   6.590
 1375SOL    HW1 5024   0.624   4.231   6.644
 1375SOL    HW2 5025   0.570   4.077   6.637
 1376SOL     OW 5026   4.130   4.825   5.150
 1376SOL    HW1 5027   4.058   4.779   5.202
 1376SOL    HW2 5028   4.219   4.789   5.176
 1377SOL     OW 5029   0.647   3.558   5.527
 1377SOL    HW1 5030   0.718   3.492   5.552
 1377SOL    HW2 5031   0.563   3.538   5.577
 1378SOL     OW 5032   5.732   1.008   4.701
 1378SOL    HW1 5033   5.808   0.970   4.647
 1378SOL    HW2 5034   5.693   0.936   4.758
 1379SOL     OW 5035   3.916   0.012   3.159
 1379SOL    HW1 5036   3.824   0.028   3.195
 1379SOL    HW2 5037   3.983   0.028   3.232
 1380SOL     OW 5038   6.863   6.800   2.562
 1380SOL    HW1 5039   6.816   6.859   2.627
 1380SOL    HW2 5040   6.961   6.798   2.582
 1381SOL     OW 5041   6.027   2.415   6.807
 1381SOL    HW1 5042   6.127   2.411   6.801
 1381SOL    HW2 5043   5.997   2.368   6.890
 1382SOL     OW 5044   4.913   3.425   0.288
 1382SOL    HW1 5045   4.816   3.410   0.269
 1382SOL    HW2 5046   4.964   3.425   0.203
 1383SOL     OW 5047   0.940   0.286   1.998
 1383SOL    HW1 5048   0.886   0.363   1.964
 1383SOL    HW2 5049   0.947   0.292   2.098
 1384SOL     OW 5050   4.516   6.942   1.600
 1384SOL    HW1 5051   4.431   6.936   1.549
 1384SOL    HW2 5052   4.507   6.895   1.688
 1385SOL     OW 5053   1.921   4.002   3.946
 1385SOL    HW1 5054   1.916   4.027   3.849
 1385SOL    HW2 5055   2.015   3.981   3.970
 1386SOL     OW 5056   3.353   0.945   4.235
 1386SOL    HW1 5057   3.405   0.921   4.317
 1386SOL    HW2 5058   3.371   1.041   4.211
 1387SOL     OW 5059   3.441   5.552   2.363
 1387SOL    HW1 5060   3.397   5.608   2.434
 1387SOL    HW2 5061   3.396   5.463   2.360
 1388SOL     OW 5062   0.301   6.933   3.090
 1388SOL    HW1 5063   0.280   6.836   3.104
 1388SOL    HW2 5064   0.347   6.946   3.002
 1389SOL     OW 5065   6.859   0.933   3.675
 1389SOL    HW1 5066   6.903   1.011   3.718
 1389SOL    HW2 5067   6.921   0.894   3.606
 1390SOL     OW 5068   5.838   3.346   6.391
 1390SOL    HW1 5069   5.779   3.408   6.339
 1390SOL    HW2 5070   5.862   3.388   6.479
 1391SOL     OW 5071   6.309   6.962   5.054
 1391SOL    HW1 5072   6.380   6.930   5.118
 1391SOL    HW2 5073   6.220   6.929   5.085
 1392SOL     OW 5074   5.585   6.450   6.750
 1392SOL    HW1 5075   5.665   6.503   6.723
 1392SOL    HW2 5076   5.549   6.401   6.671
 1393SOL     OW 5077   6.942   3.642   5.829
 1393SOL    HW1 5078   6.958   3.560   5.774
 1393SOL    HW2 5079   6.918   3.718   5.768
 1394SOL     OW 5080   3.900   5.826   4.529
 1394SOL    HW1 5081   3.884   5.907   4.584
 1394SOL    HW2 5082   3.997   5.802   4.533
 1395SOL     OW 5083   1.412   4.493   3.837
 1395SOL    HW1 5084   1.391   4.396   3.840
 1395SOL    HW2 5085   1.420   4.522   3.742
 1396SOL     OW 5086   0.636   0.541   4.431
 1396SOL    HW1 5087   0.695   0.541   4.350
 1396SOL    HW2 5088   0.690   0.568   4.511
 1397SOL     OW 5089   0.495   5.846   4.706
 1397SOL    HW1 5090   0.583   5.867   4.748
 1397SOL    HW2 5091   0.502   5.759   4.658
 1398SOL     OW 5092   2.319   1.845   6.673
 1398SOL    HW1 5093   2.373   1.799   6.602
 1398SOL    HW2 5094   2.302   1.940   6.646
 1399SOL     OW 5095   3.742   6.897   0.290
 1399SOL    HW1 5096   3.814   6.828   0.295
 1399SOL    HW2 5097   3.727   6.935   0.381
 1400SOL     OW 5098   0.300   2.201   4.618
 1400SOL    HW1 5099   0.266   2.254   4.540
 1400SOL    HW2 5100   0.400   2.199   4.616
 1401SOL     OW 5101   5.797   6.838   4.344
 1401SOL    HW1 5102   5.718   6.821   4.403
 1401SOL    HW2 5103   5.860   6.761   4.350
 1402SOL     OW 5104   5.590   4.348   6.344
 1402SOL    HW1 5105   5.601   4.438   6.386
 1402SOL    HW2 5106   5.494   4.321   6.349
 1403SOL     OW 5107   1.923   2.158   1.401
 1403SOL    HW1 5108   2.013   2.200   1.391
 1403SOL    HW2 5109   1.852   2.228   1.389
 1404SOL     OW 5110   6.690   0.329   0.141
 1404SOL    HW1 5111   6.618   0.267   0.170
 1404SOL    HW2 5112   6.777   0.279   0.134
 1405SOL     OW 5113   2.744   4.329   0.923
 1405SOL    HW1 5114   2.833   4.355   0.887
 1405SOL    HW2 5115   2.706   4.255   0.867
 1406SOL     OW 5116   1.856   5.625   1.283
 1406SOL    HW1 5117   1.850   5.724   1.269
 1406SOL    HW2 5118   1.949   5.601   1.312
 1407SOL     OW 5119   1.680   4.009   3.635
 1407SOL    HW1 5120   1.645   4.100   3.658
 1407SOL    HW2 5121   1.778   4.006   3.656
 1408SOL     OW 5122   5.860   6.750   6.257
 1408SOL    HW1 5123   5.773   6.766   6.304
 1408SOL    HW2 5124   5.933   6.798   6.305
 1409SOL     OW 5125   0.616   0.056   5.001
 1409SOL    HW1 5126   0.629   0.155   5.012
 1409SOL    HW2 5127   0.533   0.028   5.048
 1410SOL     OW 5128   2.910   3.919   6.960
 1410SOL    HW1 5129   2.956   3.890   0.021
 1410SOL    HW2 5130   2.862   4.006   6.977
 1411SOL     OW 5131   3.440   5.679   6.945
 1411SOL    HW1 5132   3.500   5.754   6.972
 1411SOL    HW2 5133   3.445   5.665   6.846
 1412SOL     OW 5134   0.567   3.811   1.528
 1412SOL    HW1 5135   0.494   3.784   1.590
 1412SOL    HW2 5136   0.603   3.900   1.555
 1413SOL     OW 5137   2.162   1.414   4.507
 1413SOL    HW1 5138   2.187   1.438   4.601
 1413SOL    HW2 5139   2.240   1.368   4.463
 1414SOL     OW 5140   2.593   2.213   1.706
 1414SOL    HW1 5141   2.597   2.258   1.795
 1414SOL    HW2 5142   2.645   2.128   1.709
 1415SOL     OW 5143   3.110   1.596   4.039
 1415SOL    HW1 5144   3.069   1.672   3.988
 1415SOL    HW2 5145   3.170   1.632   4.110
 1416SOL     OW 5146   3.617   6.885   4.761
 1416SOL    HW1 5147   3.520   6.869   4.745
 1416SOL    HW2 5148   3.631   6.915   4.856
 1417SOL     OW 5149   3.566   2.919   6.691
 1417SOL    HW1 5150   3.519   2.856   6.628
 1417SOL    HW2 5151   3.650   2.952   6.649
 1418SOL     OW 5152   2.844   4.142   0.605
 1418SOL    HW1 5153   2.749   4.139   0.635
 1418SOL    HW2 5154   2.857   4.080   0.528
 1419SOL     OW 5155   2.979   5.553   4.003
 1419SOL    HW1 5156   2.940   5.462   4.015
 1419SOL    HW2 5157   2.930   5.618   4.061
 1420SOL     OW 5158   3.547   6.132   3.437
 1420SOL    HW1 5159   3.450   6.108   3.439
 1420SOL    HW2 5160   3.562   6.203   3.368
 1421SOL     OW 5161   0.781   4.214   3.868
 1421SOL    HW1 5162   0.830   4.248   3.787
 1421SOL    HW2 5163   0.788   4.282   3.941
 1422SOL     OW 5164   2.926   4.614   6.765
 1422SOL    HW1 5165   2.893   4.690   6.821
 1422SOL    HW2 5166   3.026   4.609   6.771
 1423SOL     OW 5167   3.570   0.946   4.403
 1423SOL    HW1 5168   3.599   0.997   4.484
 1423SOL    HW2 5169   3.650   0.919   4.350
 1424SOL     OW 5170   6.924   3.675   6.360
 1424SOL    HW1 5171   6.924   3.664   6.459
 1424SOL    HW2 5172   6.926   3.772   6.337
 1425SOL     OW 5173   1.998   5.547   5.145
 1425SOL    HW1 5174   2.076   5.484   5.141
 1425SOL    HW2 5175   2.017   5.619   5.212
 1426SOL     OW 5176   2.367   1.949   5.654
 1426SOL    HW1 5177   2.275   1.934   5.689
 1426SOL    HW2 5178   2.417   2.010   5.715
 1427SOL     OW 5179   6.790   6.645   4.045
 1427SOL    HW1 5180   6.851   6.712   4.001
 1427SOL    HW2 5181   6.812   6.639   4.142
 1428SOL     OW 5182   0.869   1.856   1.633
 1428SOL    HW1 5183   0.794   1.876   1.569
 1428SOL    HW2 5184   0.831   1.832   1.722
 1429SOL     OW 5185   6.327   1.600   0.127
 1429SOL    HW1 5186   6.327   1.510   0.170
 1429SOL    HW2 5187   6.271   1.663   0.181
 1430SOL     OW 5188   2.308   4.929   3.496
 1430SOL    HW1 5189   2.365   5.008   3.519
 1430SOL    HW2 5190   2.271   4.890   3.581
 1431SOL     OW 5191   2.823   2.551   6.245
 1431SOL    HW1 5192   2.738   2.594   6.275
 1431SOL    HW2 5193   2.890   2.555   6.319
 1432SOL     OW 5194   3.028   0.730   0.865
 1432SOL    HW1 5195   3.026   0.771   0.956
 1432SOL    HW2 5196   3.047   0.633   0.872
 1433SOL     OW 5197   4.097   6.909   4.771
 1433SOL    HW1 5198   4.159   6.981   4.742
 1433SOL    HW2 5199   4.089   6.840   4.699
 1434SOL     OW 5200   0.203   0.925   5.981
 1434SOL    HW1 5201   0.195   0.967   6.072
 1434SOL    HW2 5202   0.270   0.850   5.985
 1435SOL     OW 5203   6.852   0.513   2.789
 1435SOL    HW1 5204   6.783   0.526   2.860
 1435SOL    HW2 5205   6.881   0.602   2.755
 1436SOL     OW 5206   5.280   3.687   7.001
 1436SOL    HW1 5207   5.215   3.733   0.040
 1436SOL    HW2 5208   5.350   3.642   0.034
 1437SOL     OW 5209   3.018   1.022   6.207
 1437SOL    HW1 5210   3.099   0.982   6.251
 1437SOL    HW2 5211   2.978   0.955   6.144
 1438SOL     OW 5212   2.572   0.129   1.361
 1438SOL    HW1 5213   2.604   0.220   1.336
 1438SOL    HW2 5214   2.590   0.065   1.286
 1439SOL     OW 5215   0.426   5.126   0.799
 1439SOL    HW1 5216   0.384   5.054   0.743
 1439SOL    HW2 5217   0.526   5.121   0.790
 1440SOL     OW 5218   3.249   2.824   5.741
 1440SOL    HW1 5219   3.225   2.912   5.701
 1440SOL    HW2 5220   3.205   2.750   5.690
 1441SOL     OW 5221   6.350   3.835   4.236
 1441SOL    HW1 5222   6.268   3.871   4.281
 1441SOL    HW2 5223   6.346   3.735   4.236
 1442SOL     OW 5224   6.762   5.260   6.739
 1442SOL    HW1 5225   6.728   5.242   6.831
 1442SOL    HW2 5226   6.686   5.278   6.677
 1443SOL     OW 5227   1.404   2.698   5.014
 1443SOL    HW1 5228   1.317   2.696   5.063
 1443SOL    HW2 5229   1.448   2.608   5.020
 1444SOL     OW 5230   4.436   5.719   1.657
 1444SOL    HW1 5231   4.393   5.809   1.660
 1444SOL    HW2 5232   4.431   5.682   1.564
 1445SOL     OW 5233   0.008   2.797   2.387
 1445SOL    HW1 5234   0.025   2.706   2.424
 1445SOL    HW2 5235   0.070   2.814   2.310
 1446SOL     OW 5236   5.076   1.921   6.590
 1446SOL    HW1 5237   5.023   1.983   6.532
 1446SOL    HW2 5238   5.024   1.837   6.604
 1447SOL     OW 5239   6.208   6.647   5.412
 1447SOL    HW1 5240   6.203   6.626   5.510
 1447SOL    HW2 5241   6.165   6.574   5.360
 1448SOL     OW 5242   6.619   2.546   0.111
 1448SOL    HW1 5243   6.677   2.465   0.119
 1448SOL    HW2 5244   6.557   2.536   0.034
 1449SOL     OW 5245   6.211   0.880   0.006
 1449SOL    HW1 5246   6.114   0.877   7.005
 1449SOL    HW2 5247   6.221   0.893   0.105
 1450SOL     OW 5248   0.890   2.382   2.171
 1450SOL    HW1 5249   0.887   2.348   2.077
 1450SOL    HW2 5250   0.863   2.478   2.173
 1451SOL     OW 5251   3.097   1.069   2.713
 1451SOL    HW1 5252   3.040   1.151   2.720
 1451SOL    HW2 5253   3.123   1.055   2.618
 1452SOL     OW 5254   4.363   1.093   4.020
 1452SOL    HW1 5255   4.315   1.161   3.965
 1452SOL    HW2 5256   4.382   1.012   3.965
 1453SOL     OW 5257   0.364   3.732   5.328
 1453SOL    HW1 5258   0.347   3.770   5.419
 1453SOL    HW2 5259   0.278   3.705   5.286
 1454SOL     OW 5260   5.958   2.623   3.085
 1454SOL    HW1 5261   6.041   2.648   3.135
 1454SOL    HW2 5262   5.878   2.647   3.140
 1455SOL     OW 5263   1.591   0.779   1.242
 1455SOL    HW1 5264   1.579   0.841   1.319
 1455SOL    HW2 5265   1.515   0.791   1.177
 1456SOL     OW 5266   6.397   0.052   5.417
 1456SOL    HW1 5267   6.314   0.013   5.456
 1456SOL    HW2 5268   6.418   0.138   5.464
 1457SOL     OW 5269   1.583   0.098   1.412
 1457SOL    HW1 5270   1.634   0.060   1.490
 1457SOL    HW2 5271   1.526   0.174   1.443
 1458SOL     OW 5272   6.297   6.507   3.421
 1458SOL    HW1 5273   6.267   6.418   3.455
 1458SOL    HW2 5274   6.253   6.580   3.473
 1459SOL     OW 5275   2.113   5.219   5.756
 1459SOL    HW1 5276   2.115   5.120   5.763
 1459SOL    HW2 5277   2.070   5.258   5.838
 1460SOL     OW 5278   0.248   5.122   5.651
 1460SOL    HW1 5279   0.164   5.068   5.640
 1460SOL    HW2 5280   0.325   5.071   5.614
 1461SOL     OW 5281   0.660   5.341   3.396
 1461SOL    HW1 5282   0.744   5.288   3.394
 1461SOL    HW2 5283   0.679   5.435   3.365
 1462SOL     OW 5284   0.801   0.858   5.705
 1462SOL    HW1 5285   0.701   0.854   5.697
 1462SOL    HW2 5286   0.829   0.813   5.790
 1463SOL     OW 5287   0.456   5.214   7.021
 1463SOL    HW1 5288   0.522   5.139   7.013
 1463SOL    HW2 5289   0.396   5.214   6.941
 1464SOL     OW 5290   5.911   6.763   1.175
 1464SOL    HW1 5291   5.986   6.781   1.239
 1464SOL    HW2 5292   5.941   6.785   1.082
 1465SOL     OW 5293   1.785   1.718   4.065
 1465SOL    HW1 5294   1.722   1.675   4.000
 1465SOL    HW2 5295   1.776   1.817   4.059
 1466SOL     OW 5296   1.133   0.933   2.422
 1466SOL    HW1 5297   1.158   0.871   2.348
 1466SOL    HW2 5298   1.209   0.942   2.486
 1467SOL     OW 5299   1.995   1.772   1.954
 1467SOL    HW1 5300   2.095   1.776   1.957
 1467SOL    HW2 5301   1.959   1.778   2.047
 1468SOL     OW 5302   5.286   5.423   2.949
 1468SOL    HW1 5303   5.316   5.490   3.018
 1468SOL    HW2 5304   5.334   5.337   2.963
 1469SOL     OW 5305   0.986   1.153   2.091
 1469SOL    HW1 5306   0.921   1.154   2.167
 1469SOL    HW2 5307   0.955   1.216   2.019
 1470SOL     OW 5308   1.785   1.056   3.132
 1470SOL    HW1 5309   1.709   1.101   3.179
 1470SOL    HW2 5310   1.761   0.961   3.113
 1471SOL     OW 5311   0.784   0.400   0.906
 1471SOL    HW1 5312   0.710   0.456   0.869
 1471SOL    HW2 5313   0.832   0.353   0.831
 1472SOL     OW 5314   3.931   5.793   5.050
 1472SOL    HW1 5315   3.842   5.808   5.093
 1472SOL    HW2 5316   3.973   5.881   5.030
 1473SOL     OW 5317   5.837   5.785   3.482
 1473SOL    HW1 5318   5.823   5.838   3.565
 1473SOL    HW2 5319   5.935   5.769   3.468
 1474SOL     OW 5320   6.075   5.645   3.041
 1474SOL    HW1 5321   5.983   5.618   3.067
 1474SOL    HW2 5322   6.087   5.630   2.942
 1475SOL     OW 5323   6.727   0.425   1.627
 1475SOL    HW1 5324   6.732   0.347   1.688
 1475SOL    HW2 5325   6.690   0.396   1.539
 1476SOL     OW 5326   2.280   1.769   1.480
 1476SOL    HW1 5327   2.208   1.833   1.457
 1476SOL    HW2 5328   2.249   1.707   1.552
 1477SOL     OW 5329   3.115   0.931   6.883
 1477SOL    HW1 5330   3.019   0.933   6.857
 1477SOL    HW2 5331   3.167   0.992   6.823
 1478SOL     OW 5332   5.203   4.718   0.224
 1478SOL    HW1 5333   5.185   4.629   0.182
 1478SOL    HW2 5334   5.203   4.709   0.323
 1479SOL     OW 5335   1.508   3.400   6.919
 1479SOL    HW1 5336   1.468   3.357   6.999
 1479SOL    HW2 5337   1.584   3.344   6.885
 1480SOL     OW 5338   3.138   0.109   6.014
 1480SOL    HW1 5339   3.094   0.171   5.948
 1480SOL    HW2 5340   3.197   0.162   6.075
 1481SOL     OW 5341   0.366   2.214   5.521
 1481SOL    HW1 5342   0.439   2.222   5.453
 1481SOL    HW2 5343   0.397   2.249   5.609
 1482SOL     OW 5344   5.151   2.502   0.679
 1482SOL    HW1 5345   5.215   2.431   0.708
 1482SOL    HW2 5346   5.167   2.586   0.730
 1483SOL     OW 5347   6.018   1.953   6.210
 1483SOL    HW1 5348   6.077   1.973   6.132
 1483SOL    HW2 5349   5.923   1.977   6.188
 1484SOL     OW 5350   5.787   5.319   3.954
 1484SOL    HW1 5351   5.706   5.337   4.010
 1484SOL    HW2 5352   5.806   5.221   3.953
 1485SOL     OW 5353   3.702   1.681   3.263
 1485SOL    HW1 5354   3.666   1.654   3.352
 1485SOL    HW2 5355   3.722   1.600   3.209
 1486SOL     OW 5356   5.231   2.280   2.996
 1486SOL    HW1 5357   5.178   2.260   2.914
 1486SOL    HW2 5358   5.169   2.294   3.073
 1487SOL     OW 5359   6.820   3.072   6.897
 1487SOL    HW1 5360   6.906   3.060   6.848
 1487SOL    HW2 5361   6.819   3.161   6.942
 1488SOL     OW 5362   5.637   2.074   3.851
 1488SOL    HW1 5363   5.650   1.986   3.805
 1488SOL    HW2 5364   5.723   2.104   3.891
 1489SOL     OW 5365   4.207   5.062   3.691
 1489SOL    HW1 5366   4.165   5.152   3.695
 1489SOL    HW2 5367   4.149   4.996   3.739
 1490SOL     OW 5368   1.169   3.045   1.033
 1490SOL    HW1 5369   1.203   2.960   1.075
 1490SOL    HW2 5370   1.072   3.057   1.055
 1491SOL     OW 5371   6.086   3.968   3.933
 1491SOL    HW1 5372   6.015   3.921   3.985
 1491SOL    HW2 5373   6.051   3.994   3.843
 1492SOL     OW 5374   5.865   1.837   2.611
 1492SOL    HW1 5375   5.877   1.765   2.542
 1492SOL    HW2 5376   5.832   1.920   2.568
 1493SOL     OW 5377   4.797   6.963   3.793
 1493SOL    HW1 5378   4.727   6.898   3.823
 1493SOL    HW2 5379   4.753   0.022   3.754
 1494SOL     OW 5380   5.816   1.817   5.571
 1494SOL    HW1 5381   5.899   1.830   5.625
 1494SOL    HW2 5382   5.736   1.833   5.630
 1495SOL     OW 5383   6.733   2.621   4.814
 1495SOL    HW1 5384   6.819   2.672   4.827
 1495SOL    HW2 5385   6.656   2.684   4.818
 1496SOL     OW 5386   0.806   1.506   2.530
 1496SOL    HW1 5387   0.817   1.470   2.437
 1496SOL    HW2 5388   0.889   1.553   2.558
 1497SOL     OW 5389   6.902   2.674   3.885
 1497SOL    HW1 5390   6.937   2.618   3.810
 1497SOL    HW2 5391   6.978   2.704   3.943
 1498SOL     OW 5392   2.098   4.654   6.770
 1498SOL    HW1 5393   2.057   4.576   6.722
 1498SOL    HW2 5394   2.067   4.739   6.727
 1499SOL     OW 5395   0.970   3.444   6.429
 1499SOL    HW1 5396   0.977   3.427   6.331
 1499SOL    HW2 5397   1.003   3.536   6.450
 1500SOL     OW 5398   6.779   6.351   6.879
 1500SOL    HW1 5399   6.782   6.451   6.887
 1500SOL    HW2 5400   6.707   6.316   6.938
 1501SOL     OW 5401   5.105   1.614   5.964
 1501SOL    HW1 5402   5.084   1.571   6.052
 1501SOL    HW2 5403   5.092   1.713   5.971
 1502SOL     OW 5404   6.053   0.470   0.863
 1502SOL    HW1 5405   5.997   0.523   0.927
 1502SOL    HW2 5406   5.997   0.400   0.819
 1503SOL     OW 5407   2.624   1.809   2.256
 1503SOL    HW1 5408   2.671   1.863   2.327
 1503SOL    HW2 5409   2.526   1.831   2.258
 1504SOL     OW 5410   0.687   0.734   4.993
 1504SOL    HW1 5411   0.680   0.726   4.894
 1504SOL    HW2 5412   0.638   0.659   5.037
 1505SOL     OW 5413   6.118   0.233   5.804
 1505SOL    HW1 5414   6.107   0.301   5.732
 1505SOL    HW2 5415   6.212   0.235   5.837
 1506SOL     OW 5416   2.052   5.378   1.307
 1506SOL    HW1 5417   2.046   5.327   1.393
 1506SOL    HW2 5418   2.139   5.428   1.304
 1507SOL     OW 5419   0.643   2.107   5.722
 1507SOL    HW1 5420   0.613   2.046   5.648
 1507SOL    HW2 5421   0.717   2.062   5.773
 1508SOL     OW 5422   6.893   0.413   1.928
 1508SOL    HW1 5423   6.799   0.446   1.918
 1508SOL    HW2 5424   6.897   0.316   1.903
 1509SOL     OW 5425   4.714   2.369   6.076
 1509SOL    HW1 5426   4.649   2.409   6.011
 1509SOL    HW2 5427   4.670   2.294   6.125
 1510SOL     OW 5428   5.941   2.838   4.922
 1510SOL    HW1 5429   5.905   2.851   4.830
 1510SOL    HW2 5430   5.865   2.825   4.986
 1511SOL     OW 5431   3.439   2.840   1.640
 1511SOL    HW1 5432   3.389   2.757   1.616
 1511SOL    HW2 5433   3.510   2.817   1.708
 1512SOL     OW 5434   0.106   5.792   1.587
 1512SOL    HW1 5435   0.044   5.871   1.580
 1512SOL    HW2 5436   0.055   5.713   1.621
 1513SOL     OW 5437   3.215   0.787   3.963
 1513SOL    HW1 5438   3.148   0.853   3.997
 1513SOL    HW2 5439   3.194   0.766   3.867
 1514SOL     OW 5440   5.070   2.321   5.778
 1514SOL    HW1 5441   5.093   2.225   5.763
 1514SOL    HW2 5442   5.085   2.372   5.694
 1515SOL     OW 5443   6.129   3.028   4.979
 1515SOL    HW1 5444   6.081   2.949   4.941
 1515SOL    HW2 5445   6.078   3.063   5.058
 1516SOL     OW 5446   0.526   7.008   1.081
 1516SOL    HW1 5447   0.503   0.067   1.136
 1516SOL    HW2 5448   0.623   6.988   1.090
 1517SOL     OW 5449   3.971   5.887   3.358
 1517SOL    HW1 5450   3.914   5.952   3.409
 1517SOL    HW2 5451   3.972   5.914   3.261
 1518SOL     OW 5452   0.672   2.817   0.615
 1518SOL    HW1 5453   0.577   2.805   0.644
 1518SOL    HW2 5454   0.689   2.761   0.533
 1519SOL     OW 5455   6.306   5.042   2.058
 1519SOL    HW1 5456   6.319   5.016   1.963
 1519SOL    HW2 5457   6.394   5.047   2.104
 1520SOL     OW 5458   0.293   3.792   2.400
 1520SOL    HW1 5459   0.322   3.697   2.416
 1520SOL    HW2 5460   0.197   3.802   2.427
 1521SOL     OW 5461   2.187   4.252   0.348
 1521SOL    HW1 5462   2.143   4.267   0.259
 1521SOL    HW2 5463   2.141   4.177   0.396
 1522SOL     OW 5464   6.520   6.977   4.822
 1522SOL    HW1 5465   6.494   6.998   4.727
 1522SOL    HW2 5466   6.441   6.938   4.870
 1523SOL     OW 5467   5.062   4.111   6.904
 1523SOL    HW1 5468   5.090   4.191   6.851
 1523SOL    HW2 5469   4.982   4.069   6.861
 1524SOL     OW 5470   1.272   2.235   1.627
 1524SOL    HW1 5471   1.239   2.307   1.688
 1524SOL    HW2 5472   1.270   2.147   1.676
 1525SOL     OW 5473   6.764   2.283   0.401
 1525SOL    HW1 5474   6.677   2.308   0.444
 1525SOL    HW2 5475   6.821   2.365   0.392
 1526SOL     OW 5476   1.053   0.325   6.665
 1526SOL    HW1 5477   0.995   0.372   6.599
 1526SOL    HW2 5478   1.050   0.226   6.648
 1527SOL     OW 5479   3.546   0.677   5.683
 1527SOL    HW1 5480   3.620   0.726   5.637
 1527SOL    HW2 5481   3.489   0.743   5.732
 1528SOL     OW 5482   5.269   5.858   2.216
 1528SOL    HW1 5483   5.341   5.789   2.205
 1528SOL    HW2 5484   5.295   5.940   2.166
 1529SOL     OW 5485   4.123   0.000   0.519
 1529SOL    HW1 5486   4.156   6.956   0.587
 1529SOL    HW2 5487   4.053   0.058   0.561
 1530SOL     OW 5488   3.396   1.289   2.793
 1530SOL    HW1 5489   3.305   1.247   2.802
 1530SOL    HW2 5490   3.463   1.232   2.841
 1531SOL     OW 5491   5.341   0.852   4.739
 1531SOL    HW1 5492   5.350   0.883   4.645
 1531SOL    HW2 5493   5.289   0.767   4.742
 1532SOL     OW 5494   2.824   3.841   5.873
 1532SOL    HW1 5495   2.911   3.824   5.920
 1532SOL    HW2 5496   2.764   3.895   5.931
 1533SOL     OW 5497   0.043   3.471   0.186
 1533SOL    HW1 5498   0.013   3.376   0.183
 1533SOL    HW2 5499   0.118   3.484   0.121
 1534SOL     OW 5500   1.572   4.930   6.354
 1534SOL    HW1 5501   1.606   4.938   6.260
 1534SOL    HW2 5502   1.566   5.021   6.395
 1535SOL     OW 5503   5.203   6.101   4.235
 1535SOL    HW1 5504   5.228   6.040   4.310
 1535SOL    HW2 5505   5.108   6.131   4.247
 1536SOL     OW 5506   4.037   4.307   5.290
 1536SOL    HW1 5507   3.971   4.374   5.322
 1536SOL    HW2 5508   4.108   4.352   5.237
 1537SOL     OW 5509   3.567   6.296   3.202
 1537SOL    HW1 5510   3.525   6.382   3.175
 1537SOL    HW2 5511   3.596   6.246   3.120
 1538SOL     OW 5512   3.389   5.492   5.993
 1538SOL    HW1 5513   3.354   5.479   5.900
 1538SOL    HW2 5514   3.345   5.572   6.033
 1539SOL     OW 5515   4.063   3.845   1.912
 1539SOL    HW1 5516   4.045   3.897   1.995
 1539SOL    HW2 5517   4.063   3.747   1.933
 1540SOL     OW 5518   1.130   0.042   5.744
 1540SOL    HW1 5519   1.106   0.113   5.810
 1540SOL    HW2 5520   1.213   0.068   5.695
 1541SOL     OW 5521   3.654   2.881   2.324
 1541SOL    HW1 5522   3.681   2.791   2.358
 1541SOL    HW2 5523   3.590   2.923   2.388
 1542SOL     OW 5524   6.557   6.380   1.605
 1542SOL    HW1 5525   6.585   6.464   1.652
 1542SOL    HW2 5526   6.533   6.310   1.673
 1543SOL     OW 5527   3.036   3.988   3.890
 1543SOL    HW1 5528   3.007   3.957   3.981
 1543SOL    HW2 5529   3.008   3.921   3.821
 1544SOL     OW 5530   3.232   3.438   2.263
 1544SOL    HW1 5531   3.271   3.357   2.307
 1544SOL    HW2 5532   3.147   3.465   2.308
 1545SOL     OW 5533   5.225   0.604   4.736
 1545SOL    HW1 5534   5.306   0.544   4.733
 1545SOL    HW2 5535   5.143   0.548   4.749
 1546SOL     OW 5536   4.877   6.690   6.069
 1546SOL    HW1 5537   4.958   6.677   6.012
 1546SOL    HW2 5538   4.903   6.687   6.165
 1547SOL     OW 5539   1.825   4.054   3.135
 1547SOL    HW1 5540   1.806   3.966   3.092
 1547SOL    HW2 5541   1.859   4.118   3.065
 1548SOL     OW 5542   4.386   4.306   6.291
 1548SOL    HW1 5543   4.457   4.250   6.249
 1548SOL    HW2 5544   4.427   4.389   6.330
 1549SOL     OW 5545   4.419   1.412   2.750
 1549SOL    HW1 5546   4.385   1.465   2.672
 1549SOL    HW2 5547   4.343   1.379   2.804
 1550SOL     OW 5548   2.938   5.130   6.657
 1550SOL    HW1 5549   2.887   5.073   6.593
 1550SOL    HW2 5550   2.995   5.195   6.605
 1551SOL     OW 5551   2.669   3.731   0.108
 1551SOL    HW1 5552   2.749   3.672   0.101
 1551SOL    HW2 5553   2.692   3.811   0.165
 1552SOL     OW 5554   0.446   0.207   1.246
 1552SOL    HW1 5555   0.374   0.152   1.288
 1552SOL    HW2 5556   0.467   0.285   1.305
 1553SOL     OW 5557   6.723   0.489   5.564
 1553SOL    HW1 5558   6.785   0.542   5.622
 1553SOL    HW2 5559   6.775   0.446   5.490
 1554SOL     OW 5560   3.893   2.161   3.574
 1554SOL    HW1 5561   3.944   2.114   3.646
 1554SOL    HW2 5562   3.795   2.161   3.597
 1555SOL     OW 5563   5.075   1.894   6.003
 1555SOL    HW1 5564   5.166   1.889   6.045
 1555SOL    HW2 5565   5.023   1.969   6.044
 1556SOL     OW 5566   4.018   1.065   0.347
 1556SOL    HW1 5567   4.018   1.107   0.437
 1556SOL    HW2 5568   4.052   0.972   0.353
 1557SOL     OW 5569   2.000   1.570   6.629
 1557SOL    HW1 5570   1.972   1.595   6.722
 1557SOL    HW2 5571   1.920   1.577   6.568
 1558SOL     OW 5572   5.254   1.254   4.131
 1558SOL    HW1 5573   5.259   1.160   4.097
 1558SOL    HW2 5574   5.219   1.255   4.224
 1559SOL     OW 5575   0.160   2.491   0.188
 1559SOL    HW1 5576   0.179   2.489   0.090
 1559SOL    HW2 5577   0.169   2.399   0.225
 1560SOL     OW 5578   3.322   1.217   6.352
 1560SOL    HW1 5579   3.263   1.192   6.429
 1560SOL    HW2 5580   3.332   1.138   6.290
 1561SOL     OW 5581   6.145   6.500   2.871
 1561SOL    HW1 5582   6.060   6.450   2.852
 1561SOL    HW2 5583   6.183   6.534   2.785
 1562SOL     OW 5584   4.110   6.321   1.581
 1562SOL    HW1 5585   4.193   6.353   1.627
 1562SOL    HW2 5586   4.111   6.351   1.486
 1563SOL     OW 5587   2.456   1.058   5.965
 1563SOL    HW1 5588   2.390   1.097   5.900
 1563SOL    HW2 5589   2.549   1.077   5.933
 1564SOL     OW 5590   1.388   2.340   2.341
 1564SOL    HW1 5591   1.295   2.376   2.347
 1564SOL    HW2 5592   1.414   2.302   2.430
 1565SOL     OW 5593   3.932   5.662   4.210
 1565SOL    HW1 5594   3.876   5.625   4.283
 1565SOL    HW2 5595   4.025   5.626   4.217
 1566SOL     OW 5596   5.804   4.702   4.867
 1566SOL    HW1 5597   5.902   4.696   4.845
 1566SOL    HW2 5598   5.752   4.651   4.798
 1567SOL     OW 5599   6.500   5.883   0.104
 1567SOL    HW1 5600   6.523   5.822   0.027
 1567SOL    HW2 5601   6.494   5.977   0.071
 1568SOL     OW 5602   1.789   6.677   1.809
 1568SOL    HW1 5603   1.828   6.643   1.894
 1568SOL    HW2 5604   1.690   6.690   1.820
 1569SOL     OW 5605   2.988   6.790   3.755
 1569SOL    HW1 5606   2.964   6.797   3.852
 1569SOL    HW2 5607   2.904   6.790   3.701
 1570SOL     OW 5608   2.521   6.843   0.156
 1570SOL    HW1 5609   2.483   6.751   0.148
 1570SOL    HW2 5610   2.516   6.873   0.251
 1571SOL     OW 5611   6.395   1.777   3.195
 1571SOL    HW1 5612   6.349   1.837   3.260
 1571SOL    HW2 5613   6.345   1.691   3.187
 1572SOL     OW 5614   1.991   6.055   0.870
 1572SOL    HW1 5615   1.904   6.104   0.877
 1572SOL    HW2 5616   2.043   6.091   0.792
 1573SOL     OW 5617   6.366   3.712   1.645
 1573SOL    HW1 5618   6.327   3.733   1.555
 1573SOL    HW2 5619   6.311   3.641   1.689
 1574SOL     OW 5620   6.518   1.912   4.181
 1574SOL    HW1 5621   6.610   1.950   4.196
 1574SOL    HW2 5622   6.517   1.817   4.211
 1575SOL     OW 5623   2.514   1.814   1.322
 1575SOL    HW1 5624   2.440   1.796   1.387
 1575SOL    HW2 5625   2.578   1.737   1.322
 1576SOL     OW 5626   1.200   0.526   3.219
 1576SOL    HW1 5627   1.109   0.491   3.242
 1576SOL    HW2 5628   1.235   0.582   3.294
 1577SOL     OW 5629   2.636   0.475   5.800
 1577SOL    HW1 5630   2.617   0.380   5.826
 1577SOL    HW2 5631   2.574   0.536   5.849
 1578SOL     OW 5632   5.313   1.537   5.508
 1578SOL    HW1 5633   5.389   1.553   5.446
 1578SOL    HW2 5634   5.327   1.450   5.555
 1579SOL     OW 5635   0.024   1.940   1.855
 1579SOL    HW1 5636   0.086   1.927   1.933
 1579SOL    HW2 5637   6.953   1.914   1.881
 1580SOL     OW 5638   3.571   4.073   3.986
 1580SOL    HW1 5639   3.530   4.153   3.942
 1580SOL    HW2 5640   3.509   4.037   4.055
 1581SOL     OW 5641   6.275   4.852   4.937
 1581SOL    HW1 5642   6.264   4.758   4.905
 1581SOL    HW2 5643   6.189   4.901   4.926
 1582SOL     OW 5644   1.796   6.503   4.726
 1582SOL    HW1 5645   1.723   6.437   4.707
 1582SOL    HW2 5646   1.769   6.593   4.691
 1583SOL     OW 5647   0.369   6.209   3.381
 1583SOL    HW1 5648   0.437   6.244   3.317
 1583SOL    HW2 5649   0.325   6.129   3.341
 1584SOL     OW 5650   0.736   5.763   5.634
 1584SOL    HW1 5651   0.807   5.832   5.619
 1584SOL    HW2 5652   0.661   5.803   5.686
 1585SOL     OW 5653   4.366   1.862   3.282
 1585SOL    HW1 5654   4.308   1.885   3.361
 1585SOL    HW2 5655   4.321   1.792   3.227
 1586SOL     OW 5656   3.580   5.068   2.322
 1586SOL    HW1 5657   3.577   5.168   2.318
 1586SOL    HW2 5658   3.488   5.032   2.338
 1587SOL     OW 5659   2.343   6.000   5.794
 1587SOL    HW1 5660   2.429   6.034   5.756
 1587SOL    HW2 5661   2.348   6.001   5.894
 1588SOL     OW 5662   4.255   0.891   2.404
 1588SOL    HW1 5663   4.245   0.935   2.314
 1588SOL    HW2 5664   4.241   0.793   2.394
 1589SOL     OW 5665   6.745   2.945   2.027
 1589SOL    HW1 5666   6.816   2.935   1.957
 1589SOL    HW2 5667   6.785   2.985   2.110
 1590SOL     OW 5668   4.346   0.160   4.426
 1590SOL    HW1 5669   4.348   0.247   4.475
 1590SOL    HW2 5670   4.416   0.161   4.354
 1591SOL     OW 5671   6.881   5.595   1.415
 1591SOL    HW1 5672   6.924   5.508   1.395
 1591SOL    HW2 5673   6.915   5.664   1.351
 1592SOL     OW 5674   2.564   3.996   6.746
 1592SOL    HW1 5675   2.612   3.969   6.663
 1592SOL    HW2 5676   2.562   4.096   6.752
 1593SOL     OW 5677   0.918   6.906   5.612
 1593SOL    HW1 5678   0.887   6.838   5.678
 1593SOL    HW2 5679   0.986   6.966   5.656
 1594SOL     OW 5680   1.293   6.617   1.652
 1594SOL    HW1 5681   1.216   6.679   1.660
 1594SOL    HW2 5682   1.288   6.547   1.723
 1595SOL     OW 5683   1.123   5.217   0.287
 1595SOL    HW1 5684   1.202   5.186   0.339
 1595SOL    HW2 5685   1.088   5.302   0.327
 1596SOL     OW 5686   0.271   3.030   4.074
 1596SOL    HW1 5687   0.247   3.127   4.068
 1596SOL    HW2 5688   0.369   3.021   4.092
 1597SOL     OW 5689   1.300   6.152   0.162
 1597SOL    HW1 5690   1.247   6.233   0.141
 1597SOL    HW2 5691   1.239   6.077   0.188
 1598SOL     OW 5692   0.054   4.475   5.671
 1598SOL    HW1 5693   0.107   4.547   5.625
 1598SOL    HW2 5694   0.098   4.453   5.759
 1599SOL     OW 5695   4.859   5.608   4.671
 1599SOL    HW1 5696   4.820   5.696   4.698
 1599SOL    HW2 5697   4.806   5.534   4.711
 1600SOL     OW 5698   3.733   1.022   3.489
 1600SOL    HW1 5699   3.642   0.984   3.501
 1600SOL    HW2 5700   3.739   1.110   3.535
 1601SOL     OW 5701   6.835   6.337   4.244
 1601SOL    HW1 5702   6.778   6.290   4.177
 1601SOL    HW2 5703   6.928   6.301   4.241
 1602SOL     OW 5704   4.184   5.065   4.063
 1602SOL    HW1 5705   4.120   5.141   4.073
 1602SOL    HW2 5706   4.145   4.996   4.002
 1603SOL     OW 5707   1.377   6.463   2.940
 1603SOL    HW1 5708   1.301   6.527   2.931
 1603SOL    HW2 5709   1.428   6.459   2.854
 1604SOL     OW 5710   5.124   4.381   1.221
 1604SOL    HW1 5711   5.138   4.285   1.243
 1604SOL    HW2 5712   5.103   4.432   1.305
 1605SOL     OW 5713   6.680   5.580   1.850
 1605SOL    HW1 5714   6.659   5.483   1.859
 1605SOL    HW2 5715   6.596   5.633   1.865
 1606SOL     OW 5716   4.135   6.469   5.963
 1606SOL    HW1 5717   4.125   6.410   5.883
 1606SOL    HW2 5718   4.047   6.514   5.982
 1607SOL     OW 5719   4.077   0.727   0.667
 1607SOL    HW1 5720   4.150   0.792   0.643
 1607SOL    HW2 5721   3.993   0.752   0.618
 1608SOL     OW 5722   0.287   1.223   3.845
 1608SOL    HW1 5723   0.193   1.217   3.878
 1608SOL    HW2 5724   0.337   1.142   3.872
 1609SOL     OW 5725   4.745   0.264   0.334
 1609SOL    HW1 5726   4.651   0.293   0.319
 1609SOL    HW2 5727   4.754   0.166   0.314
 1610SOL     OW 5728   6.103   4.675   6.932
 1610SOL    HW1 5729   6.115   4.751   6.868
 1610SOL    HW2 5730   6.010   4.639   6.926
 1611SOL     OW 5731   2.569   3.954   0.344
 1611SOL    HW1 5732   2.643   3.928   0.406
 1611SOL    HW2 5733   2.535   4.045   0.369
 1612SOL     OW 5734   2.583   0.381   0.214
 1612SOL    HW1 5735   2.619   0.288   0.210
 1612SOL    HW2 5736   2.597   0.419   0.306
 1613SOL     OW 5737   1.760   5.929   2.236
 1613SOL    HW1 5738   1.764   5.983   2.152
 1613SOL    HW2 5739   1.700   5.850   2.223
 1614SOL     OW 5740   5.396   2.237   6.142
 1614SOL    HW1 5741   5.456   2.258   6.065
 1614SOL    HW2 5742   5.406   2.307   6.213
 1615SOL     OW 5743   6.200   5.618   0.594
 1615SOL    HW1 5744   6.281   5.621   0.536
 1615SOL    HW2 5745   6.142   5.698   0.575
 1616SOL     OW 5746   3.810   1.003   5.289
 1616SOL    HW1 5747   3.751   1.062   5.344
 1616SOL    HW2 5748   3.769   0.991   5.199
 1617SOL     OW 5749   5.391   6.887   2.728
 1617SOL    HW1 5750   5.306   6.839   2.746
 1617SOL    HW2 5751   5.375   6.985   2.727
 1618SOL     OW 5752   1.327   5.725   2.512
 1618SOL    HW1 5753   1.423   5.739   2.489
 1618SOL    HW2 5754   1.319   5.697   2.607
 1619SOL     OW 5755   0.679   4.060   1.520
 1619SOL    HW1 5756   0.770   4.087   1.489
 1619SOL    HW2 5757   0.631   4.139   1.558
 1620SOL     OW 5758   2.758   4.396   1.680
 1620SOL    HW1 5759   2.666   4.398   1.720
 1620SOL    HW2 5760   2.822   4.442   1.741
 1621SOL     OW 5761   6.633   1.069   0.535
 1621SOL    HW1 5762   6.709   1.133   0.533
 1621SOL    HW2 5763   6.668   0.976   0.522
 1622SOL     OW 5764   0.543   3.562   5.219
 1622SOL    HW1 5765   0.629   3.552   5.270
 1622SOL    HW2 5766   0.487   3.632   5.262
 1623SOL     OW 5767   1.561   3.083   4.855
 1623SOL    HW1 5768   1.657   3.075   4.879
 1623SOL    HW2 5769   1.543   3.035   4.769
 1624SOL     OW 5770   3.528   1.540   4.944
 1624SOL    HW1 5771   3.534   1.603   5.021
 1624SOL    HW2 5772   3.584   1.573   4.868
 1625SOL     OW 5773   1.023   4.541   0.428
 1625SOL    HW1 5774   1.120   4.542   0.406
 1625SOL    HW2 5775   0.969   4.529   0.345
 1626SOL     OW 5776   4.010   1.179   0.611
 1626SOL    HW1 5777   4.029   1.272   0.577
 1626SOL    HW2 5778   4.094   1.140   0.648
 1627SOL     OW 5779   6.199   2.817   3.625
 1627SOL    HW1 5780   6.129   2.777   3.565
 1627SOL    HW2 5781   6.206   2.915   3.606
 1628SOL     OW 5782   4.707   4.873   0.612
 1628SOL    HW1 5783   4.741   4.929   0.687
 1628SOL    HW2 5784   4.708   4.776   0.640
 1629SOL     OW 5785   2.853   1.318   3.824
 1629SOL    HW1 5786   2.924   1.250   3.805
 1629SOL    HW2 5787   2.856   1.344   3.920
 1630SOL     OW 5788   1.129   4.904   6.139
 1630SOL    HW1 5789   1.146   4.915   6.041
 1630SOL    HW2 5790   1.214   4.881   6.186
 1631SOL     OW 5791   0.943   2.957   0.460
 1631SOL    HW1 5792   0.896   2.997   0.381
 1631SOL    HW2 5793   0.876   2.928   0.528
 1632SOL     OW 5794   5.744   2.017   0.969
 1632SOL    HW1 5795   5.652   1.988   0.997
 1632SOL    HW2 5796   5.809   1.997   1.041
 1633SOL     OW 5797   5.490   4.031   4.612
 1633SOL    HW1 5798   5.414   4.080   4.568
 1633SOL    HW2 5799   5.529   3.966   4.547
 1634SOL     OW 5800   4.190   5.514   4.216
 1634SOL    HW1 5801   4.273   5.569   4.214
 1634SOL    HW2 5802   4.180   5.464   4.130
 1635SOL     OW 5803   0.263   4.955   6.746
 1635SOL    HW1 5804   0.292   5.051   6.747
 1635SOL    HW2 5805   0.254   4.924   6.652
 1636SOL     OW 5806   3.095   4.457   1.100
 1636SOL    HW1 5807   3.171   4.409   1.143
 1636SOL    HW2 5808   3.023   4.474   1.167
 1637SOL     OW 5809   6.859   0.803   2.976
 1637SOL    HW1 5810   6.774   0.854   2.963
 1637SOL    HW2 5811   6.873   0.787   3.074
 1638SOL     OW 5812   0.033   4.326   3.202
 1638SOL    HW1 5813   0.100   4.363   3.137
 1638SOL    HW2 5814   0.077   4.315   3.291
 1639SOL     OW 5815   5.559   6.216   1.510
 1639SOL    HW1 5816   5.563   6.314   1.529
 1639SOL    HW2 5817   5.583   6.165   1.592
 1640SOL     OW 5818   6.078   0.369   6.764
 1640SOL    HW1 5819   6.166   0.407   6.789
 1640SOL    HW2 5820   6.005   0.422   6.807
 1641SOL     OW 5821   4.506   2.276   2.794
 1641SOL    HW1 5822   4.408   2.292   2.799
 1641SOL    HW2 5823   4.534   2.268   2.698
 1642SOL     OW 5824   0.250   3.293   6.875
 1642SOL    HW1 5825   0.224   3.203   6.840
 1642SOL    HW2 5826   0.217   3.364   6.814
 1643SOL     OW 5827   2.455   5.071   4.436
 1643SOL    HW1 5828   2.498   4.998   4.382
 1643SOL    HW2 5829   2.512   5.154   4.431
 1644SOL     OW 5830   5.961   4.043   6.379
 1644SOL    HW1 5831   5.932   4.126   6.330
 1644SOL    HW2 5832   5.886   3.978   6.380
 1645SOL     OW 5833   3.794   5.193   6.387
 1645SOL    HW1 5834   3.718   5.243   6.429
 1645SOL    HW2 5835   3.758   5.125   6.324
 1646SOL     OW 5836   2.836   6.878   0.166
 1646SOL    HW1 5837   2.771   6.804   0.146
 1646SOL    HW2 5838   2.916   6.841   0.212
 1647SOL     OW 5839   6.172   3.690   4.487
 1647SOL    HW1 5840   6.133   3.660   4.574
 1647SOL    HW2 5841   6.272   3.681   4.490
 1648SOL     OW 5842   5.691   5.633   0.479
 1648SOL    HW1 5843   5.699   5.566   0.405
 1648SOL    HW2 5844   5.683   5.585   0.566
 1649SOL     OW 5845   3.534   1.492   3.666
 1649SOL    HW1 5846   3.437   1.467   3.668
 1649SOL    HW2 5847   3.543   1.584   3.629
 1650SOL     OW 5848   1.119   6.214   5.310
 1650SOL    HW1 5849   1.099   6.188   5.405
 1650SOL    HW2 5850   1.203   6.168   5.280
 1651SOL     OW 5851   0.348   1.838   1.760
 1651SOL    HW1 5852   0.359   1.938   1.762
 1651SOL    HW2 5853   0.254   1.815   1.739
 1652SOL     OW 5854   1.072   3.196   2.894
 1652SOL    HW1 5855   1.104   3.256   2.968
 1652SOL    HW2 5856   1.120   3.221   2.810
 1653SOL     OW 5857   1.089   0.041   6.997
 1653SOL    HW1 5858   1.129   0.125   0.011
 1653SOL    HW2 5859   1.065   0.054   6.900
 1654SOL     OW 5860   6.940   3.484   2.061
 1654SOL    HW1 5861   6.974   3.390   2.067
 1654SOL    HW2 5862   6.991   3.533   1.990
 1655SOL     OW 5863   0.448   2.049   4.986
 1655SOL    HW1 5864   0.491   2.138   4.969
 1655SOL    HW2 5865   0.440   2.035   5.085
 1656SOL     OW 5866   2.234   4.512   2.693
 1656SOL    HW1 5867   2.135   4.523   2.687
 1656SOL    HW2 5868   2.255   4.439   2.758
 1657SOL     OW 5869   6.978   0.906   4.439
 1657SOL    HW1 5870   7.004   0.817   4.475
 1657SOL    HW2 5871   0.025   0.974   4.466
 1658SOL     OW 5872   6.615   0.006   1.377
 1658SOL    HW1 5873   6.569   0.034   1.461
 1658SOL    HW2 5874   6.611   6.929   1.368
 1659SOL     OW 5875   3.546   6.868   0.122
 1659SOL    HW1 5876   3.621   6.868   0.189
 1659SOL    HW2 5877   3.581   6.898   0.033
 1660SOL     OW 5878   1.751   5.623   2.588
 1660SOL    HW1 5879   1.701   5.705   2.562
 1660SOL    HW2 5880   1.800   5.587   2.509
 1661SOL     OW 5881   2.750   6.680   1.143
 1661SOL    HW1 5882   2.793   6.656   1.056
 1661SOL    HW2 5883   2.667   6.627   1.156
 1662SOL     OW 5884   0.403   0.665   4.359
 1662SOL    HW1 5885   0.485   0.621   4.394
 1662SOL    HW2 5886   0.334   0.596   4.337
 1663SOL     OW 5887   4.080   6.239   3.372
 1663SOL    HW1 5888   4.006   6.176   3.396
 1663SOL    HW2 5889   4.089   6.309   3.443
 1664SOL     OW 5890   2.082   6.248   4.976
 1664SOL    HW1 5891   2.128   6.211   5.056
 1664SOL    HW2 5892   1.983   6.236   4.986
 1665SOL     OW 5893   6.691   2.662   2.666
 1665SOL    HW1 5894   6.768   2.682   2.727
 1665SOL    HW2 5895   6.718   2.590   2.602
 1666SOL     OW 5896   5.333   1.957   6.149
 1666SOL    HW1 5897   5.310   1.935   6.244
 1666SOL    HW2 5898   5.379   2.046   6.145
 1667SOL     OW 5899   0.404   6.693   0.672
 1667SOL    HW1 5900   0.411   6.725   0.767
 1667SOL    HW2 5901   0.404   6.593   0.672
 1668SOL     OW 5902   4.868   6.301   3.448
 1668SOL    HW1 5903   4.942   6.358   3.484
 1668SOL    HW2 5904   4.906   6.215   3.413
 1669SOL     OW 5905   6.426   4.970   6.793
 1669SOL    HW1 5906   6.504   4.978   6.731
 1669SOL    HW2 5907   6.390   5.062   6.812
 1670SOL     OW 5908   0.476   3.724   5.973
 1670SOL    HW1 5909   0.419   3.769   5.905
 1670SOL    HW2 5910   0.451   3.755   6.064
 1671SOL     OW 5911   5.572   1.324   2.954
 1671SOL    HW1 5912   5.518   1.260   3.008
 1671SOL    HW2 5913   5.570   1.415   2.996
 1672SOL     OW 5914   1.521   2.838   0.904
 1672SOL    HW1 5915   1.474   2.889   0.977
 1672SOL    HW2 5916   1.462   2.835   0.823
 1673SOL     OW 5917   0.860   1.449   4.937
 1673SOL    HW1 5918   0.826   1.365   4.895
 1673SOL    HW2 5919   0.811   1.527   4.899
 1674SOL     OW 5920   0.894   3.056   2.512
 1674SOL    HW1 5921   0.992   3.040   2.527
 1674SOL    HW2 5922   0.843   2.978   2.548
 1675SOL     OW 5923   5.190   6.831   0.334
 1675SOL    HW1 5924   5.136   6.747   0.340
 1675SOL    HW2 5925   5.197   6.860   0.239
 1676SOL     OW 5926   2.368   2.709   1.588
 1676SOL    HW1 5927   2.440   2.705   1.658
 1676SOL    HW2 5928   2.293   2.766   1.621
 1677SOL     OW 5929   3.396   3.299   4.067
 1677SOL    HW1 5930   3.427   3.209   4.035
 1677SOL    HW2 5931   3.429   3.314   4.160
 1678SOL     OW 5932   5.975   4.485   3.524
 1678SOL    HW1 5933   5.896   4.437   3.561
 1678SOL    HW2 5934   6.029   4.523   3.599
 1679SOL     OW 5935   2.413   2.659   4.463
 1679SOL    HW1 5936   2.444   2.669   4.558
 1679SOL    HW2 5937   2.443   2.570   4.428
 1680SOL     OW 5938   0.167   2.825   5.227
 1680SOL    HW1 5939   0.184   2.921   5.207
 1680SOL    HW2 5940   0.174   2.809   5.326
 1681SOL     OW 5941   0.163   5.477   6.514
 1681SOL    HW1 5942   0.107   5.411   6.565
 1681SOL    HW2 5943   0.132   5.482   6.420
 1682SOL     OW 5944   1.966   0.445   5.512
 1682SOL    HW1 5945   1.912   0.406   5.437
 1682SOL    HW2 5946   1.959   0.545   5.510
 1683SOL     OW 5947   4.510   4.769   1.964
 1683SOL    HW1 5948   4.535   4.841   2.029
 1683SOL    HW2 5949   4.455   4.808   1.890
 1684SOL     OW 5950   1.198   6.523   2.359
 1684SOL    HW1 5951   1.227   6.431   2.387
 1684SOL    HW2 5952   1.146   6.517   2.275
 1685SOL     OW 5953   2.447   0.979   4.797
 1685SOL    HW1 5954   2.530   0.971   4.851
 1685SOL    HW2 5955   2.412   0.887   4.776
 1686SOL     OW 5956   2.373   5.925   4.292
 1686SOL    HW1 5957   2.310   6.002   4.290
 1686SOL    HW2 5958   2.463   5.954   4.259
 1687SOL     OW 5959   1.885   3.186   2.220
 1687SOL    HW1 5960   1.955   3.210   2.153
 1687SOL    HW2 5961   1.806   3.146   2.173
 1688SOL     OW 5962   2.487   2.412   4.312
 1688SOL    HW1 5963   2.489   2.330   4.254
 1688SOL    HW2 5964   2.399   2.458   4.299
 1689SOL     OW 5965   6.276   1.177   2.949
 1689SOL    HW1 5966   6.354   1.239   2.943
 1689SOL    HW2 5967   6.300   1.099   3.006
 1690SOL     OW 5968   1.327   3.117   4.345
 1690SOL    HW1 5969   1.372   3.095   4.431
 1690SOL    HW2 5970   1.274   3.201   4.356
 1691SOL     OW 5971   5.596   3.719   3.842
 1691SOL    HW1 5972   5.565   3.786   3.775
 1691SOL    HW2 5973   5.582   3.627   3.807
 1692SOL     OW 5974   5.172   6.492   1.374
 1692SOL    HW1 5975   5.207   6.510   1.466
 1692SOL    HW2 5976   5.224   6.546   1.307
 1693SOL     OW 5977   6.679   1.948   2.313
 1693SOL    HW1 5978   6.614   2.021   2.292
 1693SOL    HW2 5979   6.762   1.960   2.259
 1694SOL     OW 5980   5.670   1.268   2.697
 1694SOL    HW1 5981   5.752   1.316   2.667
 1694SOL    HW2 5982   5.655   1.284   2.794
 1695SOL     OW 5983   3.985   0.653   6.517
 1695SOL    HW1 5984   3.939   0.565   6.502
 1695SOL    HW2 5985   4.052   0.643   6.591
 1696SOL     OW 5986   4.210   5.769   0.759
 1696SOL    HW1 5987   4.245   5.843   0.816
 1696SOL    HW2 5988   4.122   5.796   0.720
 1697SOL     OW 5989   6.260   0.974   0.266
 1697SOL    HW1 5990   6.234   0.908   0.336
 1697SOL    HW2 5991   6.210   1.059   0.280
 1698SOL     OW 5992   3.239   0.310   0.109
 1698SOL    HW1 5993   3.303   0.376   0.148
 1698SOL    HW2 5994   3.180   0.357   0.043
 1699SOL     OW 5995   2.434   1.277   6.662
 1699SOL    HW1 5996   2.507   1.326   6.615
 1699SOL    HW2 5997   2.418   1.189   6.616
 1700SOL     OW 5998   6.285   3.808   3.610
 1700SOL    HW1 5999   6.343   3.883   3.642
 1700SOL    HW2 6000   6.268   3.744   3.686
 1701SOL     OW 6001   4.946   4.472   5.403
 1701SOL    HW1 6002   4.952   4.373   5.392
 1701SOL    HW2 6003   4.940   4.515   5.313
 1702SOL     OW 6004   6.433   1.401   0.311
 1702SOL    HW1 6005   6.428   1.303   0.294
 1702SOL    HW2 6006   6.498   1.419   0.386
 1703SOL     OW 6007   3.435   2.465   0.810
 1703SOL    HW1 6008   3.401   2.539   0.752
 1703SOL    HW2 6009   3.519   2.494   0.855
 1704SOL     OW 6010   1.100   1.714   1.630
 1704SOL    HW1 6011   1.018   1.771   1.628
 1704SOL    HW2 6012   1.170   1.753   1.569
 1705SOL     OW 6013   3.018   2.201   2.436
 1705SOL    HW1 6014   2.965   2.244   2.363
 1705SOL    HW2 6015   2.994   2.244   2.524
 1706SOL     OW 6016   4.980   1.014   2.143
 1706SOL    HW1 6017   5.070   0.974   2.127
 1706SOL    HW2 6018   4.915   0.979   2.076
 1707SOL     OW 6019   5.090   2.198   1.725
 1707SOL    HW1 6020   5.076   2.126   1.793
 1707SOL    HW2 6021   5.183   2.194   1.690
 1708SOL     OW 6022   4.919   5.441   2.317
 1708SOL    HW1 6023   4.936   5.492   2.402
 1708SOL    HW2 6024   4.898   5.505   2.244
 1709SOL     OW 6025   3.128   6.180   2.203
 1709SOL    HW1 6026   3.075   6.222   2.129
 1709SOL    HW2 6027   3.192   6.247   2.240
 1710SOL     OW 6028   5.016   4.650   3.745
 1710SOL    HW1 6029   5.069   4.735   3.746
 1710SOL    HW2 6030   4.995   4.624   3.840
 1711SOL     OW 6031   1.405   4.201   4.249
 1711SOL    HW1 6032   1.396   4.276   4.315
 1711SOL    HW2 6033   1.499   4.197   4.216
 1712SOL     OW 6034   6.540   2.165   4.968
 1712SOL    HW1 6035   6.448   2.167   4.929
 1712SOL    HW2 6036   6.607   2.151   4.895
 1713SOL     OW 6037   5.075   2.270   2.230
 1713SOL    HW1 6038   5.017   2.201   2.188
 1713SOL    HW2 6039   5.024   2.356   2.238
 1714SOL     OW 6040   3.384   0.863   5.796
 1714SOL    HW1 6041   3.300   0.871   5.742
 1714SOL    HW2 6042   3.363   0.881   5.892
 1715SOL     OW 6043   1.358   5.307   2.817
 1715SOL    HW1 6044   1.383   5.252   2.897
 1715SOL    HW2 6045   1.422   5.290   2.743
 1716SOL     OW 6046   5.060   0.167   2.791
 1716SOL    HW1 6047   4.976   0.189   2.741
 1716SOL    HW2 6048   5.060   0.213   2.880
 1717SOL     OW 6049   2.826   5.688   5.720
 1717SOL    HW1 6050   2.745   5.665   5.773
 1717SOL    HW2 6051   2.886   5.608   5.714
 1718SOL     OW 6052   2.793   1.437   1.870
 1718SOL    HW1 6053   2.793   1.434   1.770
 1718SOL    HW2 6054   2.805   1.345   1.906
 1719SOL     OW 6055   1.857   2.939   1.448
 1719SOL    HW1 6056   1.943   2.990   1.446
 1719SOL    HW2 6057   1.837   2.904   1.357
 1720SOL     OW 6058   0.200   3.041   0.271
 1720SOL    HW1 6059   0.272   3.027   0.339
 1720SOL    HW2 6060   0.166   2.953   0.239
 1721SOL     OW 6061   2.207   6.946   1.696
 1721SOL    HW1 6062   2.278   6.928   1.764
 1721SOL    HW2 6063   2.250   6.978   1.611
 1722SOL     OW 6064   3.179   1.190   3.478
 1722SOL    HW1 6065   3.135   1.225   3.395
 1722SOL    HW2 6066   3.224   1.103   3.457
 1723SOL     OW 6067   5.694   2.083   1.482
 1723SOL    HW1 6068   5.665   2.079   1.577
 1723SOL    HW2 6069   5.623   2.127   1.427
 1724SOL     OW 6070   6.504   2.909   2.375
 1724SOL    HW1 6071   6.594   2.873   2.402
 1724SOL    HW2 6072   6.433   2.864   2.429
 1725SOL     OW 6073   2.194   4.830   6.295
 1725SOL    HW1 6074   2.120   4.792   6.351
 1725SOL    HW2 6075   2.276   4.774   6.306
 1726SOL     OW 6076   6.434   4.456   5.461
 1726SOL    HW1 6077   6.463   4.367   5.495
 1726SOL    HW2 6078   6.338   4.452   5.436
 1727SOL     OW 6079   3.364   2.865   3.703
 1727SOL    HW1 6080   3.438   2.919   3.663
 1727SOL    HW2 6081   3.380   2.768   3.687
 1728SOL     OW 6082   5.295   5.166   5.239
 1728SOL    HW1 6083   5.313   5.142   5.143
 1728SOL    HW2 6084   5.239   5.249   5.242
 1729SOL     OW 6085   2.088   4.322   3.288
 1729SOL    HW1 6086   2.059   4.324   3.384
 1729SOL    HW2 6087   2.013   4.356   3.230
 1730SOL     OW 6088   1.349   6.957   5.529
 1730SOL    HW1 6089   1.329   0.024   5.488
 1730SOL    HW2 6090   1.281   6.890   5.500
 1731SOL     OW 6091   0.141   4.085   3.624
 1731SOL    HW1 6092   0.204   4.058   3.697
 1731SOL    HW2 6093   0.147   4.020   3.548
 1732SOL     OW 6094   2.364   4.974   5.880
 1732SOL    HW1 6095   2.380   4.908   5.952
 1732SOL    HW2 6096   2.408   4.944   5.795
 1733SOL     OW 6097   1.630   4.361   1.827
 1733SOL    HW1 6098   1.606   4.450   1.867
 1733SOL    HW2 6099   1.563   4.337   1.757
 1734SOL     OW 6100   4.721   3.265   1.139
 1734SOL    HW1 6101   4.715   3.364   1.134
 1734SOL    HW2 6102   4.679   3.225   1.057
 1735SOL     OW 6103   4.999   5.132   0.113
 1735SOL    HW1 6104   4.913   5.181   0.099
 1735SOL    HW2 6105   4.998   5.088   0.203
 1736SOL     OW 6106   3.599   3.930   0.680
 1736SOL    HW1 6107   3.590   3.972   0.589
 1736SOL    HW2 6108   3.599   3.831   0.671
 1737SOL     OW 6109   3.945   1.100   4.418
 1737SOL    HW1 6110   3.995   1.144   4.344
 1737SOL    HW2 6111   3.887   1.027   4.380
 1738SOL     OW 6112   1.615   2.784   4.195
 1738SOL    HW1 6113   1.611   2.798   4.294
 1738SOL    HW2 6114   1.655   2.694   4.176
 1739SOL     OW 6115   6.898   1.499   5.569
 1739SOL    HW1 6116   6.821   1.561   5.583
 1739SOL    HW2 6117   6.864   1.408   5.546
 1740SOL     OW 6118   0.087   2.290   5.612
 1740SOL    HW1 6119   0.173   2.258   5.573
 1740SOL    HW2 6120   0.063   2.379   5.572
 1741SOL     OW 6121   2.187   0.487   3.883
 1741SOL    HW1 6122   2.236   0.573   3.869
 1741SOL    HW2 6123   2.252   0.413   3.897
 1742SOL     OW 6124   5.536   0.699   6.084
 1742SOL    HW1 6125   5.472   0.727   6.155
 1742SOL    HW2 6126   5.617   0.759   6.085
 1743SOL     OW 6127   0.760   2.343   2.440
 1743SOL    HW1 6128   0.682   2.406   2.439
 1743SOL    HW2 6129   0.804   2.342   2.350
 1744SOL     OW 6130   5.927   2.682   3.573
 1744SOL    HW1 6131   5.915   2.742   3.494
 1744SOL    HW2 6132   5.886   2.593   3.554
 1745SOL     OW 6133   5.504   5.731   2.191
 1745SOL    HW1 6134   5.573   5.746   2.120
 1745SOL    HW2 6135   5.494   5.633   2.208
 1746SOL     OW 6136   1.902   4.162   4.760
 1746SOL    HW1 6137   1.931   4.109   4.839
 1746SOL    HW2 6138   1.939   4.255   4.767
 1747SOL     OW 6139   4.699   1.846   3.057
 1747SOL    HW1 6140   4.780   1.803   3.016
 1747SOL    HW2 6141   4.641   1.775   3.098
 1748SOL     OW 6142   0.482   1.519   5.307
 1748SOL    HW1 6143   0.390   1.513   5.347
 1748SOL    HW2 6144   0.528   1.431   5.317
 1749SOL     OW 6145   2.282   6.866   4.992
 1749SOL    HW1 6146   2.212   6.877   5.062
 1749SOL    HW2 6147   2.294   6.768   4.972
 1750SOL     OW 6148   5.148   6.373   3.770
 1750SOL    HW1 6149   5.140   6.277   3.743
 1750SOL    HW2 6150   5.211   6.420   3.708
 1751SOL     OW 6151   3.743   0.444   4.286
 1751SOL    HW1 6152   3.802   0.366   4.269
 1751SOL    HW2 6153   3.671   0.448   4.216
 1752SOL     OW 6154   6.317   1.862   2.344
 1752SOL    HW1 6155   6.321   1.855   2.444
 1752SOL    HW2 6156   6.407   1.886   2.309
 1753SOL     OW 6157   6.573   1.100   1.296
 1753SOL    HW1 6158   6.563   1.171   1.227
 1753SOL    HW2 6159   6.530   1.129   1.382
 1754SOL     OW 6160   1.598   4.699   6.849
 1754SOL    HW1 6161   1.621   4.729   6.756
 1754SOL    HW2 6162   1.682   4.692   6.903
 1755SOL     OW 6163   0.223   6.450   1.070
 1755SOL    HW1 6164   0.285   6.509   1.122
 1755SOL    HW2 6165   0.156   6.409   1.132
 1756SOL     OW 6166   4.098   5.201   5.548
 1756SOL    HW1 6167   4.081   5.289   5.505
 1756SOL    HW2 6168   4.088   5.210   5.647
 1757SOL     OW 6169   2.128   5.244   4.602
 1757SOL    HW1 6170   2.159   5.167   4.546
 1757SOL    HW2 6171   2.037   5.272   4.573
 1758SOL     OW 6172   2.617   0.834   4.463
 1758SOL    HW1 6173   2.547   0.872   4.402
 1758SOL    HW2 6174   2.682   0.780   4.410
 1759SOL     OW 6175   1.746   6.480   5.060
 1759SOL    HW1 6176   1.689   6.413   5.012
 1759SOL    HW2 6177   1.708   6.572   5.048
 1760SOL     OW 6178   5.671   1.229   3.586
 1760SOL    HW1 6179   5.736   1.154   3.573
 1760SOL    HW2 6180   5.599   1.223   3.518
 1761SOL     OW 6181   0.223   0.630   1.276
 1761SOL    HW1 6182   0.176   0.654   1.361
 1761SOL    HW2 6183   0.180   0.679   1.200
 1762SOL     OW 6184   1.119   1.073   4.196
 1762SOL    HW1 6185   1.073   1.137   4.258
 1762SOL    HW2 6186   1.068   1.067   4.111
 1763SOL     OW 6187   0.740   4.361   4.099
 1763SOL    HW1 6188   0.806   4.384   4.171
 1763SOL    HW2 6189   0.652   4.404   4.119
 1764SOL     OW 6190   2.078   3.338   2.454
 1764SOL    HW1 6191   2.060   3.259   2.396
 1764SOL    HW2 6192   2.086   3.309   2.549
 1765SOL     OW 6193   3.796   1.164   1.584
 1765SOL    HW1 6194   3.720   1.128   1.638
 1765SOL    HW2 6195   3.763   1.235   1.522
 1766SOL     OW 6196   5.394   4.520   3.002
 1766SOL    HW1 6197   5.330   4.570   3.060
 1766SOL    HW2 6198   5.466   4.582   2.970
 1767SOL     OW 6199   0.925   4.175   2.424
 1767SOL    HW1 6200   1.017   4.183   2.388
 1767SOL    HW2 6201   0.915   4.089   2.474
 1768SOL     OW 6202   3.594   1.266   6.600
 1768SOL    HW1 6203   3.548   1.328   6.664
 1768SOL    HW2 6204   3.549   1.177   6.602
 1769SOL     OW 6205   4.432   1.528   6.267
 1769SOL    HW1 6206   4.378   1.454   6.226
 1769SOL    HW2 6207   4.414   1.614   6.218
 1770SOL     OW 6208   6.946   4.804   4.778
 1770SOL    HW1 6209   6.878   4.742   4.817
 1770SOL    HW2 6210   6.902   4.860   4.707
 1771SOL     OW 6211   1.795   5.386   0.756
 1771SOL    HW1 6212   1.853   5.423   0.684
 1771SOL    HW2 6213   1.837   5.304   0.794
 1772SOL     OW 6214   3.938   6.647   2.871
 1772SOL    HW1 6215   3.876   6.676   2.944
 1772SOL    HW2 6216   4.002   6.579   2.906
 1773SOL     OW 6217   2.915   2.871   6.349
 1773SOL    HW1 6218   2.955   2.954   6.389
 1773SOL    HW2 6219   2.820   2.889   6.323
 1774SOL     OW 6220   4.756   6.486   1.601
 1774SOL    HW1 6221   4.749   6.487   1.501
 1774SOL    HW2 6222   4.837   6.435   1.628
 1775SOL     OW 6223   2.011   4.735   5.388
 1775SOL    HW1 6224   1.939   4.752   5.456
 1775SOL    HW2 6225   2.097   4.719   5.435
 1776SOL     OW 6226   5.293   1.064   5.928
 1776SOL    HW1 6227   5.376   1.103   5.968
 1776SOL    HW2 6228   5.228   1.137   5.908
 1777SOL     OW 6229   3.395   6.111   5.921
 1777SOL    HW1 6230   3.427   6.047   5.851
 1777SOL    HW2 6231   3.373   6.061   6.005
 1778SOL     OW 6232   5.076   2.085   4.433
 1778SOL    HW1 6233   5.065   2.028   4.351
 1778SOL    HW2 6234   5.059   2.030   4.514
 1779SOL     OW 6235   3.840   1.412   4.680
 1779SOL    HW1 6236   3.777   1.341   4.650
 1779SOL    HW2 6237   3.931   1.372   4.693
 1780SOL     OW 6238   2.488   4.161   6.339
 1780SOL    HW1 6239   2.421   4.168   6.412
 1780SOL    HW2 6240   2.450   4.109   6.263
 1781SOL     OW 6241   5.297   5.534   3.842
 1781SOL    HW1 6242   5.251   5.619   3.866
 1781SOL    HW2 6243   5.292   5.470   3.918
 1782SOL     OW 6244   3.222   1.740   3.445
 1782SOL    HW1 6245   3.282   1.664   3.419
 1782SOL    HW2 6246   3.133   1.727   3.403
 1783SOL     OW 6247   2.454   3.380   6.405
 1783SOL    HW1 6248   2.514   3.434   6.464
 1783SOL    HW2 6249   2.496   3.369   6.315
 1784SOL     OW 6250   2.311   1.166   2.128
 1784SOL    HW1 6251   2.378   1.238   2.111
 1784SOL    HW2 6252   2.289   1.162   2.225
 1785SOL     OW 6253   5.841   6.083   3.609
 1785SOL    HW1 6254   5.852   6.145   3.686
 1785SOL    HW2 6255   5.905   6.109   3.536
 1786SOL     OW 6256   1.379   3.913   0.721
 1786SOL    HW1 6257   1.398   4.001   0.764
 1786SOL    HW2 6258   1.424   3.909   0.632
 1787SOL     OW 6259   2.529   1.466   5.275
 1787SOL    HW1 6260   2.588   1.546   5.263
 1787SOL    HW2 6261   2.582   1.383   5.258
 1788SOL     OW 6262   3.623   4.265   0.303
 1788SOL    HW1 6263   3.562   4.303   0.372
 1788SOL    HW2 6264   3.590   4.291   0.212
 1789SOL     OW 6265   5.357   2.898   2.157
 1789SOL    HW1 6266   5.266   2.921   2.122
 1789SOL    HW2 6267   5.348   2.834   2.233
 1790SOL     OW 6268   3.416   0.722   4.454
 1790SOL    HW1 6269   3.471   0.805   4.443
 1790SOL    HW2 6270   3.477   0.644   4.466
 1791SOL     OW 6271   6.402   1.007   4.286
 1791SOL    HW1 6272   6.413   0.946   4.365
 1791SOL    HW2 6273   6.313   1.052   4.292
 1792SOL     OW 6274   0.597   1.435   4.829
 1792SOL    HW1 6275   0.517   1.376   4.835
 1792SOL    HW2 6276   0.591   1.508   4.897
 1793SOL     OW 6277   6.276   0.704   4.218
 1793SOL    HW1 6278   6.372   0.721   4.196
 1793SOL    HW2 6279   6.270   0.642   4.296
 1794SOL     OW 6280   4.636   6.184   5.979
 1794SOL    HW1 6281   4.539   6.208   5.987
 1794SOL    HW2 6282   4.690   6.240   6.042
 1795SOL     OW 6283   6.464   5.292   2.409
 1795SOL    HW1 6284   6.491   5.322   2.318
 1795SOL    HW2 6285   6.483   5.194   2.419
 1796SOL     OW 6286   2.081   1.096   4.556
 1796SOL    HW1 6287   2.033   1.156   4.621
 1796SOL    HW2 6288   2.178   1.120   4.555
 1797SOL     OW 6289   1.598   6.860   5.460
 1797SOL    HW1 6290   1.651   6.846   5.543
 1797SOL    HW2 6291   1.511   6.905   5.484
 1798SOL     OW 6292   3.975   3.214   5.241
 1798SOL    HW1 6293   4.038   3.277   5.195
 1798SOL    HW2 6294   3.883   3.252   5.241
 1799SOL     OW 6295   5.791   3.091   6.452
 1799SOL    HW1 6296   5.811   3.184   6.421
 1799SOL    HW2 6297   5.693   3.081   6.464
 1800SOL     OW 6298   4.948   4.703   3.353
 1800SOL    HW1 6299   4.967   4.619   3.403
 1800SOL    HW2 6300   5.016   4.772   3.377
 1801SOL     OW 6301   1.362   1.551   3.208
 1801SOL    HW1 6302   1.298   1.525   3.279
 1801SOL    HW2 6303   1.374   1.650   3.207
 1802SOL     OW 6304   6.458   6.431   2.908
 1802SOL    HW1 6305   6.368   6.397   2.934
 1802SOL    HW2 6306   6.526   6.359   2.922
 1803SOL     OW 6307   6.382   6.819   2.502
 1803SOL    HW1 6308   6.312   6.797   2.434
 1803SOL    HW2 6309   6.463   6.762   2.486
 1804SOL     OW 6310   3.728   3.345   5.222
 1804SOL    HW1 6311   3.690   3.424   5.174
 1804SOL    HW2 6312   3.655   3.281   5.245
 1805SOL     OW 6313   1.287   4.455   5.944
 1805SOL    HW1 6314   1.190   4.479   5.938
 1805SOL    HW2 6315   1.336   4.527   5.993
 1806SOL     OW 6316   0.690   2.372   1.574
 1806SOL    HW1 6317   0.735   2.425   1.646
 1806SOL    HW2 6318   0.733   2.392   1.486
 1807SOL     OW 6319   6.640   2.200   6.321
 1807SOL    HW1 6320   6.603   2.115   6.285
 1807SOL    HW2 6321   6.564   2.260   6.347
 1808SOL     OW 6322   5.645   4.684   4.501
 1808SOL    HW1 6323   5.581   4.710   4.574
 1808SOL    HW2 6324   5.629   4.589   4.474
 1809SOL     OW 6325   2.773   2.078   4.932
 1809SOL    HW1 6326   2.846   2.082   5.001
 1809SOL    HW2 6327   2.685   2.093   4.976
 1810SOL     OW 6328   1.244   0.456   4.513
 1810SOL    HW1 6329   1.333   0.419   4.536
 1810SOL    HW2 6330   1.254   0.526   4.442
 1811SOL     OW 6331   4.986   4.420   2.719
 1811SOL    HW1 6332   4.966   4.326   2.746
 1811SOL    HW2 6333   5.075   4.446   2.756
 1812SOL     OW 6334   4.722   7.015   6.293
 1812SOL    HW1 6335   4.709   6.937   6.232
 1812SOL    HW2 6336   4.709   6.985   6.387
 1813SOL     OW 6337   4.955   5.105   1.692
 1813SOL    HW1 6338   5.042   5.056   1.697
 1813SOL    HW2 6339   4.971   5.203   1.706
 1814SOL     OW 6340   5.928   0.270   0.727
 1814SOL    HW1 6341   5.903   0.184   0.772
 1814SOL    HW2 6342   5.847   0.328   0.718
 1815SOL     OW 6343   6.247   0.470   3.092
 1815SOL    HW1 6344   6.295   0.421   3.164
 1815SOL    HW2 6345   6.292   0.453   3.004
 1816SOL     OW 6346   3.038   5.147   0.316
 1816SOL    HW1 6347   3.037   5.181   0.410
 1816SOL    HW2 6348   3.023   5.049   0.315
 1817SOL     OW 6349   4.543   0.373   2.915
 1817SOL    HW1 6350   4.587   0.285   2.894
 1817SOL    HW2 6351   4.520   0.376   3.012
 1818SOL     OW 6352   1.938   6.672   0.825
 1818SOL    HW1 6353   1.881   6.599   0.788
 1818SOL    HW2 6354   2.027   6.635   0.850
 1819SOL     OW 6355   1.411   6.629   2.043
 1819SOL    HW1 6356   1.477   6.619   2.118
 1819SOL    HW2 6357   1.336   6.688   2.072
 1820SOL     OW 6358   3.654   0.191   2.641
 1820SOL    HW1 6359   3.618   0.210   2.732
 1820SOL    HW2 6360   3.705   0.270   2.608
 1821SOL     OW 6361   2.321   1.391   1.718
 1821SOL    HW1 6362   2.335   1.403   1.817
 1821SOL    HW2 6363   2.360   1.468   1.669
 1822SOL     OW 6364   0.713   2.582   1.778
 1822SOL    HW1 6365   0.665   2.666   1.752
 1822SOL    HW2 6366   0.658   2.530   1.843
 1823SOL     OW 6367   3.162   6.163   3.098
 1823SOL    HW1 6368   3.208   6.147   3.185
 1823SOL    HW2 6369   3.149   6.077   3.050
 1824SOL     OW 6370   3.862   4.364   0.893
 1824SOL    HW1 6371   3.848   4.456   0.931
 1824SOL    HW2 6372   3.790   4.303   0.926
 1825SOL     OW 6373   0.870   2.354   4.717
 1825SOL    HW1 6374   0.880   2.256   4.738
 1825SOL    HW2 6375   0.819   2.364   4.632
 1826SOL     OW 6376   3.344   1.623   1.717
 1826SOL    HW1 6377   3.365   1.555   1.788
 1826SOL    HW2 6378   3.382   1.712   1.745
 1827SOL     OW 6379   6.316   5.423   1.021
 1827SOL    HW1 6380   6.243   5.365   1.057
 1827SOL    HW2 6381   6.403   5.375   1.024
 1828SOL     OW 6382   1.355   2.804   6.561
 1828SOL    HW1 6383   1.298   2.851   6.493
 1828SOL    HW2 6384   1.323   2.709   6.570
 1829SOL     OW 6385   4.458   0.749   2.977
 1829SOL    HW1 6386   4.382   0.813   2.979
 1829SOL    HW2 6387   4.445   0.684   2.902
 1830SOL     OW 6388   5.594   5.852   4.731
 1830SOL    HW1 6389   5.652   5.779   4.694
 1830SOL    HW2 6390   5.604   5.934   4.673
 1831SOL     OW 6391   5.561   6.489   2.297
 1831SOL    HW1 6392   5.621   6.414   2.268
 1831SOL    HW2 6393   5.575   6.507   2.394
 1832SOL     OW 6394   4.440   1.548   0.816
 1832SOL    HW1 6395   4.487   1.580   0.734
 1832SOL    HW2 6396   4.468   1.454   0.836
 1833SOL     OW 6397   5.834   0.673   1.738
 1833SOL    HW1 6398   5.779   0.619   1.802
 1833SOL    HW2 6399   5.822   0.771   1.758
 1834SOL     OW 6400   2.210   4.152   0.723
 1834SOL    HW1 6401   2.135   4.096   0.690
 1834SOL    HW2 6402   2.222   4.137   0.821
 1835SOL     OW 6403   0.171   4.634   1.710
 1835SOL    HW1 6404   0.168   4.635   1.610
 1835SOL    HW2 6405   0.263   4.660   1.741
 1836SOL     OW 6406   5.563   2.424   1.668
 1836SOL    HW1 6407   5.526   2.516   1.660
 1836SOL    HW2 6408   5.641   2.424   1.731
 1837SOL     OW 6409   1.149   6.805   5.399
 1837SOL    HW1 6410   1.151   6.713   5.360
 1837SOL    HW2 6411   1.056   6.827   5.428
 1838SOL     OW 6412   5.991   1.025   5.712
 1838SOL    HW1 6413   5.965   1.014   5.616
 1838SOL    HW2 6414   6.047   0.947   5.740
 1839SOL     OW 6415   0.356   1.235   5.535
 1839SOL    HW1 6416   0.376   1.326   5.571
 1839SOL    HW2 6417   0.322   1.242   5.441
 1840SOL     OW 6418   3.727   0.149   1.686
 1840SOL    HW1 6419   3.722   0.123   1.782
 1840SOL    HW2 6420   3.823   0.161   1.659
 1841SOL     OW 6421   2.641   0.809   3.262
 1841SOL    HW1 6422   2.588   0.872   3.205
 1841SOL    HW2 6423   2.586   0.727   3.281
 1842SOL     OW 6424   1.214   5.699   1.179
 1842SOL    HW1 6425   1.260   5.718   1.266
 1842SOL    HW2 6426   1.269   5.634   1.126
 1843SOL     OW 6427   5.784   0.593   4.688
 1843SOL    HW1 6428   5.830   0.546   4.763
 1843SOL    HW2 6429   5.704   0.641   4.723
 1844SOL     OW 6430   3.393   0.226   4.851
 1844SOL    HW1 6431   3.478   0.185   4.883
 1844SOL    HW2 6432   3.355   0.170   4.778
 1845SOL     OW 6433   2.421   6.491   4.478
 1845SOL    HW1 6434   2.371   6.509   4.563
 1845SOL    HW2 6435   2.476   6.408   4.489
 1846SOL     OW 6436   4.088   1.058   2.598
 1846SOL    HW1 6437   4.132   0.972   2.571
 1846SOL    HW2 6438   4.084   1.120   2.520
 1847SOL     OW 6439   1.828   0.087   5.622
 1847SOL    HW1 6440   1.846   7.011   5.624
 1847SOL    HW2 6441   1.890   0.133   5.686
 1848SOL     OW 6442   1.611   6.523   3.100
 1848SOL    HW1 6443   1.537   6.507   3.035
 1848SOL    HW2 6444   1.698   6.529   3.051
 1849SOL     OW 6445   4.707   2.581   1.175
 1849SOL    HW1 6446   4.616   2.612   1.202
 1849SOL    HW2 6447   4.766   2.577   1.255
 1850SOL     OW 6448   0.089   2.498   2.119
 1850SOL    HW1 6449   0.047   2.419   2.164
 1850SOL    HW2 6450   0.023   2.538   2.054
 1851SOL     OW 6451   0.686   3.476   0.276
 1851SOL    HW1 6452   0.691   3.449   0.372
 1851SOL    HW2 6453   0.757   3.428   0.224
 1852SOL     OW 6454   6.767   4.537   2.565
 1852SOL    HW1 6455   6.823   4.478   2.622
 1852SOL    HW2 6456   6.817   4.561   2.482
 1853SOL     OW 6457   6.487   2.322   3.228
 1853SOL    HW1 6458   6.524   2.388   3.293
 1853SOL    HW2 6459   6.496   2.358   3.135
 1854SOL     OW 6460   1.884   5.555   2.349
 1854SOL    HW1 6461   1.916   5.460   2.356
 1854SOL    HW2 6462   1.954   5.611   2.305
 1855SOL     OW 6463   5.827   3.413   5.387
 1855SOL    HW1 6464   5.816   3.375   5.295
 1855SOL    HW2 6465   5.906   3.473   5.389
 1856SOL     OW 6466   4.660   2.974   5.961
 1856SOL    HW1 6467   4.648   2.890   5.908
 1856SOL    HW2 6468   4.754   2.979   5.995
 1857SOL     OW 6469   4.092   1.930   0.235
 1857SOL    HW1 6470   4.035   1.848   0.228
 1857SOL    HW2 6471   4.186   1.904   0.255
 1858SOL     OW 6472   5.397   3.333   3.160
 1858SOL    HW1 6473   5.344   3.387   3.224
 1858SOL    HW2 6474   5.336   3.284   3.099
 1859SOL     OW 6475   4.612   1.636   3.566
 1859SOL    HW1 6476   4.531   1.694   3.578
 1859SOL    HW2 6477   4.628   1.621   3.469
 1860SOL     OW 6478   0.328   1.185   5.258
 1860SOL    HW1 6479   0.269   1.126   5.203
 1860SOL    HW2 6480   0.420   1.186   5.218
 1861SOL     OW 6481   5.506   0.351   2.674
 1861SOL    HW1 6482   5.538   0.297   2.596
 1861SOL    HW2 6483   5.582   0.364   2.738
 1862SOL     OW 6484   2.529   6.922   6.358
 1862SOL    HW1 6485   2.537   6.994   6.289
 1862SOL    HW2 6486   2.597   6.936   6.429
 1863SOL     OW 6487   0.027   2.780   3.548
 1863SOL    HW1 6488   0.106   2.788   3.609
 1863SOL    HW2 6489   7.009   2.689   3.557
 1864SOL     OW 6490   3.206   5.865   4.575
 1864SOL    HW1 6491   3.173   5.816   4.494
 1864SOL    HW2 6492   3.263   5.803   4.629
 1865SOL     OW 6493   3.724   0.368   0.199
 1865SOL    HW1 6494   3.761   0.452   0.239
 1865SOL    HW2 6495   3.769   0.350   0.111
 1866SOL     OW 6496   6.955   4.708   3.702
 1866SOL    HW1 6497   6.970   4.730   3.798
 1866SOL    HW2 6498   6.946   4.792   3.649
 1867SOL     OW 6499   1.705   4.182   1.550
 1867SOL    HW1 6500   1.697   4.282   1.552
 1867SOL    HW2 6501   1.702   4.151   1.455
 1868SOL     OW 6502   4.904   3.335   6.389
 1868SOL    HW1 6503   4.953   3.412   6.430
 1868SOL    HW2 6504   4.870   3.275   6.461
 1869SOL     OW 6505   6.534   3.235   5.049
 1869SOL    HW1 6506   6.510   3.224   5.145
 1869SOL    HW2 6507   6.453   3.217   4.992
 1870SOL     OW 6508   1.303   3.376   5.075
 1870SOL    HW1 6509   1.244   3.347   5.150
 1870SOL    HW2 6510   1.374   3.437   5.109
 1871SOL     OW 6511   0.195   0.295   0.605
 1871SOL    HW1 6512   0.157   0.235   0.675
 1871SOL    HW2 6513   0.216   0.242   0.523
 1872SOL     OW 6514   4.481   2.099   0.089
 1872SOL    HW1 6515   4.454   2.100   7.015
 1872SOL    HW2 6516   4.579   2.082   0.096
 1873SOL     OW 6517   5.958   0.592   5.735
 1873SOL    HW1 6518   5.977   0.662   5.665
 1873SOL    HW2 6519   6.041   0.573   5.787
 1874SOL     OW 6520   1.619   1.307   6.997
 1874SOL    HW1 6521   1.715   1.334   7.000
 1874SOL    HW2 6522   1.565   1.370   0.030
 1875SOL     OW 6523   6.018   0.387   0.468
 1875SOL    HW1 6524   6.007   0.358   0.563
 1875SOL    HW2 6525   6.071   0.471   0.464
 1876SOL     OW 6526   3.681   5.687   6.369
 1876SOL    HW1 6527   3.693   5.661   6.273
 1876SOL    HW2 6528   3.705   5.609   6.427
 1877SOL     OW 6529   1.227   1.566   3.836
 1877SOL    HW1 6530   1.139   1.590   3.876
 1877SOL    HW2 6531   1.212   1.508   3.756
 1878SOL     OW 6532   6.786   3.072   3.904
 1878SOL    HW1 6533   6.736   3.124   3.834
 1878SOL    HW2 6534   6.881   3.103   3.906
 1879SOL     OW 6535   2.705   6.170   4.019
 1879SOL    HW1 6536   2.632   6.155   3.953
 1879SOL    HW2 6537   2.785   6.116   3.994
 1880SOL     OW 6538   0.301   2.046   3.102
 1880SOL    HW1 6539   0.370   2.077   3.037
 1880SOL    HW2 6540   0.300   2.105   3.182
 1881SOL     OW 6541   1.286   1.914   4.070
 1881SOL    HW1 6542   1.200   1.900   4.021
 1881SOL    HW2 6543   1.279   1.995   4.128
 1882SOL     OW 6544   0.844   4.863   6.707
 1882SOL    HW1 6545   0.842   4.919   6.789
 1882SOL    HW2 6546   0.858   4.922   6.627
 1883SOL     OW 6547   1.179   3.551   3.603
 1883SOL    HW1 6548   1.094   3.503   3.627
 1883SOL    HW2 6549   1.157   3.636   3.556
 1884SOL     OW 6550   5.800   2.571   1.025
 1884SOL    HW1 6551   5.717   2.515   1.022
 1884SOL    HW2 6552   5.845   2.559   1.113
 1885SOL     OW 6553   0.253   1.869   0.449
 1885SOL    HW1 6554   0.272   1.967   0.452
 1885SOL    HW2 6555   0.332   1.821   0.412
 1886SOL     OW 6556   2.647   1.876   0.836
 1886SOL    HW1 6557   2.596   1.827   0.908
 1886SOL    HW2 6558   2.724   1.923   0.877
 1887SOL     OW 6559   0.534   4.540   5.420
 1887SOL    HW1 6560   0.607   4.546   5.353
 1887SOL    HW2 6561   0.474   4.620   5.413
 1888SOL     OW 6562   2.984   2.128   6.305
 1888SOL    HW1 6563   3.017   2.167   6.220
 1888SOL    HW2 6564   2.913   2.060   6.286
 1889SOL     OW 6565   5.638   2.563   6.476
 1889SOL    HW1 6566   5.678   2.639   6.527
 1889SOL    HW2 6567   5.694   2.481   6.489
 1890SOL     OW 6568   1.196   5.267   5.378
 1890SOL    HW1 6569   1.108   5.293   5.339
 1890SOL    HW2 6570   1.183   5.191   5.442
 1891SOL     OW 6571   5.507   3.309   4.490
 1891SOL    HW1 6572   5.429   3.371   4.483
 1891SOL    HW2 6573   5.485   3.235   4.554
 1892SOL     OW 6574   3.931   0.066   0.700
 1892SOL    HW1 6575   3.928   0.011   0.783
 1892SOL    HW2 6576   3.914   0.162   0.723
 1893SOL     OW 6577   3.064   1.562   6.066
 1893SOL    HW1 6578   3.030   1.468   6.067
 1893SOL    HW2 6579   3.158   1.564   6.101
 1894SOL     OW 6580   3.781   3.801   2.089
 1894SOL    HW1 6581   3.774   3.732   2.018
 1894SOL    HW2 6582   3.800   3.890   2.047
 1895SOL     OW 6583   5.093   1.055   2.799
 1895SOL    HW1 6584   5.088   1.124   2.726
 1895SOL    HW2 6585   5.001   1.039   2.835
 1896SOL     OW 6586   0.699   0.548   3.319
 1896SOL    HW1 6587   0.653   0.602   3.389
 1896SOL    HW2 6588   0.660   0.456   3.316
 1897SOL     OW 6589   0.836   5.046   2.367
 1897SOL    HW1 6590   0.738   5.025   2.358
 1897SOL    HW2 6591   0.872   5.001   2.449
 1898SOL     OW 6592   3.105   4.847   2.168
 1898SOL    HW1 6593   3.024   4.792   2.184
 1898SOL    HW2 6594   3.172   4.794   2.116
 1899SOL     OW 6595   0.799   2.617   2.631
 1899SOL    HW1 6596   0.777   2.714   2.620
 1899SOL    HW2 6597   0.761   2.565   2.554
 1900SOL     OW 6598   1.186   0.209   5.427
 1900SOL    HW1 6599   1.206   0.258   5.342
 1900SOL    HW2 6600   1.116   0.140   5.410
 1901SOL     OW 6601   2.178   1.648   1.691
 1901SOL    HW1 6602   2.084   1.627   1.665
 1901SOL    HW2 6603   2.178   1.713   1.766
 1902SOL     OW 6604   2.717   2.409   4.707
 1902SOL    HW1 6605   2.791   2.365   4.758
 1902SOL    HW2 6606   2.681   2.487   4.759
 1903SOL     OW 6607   6.650   4.134   3.807
 1903SOL    HW1 6608   6.621   4.122   3.902
 1903SOL    HW2 6609   6.741   4.095   3.794
 1904SOL     OW 6610   5.956   6.224   3.817
 1904SOL    HW1 6611   5.993   6.310   3.851
 1904SOL    HW2 6612   6.019   6.150   3.837
 1905SOL     OW 6613   1.797   1.267   4.661
 1905SOL    HW1 6614   1.718   1.209   4.682
 1905SOL    HW2 6615   1.798   1.289   4.564
 1906SOL     OW 6616   3.105   0.171   5.177
 1906SOL    HW1 6617   3.185   0.115   5.154
 1906SOL    HW2 6618   3.026   0.112   5.191
 1907SOL     OW 6619   3.650   0.011   3.374
 1907SOL    HW1 6620   3.634   0.107   3.349
 1907SOL    HW2 6621   3.570   6.978   3.351
 1908SOL     OW 6622   4.487   0.842   4.500
 1908SOL    HW1 6623   4.475   0.868   4.404
 1908SOL    HW2 6624   4.451   0.915   4.559
 1909SOL     OW 6625   1.169   4.112   2.676
 1909SOL    HW1 6626   1.247   4.123   2.738
 1909SOL    HW2 6627   1.157   4.015   2.655
 1910SOL     OW 6628   0.154   2.511   6.921
 1910SOL    HW1 6629   0.207   2.546   6.844
 1910SOL    HW2 6630   0.060   2.494   6.891
 1911SOL     OW 6631   6.171   2.441   5.526
 1911SOL    HW1 6632   6.079   2.442   5.486
 1911SOL    HW2 6633   6.163   2.451   5.625
 1912SOL     OW 6634   3.661   0.026   1.037
 1912SOL    HW1 6635   3.643   0.002   1.133
 1912SOL    HW2 6636   3.758   0.011   1.016
 1913SOL     OW 6637   1.327   5.731   5.470
 1913SOL    HW1 6638   1.232   5.747   5.495
 1913SOL    HW2 6639   1.376   5.818   5.463
 1914SOL     OW 6640   3.287   2.122   0.049
 1914SOL    HW1 6641   3.373   2.137   0.001
 1914SOL    HW2 6642   3.263   2.204   0.102
 1915SOL     OW 6643   3.830   1.675   5.190
 1915SOL    HW1 6644   3.848   1.675   5.092
 1915SOL    HW2 6645   3.739   1.638   5.208
 1916SOL     OW 6646   3.476   6.366   0.942
 1916SOL    HW1 6647   3.388   6.337   0.906
 1916SOL    HW2 6648   3.464   6.402   1.035
 1917SOL     OW 6649   3.424   3.020   3.982
 1917SOL    HW1 6650   3.340   3.013   3.927
 1917SOL    HW2 6651   3.409   2.978   4.071
 1918SOL     OW 6652   0.197   0.549   6.320
 1918SOL    HW1 6653   0.118   0.604   6.293
 1918SOL    HW2 6654   0.184   0.515   6.413
 1919SOL     OW 6655   2.100   0.209   1.537
 1919SOL    HW1 6656   2.111   0.294   1.486
 1919SOL    HW2 6657   2.102   0.229   1.635
 1920SOL     OW 6658   1.098   5.377   2.746
 1920SOL    HW1 6659   1.032   5.382   2.821
 1920SOL    HW2 6660   1.191   5.378   2.783
 1921SOL     OW 6661   1.281   4.580   0.380
 1921SOL    HW1 6662   1.332   4.529   0.449
 1921SOL    HW2 6663   1.284   4.530   0.293
 1922SOL     OW 6664   3.399   4.307   1.149
 1922SOL    HW1 6665   3.472   4.240   1.133
 1922SOL    HW2 6666   3.310   4.263   1.141
 1923SOL     OW 6667   3.354   0.979   6.234
 1923SOL    HW1 6668   3.307   0.892   6.222
 1923SOL    HW2 6669   3.372   1.020   6.145
 1924SOL     OW 6670   5.039   5.345   1.828
 1924SOL    HW1 6671   5.119   5.382   1.782
 1924SOL    HW2 6672   5.068   5.284   1.902
 1925SOL     OW 6673   2.411   3.677   1.392
 1925SOL    HW1 6674   2.490   3.625   1.362
 1925SOL    HW2 6675   2.417   3.694   1.490
 1926SOL     OW 6676   1.114   6.670   3.302
 1926SOL    HW1 6677   1.101   6.705   3.394
 1926SOL    HW2 6678   1.199   6.708   3.264
 1927SOL     OW 6679   3.236   5.117   6.309
 1927SOL    HW1 6680   3.265   5.164   6.226
 1927SOL    HW2 6681   3.210   5.023   6.287
 1928SOL     OW 6682   0.313   3.837   5.609
 1928SOL    HW1 6683   0.287   3.869   5.700
 1928SOL    HW2 6684   0.324   3.915   5.548
 1929SOL     OW 6685   0.700   6.325   1.701
 1929SOL    HW1 6686   0.629   6.324   1.631
 1929SOL    HW2 6687   0.771   6.258   1.677
 1930SOL     OW 6688   3.652   4.274   6.714
 1930SOL    HW1 6689   3.700   4.187   6.715
 1930SOL    HW2 6690   3.678   4.326   6.633
 1931SOL     OW 6691   6.987   2.909   2.642
 1931SOL    HW1 6692   0.005   2.878   2.556
 1931SOL    HW2 6693   0.032   2.964   2.692
 1932SOL     OW 6694   4.920   3.494   3.129
 1932SOL    HW1 6695   4.979   3.426   3.085
 1932SOL    HW2 6696   4.872   3.452   3.206
 1933SOL     OW 6697   2.534   4.495   0.960
 1933SOL    HW1 6698   2.625   4.455   0.953
 1933SOL    HW2 6699   2.477   4.462   0.886
 1934SOL     OW 6700   0.758   0.500   4.768
 1934SOL    HW1 6701   0.803   0.427   4.716
 1934SOL    HW2 6702   0.811   0.584   4.759
 1935SOL     OW 6703   3.468   6.748   4.404
 1935SOL    HW1 6704   3.505   6.712   4.319
 1935SOL    HW2 6705   3.449   6.845   4.394
 1936SOL     OW 6706   6.335   3.882   3.984
 1936SOL    HW1 6707   6.367   3.866   4.078
 1936SOL    HW2 6708   6.245   3.925   3.987
 1937SOL     OW 6709   5.201   0.474   0.909
 1937SOL    HW1 6710   5.252   0.503   0.828
 1937SOL    HW2 6711   5.178   0.554   0.965
 1938SOL     OW 6712   2.707   0.839   1.863
 1938SOL    HW1 6713   2.675   0.878   1.777
 1938SOL    HW2 6714   2.653   0.877   1.938
 1939SOL     OW 6715   0.361   0.149   4.582
 1939SOL    HW1 6716   0.291   0.220   4.593
 1939SOL    HW2 6717   0.330   0.082   4.514
 1940SOL     OW 6718   4.514   4.553   0.009
 1940SOL    HW1 6719   4.445   4.586   0.073
 1940SOL    HW2 6720   4.478   4.559   6.938
 1941SOL     OW 6721   0.388   4.561   3.226
 1941SOL    HW1 6722   0.428   4.477   3.264
 1941SOL    HW2 6723   0.312   4.537   3.166
 1942SOL     OW 6724   5.437   0.307   1.648
 1942SOL    HW1 6725   5.488   0.360   1.580
 1942SOL    HW2 6726   5.368   0.365   1.691
 1943SOL     OW 6727   2.466   6.524   2.066
 1943SOL    HW1 6728   2.388   6.586   2.079
 1943SOL    HW2 6729   2.551   6.576   2.062
 1944SOL     OW 6730   5.958   2.439   0.636
 1944SOL    HW1 6731   6.024   2.377   0.679
 1944SOL    HW2 6732   5.866   2.403   0.648
 1945SOL     OW 6733   3.315   5.383   1.811
 1945SOL    HW1 6734   3.231   5.432   1.834
 1945SOL    HW2 6735   3.312   5.291   1.852
 1946SOL     OW 6736   6.996   0.407   1.420
 1946SOL    HW1 6737   6.922   0.475   1.423
 1946SOL    HW2 6738   0.028   0.421   1.337
 1947SOL     OW 6739   4.388   6.839   4.510
 1947SOL    HW1 6740   4.477   6.879   4.489
 1947SOL    HW2 6741   4.334   6.905   4.563
 1948SOL     OW 6742   5.723   5.330   3.663
 1948SOL    HW1 6743   5.750   5.316   3.758
 1948SOL    HW2 6744   5.648   5.268   3.641
 1949SOL     OW 6745   3.524   4.644   6.560
 1949SOL    HW1 6746   3.436   4.598   6.551
 1949SOL    HW2 6747   3.536   4.709   6.485
 1950SOL     OW 6748   3.892   4.574   1.082
 1950SOL    HW1 6749   3.908   4.661   1.128
 1950SOL    HW2 6750   3.868   4.504   1.149
 1951SOL     OW 6751   6.099   4.211   6.565
 1951SOL    HW1 6752   6.058   4.148   6.499
 1951SOL    HW2 6753   6.038   4.220   6.644
 1952SOL     OW 6754   4.183   2.789   0.140
 1952SOL    HW1 6755   4.258   2.723   0.133
 1952SOL    HW2 6756   4.217   2.876   0.175
 1953SOL     OW 6757   5.941   1.590   0.142
 1953SOL    HW1 6758   5.907   1.623   0.054
 1953SOL    HW2 6759   6.015   1.649   0.173
 1954SOL     OW 6760   5.833   1.397   3.737
 1954SOL    HW1 6761   5.778   1.335   3.681
 1954SOL    HW2 6762   5.875   1.466   3.679
 1955SOL     OW 6763   0.840   1.134   2.353
 1955SOL    HW1 6764   0.869   1.227   2.332
 1955SOL    HW2 6765   0.920   1.074   2.357
 1956SOL     OW 6766   4.993   6.558   2.523
 1956SOL    HW1 6767   4.972   6.468   2.485
 1956SOL    HW2 6768   4.932   6.576   2.600
 1957SOL     OW 6769   6.099   4.980   4.611
 1957SOL    HW1 6770   6.066   5.052   4.549
 1957SOL    HW2 6771   6.198   4.977   4.609
 1958SOL     OW 6772   5.216   2.282   2.676
 1958SOL    HW1 6773   5.275   2.314   2.601
 1958SOL    HW2 6774   5.120   2.286   2.646
 1959SOL     OW 6775   0.333   1.087   4.808
 1959SOL    HW1 6776   0.403   1.086   4.879
 1959SOL    HW2 6777   0.377   1.101   4.719
 1960SOL     OW 6778   6.435   4.447   2.110
 1960SOL    HW1 6779   6.453   4.376   2.042
 1960SOL    HW2 6780   6.383   4.521   2.068
 1961SOL     OW 6781   5.766   4.528   4.197
 1961SOL    HW1 6782   5.787   4.625   4.207
 1961SOL    HW2 6783   5.667   4.515   4.196
 1962SOL     OW 6784   2.243   6.481   3.497
 1962SOL    HW1 6785   2.200   6.565   3.528
 1962SOL    HW2 6786   2.290   6.498   3.411
 1963SOL     OW 6787   0.534   1.268   1.790
 1963SOL    HW1 6788   0.471   1.339   1.821
 1963SOL    HW2 6789   0.537   1.194   1.858
 1964SOL     OW 6790   4.343   4.072   1.014
 1964SOL    HW1 6791   4.276   4.134   0.973
 1964SOL    HW2 6792   4.430   4.120   1.026
 1965SOL     OW 6793   0.990   3.751   4.756
 1965SOL    HW1 6794   0.959   3.681   4.692
 1965SOL    HW2 6795   1.062   3.805   4.713
 1966SOL     OW 6796   6.935   6.430   0.426
 1966SOL    HW1 6797   6.900   6.471   0.342
 1966SOL    HW2 6798   6.972   6.339   0.406
 1967SOL     OW 6799   5.584   2.436   5.309
 1967SOL    HW1 6800   5.552   2.511   5.366
 1967SOL    HW2 6801   5.612   2.471   5.220
 1968SOL     OW 6802   3.291   6.818   6.960
 1968SOL    HW1 6803   3.338   6.798   0.025
 1968SOL    HW2 6804   3.241   6.904   6.969
 1969SOL     OW 6805   1.596   1.684   1.875
 1969SOL    HW1 6806   1.509   1.698   1.923
 1969SOL    HW2 6807   1.624   1.589   1.884
 1970SOL     OW 6808   2.129   6.653   6.011
 1970SOL    HW1 6809   2.050   6.645   5.950
 1970SOL    HW2 6810   2.127   6.578   6.077
 1971SOL     OW 6811   0.058   0.087   5.648
 1971SOL    HW1 6812   0.121   0.024   5.601
 1971SOL    HW2 6813   6.998   0.099   5.592
 1972SOL     OW 6814   5.306   2.516   2.512
 1972SOL    HW1 6815   5.320   2.440   2.449
 1972SOL    HW2 6816   5.214   2.510   2.551
 1973SOL     OW 6817   2.905   2.480   0.321
 1973SOL    HW1 6818   2.931   2.394   0.276
 1973SOL    HW2 6819   2.866   2.542   0.253
 1974SOL     OW 6820   5.388   6.317   4.269
 1974SOL    HW1 6821   5.459   6.278   4.327
 1974SOL    HW2 6822   5.303   6.265   4.281
 1975SOL     OW 6823   2.380   1.824   3.927
 1975SOL    HW1 6824   2.287   1.819   3.964
 1975SOL    HW2 6825   2.444   1.785   3.993
 1976SOL     OW 6826   0.549   6.744   6.357
 1976SOL    HW1 6827   0.640   6.755   6.317
 1976SOL    HW2 6828   0.554   6.684   6.437
 1977SOL     OW 6829   0.664   3.713   4.360
 1977SOL    HW1 6830   0.757   3.743   4.342
 1977SOL    HW2 6831   0.622   3.772   4.429
 1978SOL     OW 6832   1.551   7.015   3.193
 1978SOL    HW1 6833   1.556   0.041   3.106
 1978SOL    HW2 6834   1.484   6.942   3.187
 1979SOL     OW 6835   6.268   4.502   6.105
 1979SOL    HW1 6836   6.327   4.564   6.156
 1979SOL    HW2 6837   6.318   4.466   6.026
 1980SOL     OW 6838   2.727   0.429   4.663
 1980SOL    HW1 6839   2.698   0.334   4.673
 1980SOL    HW2 6840   2.820   0.432   4.629
 1981SOL     OW 6841   6.666   1.806   2.794
 1981SOL    HW1 6842   6.566   1.800   2.804
 1981SOL    HW2 6843   6.691   1.799   2.698
 1982SOL     OW 6844   0.328   4.519   4.833
 1982SOL    HW1 6845   0.257   4.453   4.810
 1982SOL    HW2 6846   0.347   4.576   4.752
 1983SOL     OW 6847   0.509   1.642   2.896
 1983SOL    HW1 6848   0.432   1.579   2.905
 1983SOL    HW2 6849   0.589   1.593   2.862
 1984SOL     OW 6850   6.387   1.810   4.885
 1984SOL    HW1 6851   6.342   1.854   4.962
 1984SOL    HW2 6852   6.469   1.762   4.917
 1985SOL     OW 6853   1.338   6.113   2.284
 1985SOL    HW1 6854   1.365   6.044   2.217
 1985SOL    HW2 6855   1.399   6.192   2.278
 1986SOL     OW 6856   1.820   0.626   0.094
 1986SOL    HW1 6857   1.850   0.634   0.189
 1986SOL    HW2 6858   1.730   0.668   0.084
 1987SOL     OW 6859   1.833   2.497   2.285
 1987SOL    HW1 6860   1.787   2.433   2.347
 1987SOL    HW2 6861   1.915   2.454   2.249
 1988SOL     OW 6862   5.666   4.242   0.635
 1988SOL    HW1 6863   5.748   4.229   0.580
 1988SOL    HW2 6864   5.654   4.164   0.696
 1989SOL     OW 6865   2.559   6.053   4.534
 1989SOL    HW1 6866   2.495   6.014   4.599
 1989SOL    HW2 6867   2.536   6.021   4.441
 1990SOL     OW 6868   3.457   6.553   0.288
 1990SOL    HW1 6869   3.423   6.459   0.298
 1990SOL    HW2 6870   3.456   6.599   0.377
 1991SOL     OW 6871   4.149   4.434   6.486
 1991SOL    HW1 6872   4.110   4.499   6.551
 1991SOL    HW2 6873   4.208   4.482   6.421
 1992SOL     OW 6874   0.874   0.818   0.662
 1992SOL    HW1 6875   0.965   0.834   0.700
 1992SOL    HW2 6876   0.843   0.901   0.615
 1993SOL     OW 6877   3.479   3.139   4.849
 1993SOL    HW1 6878   3.556   3.201   4.865
 1993SOL    HW2 6879   3.500   3.049   4.888
 1994SOL     OW 6880   0.402   1.123   0.760
 1994SOL    HW1 6881   0.489   1.170   0.744
 1994SOL    HW2 6882   0.330   1.167   0.707
 1995SOL     OW 6883   5.252   2.167   3.377
 1995SOL    HW1 6884   5.201   2.198   3.456
 1995SOL    HW2 6885   5.204   2.092   3.333
 1996SOL     OW 6886   2.434   3.313   0.503
 1996SOL    HW1 6887   2.358   3.377   0.516
 1996SOL    HW2 6888   2.436   3.248   0.579
 1997SOL     OW 6889   4.491   1.444   4.673
 1997SOL    HW1 6890   4.427   1.472   4.601
 1997SOL    HW2 6891   4.540   1.362   4.644
 1998SOL     OW 6892   2.199   4.296   6.441
 1998SOL    HW1 6893   2.152   4.215   6.477
 1998SOL    HW2 6894   2.263   4.330   6.510
 1999SOL     OW 6895   2.984   7.015   0.820
 1999SOL    HW1 6896   2.927   0.062   0.866
 1999SOL    HW2 6897   2.939   6.926   0.826
 2000SOL     OW 6898   4.467   2.313   5.287
 2000SOL    HW1 6899   4.468   2.231   5.231
 2000SOL    HW2 6900   4.516   2.295   5.373
 2001SOL     OW 6901   2.971   1.633   1.964
 2001SOL    HW1 6902   3.017   1.582   2.036
 2001SOL    HW2 6903   2.905   1.574   1.918
 2002SOL     OW 6904   0.947   4.992   6.494
 2002SOL    HW1 6905   0.879   5.003   6.422
 2002SOL    HW2 6906   0.974   5.081   6.528
 2003SOL     OW 6907   6.078   6.098   2.096
 2003SOL    HW1 6908   5.992   6.082   2.144
 2003SOL    HW2 6909   6.155   6.087   2.159
 2004SOL     OW 6910   5.280   0.814   5.818
 2004SOL    HW1 6911   5.243   0.827   5.726
 2004SOL    HW2 6912   5.298   0.903   5.860
 2005SOL     OW 6913   1.190   4.895   0.171
 2005SOL    HW1 6914   1.250   4.835   0.118
 2005SOL    HW2 6915   1.226   4.988   0.169
 2006SOL     OW 6916   5.026   6.489   3.999
 2006SOL    HW1 6917   5.078   6.480   4.084
 2006SOL    HW2 6918   5.075   6.443   3.925
 2007SOL     OW 6919   4.174   4.710   0.858
 2007SOL    HW1 6920   4.220   4.647   0.921
 2007SOL    HW2 6921   4.194   4.804   0.884
 2008SOL     OW 6922   2.811   5.272   3.996
 2008SOL    HW1 6923   2.885   5.259   3.930
 2008SOL    HW2 6924   2.766   5.184   4.014
 2009SOL     OW 6925   5.771   0.591   2.481
 2009SOL    HW1 6926   5.822   0.516   2.525
 2009SOL    HW2 6927   5.734   0.652   2.551
 2010SOL     OW 6928   1.965   1.992   0.872
 2010SOL    HW1 6929   1.890   2.022   0.932
 2010SOL    HW2 6930   1.974   2.056   0.796
 2011SOL     OW 6931   6.953   6.994   4.562
 2011SOL    HW1 6932   6.987   0.018   4.480
 2011SOL    HW2 6933   0.000   6.999   4.634
 2012SOL     OW 6934   1.697   3.419   1.887
 2012SOL    HW1 6935   1.713   3.447   1.792
 2012SOL    HW2 6936   1.619   3.356   1.890
 2013SOL     OW 6937   6.376   2.354   3.643
 2013SOL    HW1 6938   6.366   2.373   3.546
 2013SOL    HW2 6939   6.380   2.255   3.658
 2014SOL     OW 6940   2.615   5.163   3.341
 2014SOL    HW1 6941   2.522   5.191   3.320
 2014SOL    HW2 6942   2.680   5.227   3.300
 2015SOL     OW 6943   2.012   0.944   0.298
 2015SOL    HW1 6944   2.027   0.866   0.237
 2015SOL    HW2 6945   1.931   0.994   0.268
 2016SOL     OW 6946   1.109   6.415   4.942
 2016SOL    HW1 6947   1.009   6.425   4.944
 2016SOL    HW2 6948   1.151   6.496   4.983
 2017SOL     OW 6949   2.904   0.084   4.081
 2017SOL    HW1 6950   2.894   7.010   4.055
 2017SOL    HW2 6951   2.943   0.136   4.005
 2018SOL     OW 6952   5.813   6.305   5.414
 2018SOL    HW1 6953   5.760   6.231   5.456
 2018SOL    HW2 6954   5.761   6.390   5.419
 2019SOL     OW 6955   5.380   3.015   0.172
 2019SOL    HW1 6956   5.368   3.087   0.105
 2019SOL    HW2 6957   5.321   3.032   0.251
 2020SOL     OW 6958   1.315   6.249   4.998
 2020SOL    HW1 6959   1.396   6.296   5.031
 2020SOL    HW2 6960   1.244   6.316   4.976
 2021SOL     OW 6961   1.402   5.911   3.498
 2021SOL    HW1 6962   1.378   6.008   3.486
 2021SOL    HW2 6963   1.332   5.854   3.454
 2022SOL     OW 6964   1.627   3.896   3.367
 2022SOL    HW1 6965   1.611   3.920   3.463
 2022SOL    HW2 6966   1.654   3.800   3.361
 2023SOL     OW 6967   6.386   1.122   6.197
 2023SOL    HW1 6968   6.348   1.204   6.240
 2023SOL    HW2 6969   6.342   1.041   6.234
 2024SOL     OW 6970   0.468   6.433   3.863
 2024SOL    HW1 6971   0.443   6.507   3.926
 2024SOL    HW2 6972   0.463   6.346   3.910
 2025SOL     OW 6973   2.705   2.120   3.449
 2025SOL    HW1 6974   2.667   2.126   3.541
 2025SOL    HW2 6975   2.782   2.056   3.448
 2026SOL     OW 6976   0.612   3.006   5.719
 2026SOL    HW1 6977   0.586   3.102   5.718
 2026SOL    HW2 6978   0.701   2.995   5.675
 2027SOL     OW 6979   0.473   0.927   0.284
 2027SOL    HW1 6980   0.532   1.007   0.287
 2027SOL    HW2 6981   0.527   0.847   0.259
 2028SOL     OW 6982   3.327   6.971   5.133
 2028SOL    HW1 6983   3.364   6.882   5.161
 2028SOL    HW2 6984   3.266   6.959   5.055
 2029SOL     OW 6985   6.095   0.164   0.351
 2029SOL    HW1 6986   6.030   0.100   0.390
 2029SOL    HW2 6987   6.069   0.258   0.377
 2030SOL     OW 6988   2.631   1.305   2.671
 2030SOL    HW1 6989   2.706   1.288   2.607
 2030SOL    HW2 6990   2.613   1.222   2.724
 2031SOL     OW 6991   6.461   5.845   1.280
 2031SOL    HW1 6992   6.540   5.816   1.335
 2031SOL    HW2 6993   6.490   5.861   1.186
 2032SOL     OW 6994   5.161   6.802   2.012
 2032SOL    HW1 6995   5.172   6.875   2.079
 2032SOL    HW2 6996   5.148   6.715   2.059
 2033SOL     OW 6997   3.302   3.999   6.542
 2033SOL    HW1 6998   3.353   3.919   6.572
 2033SOL    HW2 6999   3.326   4.020   6.447
 2034SOL     OW 7000   3.396   6.118   5.211
 2034SOL    HW1 7001   3.390   6.053   5.286
 2034SOL    HW2 7002   3.387   6.212   5.246
 2035SOL     OW 7003   0.652   0.417   2.851
 2035SOL    HW1 7004   0.570   0.470   2.830
 2035SOL    HW2 7005   0.688   0.375   2.768
 2036SOL     OW 7006   1.923   4.838   2.794
 2036SOL    HW1 7007   1.938   4.781   2.875
 2036SOL    HW2 7008   1.841   4.806   2.746
 2037SOL     OW 7009   6.788   2.987   5.481
 2037SOL    HW1 7010   6.888   2.995   5.481
 2037SOL    HW2 7011   6.751   3.036   5.401
 2038SOL     OW 7012   1.232   2.480   0.073
 2038SOL    HW1 7013   1.202   2.386   0.090
 2038SOL    HW2 7014   1.330   2.482   0.056
 2039SOL     OW 7015   0.694   5.562   3.018
 2039SOL    HW1 7016   0.681   5.466   3.041
 2039SOL    HW2 7017   0.749   5.569   2.934
 2040SOL     OW 7018   3.136   3.459   4.822
 2040SOL    HW1 7019   3.185   3.392   4.766
 2040SOL    HW2 7020   3.042   3.468   4.789
 2041SOL     OW 7021   0.553   6.190   5.081
 2041SOL    HW1 7022   0.542   6.265   5.016
 2041SOL    HW2 7023   0.498   6.112   5.051
 2042SOL     OW 7024   4.956   5.557   7.022
 2042SOL    HW1 7025   4.993   5.568   6.929
 2042SOL    HW2 7026   4.913   5.642   0.029
 2043SOL     OW 7027   6.827   3.601   4.122
 2043SOL    HW1 7028   6.898   3.573   4.056
 2043SOL    HW2 7029   6.748   3.540   4.113
 2044SOL     OW 7030   6.354   6.721   1.514
 2044SOL    HW1 7031   6.404   6.637   1.494
 2044SOL    HW2 7032   6.313   6.715   1.605
 2045SOL     OW 7033   2.677   5.051   4.028
 2045SOL    HW1 7034   2.683   4.966   3.975
 2045SOL    HW2 7035   2.582   5.069   4.051
 2046SOL     OW 7036   6.968   2.284   4.316
 2046SOL    HW1 7037   6.876   2.306   4.349
 2046SOL    HW2 7038   6.984   2.186   4.327
 2047SOL     OW 7039   6.460   1.812   0.004
 2047SOL    HW1 7040   6.557   1.796   0.021
 2047SOL    HW2 7041   6.406   1.741   0.049
 2048SOL     OW 7042   1.468   6.491   6.103
 2048SOL    HW1 7043   1.440   6.395   6.100
 2048SOL    HW2 7044   1.438   6.538   6.020
 2049SOL     OW 7045   5.907   1.433   5.561
 2049SOL    HW1 7046   5.821   1.420   5.510
 2049SOL    HW2 7047   5.975   1.367   5.529
 2050SOL     OW 7048   6.669   2.808   3.958
 2050SOL    HW1 7049   6.703   2.902   3.950
 2050SOL    HW2 7050   6.739   2.745   3.927
 2051SOL     OW 7051   1.038   5.608   0.530
 2051SOL    HW1 7052   0.980   5.604   0.611
 2051SOL    HW2 7053   1.001   5.548   0.459
 2052SOL     OW 7054   1.677   3.908   0.873
 2052SOL    HW1 7055   1.736   3.891   0.951
 2052SOL    HW2 7056   1.596   3.958   0.903
 2053SOL     OW 7057   5.641   6.477   4.694
 2053SOL    HW1 7058   5.693   6.512   4.617
 2053SOL    HW2 7059   5.686   6.395   4.731
 2054SOL     OW 7060   3.628   3.991   2.885
 2054SOL    HW1 7061   3.565   4.067   2.901
 2054SOL    HW2 7062   3.678   3.971   2.970
 2055SOL     OW 7063   6.013   3.328   2.992
 2055SOL    HW1 7064   5.985   3.287   3.079
 2055SOL    HW2 7065   6.005   3.428   2.999
 2056SOL     OW 7066   3.434   6.066   2.768
 2056SOL    HW1 7067   3.515   6.091   2.820
 2056SOL    HW2 7068   3.438   6.107   2.677
 2057SOL     OW 7069   5.322   4.130   5.017
 2057SOL    HW1 7070   5.230   4.170   5.008
 2057SOL    HW2 7071   5.320   4.035   4.986
 2058SOL     OW 7072   0.575   1.777   3.136
 2058SOL    HW1 7073   0.527   1.734   3.060
 2058SOL    HW2 7074   0.534   1.746   3.222
 2059SOL     OW 7075   1.718   5.904   6.595
 2059SOL    HW1 7076   1.778   5.983   6.606
 2059SOL    HW2 7077   1.628   5.934   6.564
 2060SOL     OW 7078   0.499   4.265   1.612
 2060SOL    HW1 7079   0.510   4.358   1.645
 2060SOL    HW2 7080   0.429   4.263   1.540
 2061SOL     OW 7081   0.505   2.234   3.399
 2061SOL    HW1 7082   0.571   2.307   3.385
 2061SOL    HW2 7083   0.426   2.247   3.339
 2062SOL     OW 7084   6.129   6.475   3.811
 2062SOL    HW1 7085   6.170   6.500   3.898
 2062SOL    HW2 7086   6.195   6.423   3.756
 2063SOL     OW 7087   1.870   0.167   6.436
 2063SOL    HW1 7088   1.773   0.147   6.440
 2063SOL    HW2 7089   1.898   0.176   6.340
 2064SOL     OW 7090   1.190   2.143   5.228
 2064SOL    HW1 7091   1.149   2.226   5.268
 2064SOL    HW2 7092   1.196   2.072   5.299
 2065SOL     OW 7093   6.607   2.385   5.227
 2065SOL    HW1 7094   6.595   2.313   5.159
 2065SOL    HW2 7095   6.683   2.445   5.199
 2066SOL     OW 7096   0.872   4.718   4.159
 2066SOL    HW1 7097   0.779   4.713   4.123
 2066SOL    HW2 7098   0.875   4.680   4.251
 2067SOL     OW 7099   6.344   4.711   1.117
 2067SOL    HW1 7100   6.259   4.691   1.068
 2067SOL    HW2 7101   6.322   4.748   1.207
 2068SOL     OW 7102   1.928   0.696   4.640
 2068SOL    HW1 7103   1.997   0.651   4.583
 2068SOL    HW2 7104   1.878   0.627   4.692
 2069SOL     OW 7105   0.320   2.431   4.021
 2069SOL    HW1 7106   0.414   2.449   3.991
 2069SOL    HW2 7107   0.269   2.388   3.947
 2070SOL     OW 7108   0.826   1.128   1.772
 2070SOL    HW1 7109   0.731   1.112   1.748
 2070SOL    HW2 7110   0.876   1.160   1.692
 2071SOL     OW 7111   6.589   6.316   5.990
 2071SOL    HW1 7112   6.606   6.413   5.972
 2071SOL    HW2 7113   6.673   6.273   6.023
 2072SOL     OW 7114   4.369   6.044   4.071
 2072SOL    HW1 7115   4.448   6.042   4.010
 2072SOL    HW2 7116   4.285   6.041   4.016
 2073SOL     OW 7117   3.806   7.009   4.603
 2073SOL    HW1 7118   3.748   6.958   4.667
 2073SOL    HW2 7119   3.890   6.958   4.586
 2074SOL     OW 7120   1.983   2.777   6.880
 2074SOL    HW1 7121   2.056   2.834   6.842
 2074SOL    HW2 7122   1.898   2.829   6.883
 2075SOL     OW 7123   6.486   3.314   2.814
 2075SOL    HW1 7124   6.521   3.253   2.885
 2075SOL    HW2 7125   6.402   3.358   2.846
 2076SOL     OW 7126   6.183   0.010   7.010
 2076SOL    HW1 7127   6.147   0.102   0.003
 2076SOL    HW2 7128   6.217   6.995   0.075
 2077SOL     OW 7129   5.527   2.824   2.797
 2077SOL    HW1 7130   5.571   2.907   2.764
 2077SOL    HW2 7131   5.517   2.828   2.897
 2078SOL     OW 7132   1.419   6.182   6.108
 2078SOL    HW1 7133   1.371   6.139   6.032
 2078SOL    HW2 7134   1.372   6.161   6.193
 2079SOL     OW 7135   5.443   2.771   3.309
 2079SOL    HW1 7136   5.516   2.801   3.370
 2079SOL    HW2 7137   5.436   2.671   3.312
 2080SOL     OW 7138   1.407   6.835   4.822
 2080SOL    HW1 7139   1.373   6.750   4.862
 2080SOL    HW2 7140   1.329   6.892   4.795
 2081SOL     OW 7141   1.443   5.094   4.292
 2081SOL    HW1 7142   1.494   5.036   4.229
 2081SOL    HW2 7143   1.507   5.149   4.346
 2082SOL     OW 7144   0.447   0.226   2.940
 2082SOL    HW1 7145   0.516   0.283   2.897
 2082SOL    HW2 7146   0.441   0.138   2.893
 2083SOL     OW 7147   6.650   4.594   6.083
 2083SOL    HW1 7148   6.617   4.683   6.113
 2083SOL    HW2 7149   6.748   4.599   6.064
 2084SOL     OW 7150   1.012   3.826   3.071
 2084SOL    HW1 7151   0.969   3.853   2.985
 2084SOL    HW2 7152   0.950   3.766   3.122
 2085SOL     OW 7153   4.640   0.238   6.821
 2085SOL    HW1 7154   4.699   0.237   6.902
 2085SOL    HW2 7155   4.599   0.148   6.809
 2086SOL     OW 7156   4.318   5.964   5.710
 2086SOL    HW1 7157   4.334   5.969   5.809
 2086SOL    HW2 7158   4.378   6.029   5.663
 2087SOL     OW 7159   5.258   0.973   1.369
 2087SOL    HW1 7160   5.247   0.897   1.432
 2087SOL    HW2 7161   5.353   1.005   1.371
 2088SOL     OW 7162   1.480   6.003   0.322
 2088SOL    HW1 7163   1.398   6.054   0.297
 2088SOL    HW2 7164   1.556   6.066   0.338
 2089SOL     OW 7165   5.320   2.194   6.521
 2089SOL    HW1 7166   5.357   2.245   6.443
 2089SOL    HW2 7167   5.257   2.252   6.572
 2090SOL     OW 7168   4.095   3.538   5.513
 2090SOL    HW1 7169   4.048   3.537   5.425
 2090SOL    HW2 7170   4.156   3.617   5.518
 2091SOL     OW 7171   0.023   5.562   1.014
 2091SOL    HW1 7172   6.964   5.554   1.073
 2091SOL    HW2 7173   7.015   5.575   0.919
 2092SOL     OW 7174   4.930   3.690   0.186
 2092SOL    HW1 7175   4.857   3.744   0.143
 2092SOL    HW2 7176   4.890   3.619   0.244
 2093SOL     OW 7177   2.900   2.320   1.572
 2093SOL    HW1 7178   2.936   2.266   1.648
 2093SOL    HW2 7179   2.820   2.372   1.603
 2094SOL     OW 7180   5.666   1.679   3.029
 2094SOL    HW1 7181   5.758   1.718   3.019
 2094SOL    HW2 7182   5.629   1.703   3.119
 2095SOL     OW 7183   6.038   6.451   5.330
 2095SOL    HW1 7184   6.075   6.393   5.258
 2095SOL    HW2 7185   5.973   6.399   5.384
 2096SOL     OW 7186   5.011   3.867   2.857
 2096SOL    HW1 7187   5.056   3.797   2.801
 2096SOL    HW2 7188   4.964   3.822   2.933
 2097SOL     OW 7189   3.139   3.744   6.623
 2097SOL    HW1 7190   3.121   3.799   6.542
 2097SOL    HW2 7191   3.136   3.802   6.705
 2098SOL     OW 7192   3.395   6.178   1.832
 2098SOL    HW1 7193   3.405   6.079   1.844
 2098SOL    HW2 7194   3.424   6.224   1.916
 2099SOL     OW 7195   3.343   2.995   6.425
 2099SOL    HW1 7196   3.274   2.988   6.353
 2099SOL    HW2 7197   3.419   2.934   6.405
 2100SOL     OW 7198   5.474   2.451   6.751
 2100SOL    HW1 7199   5.550   2.480   6.810
 2100SOL    HW2 7200   5.510   2.421   6.663
 2101SOL     OW 7201   1.631   7.012   1.681
 2101SOL    HW1 7202   1.611   6.919   1.711
 2101SOL    HW2 7203   1.604   0.055   1.752
 2102SOL     OW 7204   5.377   4.959   2.938
 2102SOL    HW1 7205   5.345   4.916   2.853
 2102SOL    HW2 7206   5.474   4.937   2.951
 2103SOL     OW 7207   3.554   4.375   6.303
 2103SOL    HW1 7208   3.576   4.432   6.224
 2103SOL    HW2 7209   3.492   4.302   6.276
 2104SOL     OW 7210   1.582   4.485   1.456
 2104SOL    HW1 7211   1.642   4.547   1.506
 2104SOL    HW2 7212   1.512   4.449   1.519
 2105SOL     OW 7213   5.798   5.340   5.018
 2105SOL    HW1 7214   5.885   5.373   5.057
 2105SOL    HW2 7215   5.746   5.293   5.089
 2106SOL     OW 7216   4.777   4.198   1.064
 2106SOL    HW1 7217   4.695   4.231   1.018
 2106SOL    HW2 7218   4.841   4.161   0.996
 2107SOL     OW 7219   5.664   2.825   5.595
 2107SOL    HW1 7220   5.615   2.766   5.532
 2107SOL    HW2 7221   5.725   2.886   5.544
 2108SOL     OW 7222   6.541   5.635   4.763
 2108SOL    HW1 7223   6.536   5.556   4.824
 2108SOL    HW2 7224   6.634   5.670   4.761
 2109SOL     OW 7225   4.390   5.935   2.360
 2109SOL    HW1 7226   4.438   5.944   2.272
 2109SOL    HW2 7227   4.382   5.838   2.384
 2110SOL     OW 7228   2.131   1.935   0.255
 2110SOL    HW1 7229   2.081   1.934   0.342
 2110SOL    HW2 7230   2.222   1.974   0.269
 2111SOL     OW 7231   1.975   2.542   6.678
 2111SOL    HW1 7232   1.954   2.640   6.681
 2111SOL    HW2 7233   1.925   2.499   6.603
 2112SOL     OW 7234   5.667   3.045   0.257
 2112SOL    HW1 7235   5.685   2.960   0.306
 2112SOL    HW2 7236   5.576   3.040   0.215
 2113SOL     OW 7237   2.569   1.665   4.463
 2113SOL    HW1 7238   2.650   1.614   4.434
 2113SOL    HW2 7239   2.581   1.694   4.558
 2114SOL     OW 7240   2.093   1.853   6.489
 2114SOL    HW1 7241   2.151   1.840   6.569
 2114SOL    HW2 7242   2.000   1.821   6.510
 2115SOL     OW 7243   1.562   4.033   3.134
 2115SOL    HW1 7244   1.562   3.972   3.213
 2115SOL    HW2 7245   1.648   4.083   3.131
 2116SOL     OW 7246   0.872   4.800   3.284
 2116SOL    HW1 7247   0.851   4.857   3.364
 2116SOL    HW2 7248   0.787   4.761   3.248
 2117SOL     OW 7249   6.868   4.552   2.017
 2117SOL    HW1 7250   6.877   4.455   1.992
 2117SOL    HW2 7251   6.869   4.608   1.934
 2118SOL     OW 7252   6.366   2.828   3.199
 2118SOL    HW1 7253   6.439   2.868   3.253
 2118SOL    HW2 7254   6.391   2.830   3.102
 2119SOL     OW 7255   1.201   0.729   0.915
 2119SOL    HW1 7256   1.149   0.664   0.859
 2119SOL    HW2 7257   1.169   0.725   1.010
 2120SOL     OW 7258   0.484   4.997   3.208
 2120SOL    HW1 7259   0.396   4.954   3.228
 2120SOL    HW2 7260   0.525   4.952   3.128
 2121SOL     OW 7261   1.763   3.806   6.481
 2121SOL    HW1 7262   1.828   3.859   6.426
 2121SOL    HW2 7263   1.803   3.787   6.571
 2122SOL     OW 7264   5.731   4.093   6.047
 2122SOL    HW1 7265   5.657   4.119   5.985
 2122SOL    HW2 7266   5.813   4.072   5.993
 2123SOL     OW 7267   6.742   5.141   2.211
 2123SOL    HW1 7268   6.669   5.155   2.279
 2123SOL    HW2 7269   6.804   5.220   2.212
 2124SOL     OW 7270   3.134   2.279   1.214
 2124SOL    HW1 7271   3.196   2.202   1.223
 2124SOL    HW2 7272   3.096   2.302   1.304
 2125SOL     OW 7273   1.947   0.836   2.591
 2125SOL    HW1 7274   1.855   0.797   2.592
 2125SOL    HW2 7275   1.941   0.935   2.603
 2126SOL     OW 7276   3.605   2.297   6.534
 2126SOL    HW1 7277   3.527   2.270   6.478
 2126SOL    HW2 7278   3.617   2.396   6.528
 2127SOL     OW 7279   1.127   2.383   5.405
 2127SOL    HW1 7280   1.168   2.460   5.453
 2127SOL    HW2 7281   1.143   2.299   5.456
 2128SOL     OW 7282   6.372   3.287   4.230
 2128SOL    HW1 7283   6.463   3.255   4.256
 2128SOL    HW2 7284   6.329   3.220   4.170
 2129SOL     OW 7285   4.434   2.936   5.334
 2129SOL    HW1 7286   4.346   2.977   5.308
 2129SOL    HW2 7287   4.507   3.002   5.317
 2130SOL     OW 7288   4.007   0.405   2.844
 2130SOL    HW1 7289   3.991   0.316   2.886
 2130SOL    HW2 7290   3.922   0.436   2.800
 2131SOL     OW 7291   4.655   1.557   6.812
 2131SOL    HW1 7292   4.592   1.521   6.881
 2131SOL    HW2 7293   4.620   1.537   6.721
 2132SOL     OW 7294   3.654   0.601   0.603
 2132SOL    HW1 7295   3.639   0.515   0.653
 2132SOL    HW2 7296   3.592   0.605   0.525
 2133SOL     OW 7297   3.304   3.247   1.039
 2133SOL    HW1 7298   3.215   3.209   1.014
 2133SOL    HW2 7299   3.369   3.173   1.053
 2134SOL     OW 7300   0.480   0.656   5.604
 2134SOL    HW1 7301   0.403   0.676   5.543
 2134SOL    HW2 7302   0.480   0.721   5.680
 2135SOL     OW 7303   1.704   3.053   5.549
 2135SOL    HW1 7304   1.642   3.005   5.610
 2135SOL    HW2 7305   1.724   3.143   5.587
 2136SOL     OW 7306   0.675   4.096   4.178
 2136SOL    HW1 7307   0.600   4.106   4.243
 2136SOL    HW2 7308   0.702   4.186   4.144
 2137SOL     OW 7309   1.217   5.421   4.468
 2137SOL    HW1 7310   1.279   5.452   4.540
 2137SOL    HW2 7311   1.210   5.321   4.472
 2138SOL     OW 7312   6.658   1.037   2.642
 2138SOL    HW1 7313   6.677   0.981   2.561
 2138SOL    HW2 7314   6.597   1.112   2.617
 2139SOL     OW 7315   3.556   1.102   2.916
 2139SOL    HW1 7316   3.555   1.058   2.827
 2139SOL    HW2 7317   3.648   1.098   2.955
 2140SOL     OW 7318   3.935   6.324   3.955
 2140SOL    HW1 7319   3.954   6.387   4.030
 2140SOL    HW2 7320   3.888   6.243   3.990
 2141SOL     OW 7321   6.026   4.419   2.217
 2141SOL    HW1 7322   6.050   4.448   2.310
 2141SOL    HW2 7323   6.041   4.495   2.154
 2142SOL     OW 7324   1.057   2.069   3.050
 2142SOL    HW1 7325   1.060   1.975   3.017
 2142SOL    HW2 7326   1.091   2.131   2.979
 2143SOL     OW 7327   3.007   4.485   1.476
 2143SOL    HW1 7328   2.994   4.387   1.462
 2143SOL    HW2 7329   2.926   4.534   1.444
 2144SOL     OW 7330   1.207   5.488   3.974
 2144SOL    HW1 7331   1.133   5.556   3.965
 2144SOL    HW2 7332   1.249   5.473   3.885
 2145SOL     OW 7333   4.240   5.823   4.280
 2145SOL    HW1 7334   4.190   5.882   4.217
 2145SOL    HW2 7335   4.335   5.854   4.287
 2146SOL     OW 7336   2.837   3.502   1.546
 2146SOL    HW1 7337   2.906   3.474   1.612
 2146SOL    HW2 7338   2.750   3.457   1.567
 2147SOL     OW 7339   6.829   1.568   6.226
 2147SOL    HW1 7340   6.756   1.502   6.209
 2147SOL    HW2 7341   6.885   1.578   6.144
 2148SOL     OW 7342   5.344   1.832   5.575
 2148SOL    HW1 7343   5.270   1.870   5.518
 2148SOL    HW2 7344   5.330   1.734   5.585
 2149SOL     OW 7345   3.518   2.429   1.334
 2149SOL    HW1 7346   3.488   2.516   1.373
 2149SOL    HW2 7347   3.604   2.401   1.377
 2150SOL     OW 7348   3.009   1.933   2.498
 2150SOL    HW1 7349   2.947   1.870   2.452
 2150SOL    HW2 7350   3.016   2.018   2.445
 2151SOL     OW 7351   1.755   0.631   4.957
 2151SOL    HW1 7352   1.691   0.625   4.880
 2151SOL    HW2 7353   1.815   0.709   4.944
 2152SOL     OW 7354   3.720   6.258   1.500
 2152SOL    HW1 7355   3.773   6.175   1.516
 2152SOL    HW2 7356   3.717   6.277   1.402
 2153SOL     OW 7357   3.782   0.593   3.422
 2153SOL    HW1 7358   3.872   0.637   3.411
 2153SOL    HW2 7359   3.795   0.496   3.442
 2154SOL     OW 7360   4.729   0.046   4.864
 2154SOL    HW1 7361   4.683   6.981   4.849
 2154SOL    HW2 7362   4.783   0.042   4.948
 2155SOL     OW 7363   1.751   6.131   0.167
 2155SOL    HW1 7364   1.678   6.185   0.210
 2155SOL    HW2 7365   1.832   6.188   0.153
 2156SOL     OW 7366   2.968   1.170   4.727
 2156SOL    HW1 7367   2.931   1.263   4.728
 2156SOL    HW2 7368   3.038   1.163   4.656
 2157SOL     OW 7369   6.305   1.183   3.633
 2157SOL    HW1 7370   6.240   1.174   3.708
 2157SOL    HW2 7371   6.324   1.093   3.594
 2158SOL     OW 7372   4.210   6.360   0.928
 2158SOL    HW1 7373   4.143   6.302   0.973
 2158SOL    HW2 7374   4.170   6.400   0.846
 2159SOL     OW 7375   1.717   6.516   5.427
 2159SOL    HW1 7376   1.811   6.499   5.398
 2159SOL    HW2 7377   1.675   6.582   5.365
 2160SOL     OW 7378   3.882   4.134   0.647
 2160SOL    HW1 7379   3.814   4.152   0.719
 2160SOL    HW2 7380   3.973   4.134   0.687
 2161SOL     OW 7381   5.109   4.377   3.268
 2161SOL    HW1 7382   5.074   4.357   3.360
 2161SOL    HW2 7383   5.143   4.294   3.226
 2162SOL     OW 7384   2.287   0.772   1.377
 2162SOL    HW1 7385   2.373   0.824   1.376
 2162SOL    HW2 7386   2.306   0.676   1.357
 2163SOL     OW 7387   0.728   4.357   6.724
 2163SOL    HW1 7388   0.806   4.301   6.696
 2163SOL    HW2 7389   0.747   4.453   6.702
 2164SOL     OW 7390   1.192   3.233   6.768
 2164SOL    HW1 7391   1.160   3.156   6.823
 2164SOL    HW2 7392   1.118   3.264   6.708
 2165SOL     OW 7393   0.231   2.545   2.736
 2165SOL    HW1 7394   0.318   2.507   2.708
 2165SOL    HW2 7395   0.243   2.641   2.761
 2166SOL     OW 7396   1.248   2.416   4.808
 2166SOL    HW1 7397   1.221   2.491   4.747
 2166SOL    HW2 7398   1.207   2.431   4.899
 2167SOL     OW 7399   1.624   1.695   3.680
 2167SOL    HW1 7400   1.696   1.638   3.719
 2167SOL    HW2 7401   1.556   1.715   3.752
 2168SOL     OW 7402   0.608   1.913   4.186
 2168SOL    HW1 7403   0.598   1.866   4.274
 2168SOL    HW2 7404   0.562   1.860   4.115
 2169SOL     OW 7405   5.593   1.873   5.711
 2169SOL    HW1 7406   5.593   1.813   5.792
 2169SOL    HW2 7407   5.521   1.843   5.648
 2170SOL     OW 7408   6.720   5.114   5.429
 2170SOL    HW1 7409   6.732   5.027   5.476
 2170SOL    HW2 7410   6.648   5.167   5.475
 2171SOL     OW 7411   0.111   3.612   1.857
 2171SOL    HW1 7412   0.184   3.615   1.925
 2171SOL    HW2 7413   0.080   3.705   1.838
 2172SOL     OW 7414   3.047   2.566   0.559
 2172SOL    HW1 7415   3.019   2.659   0.585
 2172SOL    HW2 7416   2.991   2.534   0.483
 2173SOL     OW 7417   3.609   0.533   4.495
 2173SOL    HW1 7418   3.658   0.485   4.423
 2173SOL    HW2 7419   3.641   0.501   4.584
 2174SOL     OW 7420   5.528   5.493   5.279
 2174SOL    HW1 7421   5.483   5.477   5.191
 2174SOL    HW2 7422   5.514   5.413   5.338
 2175SOL     OW 7423   2.168   2.998   4.624
 2175SOL    HW1 7424   2.152   3.097   4.627
 2175SOL    HW2 7425   2.082   2.950   4.642
 2176SOL     OW 7426   0.913   2.607   0.175
 2176SOL    HW1 7427   1.006   2.645   0.178
 2176SOL    HW2 7428   0.847   2.682   0.166
 2177SOL     OW 7429   6.209   1.574   3.754
 2177SOL    HW1 7430   6.164   1.527   3.678
 2177SOL    HW2 7431   6.261   1.507   3.807
 2178SOL     OW 7432   1.238   3.493   0.156
 2178SOL    HW1 7433   1.263   3.582   0.118
 2178SOL    HW2 7434   1.292   3.476   0.239
 2179SOL     OW 7435   1.825   5.354   4.812
 2179SOL    HW1 7436   1.799   5.443   4.851
 2179SOL    HW2 7437   1.851   5.366   4.716
 2180SOL     OW 7438   2.312   2.797   1.970
 2180SOL    HW1 7439   2.272   2.860   2.037
 2180SOL    HW2 7440   2.278   2.821   1.879
 2181SOL     OW 7441   4.326   5.021   5.134
 2181SOL    HW1 7442   4.328   5.117   5.108
 2181SOL    HW2 7443   4.236   4.982   5.114
 2182SOL     OW 7444   0.960   3.244   4.359
 2182SOL    HW1 7445   0.880   3.291   4.322
 2182SOL    HW2 7446   0.989   3.288   4.444
 2183SOL     OW 7447   2.648   4.226   5.897
 2183SOL    HW1 7448   2.562   4.254   5.940
 2183SOL    HW2 7449   2.628   4.188   5.806
 2184SOL     OW 7450   4.452   2.087   6.820
 2184SOL    HW1 7451   4.537   2.048   6.783
 2184SOL    HW2 7452   4.376   2.026   6.798
 2185SOL     OW 7453   1.370   2.140   0.843
 2185SOL    HW1 7454   1.286   2.118   0.892
 2185SOL    HW2 7455   1.444   2.155   0.908
 2186SOL     OW 7456   0.401   5.232   2.092
 2186SOL    HW1 7457   0.489   5.278   2.104
 2186SOL    HW2 7458   0.407   5.139   2.128
 2187SOL     OW 7459   6.426   1.345   2.725
 2187SOL    HW1 7460   6.478   1.366   2.808
 2187SOL    HW2 7461   6.352   1.411   2.714
 2188SOL     OW 7462   5.966   6.060   4.661
 2188SOL    HW1 7463   5.891   6.037   4.598
 2188SOL    HW2 7464   6.034   6.116   4.613
 2189SOL     OW 7465   1.968   0.139   0.389
 2189SOL    HW1 7466   2.051   0.141   0.333
 2189SOL    HW2 7467   1.915   0.223   0.375
 2190SOL     OW 7468   0.181   2.786   1.890
 2190SOL    HW1 7469   0.230   2.718   1.836
 2190SOL    HW2 7470   0.178   2.757   1.986
 2191SOL     OW 7471   2.825   1.966   6.680
 2191SOL    HW1 7472   2.781   1.934   6.764
 2191SOL    HW2 7473   2.894   2.035   6.703
 2192SOL     OW 7474   3.975   1.130   2.847
 2192SOL    HW1 7475   3.908   1.175   2.788
 2192SOL    HW2 7476   4.050   1.094   2.792
 2193SOL     OW 7477   6.544   5.672   5.668
 2193SOL    HW1 7478   6.553   5.626   5.580
 2193SOL    HW2 7479   6.581   5.764   5.662
 2194SOL     OW 7480   2.534   4.934   6.978
 2194SOL    HW1 7481   2.480   4.852   6.996
 2194SOL    HW2 7482   2.473   5.008   6.950
 2195SOL     OW 7483   6.821   0.441   3.589
 2195SOL    HW1 7484   6.844   0.526   3.541
 2195SOL    HW2 7485   6.756   0.461   3.662
 2196SOL     OW 7486   3.290   0.617   4.677
 2196SOL    HW1 7487   3.333   0.656   4.595
 2196SOL    HW2 7488   3.286   0.687   4.749
 2197SOL     OW 7489   3.122   3.639   0.941
 2197SOL    HW1 7490   3.040   3.605   0.987
 2197SOL    HW2 7491   3.114   3.624   0.842
 2198SOL     OW 7492   6.677   1.141   0.127
 2198SOL    HW1 7493   6.643   1.208   0.061
 2198SOL    HW2 7494   6.608   1.126   0.198
 2199SOL     OW 7495   5.470   1.127   3.107
 2199SOL    HW1 7496   5.390   1.070   3.089
 2199SOL    HW2 7497   5.508   1.104   3.196
 2200SOL     OW 7498   3.014   0.479   4.676
 2200SOL    HW1 7499   3.025   0.456   4.773
 2200SOL    HW2 7500   3.007   0.578   4.666
 2201SOL     OW 7501   6.154   2.497   3.436
 2201SOL    HW1 7502   6.163   2.591   3.403
 2201SOL    HW2 7503   6.078   2.452   3.388
 2202SOL     OW 7504   2.745   4.942   2.439
 2202SOL    HW1 7505   2.661   4.964   2.390
 2202SOL    HW2 7506   2.822   4.988   2.395
 2203SOL     OW 7507   2.377   2.878   1.394
 2203SOL    HW1 7508   2.451   2.856   1.330
 2203SOL    HW2 7509   2.375   2.809   1.466
 2204SOL     OW 7510   4.293   0.980   0.167
 2204SOL    HW1 7511   4.366   0.945   0.226
 2204SOL    HW2 7512   4.236   0.904   0.136
 2205SOL     OW 7513   1.350   0.280   5.896
 2205SOL    HW1 7514   1.302   0.296   5.810
 2205SOL    HW2 7515   1.408   0.358   5.916
 2206SOL     OW 7516   2.843   4.622   6.455
 2206SOL    HW1 7517   2.754   4.578   6.455
 2206SOL    HW2 7518   2.851   4.682   6.534
 2207SOL     OW 7519   3.186   4.538   6.837
 2207SOL    HW1 7520   3.208   4.604   6.909
 2207SOL    HW2 7521   3.267   4.481   6.818
 2208SOL     OW 7522   1.531   6.294   2.233
 2208SOL    HW1 7523   1.528   6.284   2.134
 2208SOL    HW2 7524   1.565   6.385   2.257
 2209SOL     OW 7525   1.497   6.121   5.782
 2209SOL    HW1 7526   1.539   6.208   5.755
 2209SOL    HW2 7527   1.564   6.065   5.831
 2210SOL     OW 7528   6.693   4.981   4.145
 2210SOL    HW1 7529   6.618   4.952   4.088
 2210SOL    HW2 7530   6.696   4.925   4.228
 2211SOL     OW 7531   5.256   0.443   6.887
 2211SOL    HW1 7532   5.349   0.454   6.854
 2211SOL    HW2 7533   5.192   0.442   6.810
 2212SOL     OW 7534   1.740   6.392   6.904
 2212SOL    HW1 7535   1.774   6.299   6.892
 2212SOL    HW2 7536   1.642   6.389   6.923
 2213SOL     OW 7537   3.681   2.758   5.198
 2213SOL    HW1 7538   3.745   2.686   5.225
 2213SOL    HW2 7539   3.732   2.840   5.173
 2214SOL     OW 7540   3.893   2.932   5.107
 2214SOL    HW1 7541   3.898   3.032   5.117
 2214SOL    HW2 7542   3.935   2.889   5.187
 2215SOL     OW 7543   6.614   2.051   0.170
 2215SOL    HW1 7544   6.527   2.076   0.212
 2215SOL    HW2 7545   6.672   2.006   0.238
 2216SOL     OW 7546   2.080   0.390   5.924
 2216SOL    HW1 7547   2.175   0.359   5.928
 2216SOL    HW2 7548   2.074   0.477   5.876
 2217SOL     OW 7549   3.775   6.776   1.500
 2217SOL    HW1 7550   3.706   6.843   1.472
 2217SOL    HW2 7551   3.746   6.729   1.583
 2218SOL     OW 7552   0.775   7.009   0.702
 2218SOL    HW1 7553   0.763   6.918   0.742
 2218SOL    HW2 7554   0.866   0.022   0.724
 2219SOL     OW 7555   6.212   2.150   2.163
 2219SOL    HW1 7556   6.245   2.233   2.119
 2219SOL    HW2 7557   6.212   2.163   2.262
 2220SOL     OW 7558   1.367   0.086   3.973
 2220SOL    HW1 7559   1.347   7.011   3.960
 2220SOL    HW2 7560   1.354   0.110   4.069
 2221SOL     OW 7561   5.896   0.638   5.129
 2221SOL    HW1 7562   5.989   0.619   5.160
 2221SOL    HW2 7563   5.886   0.736   5.112
 2222SOL     OW 7564   4.326   0.202   0.687
 2222SOL    HW1 7565   4.276   0.148   0.620
 2222SOL    HW2 7566   4.267   0.222   0.765
 2223SOL     OW 7567   5.978   0.893   4.621
 2223SOL    HW1 7568   5.988   0.882   4.522
 2223SOL    HW2 7569   6.000   0.807   4.667
 2224SOL     OW 7570   1.937   4.290   1.319
 2224SOL    HW1 7571   2.006   4.235   1.367
 2224SOL    HW2 7572   1.947   4.278   1.221
 2225SOL     OW 7573   6.099   6.191   3.019
 2225SOL    HW1 7574   6.064   6.269   2.967
 2225SOL    HW2 7575   6.086   6.107   2.967
 2226SOL     OW 7576   4.166   5.126   0.676
 2226SOL    HW1 7577   4.082   5.085   0.642
 2226SOL    HW2 7578   4.176   5.218   0.639
 2227SOL     OW 7579   5.719   3.782   0.803
 2227SOL    HW1 7580   5.691   3.766   0.709
 2227SOL    HW2 7581   5.668   3.722   0.864
 2228SOL     OW 7582   2.482   5.029   1.226
 2228SOL    HW1 7583   2.580   5.045   1.235
 2228SOL    HW2 7584   2.433   5.084   1.293
 2229SOL     OW 7585   4.280   1.547   4.425
 2229SOL    HW1 7586   4.305   1.644   4.415
 2229SOL    HW2 7587   4.180   1.539   4.426
 2230SOL     OW 7588   6.117   5.612   6.182
 2230SOL    HW1 7589   6.089   5.624   6.277
 2230SOL    HW2 7590   6.063   5.673   6.123
 2231SOL     OW 7591   0.622   0.787   2.065
 2231SOL    HW1 7592   0.600   0.797   2.163
 2231SOL    HW2 7593   0.543   0.749   2.017
 2232SOL     OW 7594   0.614   3.235   4.935
 2232SOL    HW1 7595   0.670   3.307   4.894
 2232SOL    HW2 7596   0.656   3.205   5.020
 2233SOL     OW 7597   2.788   4.603   1.327
 2233SOL    HW1 7598   2.693   4.632   1.314
 2233SOL    HW2 7599   2.810   4.533   1.258
 2234SOL     OW 7600   4.163   2.348   1.898
 2234SOL    HW1 7601   4.246   2.303   1.864
 2234SOL    HW2 7602   4.105   2.280   1.944
 2235SOL     OW 7603   2.036   0.651   1.169
 2235SOL    HW1 7604   1.985   0.718   1.223
 2235SOL    HW2 7605   2.126   0.689   1.147
 2236SOL     OW 7606   0.929   4.512   6.455
 2236SOL    HW1 7607   0.978   4.595   6.428
 2236SOL    HW2 7608   0.956   4.487   6.548
 2237SOL     OW 7609   5.456   4.963   3.976
 2237SOL    HW1 7610   5.382   4.914   4.023
 2237SOL    HW2 7611   5.438   5.061   3.979
 2238SOL     OW 7612   5.298   4.574   1.156
 2238SOL    HW1 7613   5.238   4.498   1.182
 2238SOL    HW2 7614   5.306   4.578   1.057
 2239SOL     OW 7615   3.164   5.083   3.088
 2239SOL    HW1 7616   3.068   5.055   3.094
 2239SOL    HW2 7617   3.197   5.112   3.177
 2240SOL     OW 7618   5.145   6.108   3.672
 2240SOL    HW1 7619   5.093   6.023   3.687
 2240SOL    HW2 7620   5.199   6.100   3.589
 2241SOL     OW 7621   0.152   0.122   2.459
 2241SOL    HW1 7622   0.160   0.210   2.411
 2241SOL    HW2 7623   0.122   0.138   2.553
 2242SOL     OW 7624   4.834   1.762   2.821
 2242SOL    HW1 7625   4.783   1.726   2.743
 2242SOL    HW2 7626   4.859   1.687   2.883
 2243SOL     OW 7627   3.068   6.348   5.440
 2243SOL    HW1 7628   3.025   6.279   5.497
 2243SOL    HW2 7629   3.043   6.439   5.474
 2244SOL     OW 7630   2.235   6.647   2.112
 2244SOL    HW1 7631   2.228   6.659   2.013
 2244SOL    HW2 7632   2.156   6.597   2.146
 2245SOL     OW 7633   0.788   2.043   2.258
 2245SOL    HW1 7634   0.883   2.060   2.286
 2245SOL    HW2 7635   0.778   2.066   2.161
 2246SOL     OW 7636   1.010   1.237   6.012
 2246SOL    HW1 7637   0.941   1.200   5.950
 2246SOL    HW2 7638   1.005   1.189   6.100
 2247SOL     OW 7639   2.908   2.964   5.419
 2247SOL    HW1 7640   2.926   3.063   5.421
 2247SOL    HW2 7641   2.814   2.948   5.449
 2248SOL     OW 7642   3.698   4.313   5.782
 2248SOL    HW1 7643   3.732   4.219   5.777
 2248SOL    HW2 7644   3.767   4.376   5.748
 2249SOL     OW 7645   6.145   6.647   2.596
 2249SOL    HW1 7646   6.103   6.564   2.557
 2249SOL    HW2 7647   6.244   6.636   2.599
 2250SOL     OW 7648   4.375   3.464   0.084
 2250SOL    HW1 7649   4.296   3.437   0.029
 2250SOL    HW2 7650   4.345   3.530   0.154
 2251SOL     OW 7651   5.196   0.977   0.007
 2251SOL    HW1 7652   5.154   1.050   0.061
 2251SOL    HW2 7653   5.128   0.940   6.965
 2252SOL     OW 7654   5.356   2.529   2.915
 2252SOL    HW1 7655   5.400   2.531   2.825
 2252SOL    HW2 7656   5.303   2.445   2.925
 2253SOL     OW 7657   1.291   3.750   6.555
 2253SOL    HW1 7658   1.288   3.812   6.633
 2253SOL    HW2 7659   1.217   3.683   6.563
 2254SOL     OW 7660   3.374   3.612   5.293
 2254SOL    HW1 7661   3.275   3.610   5.274
 2254SOL    HW2 7662   3.406   3.706   5.294
 2255SOL     OW 7663   4.945   2.417   6.573
 2255SOL    HW1 7664   4.947   2.355   6.495
 2255SOL    HW2 7665   5.030   2.408   6.625
 2256SOL     OW 7666   4.687   6.133   1.666
 2256SOL    HW1 7667   4.685   6.049   1.720
 2256SOL    HW2 7668   4.613   6.131   1.599
 2257SOL     OW 7669   0.326   1.913   4.393
 2257SOL    HW1 7670   0.401   1.949   4.448
 2257SOL    HW2 7671   0.341   1.935   4.297
 2258SOL     OW 7672   1.246   5.362   5.976
 2258SOL    HW1 7673   1.338   5.329   5.996
 2258SOL    HW2 7674   1.250   5.458   5.951
 2259SOL     OW 7675   5.143   3.983   6.315
 2259SOL    HW1 7676   5.105   4.073   6.333
 2259SOL    HW2 7677   5.075   3.926   6.269
 2260SOL     OW 7678   5.831   4.605   3.325
 2260SOL    HW1 7679   5.884   4.687   3.303
 2260SOL    HW2 7680   5.880   4.552   3.394
 2261SOL     OW 7681   6.815   6.032   0.697
 2261SOL    HW1 7682   6.834   6.087   0.616
 2261SOL    HW2 7683   6.894   6.034   0.758
 2262SOL     OW 7684   5.508   1.506   1.871
 2262SOL    HW1 7685   5.524   1.575   1.941
 2262SOL    HW2 7686   5.410   1.487   1.864
 2263SOL     OW 7687   2.581   5.974   6.622
 2263SOL    HW1 7688   2.636   5.959   6.705
 2263SOL    HW2 7689   2.492   5.931   6.634
 2264SOL     OW 7690   3.339   3.510   0.674
 2264SOL    HW1 7691   3.374   3.417   0.683
 2264SOL    HW2 7692   3.240   3.510   0.689
 2265SOL     OW 7693   0.715   0.797   4.160
 2265SOL    HW1 7694   0.779   0.744   4.214
 2265SOL    HW2 7695   0.715   0.764   4.066
 2266SOL     OW 7696   6.413   2.079   1.481
 2266SOL    HW1 7697   6.314   2.087   1.481
 2266SOL    HW2 7698   6.454   2.170   1.488
 2267SOL     OW 7699   5.536   2.691   4.903
 2267SOL    HW1 7700   5.492   2.664   4.818
 2267SOL    HW2 7701   5.551   2.790   4.902
 2268SOL     OW 7702   6.935   3.953   6.298
 2268SOL    HW1 7703   6.858   4.012   6.274
 2268SOL    HW2 7704   7.020   4.005   6.294
 2269SOL     OW 7705   5.998   5.792   4.782
 2269SOL    HW1 7706   6.012   5.891   4.769
 2269SOL    HW2 7707   5.939   5.758   4.708
 2270SOL     OW 7708   3.639   2.372   6.166
 2270SOL    HW1 7709   3.631   2.367   6.066
 2270SOL    HW2 7710   3.673   2.285   6.201
 2271SOL     OW 7711   6.228   4.287   0.660
 2271SOL    HW1 7712   6.217   4.229   0.580
 2271SOL    HW2 7713   6.259   4.378   0.632
 2272SOL     OW 7714   6.078   1.809   5.412
 2272SOL    HW1 7715   5.981   1.793   5.435
 2272SOL    HW2 7716   6.087   1.899   5.371
 2273SOL     OW 7717   1.598   0.382   2.121
 2273SOL    HW1 7718   1.563   0.469   2.086
 2273SOL    HW2 7719   1.527   0.337   2.176
 2274SOL     OW 7720   0.945   2.689   6.278
 2274SOL    HW1 7721   0.858   2.679   6.229
 2274SOL    HW2 7722   0.928   2.698   6.376
 2275SOL     OW 7723   5.688   0.887   4.031
 2275SOL    HW1 7724   5.684   0.964   4.095
 2275SOL    HW2 7725   5.685   0.801   4.082
 2276SOL     OW 7726   3.131   5.064   1.138
 2276SOL    HW1 7727   3.096   5.123   1.210
 2276SOL    HW2 7728   3.190   5.116   1.077
 2277SOL     OW 7729   3.240   3.095   5.640
 2277SOL    HW1 7730   3.175   3.159   5.681
 2277SOL    HW2 7731   3.327   3.141   5.624
 2278SOL     OW 7732   6.619   5.427   3.916
 2278SOL    HW1 7733   6.578   5.354   3.862
 2278SOL    HW2 7734   6.653   5.391   4.003
 2279SOL     OW 7735   4.654   6.278   4.659
 2279SOL    HW1 7736   4.591   6.312   4.589
 2279SOL    HW2 7737   4.698   6.194   4.627
 2280SOL     OW 7738   0.181   5.882   4.297
 2280SOL    HW1 7739   0.206   5.788   4.278
 2280SOL    HW2 7740   0.082   5.888   4.311
 2281SOL     OW 7741   3.553   1.522   1.220
 2281SOL    HW1 7742   3.617   1.445   1.215
 2281SOL    HW2 7743   3.463   1.491   1.190
 2282SOL     OW 7744   4.439   6.630   5.236
 2282SOL    HW1 7745   4.414   6.557   5.172
 2282SOL    HW2 7746   4.519   6.678   5.201
 2283SOL     OW 7747   6.547   4.566   1.738
 2283SOL    HW1 7748   6.545   4.466   1.740
 2283SOL    HW2 7749   6.642   4.597   1.731
 2284SOL     OW 7750   1.929   2.369   0.089
 2284SOL    HW1 7751   1.993   2.445   0.098
 2284SOL    HW2 7752   1.871   2.366   0.171
 2285SOL     OW 7753   2.044   2.601   0.795
 2285SOL    HW1 7754   2.091   2.513   0.790
 2285SOL    HW2 7755   1.970   2.595   0.862
 2286SOL     OW 7756   0.606   0.106   4.685
 2286SOL    HW1 7757   0.511   0.117   4.654
 2286SOL    HW2 7758   0.608   0.053   4.770
 2287SOL     OW 7759   1.837   1.692   2.841
 2287SOL    HW1 7760   1.838   1.616   2.906
 2287SOL    HW2 7761   1.745   1.700   2.801
 2288SOL     OW 7762   5.972   5.188   4.467
 2288SOL    HW1 7763   6.026   5.272   4.477
 2288SOL    HW2 7764   5.900   5.204   4.400
 2289SOL     OW 7765   6.521   4.435   2.641
 2289SOL    HW1 7766   6.506   4.390   2.729
 2289SOL    HW2 7767   6.612   4.477   2.641
 2290SOL     OW 7768   1.654   3.676   2.244
 2290SOL    HW1 7769   1.577   3.678   2.180
 2290SOL    HW2 7770   1.708   3.594   2.227
 2291SOL     OW 7771   2.524   2.753   6.545
 2291SOL    HW1 7772   2.431   2.789   6.547
 2291SOL    HW2 7773   2.529   2.668   6.597
 2292SOL     OW 7774   5.992   2.836   4.009
 2292SOL    HW1 7775   5.974   2.864   4.103
 2292SOL    HW2 7776   6.080   2.873   3.979
 2293SOL     OW 7777   5.604   6.750   1.375
 2293SOL    HW1 7778   5.630   6.712   1.286
 2293SOL    HW2 7779   5.669   6.721   1.445
 2294SOL     OW 7780   3.735   0.764   6.457
 2294SOL    HW1 7781   3.700   0.728   6.543
 2294SOL    HW2 7782   3.827   0.729   6.441
 2295SOL     OW 7783   0.478   1.815   2.692
 2295SOL    HW1 7784   0.513   1.902   2.726
 2295SOL    HW2 7785   0.482   1.747   2.766
 2296SOL     OW 7786   3.226   5.901   2.216
 2296SOL    HW1 7787   3.323   5.877   2.223
 2296SOL    HW2 7788   3.216   6.000   2.232
 2297SOL     OW 7789   5.248   4.487   4.894
 2297SOL    HW1 7790   5.283   4.449   4.980
 2297SOL    HW2 7791   5.246   4.415   4.825
 2298SOL     OW 7792   3.766   4.073   2.007
 2298SOL    HW1 7793   3.691   4.113   1.954
 2298SOL    HW2 7794   3.795   4.138   2.077
 2299SOL     OW 7795   4.664   4.391   5.107
 2299SOL    HW1 7796   4.762   4.376   5.100
 2299SOL    HW2 7797   4.620   4.364   5.022
 2300SOL     OW 7798   2.223   6.040   2.798
 2300SOL    HW1 7799   2.251   6.128   2.837
 2300SOL    HW2 7800   2.126   6.045   2.772
 2301SOL     OW 7801   3.481   2.917   3.014
 2301SOL    HW1 7802   3.397   2.897   3.066
 2301SOL    HW2 7803   3.458   2.977   2.937
 2302SOL     OW 7804   3.890   0.367   1.230
 2302SOL    HW1 7805   3.934   0.431   1.292
 2302SOL    HW2 7806   3.889   0.276   1.271
 2303SOL     OW 7807   2.343   3.241   0.080
 2303SOL    HW1 7808   2.407   3.306   0.122
 2303SOL    HW2 7809   2.252   3.257   0.116
 2304SOL     OW 7810   5.728   6.844   4.060
 2304SOL    HW1 7811   5.810   6.803   4.019
 2304SOL    HW2 7812   5.753   6.885   4.148
 2305SOL     OW 7813   2.644   0.412   2.827
 2305SOL    HW1 7814   2.615   0.508   2.826
 2305SOL    HW2 7815   2.575   0.358   2.875
 2306SOL     OW 7816   1.998   4.978   1.657
 2306SOL    HW1 7817   2.039   4.887   1.659
 2306SOL    HW2 7818   1.981   5.009   1.750
 2307SOL     OW 7819   0.023   3.183   4.084
 2307SOL    HW1 7820   7.000   3.227   4.162
 2307SOL    HW2 7821   0.059   3.094   4.113
 2308SOL     OW 7822   2.102   4.730   1.656
 2308SOL    HW1 7823   2.155   4.698   1.577
 2308SOL    HW2 7824   2.049   4.655   1.695
 2309SOL     OW 7825   1.740   0.802   6.058
 2309SOL    HW1 7826   1.752   0.756   6.146
 2309SOL    HW2 7827   1.648   0.782   6.022
 2310SOL     OW 7828   5.948   5.336   0.719
 2310SOL    HW1 7829   5.876   5.272   0.749
 2310SOL    HW2 7830   5.959   5.408   0.787
 2311SOL     OW 7831   2.086   0.406   1.354
 2311SOL    HW1 7832   1.989   0.425   1.345
 2311SOL    HW2 7833   2.138   0.465   1.293
 2312SOL     OW 7834   4.631   6.098   3.560
 2312SOL    HW1 7835   4.704   6.128   3.622
 2312SOL    HW2 7836   4.544   6.133   3.593
 2313SOL     OW 7837   5.432   5.734   1.610
 2313SOL    HW1 7838   5.405   5.783   1.693
 2313SOL    HW2 7839   5.372   5.761   1.534
 2314SOL     OW 7840   5.443   5.885   3.547
 2314SOL    HW1 7841   5.531   5.901   3.591
 2314SOL    HW2 7842   5.372   5.879   3.617
 2315SOL     OW 7843   5.107   3.038   6.696
 2315SOL    HW1 7844   5.195   3.030   6.649
 2315SOL    HW2 7845   5.088   2.954   6.747
 2316SOL     OW 7846   4.437   1.602   4.028
 2316SOL    HW1 7847   4.514   1.613   4.091
 2316SOL    HW2 7848   4.470   1.561   3.943
 2317SOL     OW 7849   0.586   6.482   3.338
 2317SOL    HW1 7850   0.611   6.403   3.281
 2317SOL    HW2 7851   0.554   6.449   3.427
 2318SOL     OW 7852   0.910   2.677   3.670
 2318SOL    HW1 7853   0.848   2.752   3.692
 2318SOL    HW2 7854   0.932   2.680   3.573
 2319SOL     OW 7855   1.728   4.837   3.640
 2319SOL    HW1 7856   1.820   4.877   3.630
 2319SOL    HW2 7857   1.728   4.744   3.604
 2320SOL     OW 7858   1.127   2.468   4.319
 2320SOL    HW1 7859   1.037   2.502   4.292
 2320SOL    HW2 7860   1.189   2.471   4.240
 2321SOL     OW 7861   2.843   7.002   6.377
 2321SOL    HW1 7862   2.803   0.072   6.380
 2321SOL    HW2 7863   2.887   6.982   6.465
 2322SOL     OW 7864   3.024   1.639   5.212
 2322SOL    HW1 7865   2.948   1.668   5.153
 2322SOL    HW2 7866   3.073   1.564   5.167
 2323SOL     OW 7867   2.253   5.070   1.970
 2323SOL    HW1 7868   2.293   5.139   1.910
 2323SOL    HW2 7869   2.268   5.097   2.066
 2324SOL     OW 7870   6.265   6.639   1.762
 2324SOL    HW1 7871   6.237   6.561   1.707
 2324SOL    HW2 7872   6.281   6.610   1.856
 2325SOL     OW 7873   1.444   4.625   2.297
 2325SOL    HW1 7874   1.396   4.669   2.221
 2325SOL    HW2 7875   1.536   4.600   2.268
 2326SOL     OW 7876   3.329   5.430   5.694
 2326SOL    HW1 7877   3.324   5.378   5.608
 2326SOL    HW2 7878   3.236   5.446   5.728
 2327SOL     OW 7879   6.178   3.256   5.349
 2327SOL    HW1 7880   6.181   3.353   5.325
 2327SOL    HW2 7881   6.146   3.246   5.443
 2328SOL     OW 7882   3.406   2.075   3.199
 2328SOL    HW1 7883   3.324   2.131   3.206
 2328SOL    HW2 7884   3.462   2.106   3.123
 2329SOL     OW 7885   1.564   3.895   5.017
 2329SOL    HW1 7886   1.512   3.863   4.938
 2329SOL    HW2 7887   1.508   3.957   5.072
 2330SOL     OW 7888   1.164   3.721   2.232
 2330SOL    HW1 7889   1.127   3.647   2.288
 2330SOL    HW2 7890   1.115   3.806   2.252
 2331SOL     OW 7891   6.388   3.973   0.572
 2331SOL    HW1 7892   6.362   4.048   0.511
 2331SOL    HW2 7893   6.437   3.903   0.520
 2332SOL     OW 7894   4.680   1.681   5.672
 2332SOL    HW1 7895   4.580   1.683   5.681
 2332SOL    HW2 7896   4.704   1.693   5.576
 2333SOL     OW 7897   0.044   5.921   3.038
 2333SOL    HW1 7898   0.005   5.926   3.131
 2333SOL    HW2 7899   7.017   5.985   2.979
 2334SOL     OW 7900   2.341   0.452   0.076
 2334SOL    HW1 7901   2.265   0.480   0.135
 2334SOL    HW2 7902   2.396   0.384   0.123
 2335SOL     OW 7903   5.968   1.297   3.370
 2335SOL    HW1 7904   5.911   1.253   3.300
 2335SOL    HW2 7905   6.059   1.256   3.370
 2336SOL     OW 7906   4.144   1.830   4.997
 2336SOL    HW1 7907   4.131   1.735   4.971
 2336SOL    HW2 7908   4.065   1.861   5.049
 2337SOL     OW 7909   4.567   0.810   3.613
 2337SOL    HW1 7910   4.587   0.819   3.711
 2337SOL    HW2 7911   4.629   0.869   3.561
 2338SOL     OW 7912   1.201   1.069   6.523
 2338SOL    HW1 7913   1.256   0.985   6.518
 2338SOL    HW2 7914   1.222   1.127   6.444
 2339SOL     OW 7915   3.284   3.978   5.339
 2339SOL    HW1 7916   3.378   3.969   5.306
 2339SOL    HW2 7917   3.225   4.010   5.265
 2340SOL     OW 7918   5.523   5.054   6.582
 2340SOL    HW1 7919   5.527   5.035   6.680
 2340SOL    HW2 7920   5.427   5.053   6.552
 2341SOL     OW 7921   5.211   4.767   1.315
 2341SOL    HW1 7922   5.264   4.697   1.268
 2341SOL    HW2 7923   5.267   4.850   1.326
 2342SOL     OW 7924   0.185   6.257   5.002
 2342SOL    HW1 7925   0.174   6.262   4.903
 2342SOL    HW2 7926   0.186   6.349   5.041
 2343SOL     OW 7927   1.658   6.667   2.564
 2343SOL    HW1 7928   1.677   6.761   2.592
 2343SOL    HW2 7929   1.564   6.659   2.533
 2344SOL     OW 7930   1.738   0.858   0.982
 2344SOL    HW1 7931   1.726   0.800   1.063
 2344SOL    HW2 7932   1.821   0.913   0.992
 2345SOL     OW 7933   2.037   5.282   5.486
 2345SOL    HW1 7934   2.071   5.272   5.580
 2345SOL    HW2 7935   2.106   5.330   5.432
 2346SOL     OW 7936   4.851   3.256   4.632
 2346SOL    HW1 7937   4.857   3.288   4.727
 2346SOL    HW2 7938   4.862   3.334   4.570
 2347SOL     OW 7939   2.288   3.757   1.844
 2347SOL    HW1 7940   2.293   3.785   1.940
 2347SOL    HW2 7941   2.321   3.663   1.835
 2348SOL     OW 7942   3.663   5.960   3.825
 2348SOL    HW1 7943   3.586   5.912   3.783
 2348SOL    HW2 7944   3.748   5.909   3.806
 2349SOL     OW 7945   0.769   5.049   6.285
 2349SOL    HW1 7946   0.853   5.063   6.232
 2349SOL    HW2 7947   0.703   4.997   6.231
 2350SOL     OW 7948   5.348   6.819   6.551
 2350SOL    HW1 7949   5.317   6.781   6.464
 2350SOL    HW2 7950   5.349   6.919   6.546
 2351SOL     OW 7951   3.576   5.346   2.540
 2351SOL    HW1 7952   3.662   5.298   2.518
 2351SOL    HW2 7953   3.563   5.421   2.475
 2352SOL     OW 7954   1.376   3.774   2.428
 2352SOL    HW1 7955   1.338   3.778   2.336
 2352SOL    HW2 7956   1.432   3.691   2.437
 2353SOL     OW 7957   2.813   4.812   4.831
 2353SOL    HW1 7958   2.817   4.727   4.883
 2353SOL    HW2 7959   2.861   4.801   4.744
 2354SOL     OW 7960   3.021   1.789   6.530
 2354SOL    HW1 7961   3.056   1.813   6.440
 2354SOL    HW2 7962   2.927   1.822   6.539
 2355SOL     OW 7963   1.036   5.448   6.636
 2355SOL    HW1 7964   0.988   5.536   6.640
 2355SOL    HW2 7965   1.062   5.429   6.541
 2356SOL     OW 7966   2.454   4.141   0.544
 2356SOL    HW1 7967   2.362   4.141   0.582
 2356SOL    HW2 7968   2.475   4.231   0.507
 2357SOL     OW 7969   4.081   5.300   3.677
 2357SOL    HW1 7970   4.059   5.396   3.691
 2357SOL    HW2 7971   4.089   5.282   3.578
 2358SOL     OW 7972   2.538   5.438   4.807
 2358SOL    HW1 7973   2.635   5.460   4.822
 2358SOL    HW2 7974   2.515   5.353   4.853
 2359SOL     OW 7975   0.015   1.035   5.811
 2359SOL    HW1 7976   0.003   1.128   5.845
 2359SOL    HW2 7977   0.086   0.989   5.863
 2360SOL     OW 7978   4.698   5.940   5.770
 2360SOL    HW1 7979   4.682   6.029   5.813
 2360SOL    HW2 7980   4.651   5.937   5.682
 2361SOL     OW 7981   2.868   7.007   4.844
 2361SOL    HW1 7982   2.788   6.965   4.801
 2361SOL    HW2 7983   2.914   0.045   4.778
 2362SOL     OW 7984   3.501   6.509   5.726
 2362SOL    HW1 7985   3.470   6.580   5.662
 2362SOL    HW2 7986   3.443   6.428   5.717
 2363SOL     OW 7987   4.813   2.593   5.593
 2363SOL    HW1 7988   4.848   2.577   5.501
 2363SOL    HW2 7989   4.847   2.681   5.627
 2364SOL     OW 7990   0.222   2.503   3.032
 2364SOL    HW1 7991   0.247   2.582   3.088
 2364SOL    HW2 7992   0.219   2.531   2.936
 2365SOL     OW 7993   5.873   2.596   6.205
 2365SOL    HW1 7994   5.796   2.568   6.148
 2365SOL    HW2 7995   5.879   2.696   6.206
 2366SOL     OW 7996   1.255   4.199   5.456
 2366SOL    HW1 7997   1.177   4.164   5.405
 2366SOL    HW2 7998   1.254   4.162   5.549
 2367SOL     OW 7999   2.616   3.474   6.840
 2367SOL    HW1 8000   2.564   3.554   6.870
 2367SOL    HW2 8001   2.552   3.402   6.812
 2368SOL     OW 8002   4.801   0.650   3.666
 2368SOL    HW1 8003   4.790   0.660   3.567
 2368SOL    HW2 8004   4.898   0.656   3.690
 2369SOL     OW 8005   2.297   2.894   4.390
 2369SOL    HW1 8006   2.339   2.819   4.440
 2369SOL    HW2 8007   2.286   2.972   4.451
 2370SOL     OW 8008   4.243   4.150   6.530
 2370SOL    HW1 8009   4.295   4.173   6.447
 2370SOL    HW2 8010   4.184   4.071   6.512
 2371SOL     OW 8011   1.315   6.441   1.862
 2371SOL    HW1 8012   1.367   6.497   1.926
 2371SOL    HW2 8013   1.268   6.368   1.912
 2372SOL     OW 8014   1.176   2.426   0.984
 2372SOL    HW1 8015   1.214   2.420   1.076
 2372SOL    HW2 8016   1.077   2.435   0.989
 2373SOL     OW 8017   5.751   0.407   6.639
 2373SOL    HW1 8018   5.765   0.461   6.721
 2373SOL    HW2 8019   5.746   0.468   6.559
 2374SOL     OW 8020   6.387   0.617   3.714
 2374SOL    HW1 8021   6.419   0.533   3.758
 2374SOL    HW2 8022   6.440   0.694   3.748
 2375SOL     OW 8023   1.717   6.934   4.105
 2375SOL    HW1 8024   1.709   7.018   4.158
 2375SOL    HW2 8025   1.777   6.950   4.026
 2376SOL     OW 8026   6.462   2.420   4.327
 2376SOL    HW1 8027   6.548   2.472   4.320
 2376SOL    HW2 8028   6.386   2.480   4.302
 2377SOL     OW 8029   3.417   4.153   3.633
 2377SOL    HW1 8030   3.500   4.208   3.638
 2377SOL    HW2 8031   3.438   4.058   3.657
 2378SOL     OW 8032   5.478   1.704   6.625
 2378SOL    HW1 8033   5.571   1.737   6.637
 2378SOL    HW2 8034   5.476   1.633   6.553
 2379SOL     OW 8035   0.110   1.500   6.696
 2379SOL    HW1 8036   0.139   1.592   6.723
 2379SOL    HW2 8037   0.162   1.470   6.616
 2380SOL     OW 8038   6.993   6.736   5.819
 2380SOL    HW1 8039   6.909   6.789   5.829
 2380SOL    HW2 8040   0.030   6.751   5.898
 2381SOL     OW 8041   2.233   4.191   4.211
 2381SOL    HW1 8042   2.240   4.096   4.182
 2381SOL    HW2 8043   2.299   4.247   4.159
 2382SOL     OW 8044   2.089   4.819   2.567
 2382SOL    HW1 8045   2.035   4.849   2.646
 2382SOL    HW2 8046   2.186   4.821   2.590
 2383SOL     OW 8047   5.183   6.152   6.766
 2383SOL    HW1 8048   5.222   6.202   6.843
 2383SOL    HW2 8049   5.256   6.116   6.708
 2384SOL     OW 8050   1.144   0.525   2.251
 2384SOL    HW1 8051   1.197   0.591   2.305
 2384SOL    HW2 8052   1.059   0.567   2.221
 2385SOL     OW 8053   6.155   0.326   1.155
 2385SOL    HW1 8054   6.108   0.414   1.145
 2385SOL    HW2 8055   6.182   0.292   1.065
 2386SOL     OW 8056   4.178   5.177   4.477
 2386SOL    HW1 8057   4.274   5.172   4.503
 2386SOL    HW2 8058   4.154   5.098   4.421
 2387SOL     OW 8059   6.619   2.839   4.508
 2387SOL    HW1 8060   6.585   2.880   4.423
 2387SOL    HW2 8061   6.707   2.796   4.491
 2388SOL     OW 8062   1.049   1.763   5.061
 2388SOL    HW1 8063   1.101   1.679   5.076
 2388SOL    HW2 8064   1.002   1.789   5.145
 2389SOL     OW 8065   5.060   4.095   3.794
 2389SOL    HW1 8066   5.141   4.062   3.842
 2389SOL    HW2 8067   5.088   4.147   3.713
 2390SOL     OW 8068   3.589   3.517   4.515
 2390SOL    HW1 8069   3.569   3.605   4.472
 2390SOL    HW2 8070   3.504   3.466   4.528
 2391SOL     OW 8071   4.122   4.291   5.792
 2391SOL    HW1 8072   4.203   4.263   5.843
 2391SOL    HW2 8073   4.062   4.212   5.780
 2392SOL     OW 8074   3.112   5.966   5.659
 2392SOL    HW1 8075   3.126   6.016   5.744
 2392SOL    HW2 8076   3.040   6.009   5.605
 2393SOL     OW 8077   3.308   5.599   0.912
 2393SOL    HW1 8078   3.362   5.642   0.839
 2393SOL    HW2 8079   3.353   5.613   1.000
 2394SOL     OW 8080   1.469   3.615   5.152
 2394SOL    HW1 8081   1.529   3.678   5.202
 2394SOL    HW2 8082   1.480   3.631   5.054
 2395SOL     OW 8083   6.705   2.273   0.037
 2395SOL    HW1 8084   6.782   2.287   6.997
 2395SOL    HW2 8085   6.723   2.193   0.094
 2396SOL     OW 8086   4.992   5.697   0.318
 2396SOL    HW1 8087   4.982   5.778   0.375
 2396SOL    HW2 8088   5.024   5.621   0.373
 2397SOL     OW 8089   6.917   5.002   0.368
 2397SOL    HW1 8090   6.837   4.944   0.357
 2397SOL    HW2 8091   6.983   4.984   0.294
 2398SOL     OW 8092   2.721   4.968   6.033
 2398SOL    HW1 8093   2.780   4.887   6.028
 2398SOL    HW2 8094   2.724   5.016   5.945
 2399SOL     OW 8095   4.565   1.877   1.941
 2399SOL    HW1 8096   4.609   1.956   1.896
 2399SOL    HW2 8097   4.467   1.880   1.924
 2400SOL     OW 8098   3.905   4.744   0.732
 2400SOL    HW1 8099   4.003   4.742   0.755
 2400SOL    HW2 8100   3.880   4.659   0.686
 2401SOL     OW 8101   3.838   0.571   5.436
 2401SOL    HW1 8102   3.914   0.528   5.388
 2401SOL    HW2 8103   3.815   0.518   5.517
 2402SOL     OW 8104   6.878   2.669   4.426
 2402SOL    HW1 8105   6.883   2.620   4.338
 2402SOL    HW2 8106   6.943   2.629   4.490
 2403SOL     OW 8107   2.926   2.703   6.758
 2403SOL    HW1 8108   2.893   2.636   6.823
 2403SOL    HW2 8109   2.969   2.657   6.680
 2404SOL     OW 8110   5.428   1.230   2.579
 2404SOL    HW1 8111   5.517   1.250   2.621
 2404SOL    HW2 8112   5.435   1.238   2.480
 2405SOL     OW 8113   3.825   4.050   5.051
 2405SOL    HW1 8114   3.892   4.054   4.976
 2405SOL    HW2 8115   3.796   4.143   5.075
 2406SOL     OW 8116   1.843   0.401   3.585
 2406SOL    HW1 8117   1.939   0.417   3.561
 2406SOL    HW2 8118   1.791   0.486   3.572
 2407SOL     OW 8119   4.654   1.936   3.419
 2407SOL    HW1 8120   4.679   2.023   3.378
 2407SOL    HW2 8121   4.555   1.925   3.417
 2408SOL     OW 8122   3.931   5.313   2.787
 2408SOL    HW1 8123   3.889   5.403   2.801
 2408SOL    HW2 8124   3.859   5.243   2.785
 2409SOL     OW 8125   2.190   3.002   2.144
 2409SOL    HW1 8126   2.178   3.092   2.103
 2409SOL    HW2 8127   2.107   2.948   2.133
 2410SOL     OW 8128   6.662   2.518   5.536
 2410SOL    HW1 8129   6.566   2.546   5.527
 2410SOL    HW2 8130   6.721   2.590   5.501
 2411SOL     OW 8131   3.794   4.599   5.744
 2411SOL    HW1 8132   3.789   4.624   5.841
 2411SOL    HW2 8133   3.888   4.611   5.711
 2412SOL     OW 8134   2.809   4.468   7.011
 2412SOL    HW1 8135   2.790   4.536   0.061
 2412SOL    HW2 8136   2.892   4.495   6.963
 2413SOL     OW 8137   6.594   3.218   6.791
 2413SOL    HW1 8138   6.671   3.156   6.804
 2413SOL    HW2 8139   6.513   3.165   6.763
 2414SOL     OW 8140   5.909   3.876   2.824
 2414SOL    HW1 8141   5.928   3.974   2.824
 2414SOL    HW2 8142   5.882   3.848   2.916
 2415SOL     OW 8143   1.648   0.187   1.137
 2415SOL    HW1 8144   1.579   0.150   1.199
 2415SOL    HW2 8145   1.627   0.159   1.043
 2416SOL     OW 8146   2.754   1.356   5.034
 2416SOL    HW1 8147   2.852   1.356   5.012
 2416SOL    HW2 8148   2.741   1.325   5.128
 2417SOL     OW 8149   4.481   2.710   0.337
 2417SOL    HW1 8150   4.474   2.680   0.241
 2417SOL    HW2 8151   4.517   2.803   0.340
 2418SOL     OW 8152   3.237   3.450   4.358
 2418SOL    HW1 8153   3.182   3.396   4.295
 2418SOL    HW2 8154   3.330   3.414   4.361
 2419SOL     OW 8155   0.322   6.591   4.095
 2419SOL    HW1 8156   0.225   6.571   4.103
 2419SOL    HW2 8157   0.371   6.550   4.172
 2420SOL     OW 8158   4.182   6.914   2.617
 2420SOL    HW1 8159   4.173   6.922   2.716
 2420SOL    HW2 8160   4.268   6.955   2.587
 2421SOL     OW 8161   2.805   0.651   4.395
 2421SOL    HW1 8162   2.821   0.556   4.424
 2421SOL    HW2 8163   2.856   0.712   4.455
 2422SOL     OW 8164   5.606   0.639   1.058
 2422SOL    HW1 8165   5.612   0.539   1.061
 2422SOL    HW2 8166   5.683   0.679   1.106
 2423SOL     OW 8167   0.935   6.144   3.204
 2423SOL    HW1 8168   0.946   6.206   3.126
 2423SOL    HW2 8169   1.016   6.086   3.211
 2424SOL     OW 8170   5.706   5.437   6.202
 2424SOL    HW1 8171   5.633   5.506   6.209
 2424SOL    HW2 8172   5.758   5.452   6.118
 2425SOL     OW 8173   5.933   0.018   4.497
 2425SOL    HW1 8174   5.862   6.975   4.471
 2425SOL    HW2 8175   5.988   7.000   4.571
 2426SOL     OW 8176   1.025   4.781   4.502
 2426SOL    HW1 8177   1.078   4.797   4.585
 2426SOL    HW2 8178   0.936   4.742   4.526
 2427SOL     OW 8179   6.715   5.526   0.169
 2427SOL    HW1 8180   6.641   5.487   0.224
 2427SOL    HW2 8181   6.801   5.519   0.220
 2428SOL     OW 8182   1.074   7.000   3.415
 2428SOL    HW1 8183   1.165   6.973   3.386
 2428SOL    HW2 8184   1.034   6.928   3.472
 2429SOL     OW 8185   6.610   5.499   3.406
 2429SOL    HW1 8186   6.604   5.568   3.334
 2429SOL    HW2 8187   6.706   5.481   3.427
 2430SOL     OW 8188   6.256   2.356   1.262
 2430SOL    HW1 8189   6.283   2.336   1.168
 2430SOL    HW2 8190   6.218   2.273   1.304
 2431SOL     OW 8191   4.204   0.465   2.028
 2431SOL    HW1 8192   4.115   0.504   2.005
 2431SOL    HW2 8193   4.266   0.475   1.950
 2432SOL     OW 8194   4.143   6.473   2.908
 2432SOL    HW1 8195   4.209   6.529   2.857
 2432SOL    HW2 8196   4.175   6.462   3.002
 2433SOL     OW 8197   3.457   6.657   0.877
 2433SOL    HW1 8198   3.496   6.710   0.953
 2433SOL    HW2 8199   3.362   6.685   0.863
 2434SOL     OW 8200   4.985   1.590   3.448
 2434SOL    HW1 8201   4.992   1.568   3.546
 2434SOL    HW2 8202   5.023   1.515   3.394
 2435SOL     OW 8203   4.637   5.689   7.013
 2435SOL    HW1 8204   4.552   5.706   6.963
 2435SOL    HW2 8205   4.704   5.646   6.952
 2436SOL     OW 8206   2.506   0.659   0.673
 2436SOL    HW1 8207   2.483   0.712   0.754
 2436SOL    HW2 8208   2.452   0.692   0.595
 2437SOL     OW 8209   5.350   5.612   0.589
 2437SOL    HW1 8210   5.435   5.611   0.641
 2437SOL    HW2 8211   5.301   5.526   0.602
 2438SOL     OW 8212   4.070   0.936   5.677
 2438SOL    HW1 8213   4.103   0.909   5.586
 2438SOL    HW2 8214   4.029   0.856   5.722
 2439SOL     OW 8215   1.080   4.159   0.151
 2439SOL    HW1 8216   1.004   4.102   0.183
 2439SOL    HW2 8217   1.071   4.172   0.052
 2440SOL     OW 8218   3.633   6.391   4.897
 2440SOL    HW1 8219   3.653   6.359   4.989
 2440SOL    HW2 8220   3.614   6.313   4.838
 2441SOL     OW 8221   6.433   1.570   6.862
 2441SOL    HW1 8222   6.417   1.653   6.916
 2441SOL    HW2 8223   6.495   1.591   6.787
 2442SOL     OW 8224   6.152   5.974   3.701
 2442SOL    HW1 8225   6.249   5.964   3.676
 2442SOL    HW2 8226   6.095   5.929   3.632
 2443SOL     OW 8227   2.945   6.980   6.643
 2443SOL    HW1 8228   3.038   7.018   6.644
 2443SOL    HW2 8229   2.934   6.916   6.720
 2444SOL     OW 8230   3.762   4.188   6.357
 2444SOL    HW1 8231   3.723   4.096   6.353
 2444SOL    HW2 8232   3.690   4.255   6.336
 2445SOL     OW 8233   0.125   1.153   2.508
 2445SOL    HW1 8234   0.165   1.200   2.587
 2445SOL    HW2 8235   0.198   1.110   2.455
 2446SOL     OW 8236   0.581   3.005   4.165
 2446SOL    HW1 8237   0.609   2.923   4.215
 2446SOL    HW2 8238   0.560   3.078   4.231
 2447SOL     OW 8239   3.008   0.881   1.089
 2447SOL    HW1 8240   3.076   0.885   1.162
 2447SOL    HW2 8241   2.959   0.967   1.084
 2448SOL     OW 8242   0.053   0.582   3.977
 2448SOL    HW1 8243   0.067   0.609   3.882
 2448SOL    HW2 8244   0.082   0.487   3.989
 2449SOL     OW 8245   6.213   4.573   2.911
 2449SOL    HW1 8246   6.244   4.483   2.883
 2449SOL    HW2 8247   6.251   4.643   2.851
 2450SOL     OW 8248   3.024   5.626   5.040
 2450SOL    HW1 8249   3.090   5.632   5.115
 2450SOL    HW2 8250   3.072   5.630   4.952
 2451SOL     OW 8251   0.714   0.403   3.817
 2451SOL    HW1 8252   0.738   0.306   3.816
 2451SOL    HW2 8253   0.616   0.414   3.804
 2452SOL     OW 8254   2.705   2.279   3.206
 2452SOL    HW1 8255   2.717   2.235   3.117
 2452SOL    HW2 8256   2.691   2.208   3.276
 2453SOL     OW 8257   6.304   3.197   1.069
 2453SOL    HW1 8258   6.394   3.212   1.028
 2453SOL    HW2 8259   6.243   3.156   1.001
 2454SOL     OW 8260   3.373   0.798   0.202
 2454SOL    HW1 8261   3.286   0.788   0.155
 2454SOL    HW2 8262   3.422   0.877   0.166
 2455SOL     OW 8263   4.827   0.698   0.949
 2455SOL    HW1 8264   4.859   0.734   1.037
 2455SOL    HW2 8265   4.728   0.714   0.941
 2456SOL     OW 8266   5.656   1.417   0.461
 2456SOL    HW1 8267   5.643   1.513   0.483
 2456SOL    HW2 8268   5.712   1.374   0.532
 2457SOL     OW 8269   6.863   5.969   6.253
 2457SOL    HW1 8270   6.818   5.881   6.237
 2457SOL    HW2 8271   6.956   5.954   6.286
 2458SOL     OW 8272   2.525   5.689   3.961
 2458SOL    HW1 8273   2.443   5.718   4.010
 2458SOL    HW2 8274   2.530   5.738   3.874
 2459SOL     OW 8275   2.862   5.938   6.023
 2459SOL    HW1 8276   2.841   5.840   6.016
 2459SOL    HW2 8277   2.945   5.958   5.970
 2460SOL     OW 8278   1.808   1.253   1.880
 2460SOL    HW1 8279   1.805   1.236   1.782
 2460SOL    HW2 8280   1.864   1.334   1.898
 2461SOL     OW 8281   4.672   0.174   3.214
 2461SOL    HW1 8282   4.685   0.101   3.147
 2461SOL    HW2 8283   4.608   0.241   3.177
 2462SOL     OW 8284   1.749   5.750   0.614
 2462SOL    HW1 8285   1.686   5.676   0.589
 2462SOL    HW2 8286   1.705   5.811   0.680
 2463SOL     OW 8287   6.840   2.509   5.137
 2463SOL    HW1 8288   6.824   2.458   5.053
 2463SOL    HW2 8289   6.921   2.567   5.126
 2464SOL     OW 8290   2.125   4.197   1.949
 2464SOL    HW1 8291   2.185   4.182   1.870
 2464SOL    HW2 8292   2.030   4.206   1.918
 2465SOL     OW 8293   0.625   0.156   1.874
 2465SOL    HW1 8294   0.603   0.060   1.859
 2465SOL    HW2 8295   0.703   0.163   1.935
 2466SOL     OW 8296   2.612   1.946   2.795
 2466SOL    HW1 8297   2.574   1.858   2.826
 2466SOL    HW2 8298   2.708   1.933   2.768
 2467SOL     OW 8299   5.492   1.125   4.593
 2467SOL    HW1 8300   5.569   1.096   4.649
 2467SOL    HW2 8301   5.453   1.209   4.630
 2468SOL     OW 8302   5.100   6.194   2.073
 2468SOL    HW1 8303   5.184   6.211   2.125
 2468SOL    HW2 8304   5.035   6.144   2.130
 2469SOL     OW 8305   4.162   4.044   5.342
 2469SOL    HW1 8306   4.153   4.131   5.293
 2469SOL    HW2 8307   4.206   4.060   5.430
 2470SOL     OW 8308   3.690   5.004   6.238
 2470SOL    HW1 8309   3.630   4.986   6.160
 2470SOL    HW2 8310   3.781   4.969   6.220
 2471SOL     OW 8311   2.718   5.871   0.987
 2471SOL    HW1 8312   2.761   5.781   0.989
 2471SOL    HW2 8313   2.716   5.909   1.080
 2472SOL     OW 8314   5.390   2.611   4.670
 2472SOL    HW1 8315   5.353   2.518   4.668
 2472SOL    HW2 8316   5.469   2.616   4.609
 2473SOL     OW 8317   2.125   3.847   4.921
 2473SOL    HW1 8318   2.041   3.897   4.940
 2473SOL    HW2 8319   2.204   3.906   4.937
 2474SOL     OW 8320   0.387   6.458   0.846
 2474SOL    HW1 8321   0.429   6.370   0.823
 2474SOL    HW2 8322   0.319   6.444   0.918
 2475SOL     OW 8323   4.836   1.456   1.643
 2475SOL    HW1 8324   4.810   1.398   1.721
 2475SOL    HW2 8325   4.877   1.541   1.678
 2476SOL     OW 8326   6.985   1.871   3.629
 2476SOL    HW1 8327   7.014   1.941   3.563
 2476SOL    HW2 8328   6.903   1.825   3.594
 2477SOL     OW 8329   4.802   1.672   2.509
 2477SOL    HW1 8330   4.886   1.619   2.519
 2477SOL    HW2 8331   4.817   1.748   2.446
 2478SOL     OW 8332   6.238   1.158   2.029
 2478SOL    HW1 8333   6.188   1.080   2.067
 2478SOL    HW2 8334   6.286   1.206   2.103
 2479SOL     OW 8335   1.653   3.835   1.388
 2479SOL    HW1 8336   1.629   3.739   1.375
 2479SOL    HW2 8337   1.581   3.880   1.441
 2480SOL     OW 8338   6.186   3.778   0.671
 2480SOL    HW1 8339   6.177   3.685   0.636
 2480SOL    HW2 8340   6.256   3.827   0.618
 2481SOL     OW 8341   2.863   0.885   0.111
 2481SOL    HW1 8342   2.904   0.941   0.183
 2481SOL    HW2 8343   2.866   0.934   0.024
 2482SOL     OW 8344   4.601   2.931   5.588
 2482SOL    HW1 8345   4.633   3.025   5.597
 2482SOL    HW2 8346   4.526   2.927   5.521
 2483SOL     OW 8347   2.282   2.276   6.941
 2483SOL    HW1 8348   2.205   2.227   6.899
 2483SOL    HW2 8349   2.311   2.350   6.880
 2484SOL     OW 8350   2.569   0.538   6.945
 2484SOL    HW1 8351   2.648   0.535   7.006
 2484SOL    HW2 8352   2.486   0.552   6.998
 2485SOL     OW 8353   5.699   3.613   1.656
 2485SOL    HW1 8354   5.668   3.704   1.630
 2485SOL    HW2 8355   5.729   3.613   1.751
 2486SOL     OW 8356   2.224   4.764   4.505
 2486SOL    HW1 8357   2.283   4.736   4.430
 2486SOL    HW2 8358   2.188   4.683   4.551
 2487SOL     OW 8359   3.868   6.148   0.114
 2487SOL    HW1 8360   3.940   6.107   0.170
 2487SOL    HW2 8361   3.868   6.105   0.024
 2488SOL     OW 8362   1.878   4.361   2.337
 2488SOL    HW1 8363   1.875   4.268   2.373
 2488SOL    HW2 8364   1.925   4.421   2.401
 2489SOL     OW 8365   1.572   5.634   3.110
 2489SOL    HW1 8366   1.566   5.718   3.163
 2489SOL    HW2 8367   1.480   5.600   3.090
 2490SOL     OW 8368   6.402   5.262   1.643
 2490SOL    HW1 8369   6.474   5.325   1.612
 2490SOL    HW2 8370   6.441   5.172   1.659
 2491SOL     OW 8371   2.655   5.474   0.828
 2491SOL    HW1 8372   2.591   5.498   0.900
 2491SOL    HW2 8373   2.607   5.427   0.754
 2492SOL     OW 8374   4.391   2.949   6.845
 2492SOL    HW1 8375   4.456   2.876   6.865
 2492SOL    HW2 8376   4.393   3.017   6.918
 2493SOL     OW 8377   6.568   0.220   2.329
 2493SOL    HW1 8378   6.481   0.252   2.368
 2493SOL    HW2 8379   6.640   0.285   2.351
 2494SOL     OW 8380   6.155   4.375   1.970
 2494SOL    HW1 8381   6.138   4.372   2.068
 2494SOL    HW2 8382   6.087   4.434   1.926
 2495SOL     OW 8383   5.208   0.332   4.519
 2495SOL    HW1 8384   5.170   0.374   4.602
 2495SOL    HW2 8385   5.187   0.389   4.440
 2496SOL     OW 8386   0.406   3.914   6.165
 2496SOL    HW1 8387   0.398   3.846   6.238
 2496SOL    HW2 8388   0.467   3.987   6.195
 2497SOL     OW 8389   0.139   1.450   0.833
 2497SOL    HW1 8390   0.064   1.515   0.824
 2497SOL    HW2 8391   0.147   1.420   0.928
 2498SOL     OW 8392   3.617   2.155   3.962
 2498SOL    HW1 8393   3.712   2.143   3.992
 2498SOL    HW2 8394   3.595   2.253   3.960
 2499SOL     OW 8395   5.164   2.556   4.411
 2499SOL    HW1 8396   5.073   2.542   4.450
 2499SOL    HW2 8397   5.205   2.467   4.391
 2500SOL     OW 8398   4.222   2.908   6.628
 2500SOL    HW1 8399   4.161   2.832   6.653
 2500SOL    HW2 8400   4.297   2.914   6.695
 2501SOL     OW 8401   6.621   5.766   0.322
 2501SOL    HW1 8402   6.707   5.774   0.272
 2501SOL    HW2 8403   6.553   5.828   0.282
 2502SOL     OW 8404   2.279   6.045   3.184
 2502SOL    HW1 8405   2.352   6.072   3.247
 2502SOL    HW2 8406   2.209   6.117   3.181
 2503SOL     OW 8407   3.199   5.063   5.310
 2503SOL    HW1 8408   3.296   5.048   5.290
 2503SOL    HW2 8409   3.153   5.096   5.228
 2504SOL     OW 8410   2.256   5.027   5.295
 2504SOL    HW1 8411   2.301   4.946   5.257
 2504SOL    HW2 8412   2.172   5.046   5.245
 2505SOL     OW 8413   1.730   6.092   3.898
 2505SOL    HW1 8414   1.651   6.114   3.956
 2505SOL    HW2 8415   1.698   6.050   3.813
 2506SOL     OW 8416   5.867   3.409   6.699
 2506SOL    HW1 8417   5.810   3.477   6.653
 2506SOL    HW2 8418   5.957   3.448   6.716
 2507SOL     OW 8419   1.160   4.127   1.068
 2507SOL    HW1 8420   1.218   4.195   1.113
 2507SOL    HW2 8421   1.067   4.163   1.060
 2508SOL     OW 8422   2.926   1.346   2.150
 2508SOL    HW1 8423   2.882   1.293   2.078
 2508SOL    HW2 8424   2.856   1.394   2.204
 2509SOL     OW 8425   6.026   2.387   2.852
 2509SOL    HW1 8426   5.951   2.424   2.796
 2509SOL    HW2 8427   6.056   2.456   2.918
 2510SOL     OW 8428   3.299   4.317   1.429
 2510SOL    HW1 8429   3.282   4.225   1.465
 2510SOL    HW2 8430   3.342   4.310   1.339
 2511SOL     OW 8431   2.547   1.761   4.187
 2511SOL    HW1 8432   2.627   1.809   4.151
 2511SOL    HW2 8433   2.564   1.734   4.281
 2512SOL     OW 8434   4.774   5.229   5.261
 2512SOL    HW1 8435   4.836   5.208   5.337
 2512SOL    HW2 8436   4.707   5.298   5.290
 2513SOL     OW 8437   1.621   3.271   5.172
 2513SOL    HW1 8438   1.558   3.271   5.094
 2513SOL    HW2 8439   1.656   3.364   5.186
 2514SOL     OW 8440   6.281   3.550   4.156
 2514SOL    HW1 8441   6.257   3.530   4.061
 2514SOL    HW2 8442   6.313   3.467   4.201
 2515SOL     OW 8443   1.430   6.767   0.131
 2515SOL    HW1 8444   1.498   6.695   0.119
 2515SOL    HW2 8445   1.470   6.855   0.104
 2516SOL     OW 8446   5.862   0.264   3.421
 2516SOL    HW1 8447   5.794   0.268   3.494
 2516SOL    HW2 8448   5.817   0.246   3.334
 2517SOL     OW 8449   1.105   5.742   5.821
 2517SOL    HW1 8450   1.200   5.730   5.848
 2517SOL    HW2 8451   1.050   5.666   5.858
 2518SOL     OW 8452   2.507   3.739   6.886
 2518SOL    HW1 8453   2.563   3.761   6.966
 2518SOL    HW2 8454   2.500   3.820   6.827
 2519SOL     OW 8455   4.586   6.045   3.919
 2519SOL    HW1 8456   4.655   6.112   3.895
 2519SOL    HW2 8457   4.595   5.964   3.860
 2520SOL     OW 8458   0.873   3.307   0.160
 2520SOL    HW1 8459   0.843   3.294   0.066
 2520SOL    HW2 8460   0.967   3.275   0.170
 2521SOL     OW 8461   1.142   6.376   5.750
 2521SOL    HW1 8462   1.121   6.434   5.672
 2521SOL    HW2 8463   1.137   6.429   5.834
 2522SOL     OW 8464   6.934   3.049   5.844
 2522SOL    HW1 8465   6.861   2.991   5.808
 2522SOL    HW2 8466   6.946   3.128   5.783
 2523SOL     OW 8467   0.082   3.005   1.486
 2523SOL    HW1 8468   0.022   3.055   1.423
 2523SOL    HW2 8469   0.050   2.910   1.494
 2524SOL     OW 8470   1.041   5.286   4.731
 2524SOL    HW1 8471   1.107   5.231   4.680
 2524SOL    HW2 8472   0.997   5.352   4.669
 2525SOL     OW 8473   0.906   2.610   4.250
 2525SOL    HW1 8474   0.939   2.690   4.199
 2525SOL    HW2 8475   0.813   2.589   4.221
 2526SOL     OW 8476   1.719   4.250   5.590
 2526SOL    HW1 8477   1.671   4.330   5.554
 2526SOL    HW2 8478   1.671   4.167   5.562
 2527SOL     OW 8479   5.231   6.568   5.063
 2527SOL    HW1 8480   5.220   6.582   5.162
 2527SOL    HW2 8481   5.291   6.490   5.046
 2528SOL     OW 8482   6.381   4.260   1.115
 2528SOL    HW1 8483   6.299   4.281   1.063
 2528SOL    HW2 8484   6.403   4.336   1.175
 2529SOL     OW 8485   0.062   5.721   6.577
 2529SOL    HW1 8486   6.991   5.705   6.610
 2529SOL    HW2 8487   0.094   5.641   6.526
 2530SOL     OW 8488   1.091   6.226   4.733
 2530SOL    HW1 8489   1.128   6.150   4.786
 2530SOL    HW2 8490   1.090   6.309   4.789
 2531SOL     OW 8491   5.463   5.753   4.247
 2531SOL    HW1 8492   5.560   5.769   4.228
 2531SOL    HW2 8493   5.409   5.773   4.165
 2532SOL     OW 8494   1.177   6.147   0.931
 2532SOL    HW1 8495   1.226   6.070   0.972
 2532SOL    HW2 8496   1.130   6.115   0.848
 2533SOL     OW 8497   4.112   0.170   3.319
 2533SOL    HW1 8498   4.153   0.223   3.244
 2533SOL    HW2 8499   4.104   0.228   3.400
 2534SOL     OW 8500   2.348   0.834   2.869
 2534SOL    HW1 8501   2.377   0.739   2.863
 2534SOL    HW2 8502   2.375   0.883   2.786
 2535SOL     OW 8503   2.692   2.887   6.734
 2535SOL    HW1 8504   2.771   2.825   6.735
 2535SOL    HW2 8505   2.624   2.853   6.669
 2536SOL     OW 8506   7.008   2.254   3.671
 2536SOL    HW1 8507   0.068   2.265   3.728
 2536SOL    HW2 8508   6.947   2.188   3.712
 2537SOL     OW 8509   4.701   6.392   6.642
 2537SOL    HW1 8510   4.763   6.442   6.704
 2537SOL    HW2 8511   4.651   6.323   6.694
 2538SOL     OW 8512   1.677   4.136   4.187
 2538SOL    HW1 8513   1.775   4.150   4.174
 2538SOL    HW2 8514   1.655   4.040   4.173
 2539SOL     OW 8515   4.945   0.477   5.916
 2539SOL    HW1 8516   5.041   0.482   5.945
 2539SOL    HW2 8517   4.908   0.387   5.939
 2540SOL     OW 8518   4.518   1.254   2.373
 2540SOL    HW1 8519   4.515   1.225   2.278
 2540SOL    HW2 8520   4.565   1.342   2.381
 2541SOL     OW 8521   1.610   6.696   5.234
 2541SOL    HW1 8522   1.603   6.755   5.314
 2541SOL    HW2 8523   1.618   6.752   5.152
 2542SOL     OW 8524   4.706   1.755   5.416
 2542SOL    HW1 8525   4.643   1.827   5.446
 2542SOL    HW2 8526   4.685   1.730   5.322
 2543SOL     OW 8527   1.814   1.505   3.061
 2543SOL    HW1 8528   1.820   1.559   3.145
 2543SOL    HW2 8529   1.723   1.464   3.054
 2544SOL     OW 8530   0.101   5.024   2.257
 2544SOL    HW1 8531   0.088   5.054   2.351
 2544SOL    HW2 8532   0.044   4.944   2.239
 2545SOL     OW 8533   2.233   1.025   0.848
 2545SOL    HW1 8534   2.209   0.963   0.923
 2545SOL    HW2 8535   2.152   1.079   0.823
 2546SOL     OW 8536   0.076   2.530   2.439
 2546SOL    HW1 8537   0.053   2.458   2.503
 2546SOL    HW2 8538   0.078   2.493   2.346
 2547SOL     OW 8539   5.928   5.150   0.111
 2547SOL    HW1 8540   5.988   5.214   0.160
 2547SOL    HW2 8541   5.936   5.167   0.013
 2548SOL     OW 8542   2.802   6.462   5.235
 2548SOL    HW1 8543   2.868   6.536   5.238
 2548SOL    HW2 8544   2.746   6.464   5.318
 2549SOL     OW 8545   2.222   1.528   1.262
 2549SOL    HW1 8546   2.286   1.452   1.271
 2549SOL    HW2 8547   2.254   1.607   1.315
 2550SOL     OW 8548   6.800   0.572   6.499
 2550SOL    HW1 8549   6.740   0.653   6.500
 2550SOL    HW2 8550   6.766   0.506   6.566
 2551SOL     OW 8551   2.372   5.757   0.365
 2551SOL    HW1 8552   2.296   5.813   0.331
 2551SOL    HW2 8553   2.444   5.755   0.296
 2552SOL     OW 8554   1.110   6.139   5.591
 2552SOL    HW1 8555   1.196   6.108   5.551
 2552SOL    HW2 8556   1.123   6.228   5.635
 2553SOL     OW 8557   3.462   3.272   0.039
 2553SOL    HW1 8558   3.469   3.173   0.036
 2553SOL    HW2 8559   3.554   3.312   0.037
 2554SOL     OW 8560   1.594   5.860   6.885
 2554SOL    HW1 8561   1.569   5.943   6.933
 2554SOL    HW2 8562   1.574   5.870   6.787
 2555SOL     OW 8563   6.189   6.312   5.873
 2555SOL    HW1 8564   6.266   6.296   5.934
 2555SOL    HW2 8565   6.154   6.225   5.839
 2556SOL     OW 8566   4.069   6.018   0.351
 2556SOL    HW1 8567   4.124   6.058   0.424
 2556SOL    HW2 8568   4.128   5.969   0.287
 2557SOL     OW 8569   2.483   2.218   6.651
 2557SOL    HW1 8570   2.390   2.200   6.619
 2557SOL    HW2 8571   2.545   2.149   6.613
 2558SOL     OW 8572   3.839   3.295   5.845
 2558SOL    HW1 8573   3.742   3.295   5.821
 2558SOL    HW2 8574   3.862   3.209   5.890
 2559SOL     OW 8575   6.443   3.024   4.686
 2559SOL    HW1 8576   6.495   2.948   4.726
 2559SOL    HW2 8577   6.492   3.060   4.607
 2560SOL     OW 8578   5.247   3.434   4.362
 2560SOL    HW1 8579   5.283   3.515   4.315
 2560SOL    HW2 8580   5.220   3.365   4.295
 2561SOL     OW 8581   3.211   0.384   3.896
 2561SOL    HW1 8582   3.202   0.464   3.836
 2561SOL    HW2 8583   3.272   0.406   3.973
 2562SOL     OW 8584   2.053   5.756   2.215
 2562SOL    HW1 8585   1.997   5.723   2.139
 2562SOL    HW2 8586   2.143   5.784   2.182
 2563SOL     OW 8587   4.302   1.522   6.771
 2563SOL    HW1 8588   4.356   1.449   6.729
 2563SOL    HW2 8589   4.226   1.546   6.710
 2564SOL     OW 8590   1.049   0.094   6.219
 2564SOL    HW1 8591   1.137   0.141   6.216
 2564SOL    HW2 8592   1.004   0.101   6.130
 2565SOL     OW 8593   6.855   0.571   0.252
 2565SOL    HW1 8594   6.857   0.653   0.196
 2565SOL    HW2 8595   6.761   0.543   0.267
 2566SOL     OW 8596   1.588   0.126   0.869
 2566SOL    HW1 8597   1.644   0.053   0.830
 2566SOL    HW2 8598   1.495   0.120   0.833
 2567SOL     OW 8599   1.184   1.457   1.975
 2567SOL    HW1 8600   1.255   1.388   1.991
 2567SOL    HW2 8601   1.096   1.411   1.963
 2568SOL     OW 8602   2.878   0.794   6.608
 2568SOL    HW1 8603   2.795   0.787   6.663
 2568SOL    HW2 8604   2.906   0.703   6.578
 2569SOL     OW 8605   2.773   0.534   1.781
 2569SOL    HW1 8606   2.693   0.505   1.730
 2569SOL    HW2 8607   2.747   0.604   1.848
 2570SOL     OW 8608   5.890   0.795   6.505
 2570SOL    HW1 8609   5.940   0.720   6.549
 2570SOL    HW2 8610   5.876   0.868   6.572
 2571SOL     OW 8611   2.532   3.716   5.504
 2571SOL    HW1 8612   2.563   3.792   5.446
 2571SOL    HW2 8613   2.590   3.713   5.586
 2572SOL     OW 8614   2.178   6.469   0.858
 2572SOL    HW1 8615   2.152   6.409   0.934
 2572SOL    HW2 8616   2.253   6.529   0.887
 2573SOL     OW 8617   6.317   1.848   2.632
 2573SOL    HW1 8618   6.322   1.831   2.731
 2573SOL    HW2 8619   6.252   1.922   2.615
 2574SOL     OW 8620   0.376   3.037   0.486
 2574SOL    HW1 8621   0.431   3.107   0.531
 2574SOL    HW2 8622   0.292   3.022   0.538
 2575SOL     OW 8623   5.223   4.413   6.883
 2575SOL    HW1 8624   5.286   4.431   6.959
 2575SOL    HW2 8625   5.273   4.367   6.809
 2576SOL     OW 8626   3.957   0.267   4.186
 2576SOL    HW1 8627   3.981   0.275   4.283
 2576SOL    HW2 8628   3.956   0.171   4.160
 2577SOL     OW 8629   4.276   6.181   2.236
 2577SOL    HW1 8630   4.296   6.253   2.303
 2577SOL    HW2 8631   4.258   6.095   2.284
 2578SOL     OW 8632   4.787   2.771   5.134
 2578SOL    HW1 8633   4.737   2.789   5.050
 2578SOL    HW2 8634   4.740   2.701   5.187
 2579SOL     OW 8635   1.101   0.826   3.545
 2579SOL    HW1 8636   1.142   0.788   3.628
 2579SOL    HW2 8637   1.016   0.777   3.525
 2580SOL     OW 8638   2.301   2.761   0.046
 2580SOL    HW1 8639   2.210   2.721   0.062
 2580SOL    HW2 8640   2.320   2.830   0.116
 2581SOL     OW 8641   6.787   4.384   1.437
 2581SOL    HW1 8642   6.877   4.366   1.395
 2581SOL    HW2 8643   6.773   4.483   1.443
 2582SOL     OW 8644   1.229   4.616   2.461
 2582SOL    HW1 8645   1.301   4.620   2.392
 2582SOL    HW2 8646   1.225   4.525   2.501
 2583SOL     OW 8647   0.432   1.846   1.079
 2583SOL    HW1 8648   0.527   1.857   1.107
 2583SOL    HW2 8649   0.378   1.813   1.156
 2584SOL     OW 8650   3.958   5.755   0.316
 2584SOL    HW1 8651   3.978   5.847   0.348
 2584SOL    HW2 8652   4.038   5.696   0.328
 2585SOL     OW 8653   3.917   1.142   6.936
 2585SOL    HW1 8654   3.886   1.093   7.018
 2585SOL    HW2 8655   3.916   1.240   6.953
 2586SOL     OW 8656   4.003   1.704   3.594
 2586SOL    HW1 8657   3.926   1.729   3.654
 2586SOL    HW2 8658   4.000   1.606   3.577
 2587SOL     OW 8659   6.661   0.942   3.483
 2587SOL    HW1 8660   6.735   0.925   3.549
 2587SOL    HW2 8661   6.674   1.032   3.441
 2588SOL     OW 8662   4.849   6.982   6.658
 2588SOL    HW1 8663   4.901   0.029   6.709
 2588SOL    HW2 8664   4.751   7.006   6.662
 2589SOL     OW 8665   0.374   5.728   5.725
 2589SOL    HW1 8666   0.445   5.794   5.752
 2589SOL    HW2 8667   0.301   5.777   5.677
 2590SOL     OW 8668   3.241   6.160   1.588
 2590SOL    HW1 8669   3.261   6.191   1.681
 2590SOL    HW2 8670   3.158   6.105   1.588
 2591SOL     OW 8671   0.036   6.011   2.047
 2591SOL    HW1 8672   0.132   5.988   2.062
 2591SOL    HW2 8673   7.001   5.961   2.113
 2592SOL     OW 8674   3.177   6.847   1.328
 2592SOL    HW1 8675   3.144   6.941   1.337
 2592SOL    HW2 8676   3.160   6.797   1.413
 2593SOL     OW 8677   3.004   5.987   1.403
 2593SOL    HW1 8678   2.906   5.999   1.421
 2593SOL    HW2 8679   3.049   5.953   1.486
 2594SOL     OW 8680   6.731   5.860   5.809
 2594SOL    HW1 8681   6.822   5.863   5.849
 2594SOL    HW2 8682   6.732   5.910   5.722
 2595SOL     OW 8683   6.189   1.326   5.210
 2595SOL    HW1 8684   6.158   1.322   5.305
 2595SOL    HW2 8685   6.270   1.384   5.203
 2596SOL     OW 8686   3.870   1.984   1.947
 2596SOL    HW1 8687   3.946   2.022   2.000
 2596SOL    HW2 8688   3.787   2.038   1.965
 2597SOL     OW 8689   1.992   3.681   6.714
 2597SOL    HW1 8690   2.055   3.639   6.779
 2597SOL    HW2 8691   1.990   3.780   6.728
 2598SOL     OW 8692   5.830   0.670   4.416
 2598SOL    HW1 8693   5.900   0.738   4.438
 2598SOL    HW2 8694   5.792   0.633   4.501
 2599SOL     OW 8695   2.987   0.529   0.273
 2599SOL    HW1 8696   2.941   0.442   0.285
 2599SOL    HW2 8697   2.942   0.599   0.328
 2600SOL     OW 8698   4.881   3.451   4.436
 2600SOL    HW1 8699   4.938   3.533   4.437
 2600SOL    HW2 8700   4.910   3.391   4.362
 2601SOL     OW 8701   2.596   2.002   6.518
 2601SOL    HW1 8702   2.682   1.985   6.566
 2601SOL    HW2 8703   2.562   1.917   6.479
 2602SOL     OW 8704   6.601   4.740   3.730
 2602SOL    HW1 8705   6.619   4.689   3.814
 2602SOL    HW2 8706   6.612   4.679   3.651
 2603SOL     OW 8707   2.317   1.968   2.276
 2603SOL    HW1 8708   2.332   2.041   2.210
 2603SOL    HW2 8709   2.307   2.007   2.368
 2604SOL     OW 8710   4.996   1.156   3.455
 2604SOL    HW1 8711   4.960   1.072   3.495
 2604SOL    HW2 8712   4.986   1.153   3.355
 2605SOL     OW 8713   2.369   4.349   2.901
 2605SOL    HW1 8714   2.339   4.359   2.996
 2605SOL    HW2 8715   2.360   4.253   2.874
 2606SOL     OW 8716   6.595   4.561   1.063
 2606SOL    HW1 8717   6.521   4.623   1.089
 2606SOL    HW2 8718   6.676   4.614   1.040
 2607SOL     OW 8719   0.314   1.440   6.182
 2607SOL    HW1 8720   0.339   1.447   6.085
 2607SOL    HW2 8721   0.250   1.364   6.194
 2608SOL     OW 8722   4.260   4.956   2.160
 2608SOL    HW1 8723   4.188   5.004   2.209
 2608SOL    HW2 8724   4.344   4.955   2.214
 2609SOL     OW 8725   0.150   1.609   1.916
 2609SOL    HW1 8726   0.110   1.599   1.825
 2609SOL    HW2 8727   0.132   1.701   1.950
 2610SOL     OW 8728   0.092   5.145   3.984
 2610SOL    HW1 8729   0.070   5.239   4.012
 2610SOL    HW2 8730   0.184   5.122   4.017
 2611SOL     OW 8731   4.455   6.275   0.836
 2611SOL    HW1 8732   4.493   6.222   0.912
 2611SOL    HW2 8733   4.365   6.312   0.863
 2612SOL     OW 8734   6.647   6.892   5.620
 2612SOL    HW1 8735   6.689   6.870   5.532
 2612SOL    HW2 8736   6.561   6.840   5.629
 2613SOL     OW 8737   2.551   6.587   0.587
 2613SOL    HW1 8738   2.466   6.640   0.588
 2613SOL    HW2 8739   2.531   6.492   0.565
 2614SOL     OW 8740   6.412   0.601   6.014
 2614SOL    HW1 8741   6.435   0.637   6.105
 2614SOL    HW2 8742   6.494   0.600   5.957
 2615SOL     OW 8743   6.519   3.444   3.363
 2615SOL    HW1 8744   6.608   3.457   3.318
 2615SOL    HW2 8745   6.507   3.512   3.434
 2616SOL     OW 8746   3.916   3.541   4.350
 2616SOL    HW1 8747   3.941   3.517   4.444
 2616SOL    HW2 8748   3.854   3.471   4.314
 2617SOL     OW 8749   3.703   6.703   0.757
 2617SOL    HW1 8750   3.644   6.622   0.763
 2617SOL    HW2 8751   3.648   6.782   0.730
 2618SOL     OW 8752   0.222   6.933   4.432
 2618SOL    HW1 8753   0.130   6.942   4.393
 2618SOL    HW2 8754   0.280   6.880   4.370
 2619SOL     OW 8755   4.016   1.425   3.179
 2619SOL    HW1 8756   4.058   1.512   3.152
 2619SOL    HW2 8757   3.917   1.432   3.172
 2620SOL     OW 8758   6.811   6.430   2.721
 2620SOL    HW1 8759   6.880   6.489   2.763
 2620SOL    HW2 8760   6.781   6.362   2.788
 2621SOL     OW 8761   1.056   5.973   2.725
 2621SOL    HW1 8762   1.146   6.002   2.694
 2621SOL    HW2 8763   1.018   6.041   2.787
 2622SOL     OW 8764   2.224   2.393   5.847
 2622SOL    HW1 8765   2.245   2.483   5.885
 2622SOL    HW2 8766   2.285   2.373   5.770
 2623SOL     OW 8767   2.260   1.186   5.500
 2623SOL    HW1 8768   2.212   1.274   5.492
 2623SOL    HW2 8769   2.358   1.203   5.508
 2624SOL     OW 8770   6.726   2.155   5.342
 2624SOL    HW1 8771   6.704   2.101   5.260
 2624SOL    HW2 8772   6.691   2.248   5.330
 2625SOL     OW 8773   2.567   1.738   5.685
 2625SOL    HW1 8774   2.496   1.805   5.665
 2625SOL    HW2 8775   2.631   1.776   5.752
 2626SOL     OW 8776   0.256   0.072   5.262
 2626SOL    HW1 8777   0.290   0.016   5.186
 2626SOL    HW2 8778   0.326   0.138   5.289
 2627SOL     OW 8779   1.600   1.749   5.489
 2627SOL    HW1 8780   1.695   1.729   5.465
 2627SOL    HW2 8781   1.546   1.757   5.405
 2628SOL     OW 8782   2.134   5.044   6.106
 2628SOL    HW1 8783   2.221   5.094   6.102
 2628SOL    HW2 8784   2.152   4.950   6.134
 2629SOL     OW 8785   2.707   3.683   1.773
 2629SOL    HW1 8786   2.751   3.625   1.705
 2629SOL    HW2 8787   2.664   3.626   1.843
 2630SOL     OW 8788   2.711   1.772   3.148
 2630SOL    HW1 8789   2.613   1.783   3.136
 2630SOL    HW2 8790   2.750   1.726   3.068
 2631SOL     OW 8791   4.923   0.462   5.316
 2631SOL    HW1 8792   5.012   0.494   5.347
 2631SOL    HW2 8793   4.908   0.368   5.348
 2632SOL     OW 8794   3.490   1.962   6.056
 2632SOL    HW1 8795   3.411   1.953   6.117
 2632SOL    HW2 8796   3.479   2.042   5.998
 2633SOL     OW 8797   6.716   0.784   4.482
 2633SOL    HW1 8798   6.717   0.782   4.582
 2633SOL    HW2 8799   6.803   0.819   4.449
 2634SOL     OW 8800   1.238   3.925   3.163
 2634SOL    HW1 8801   1.283   3.882   3.085
 2634SOL    HW2 8802   1.139   3.923   3.151
 2635SOL     OW 8803   6.284   6.000   5.655
 2635SOL    HW1 8804   6.364   6.046   5.617
 2635SOL    HW2 8805   6.203   6.057   5.640
 2636SOL     OW 8806   4.822   0.104   5.341
 2636SOL    HW1 8807   4.914   0.122   5.375
 2636SOL    HW2 8808   4.755   0.132   5.411
 2637SOL     OW 8809   5.338   1.829   3.492
 2637SOL    HW1 8810   5.333   1.822   3.592
 2637SOL    HW2 8811   5.391   1.751   3.457
 2638SOL     OW 8812   6.704   0.583   3.226
 2638SOL    HW1 8813   6.625   0.559   3.282
 2638SOL    HW2 8814   6.787   0.549   3.270
 2639SOL     OW 8815   0.902   6.530   1.403
 2639SOL    HW1 8816   0.858   6.441   1.391
 2639SOL    HW2 8817   0.923   6.569   1.313
 2640SOL     OW 8818   0.348   6.008   4.534
 2640SOL    HW1 8819   0.406   5.952   4.594
 2640SOL    HW2 8820   0.297   5.948   4.472
 2641SOL     OW 8821   4.955   3.214   1.945
 2641SOL    HW1 8822   4.877   3.152   1.941
 2641SOL    HW2 8823   4.998   3.208   2.035
 2642SOL     OW 8824   4.156   6.880   4.309
 2642SOL    HW1 8825   4.216   6.887   4.389
 2642SOL    HW2 8826   4.203   6.914   4.228
 2643SOL     OW 8827   0.321   3.498   2.707
 2643SOL    HW1 8828   0.328   3.503   2.607
 2643SOL    HW2 8829   0.228   3.519   2.735
 2644SOL     OW 8830   6.199   5.308   5.854
 2644SOL    HW1 8831   6.289   5.352   5.854
 2644SOL    HW2 8832   6.209   5.211   5.830
 2645SOL     OW 8833   4.307   5.618   5.070
 2645SOL    HW1 8834   4.365   5.682   5.119
 2645SOL    HW2 8835   4.361   5.540   5.039
 2646SOL     OW 8836   6.070   0.604   6.584
 2646SOL    HW1 8837   6.153   0.634   6.632
 2646SOL    HW2 8838   6.035   0.520   6.627
 2647SOL     OW 8839   6.576   0.318   1.415
 2647SOL    HW1 8840   6.502   0.283   1.358
 2647SOL    HW2 8841   6.617   0.242   1.467
 2648SOL     OW 8842   0.264   0.341   4.047
 2648SOL    HW1 8843   0.269   0.241   4.052
 2648SOL    HW2 8844   0.285   0.371   3.954
 2649SOL     OW 8845   5.818   2.761   6.879
 2649SOL    HW1 8846   5.903   2.780   6.830
 2649SOL    HW2 8847   5.813   2.818   6.961
 2650SOL     OW 8848   0.588   4.175   4.456
 2650SOL    HW1 8849   0.518   4.204   4.521
 2650SOL    HW2 8850   0.668   4.142   4.505
 2651SOL     OW 8851   0.724   1.110   0.324
 2651SOL    HW1 8852   0.806   1.067   0.287
 2651SOL    HW2 8853   0.721   1.096   0.423
 2652SOL     OW 8854   3.807   4.065   4.151
 2652SOL    HW1 8855   3.786   3.976   4.191
 2652SOL    HW2 8856   3.731   4.095   4.094
 2653SOL     OW 8857   5.162   6.298   5.481
 2653SOL    HW1 8858   5.143   6.217   5.425
 2653SOL    HW2 8859   5.144   6.381   5.429
 2654SOL     OW 8860   4.862   5.359   1.177
 2654SOL    HW1 8861   4.852   5.358   1.276
 2654SOL    HW2 8862   4.798   5.425   1.137
 2655SOL     OW 8863   4.499   5.466   4.012
 2655SOL    HW1 8864   4.414   5.452   3.961
 2655SOL    HW2 8865   4.577   5.436   3.957
 2656SOL     OW 8866   3.216   4.883   4.171
 2656SOL    HW1 8867   3.120   4.899   4.147
 2656SOL    HW2 8868   3.226   4.884   4.271
 2657SOL     OW 8869   1.301   4.015   6.349
 2657SOL    HW1 8870   1.313   3.944   6.418
 2657SOL    HW2 8871   1.216   4.065   6.367
 2658SOL     OW 8872   5.071   4.443   0.165
 2658SOL    HW1 8873   5.015   4.411   0.242
 2658SOL    HW2 8874   5.049   4.390   0.083
 2659SOL     OW 8875   5.947   2.852   4.634
 2659SOL    HW1 8876   5.889   2.883   4.558
 2659SOL    HW2 8877   6.042   2.878   4.615
 2660SOL     OW 8878   1.197   1.107   1.040
 2660SOL    HW1 8879   1.253   1.190   1.032
 2660SOL    HW2 8880   1.172   1.075   0.948
 2661SOL     OW 8881   2.524   0.081   0.930
 2661SOL    HW1 8882   2.530   7.017   0.878
 2661SOL    HW2 8883   2.435   0.086   0.976
 2662SOL     OW 8884   4.691   6.673   5.666
 2662SOL    HW1 8885   4.733   6.587   5.695
 2662SOL    HW2 8886   4.614   6.695   5.725
 2663SOL     OW 8887   2.763   3.750   0.561
 2663SOL    HW1 8888   2.733   3.659   0.535
 2663SOL    HW2 8889   2.716   3.778   0.644
 2664SOL     OW 8890   3.837   4.451   5.401
 2664SOL    HW1 8891   3.769   4.382   5.424
 2664SOL    HW2 8892   3.792   4.540   5.389
 2665SOL     OW 8893   2.603   2.794   5.340
 2665SOL    HW1 8894   2.543   2.729   5.294
 2665SOL    HW2 8895   2.579   2.887   5.313
 2666SOL     OW 8896   5.924   4.099   0.795
 2666SOL    HW1 8897   5.827   4.101   0.819
 2666SOL    HW2 8898   5.978   4.095   0.879
 2667SOL     OW 8899   1.236   6.594   4.166
 2667SOL    HW1 8900   1.262   6.616   4.072
 2667SOL    HW2 8901   1.279   6.659   4.228
 2668SOL     OW 8902   6.852   3.524   4.419
 2668SOL    HW1 8903   6.863   3.566   4.330
 2668SOL    HW2 8904   6.879   3.589   4.490
 2669SOL     OW 8905   2.819   4.413   5.359
 2669SOL    HW1 8906   2.879   4.481   5.317
 2669SOL    HW2 8907   2.726   4.425   5.326
 2670SOL     OW 8908   6.169   3.067   6.577
 2670SOL    HW1 8909   6.178   2.992   6.511
 2670SOL    HW2 8910   6.083   3.058   6.627
 2671SOL     OW 8911   3.628   5.322   6.086
 2671SOL    HW1 8912   3.568   5.264   6.142
 2671SOL    HW2 8913   3.600   5.315   5.990
 2672SOL     OW 8914   0.739   5.360   0.638
 2672SOL    HW1 8915   0.816   5.389   0.695
 2672SOL    HW2 8916   0.722   5.262   0.653
 2673SOL     OW 8917   6.322   1.042   3.987
 2673SOL    HW1 8918   6.366   1.024   4.075
 2673SOL    HW2 8919   6.247   0.977   3.974
 2674SOL     OW 8920   1.249   4.430   3.548
 2674SOL    HW1 8921   1.322   4.445   3.481
 2674SOL    HW2 8922   1.250   4.334   3.576
 2675SOL     OW 8923   6.402   5.423   3.580
 2675SOL    HW1 8924   6.427   5.384   3.668
 2675SOL    HW2 8925   6.485   5.440   3.526
 2676SOL     OW 8926   4.281   1.803   0.546
 2676SOL    HW1 8927   4.370   1.777   0.583
 2676SOL    HW2 8928   4.290   1.821   0.448
 2677SOL     OW 8929   3.202   3.381   0.446
 2677SOL    HW1 8930   3.125   3.318   0.444
 2677SOL    HW2 8931   3.272   3.347   0.509
 2678SOL     OW 8932   0.424   2.783   1.321
 2678SOL    HW1 8933   0.395   2.775   1.416
 2678SOL    HW2 8934   0.524   2.785   1.317
 2679SOL     OW 8935   3.466   4.717   0.934
 2679SOL    HW1 8936   3.561   4.689   0.929
 2679SOL    HW2 8937   3.414   4.672   0.861
 2680SOL     OW 8938   1.480   0.977   0.661
 2680SOL    HW1 8939   1.458   0.917   0.738
 2680SOL    HW2 8940   1.550   1.043   0.689
 2681SOL     OW 8941   1.183   3.026   4.773
 2681SOL    HW1 8942   1.155   2.995   4.863
 2681SOL    HW2 8943   1.231   2.952   4.725
 2682SOL     OW 8944   4.983   4.505   2.442
 2682SOL    HW1 8945   4.922   4.558   2.382
 2682SOL    HW2 8946   4.946   4.504   2.535
 2683SOL     OW 8947   2.772   5.032   1.237
 2683SOL    HW1 8948   2.793   5.010   1.142
 2683SOL    HW2 8949   2.809   4.960   1.296
 2684SOL     OW 8950   4.212   5.617   1.041
 2684SOL    HW1 8951   4.136   5.676   1.066
 2684SOL    HW2 8952   4.278   5.668   0.986
 2685SOL     OW 8953   6.321   6.272   6.614
 2685SOL    HW1 8954   6.341   6.365   6.583
 2685SOL    HW2 8955   6.225   6.250   6.596
 2686SOL     OW 8956   1.659   1.944   5.666
 2686SOL    HW1 8957   1.738   1.994   5.630
 2686SOL    HW2 8958   1.633   1.872   5.602
 2687SOL     OW 8959   4.750   4.309   2.071
 2687SOL    HW1 8960   4.662   4.310   2.023
 2687SOL    HW2 8961   4.771   4.401   2.104
 2688SOL     OW 8962   4.258   4.098   0.040
 2688SOL    HW1 8963   4.179   4.159   0.028
 2688SOL    HW2 8964   4.232   4.004   0.019
 2689SOL     OW 8965   1.505   3.803   3.715
 2689SOL    HW1 8966   1.574   3.864   3.677
 2689SOL    HW2 8967   1.496   3.722   3.656
 2690SOL     OW 8968   3.463   3.515   3.533
 2690SOL    HW1 8969   3.534   3.579   3.562
 2690SOL    HW2 8970   3.491   3.422   3.553
 2691SOL     OW 8971   1.094   5.624   1.865
 2691SOL    HW1 8972   1.042   5.575   1.935
 2691SOL    HW2 8973   1.175   5.571   1.839
 2692SOL     OW 8974   3.276   5.391   2.693
 2692SOL    HW1 8975   3.306   5.484   2.673
 2692SOL    HW2 8976   3.187   5.374   2.649
 2693SOL     OW 8977   2.225   5.435   2.376
 2693SOL    HW1 8978   2.143   5.408   2.326
 2693SOL    HW2 8979   2.208   5.428   2.475
 2694SOL     OW 8980   4.318   6.646   2.793
 2694SOL    HW1 8981   4.315   6.622   2.696
 2694SOL    HW2 8982   4.335   6.744   2.803
 2695SOL     OW 8983   5.168   0.481   2.422
 2695SOL    HW1 8984   5.124   0.521   2.502
 2695SOL    HW2 8985   5.175   0.382   2.433
 2696SOL     OW 8986   3.736   3.800   5.562
 2696SOL    HW1 8987   3.658   3.739   5.557
 2696SOL    HW2 8988   3.774   3.814   5.471
 2697SOL     OW 8989   3.474   1.747   2.970
 2697SOL    HW1 8990   3.392   1.694   2.951
 2697SOL    HW2 8991   3.487   1.755   3.068
 2698SOL     OW 8992   2.419   6.579   0.207
 2698SOL    HW1 8993   2.403   6.533   0.295
 2698SOL    HW2 8994   2.388   6.520   0.133
 2699SOL     OW 8995   2.800   6.985   0.595
 2699SOL    HW1 8996   2.755   6.903   0.559
 2699SOL    HW2 8997   2.872   6.958   0.659
 2700SOL     OW 8998   2.400   3.830   0.519
 2700SOL    HW1 8999   2.471   3.860   0.455
 2700SOL    HW2 9000   2.332   3.903   0.529
 2701SOL     OW 9001   5.480   1.233   6.223
 2701SOL    HW1 9002   5.551   1.295   6.257
 2701SOL    HW2 9003   5.497   1.141   6.257
 2702SOL     OW 9004   0.528   3.212   3.539
 2702SOL    HW1 9005   0.535   3.312   3.541
 2702SOL    HW2 9006   0.569   3.174   3.621
 2703SOL     OW 9007   1.569   0.551   1.725
 2703SOL    HW1 9008   1.471   0.536   1.711
 2703SOL    HW2 9009   1.607   0.598   1.646
 2704SOL     OW 9010   6.983   6.541   1.420
 2704SOL    HW1 9011   6.931   6.558   1.504
 2704SOL    HW2 9012   0.054   6.578   1.431
 2705SOL     OW 9013   0.101   5.379   4.409
 2705SOL    HW1 9014   0.128   5.461   4.460
 2705SOL    HW2 9015   0.165   5.305   4.428
 2706SOL     OW 9016   0.371   6.652   1.690
 2706SOL    HW1 9017   0.456   6.641   1.639
 2706SOL    HW2 9018   0.382   6.723   1.760
 2707SOL     OW 9019   3.225   0.133   4.112
 2707SOL    HW1 9020   3.183   0.057   4.062
 2707SOL    HW2 9021   3.297   0.097   4.172
 2708SOL     OW 9022   0.386   2.267   6.527
 2708SOL    HW1 9023   0.349   2.182   6.490
 2708SOL    HW2 9024   0.401   2.331   6.451
 2709SOL     OW 9025   6.440   6.746   0.192
 2709SOL    HW1 9026   6.518   6.780   0.244
 2709SOL    HW2 9027   6.415   6.812   0.122
 2710SOL     OW 9028   0.867   3.847   3.427
 2710SOL    HW1 9029   0.873   3.788   3.508
 2710SOL    HW2 9030   0.957   3.857   3.386
 2711SOL     OW 9031   2.453   1.401   4.151
 2711SOL    HW1 9032   2.506   1.465   4.095
 2711SOL    HW2 9033   2.400   1.341   4.091
 2712SOL     OW 9034   3.034   4.357   0.855
 2712SOL    HW1 9035   3.070   4.410   0.933
 2712SOL    HW2 9036   3.034   4.260   0.878
 2713SOL     OW 9037   2.449   2.386   4.637
 2713SOL    HW1 9038   2.473   2.353   4.546
 2713SOL    HW2 9039   2.522   2.364   4.701
 2714SOL     OW 9040   4.040   2.386   0.466
 2714SOL    HW1 9041   3.941   2.386   0.482
 2714SOL    HW2 9042   4.083   2.457   0.522
 2715SOL     OW 9043   5.331   1.469   1.524
 2715SOL    HW1 9044   5.327   1.441   1.428
 2715SOL    HW2 9045   5.282   1.401   1.580
 2716SOL     OW 9046   5.253   4.462   2.762
 2716SOL    HW1 9047   5.298   4.467   2.852
 2716SOL    HW2 9048   5.311   4.505   2.693
 2717SOL     OW 9049   1.138   6.226   2.419
 2717SOL    HW1 9050   1.210   6.191   2.359
 2717SOL    HW2 9051   1.067   6.156   2.428
 2718SOL     OW 9052   2.296   2.033   5.387
 2718SOL    HW1 9053   2.228   2.101   5.413
 2718SOL    HW2 9054   2.348   2.005   5.468
 2719SOL     OW 9055   6.727   5.714   1.102
 2719SOL    HW1 9056   6.813   5.760   1.123
 2719SOL    HW2 9057   6.735   5.616   1.122
 2720SOL     OW 9058   1.965   6.306   2.249
 2720SOL    HW1 9059   2.025   6.302   2.328
 2720SOL    HW2 9060   1.995   6.240   2.180
 2721SOL     OW 9061   2.592   0.397   3.899
 2721SOL    HW1 9062   2.606   0.432   3.992
 2721SOL    HW2 9063   2.681   0.389   3.853
 2722SOL     OW 9064   6.621   5.400   1.569
 2722SOL    HW1 9065   6.702   5.350   1.538
 2722SOL    HW2 9066   6.596   5.468   1.501
 2723SOL     OW 9067   0.806   6.841   6.017
 2723SOL    HW1 9068   0.814   6.788   6.102
 2723SOL    HW2 9069   0.716   6.883   6.013
 2724SOL     OW 9070   2.054   6.665   6.866
 2724SOL    HW1 9071   2.056   6.713   6.778
 2724SOL    HW2 9072   2.148   6.653   6.899
 2725SOL     OW 9073   5.030   5.080   4.645
 2725SOL    HW1 9074   4.946   5.127   4.617
 2725SOL    HW2 9075   5.098   5.147   4.674
 2726SOL     OW 9076   6.937   2.562   1.271
 2726SOL    HW1 9077   6.878   2.642   1.276
 2726SOL    HW2 9078   6.940   2.529   1.177
 2727SOL     OW 9079   0.176   5.170   3.183
 2727SOL    HW1 9080   0.110   5.243   3.198
 2727SOL    HW2 9081   0.245   5.200   3.117
 2728SOL     OW 9082   4.434   6.371   5.665
 2728SOL    HW1 9083   4.490   6.398   5.743
 2728SOL    HW2 9084   4.415   6.452   5.608
 2729SOL     OW 9085   6.722   6.416   1.192
 2729SOL    HW1 9086   6.740   6.513   1.205
 2729SOL    HW2 9087   6.697   6.399   1.096
 2730SOL     OW 9088   1.758   5.646   1.565
 2730SOL    HW1 9089   1.778   5.620   1.471
 2730SOL    HW2 9090   1.818   5.721   1.592
 2731SOL     OW 9091   4.138   3.416   2.872
 2731SOL    HW1 9092   4.098   3.364   2.947
 2731SOL    HW2 9093   4.136   3.360   2.788
 2732SOL     OW 9094   5.576   2.042   1.766
 2732SOL    HW1 9095   5.591   1.947   1.742
 2732SOL    HW2 9096   5.649   2.074   1.827
 2733SOL     OW 9097   0.023   6.921   4.262
 2733SOL    HW1 9098   6.960   6.869   4.270
 2733SOL    HW2 9099   0.002   7.012   4.226
 2734SOL     OW 9100   2.238   6.666   1.819
 2734SOL    HW1 9101   2.320   6.723   1.809
 2734SOL    HW2 9102   2.174   6.686   1.745
 2735SOL     OW 9103   1.209   3.356   3.114
 2735SOL    HW1 9104   1.147   3.389   3.186
 2735SOL    HW2 9105   1.267   3.431   3.084
 2736SOL     OW 9106   4.688   6.716   5.150
 2736SOL    HW1 9107   4.751   6.715   5.227
 2736SOL    HW2 9108   4.714   6.788   5.086
 2737SOL     OW 9109   3.338   3.470   5.595
 2737SOL    HW1 9110   3.399   3.499   5.521
 2737SOL    HW2 9111   3.362   3.377   5.623
 2738SOL     OW 9112   5.182   5.558   2.716
 2738SOL    HW1 9113   5.210   5.560   2.812
 2738SOL    HW2 9114   5.148   5.649   2.690
 2739SOL     OW 9115   0.062   5.013   1.015
 2739SOL    HW1 9116   7.020   5.039   0.942
 2739SOL    HW2 9117   0.116   5.093   1.041
 2740SOL     OW 9118   6.583   3.864   2.587
 2740SOL    HW1 9119   6.551   3.834   2.677
 2740SOL    HW2 9120   6.523   3.935   2.552
 2741SOL     OW 9121   6.485   0.313   5.517
 2741SOL    HW1 9122   6.432   0.307   5.601
 2741SOL    HW2 9123   6.568   0.366   5.533
 2742SOL     OW 9124   1.787   5.403   6.578
 2742SOL    HW1 9125   1.873   5.416   6.626
 2742SOL    HW2 9126   1.753   5.492   6.547
 2743SOL     OW 9127   6.773   4.936   2.005
 2743SOL    HW1 9128   6.753   5.008   2.072
 2743SOL    HW2 9129   6.868   4.906   2.016
 2744SOL     OW 9130   5.154   1.696   6.406
 2744SOL    HW1 9131   5.088   1.700   6.481
 2744SOL    HW2 9132   5.225   1.765   6.420
 2745SOL     OW 9133   0.076   6.737   6.064
 2745SOL    HW1 9134   0.085   6.780   6.154
 2745SOL    HW2 9135   0.084   6.637   6.075
 2746SOL     OW 9136   2.475   2.222   4.115
 2746SOL    HW1 9137   2.423   2.141   4.139
 2746SOL    HW2 9138   2.426   2.275   4.046
 2747SOL     OW 9139   6.243   3.898   6.373
 2747SOL    HW1 9140   6.299   3.851   6.441
 2747SOL    HW2 9141   6.213   3.986   6.410
 2748SOL     OW 9142   5.662   1.284   1.269
 2748SOL    HW1 9143   5.655   1.384   1.271
 2748SOL    HW2 9144   5.747   1.257   1.225
 2749SOL     OW 9145   6.656   4.993   3.036
 2749SOL    HW1 9146   6.665   4.984   2.937
 2749SOL    HW2 9147   6.745   5.014   3.077
 2750SOL     OW 9148   0.600   5.207   1.479
 2750SOL    HW1 9149   0.535   5.134   1.501
 2750SOL    HW2 9150   0.551   5.293   1.465
 2751SOL     OW 9151   0.532   6.340   1.498
 2751SOL    HW1 9152   0.434   6.353   1.482
 2751SOL    HW2 9153   0.568   6.272   1.433
 2752SOL     OW 9154   4.197   4.757   5.981
 2752SOL    HW1 9155   4.196   4.755   5.881
 2752SOL    HW2 9156   4.238   4.672   6.015
 2753SOL     OW 9157   0.562   6.634   5.399
 2753SOL    HW1 9158   0.653   6.623   5.439
 2753SOL    HW2 9159   0.549   6.565   5.329
 2754SOL     OW 9160   0.411   0.763   2.954
 2754SOL    HW1 9161   0.340   0.834   2.953
 2754SOL    HW2 9162   0.402   0.708   3.038
 2755SOL     OW 9163   1.957   6.853   3.249
 2755SOL    HW1 9164   1.899   6.920   3.296
 2755SOL    HW2 9165   2.040   6.898   3.216
 2756SOL     OW 9166   5.879   4.300   6.278
 2756SOL    HW1 9167   5.780   4.294   6.268
 2756SOL    HW2 9168   5.910   4.391   6.250
 2757SOL     OW 9169   2.236   0.600   6.200
 2757SOL    HW1 9170   2.186   0.514   6.210
 2757SOL    HW2 9171   2.284   0.600   6.112
 2758SOL     OW 9172   4.802   6.055   3.090
 2758SOL    HW1 9173   4.720   6.068   3.144
 2758SOL    HW2 9174   4.883   6.068   3.148
 2759SOL     OW 9175   5.135   5.485   5.491
 2759SOL    HW1 9176   5.061   5.490   5.557
 2759SOL    HW2 9177   5.222   5.472   5.539
 2760SOL     OW 9178   0.101   6.140   2.798
 2760SOL    HW1 9179   0.157   6.193   2.735
 2760SOL    HW2 9180   0.156   6.114   2.877
 2761SOL     OW 9181   1.866   4.460   4.768
 2761SOL    HW1 9182   1.913   4.475   4.855
 2761SOL    HW2 9183   1.768   4.473   4.781
 2762SOL     OW 9184   2.169   0.315   6.223
 2762SOL    HW1 9185   2.227   0.244   6.263
 2762SOL    HW2 9186   2.094   0.272   6.173
 2763SOL     OW 9187   4.758   2.353   5.011
 2763SOL    HW1 9188   4.803   2.412   5.078
 2763SOL    HW2 9189   4.724   2.408   4.935
 2764SOL     OW 9190   6.793   1.267   1.474
 2764SOL    HW1 9191   6.697   1.260   1.502
 2764SOL    HW2 9192   6.852   1.227   1.544
 2765SOL     OW 9193   6.311   6.706   0.443
 2765SOL    HW1 9194   6.376   6.764   0.490
 2765SOL    HW2 9195   6.344   6.685   0.351
 2766SOL     OW 9196   4.878   2.676   0.200
 2766SOL    HW1 9197   4.804   2.620   0.164
 2766SOL    HW2 9198   4.917   2.631   0.281
 2767SOL     OW 9199   6.616   5.144   0.340
 2767SOL    HW1 9200   6.703   5.116   0.300
 2767SOL    HW2 9201   6.542   5.086   0.306
 2768SOL     OW 9202   4.631   0.397   1.087
 2768SOL    HW1 9203   4.729   0.384   1.101
 2768SOL    HW2 9204   4.605   0.363   0.997
 2769SOL     OW 9205   1.724   4.544   6.418
 2769SOL    HW1 9206   1.819   4.513   6.420
 2769SOL    HW2 9207   1.663   4.466   6.436
 2770SOL     OW 9208   4.384   5.333   5.814
 2770SOL    HW1 9209   4.379   5.311   5.911
 2770SOL    HW2 9210   4.292   5.338   5.775
 2771SOL     OW 9211   5.943   1.047   4.205
 2771SOL    HW1 9212   6.038   1.075   4.217
 2771SOL    HW2 9213   5.916   1.061   4.109
 2772SOL     OW 9214   3.904   1.440   0.870
 2772SOL    HW1 9215   3.998   1.467   0.851
 2772SOL    HW2 9216   3.841   1.504   0.826
 2773SOL     OW 9217   6.424   2.123   4.641
 2773SOL    HW1 9218   6.428   2.191   4.568
 2773SOL    HW2 9219   6.449   2.033   4.605
 2774SOL     OW 9220   5.211   2.921   3.298
 2774SOL    HW1 9221   5.207   2.991   3.369
 2774SOL    HW2 9222   5.302   2.879   3.297
 2775SOL     OW 9223   6.911   4.120   5.358
 2775SOL    HW1 9224   6.836   4.067   5.397
 2775SOL    HW2 9225   6.962   4.165   5.431
 2776SOL     OW 9226   4.821   4.167   5.997
 2776SOL    HW1 9227   4.792   4.225   5.921
 2776SOL    HW2 9228   4.784   4.204   6.083
 2777SOL     OW 9229   2.892   1.939   1.406
 2777SOL    HW1 9230   2.878   2.038   1.399
 2777SOL    HW2 9231   2.988   1.917   1.389
 2778SOL     OW 9232   2.018   6.843   5.697
 2778SOL    HW1 9233   2.000   6.747   5.716
 2778SOL    HW2 9234   1.987   6.899   5.775
 2779SOL     OW 9235   5.294   6.199   2.433
 2779SOL    HW1 9236   5.276   6.236   2.525
 2779SOL    HW2 9237   5.303   6.100   2.439
 2780SOL     OW 9238   0.544   6.932   6.077
 2780SOL    HW1 9239   0.545   6.898   6.171
 2780SOL    HW2 9240   0.453   6.917   6.037
 2781SOL     OW 9241   6.073   0.530   1.919
 2781SOL    HW1 9242   6.130   0.486   1.849
 2781SOL    HW2 9243   5.995   0.573   1.875
 2782SOL     OW 9244   4.423   1.014   5.033
 2782SOL    HW1 9245   4.400   0.994   5.128
 2782SOL    HW2 9246   4.488   0.946   4.999
 2783SOL     OW 9247   5.024   3.852   2.492
 2783SOL    HW1 9248   5.001   3.887   2.583
 2783SOL    HW2 9249   5.088   3.914   2.447
 2784SOL     OW 9250   3.674   1.334   2.401
 2784SOL    HW1 9251   3.581   1.337   2.438
 2784SOL    HW2 9252   3.699   1.424   2.367
 2785SOL     OW 9253   5.998   2.385   0.947
 2785SOL    HW1 9254   5.925   2.454   0.948
 2785SOL    HW2 9255   6.079   2.422   0.902
 2786SOL     OW 9256   5.263   6.903   2.232
 2786SOL    HW1 9257   5.220   6.938   2.315
 2786SOL    HW2 9258   5.290   6.808   2.246
 2787SOL     OW 9259   5.436   6.529   5.748
 2787SOL    HW1 9260   5.523   6.500   5.710
 2787SOL    HW2 9261   5.395   6.598   5.689
 2788SOL     OW 9262   2.320   6.432   5.836
 2788SOL    HW1 9263   2.372   6.472   5.912
 2788SOL    HW2 9264   2.376   6.431   5.754
 2789SOL     OW 9265   1.667   2.313   4.029
 2789SOL    HW1 9266   1.618   2.312   3.942
 2789SOL    HW2 9267   1.617   2.257   4.095
 2790SOL     OW 9268   3.383   5.894   1.860
 2790SOL    HW1 9269   3.304   5.846   1.899
 2790SOL    HW2 9270   3.463   5.835   1.864
 2791SOL     OW 9271   0.237   2.954   2.473
 2791SOL    HW1 9272   0.289   3.028   2.517
 2791SOL    HW2 9273   0.201   2.987   2.386
 2792SOL     OW 9274   1.911   0.483   4.011
 2792SOL    HW1 9275   1.838   0.489   3.943
 2792SOL    HW2 9276   2.000   0.484   3.964
 2793SOL     OW 9277   5.477   3.878   1.261
 2793SOL    HW1 9278   5.488   3.878   1.162
 2793SOL    HW2 9279   5.423   3.799   1.289
 2794SOL     OW 9280   6.869   1.906   6.682
 2794SOL    HW1 9281   6.804   1.880   6.611
 2794SOL    HW2 9282   6.827   1.898   6.772
 2795SOL     OW 9283   0.918   3.380   0.959
 2795SOL    HW1 9284   0.829   3.358   0.998
 2795SOL    HW2 9285   0.947   3.471   0.990
 2796SOL     OW 9286   0.309   6.362   3.013
 2796SOL    HW1 9287   0.347   6.444   2.971
 2796SOL    HW2 9288   0.243   6.387   3.083
 2797SOL     OW 9289   5.071   5.190   4.997
 2797SOL    HW1 9290   5.027   5.103   5.021
 2797SOL    HW2 9291   5.076   5.248   5.078
 2798SOL     OW 9292   6.560   5.285   2.737
 2798SOL    HW1 9293   6.587   5.190   2.718
 2798SOL    HW2 9294   6.537   5.294   2.834
 2799SOL     OW 9295   5.717   5.143   5.931
 2799SOL    HW1 9296   5.766   5.112   5.850
 2799SOL    HW2 9297   5.703   5.242   5.926
 2800SOL     OW 9298   4.689   6.502   5.987
 2800SOL    HW1 9299   4.733   6.477   5.901
 2800SOL    HW2 9300   4.749   6.563   6.039
 2801SOL     OW 9301   6.988   5.161   5.862
 2801SOL    HW1 9302   7.000   5.220   5.782
 2801SOL    HW2 9303   6.923   5.088   5.840
 2802SOL     OW 9304   5.467   6.293   5.417
 2802SOL    HW1 9305   5.381   6.312   5.464
 2802SOL    HW2 9306   5.528   6.241   5.478
 2803SOL     OW 9307   4.266   5.193   6.039
 2803SOL    HW1 9308   4.205   5.186   6.118
 2803SOL    HW2 9309   4.258   5.110   5.983
 2804SOL     OW 9310   1.042   4.486   5.112
 2804SOL    HW1 9311   1.045   4.510   5.209
 2804SOL    HW2 9312   0.990   4.402   5.100
 2805SOL     OW 9313   5.748   3.658   2.781
 2805SOL    HW1 9314   5.794   3.743   2.808
 2805SOL    HW2 9315   5.774   3.636   2.687
 2806SOL     OW 9316   1.671   4.184   5.923
 2806SOL    HW1 9317   1.742   4.168   5.854
 2806SOL    HW2 9318   1.688   4.125   6.002
 2807SOL     OW 9319   3.685   6.873   4.015
 2807SOL    HW1 9320   3.603   6.914   3.975
 2807SOL    HW2 9321   3.761   6.939   4.013
 2808SOL     OW 9322   6.257   5.416   2.146
 2808SOL    HW1 9323   6.349   5.396   2.111
 2808SOL    HW2 9324   6.230   5.346   2.212
 2809SOL     OW 9325   5.253   2.747   0.818
 2809SOL    HW1 9326   5.336   2.788   0.777
 2809SOL    HW2 9327   5.270   2.729   0.915
 2810SOL     OW 9328   2.361   5.613   2.798
 2810SOL    HW1 9329   2.323   5.586   2.709
 2810SOL    HW2 9330   2.291   5.662   2.850
 2811SOL     OW 9331   1.608   1.944   4.027
 2811SOL    HW1 9332   1.608   2.040   4.055
 2811SOL    HW2 9333   1.551   1.891   4.089
 2812SOL     OW 9334   5.645   3.287   0.383
 2812SOL    HW1 9335   5.737   3.319   0.405
 2812SOL    HW2 9336   5.650   3.210   0.319
 2813SOL     OW 9337   0.937   0.424   6.427
 2813SOL    HW1 9338   0.989   0.448   6.345
 2813SOL    HW2 9339   0.843   0.400   6.401
 2814SOL     OW 9340   3.622   4.263   5.371
 2814SOL    HW1 9341   3.636   4.266   5.272
 2814SOL    HW2 9342   3.530   4.295   5.392
 2815SOL     OW 9343   6.831   5.496   6.250
 2815SOL    HW1 9344   6.858   5.420   6.190
 2815SOL    HW2 9345   6.812   5.461   6.341
 2816SOL     OW 9346   6.675   5.779   3.473
 2816SOL    HW1 9347   6.649   5.848   3.405
 2816SOL    HW2 9348   6.603   5.774   3.543
 2817SOL     OW 9349   2.989   0.143   1.636
 2817SOL    HW1 9350   2.930   0.221   1.617
 2817SOL    HW2 9351   3.026   0.151   1.729
 2818SOL     OW 9352   0.260   0.643   2.458
 2818SOL    HW1 9353   0.227   0.695   2.380
 2818SOL    HW2 9354   0.235   0.690   2.543
 2819SOL     OW 9355   2.265   0.564   1.596
 2819SOL    HW1 9356   2.230   0.539   1.686
 2819SOL    HW2 9357   2.196   0.544   1.527
 2820SOL     OW 9358   1.291   2.109   3.616
 2820SOL    HW1 9359   1.193   2.094   3.598
 2820SOL    HW2 9360   1.333   2.023   3.645
 2821SOL     OW 9361   3.921   4.951   5.824
 2821SOL    HW1 9362   3.986   5.027   5.828
 2821SOL    HW2 9363   3.972   4.865   5.813
 2822SOL     OW 9364   4.061   1.667   0.025
 2822SOL    HW1 9365   4.009   1.678   0.110
 2822SOL    HW2 9366   4.157   1.651   0.047
 2823SOL     OW 9367   5.228   0.953   1.051
 2823SOL    HW1 9368   5.240   0.970   1.149
 2823SOL    HW2 9369   5.285   1.017   1.000
 2824SOL     OW 9370   1.983   1.809   4.677
 2824SOL    HW1 9371   1.918   1.884   4.663
 2824SOL    HW2 9372   2.063   1.821   4.618
 2825SOL     OW 9373   4.977   6.084   6.468
 2825SOL    HW1 9374   4.903   6.119   6.410
 2825SOL    HW2 9375   5.008   6.157   6.529
 2826SOL     OW 9376   4.747   2.050   0.058
 2826SOL    HW1 9377   4.771   1.971   0.001
 2826SOL    HW2 9378   4.755   2.133   0.004
 2827SOL     OW 9379   0.433   1.217   6.450
 2827SOL    HW1 9380   0.463   1.255   6.362
 2827SOL    HW2 9381   0.475   1.270   6.524
 2828SOL     OW 9382   2.352   2.342   0.583
 2828SOL    HW1 9383   2.392   2.262   0.628
 2828SOL    HW2 9384   2.380   2.343   0.487
 2829SOL     OW 9385   3.596   2.940   3.591
 2829SOL    HW1 9386   3.686   2.938   3.635
 2829SOL    HW2 9387   3.607   2.925   3.493
 2830SOL     OW 9388   2.917   3.887   5.186
 2830SOL    HW1 9389   2.932   3.902   5.284
 2830SOL    HW2 9390   2.836   3.830   5.174
 2831SOL     OW 9391   0.630   3.399   2.816
 2831SOL    HW1 9392   0.564   3.333   2.851
 2831SOL    HW2 9393   0.593   3.491   2.823
 2832SOL     OW 9394   0.510   2.988   2.079
 2832SOL    HW1 9395   0.482   2.939   1.997
 2832SOL    HW2 9396   0.514   3.086   2.060
 2833SOL     OW 9397   2.783   1.742   2.534
 2833SOL    HW1 9398   2.817   1.656   2.498
 2833SOL    HW2 9399   2.695   1.727   2.579
 2834SOL     OW 9400   4.071   6.306   5.763
 2834SOL    HW1 9401   3.976   6.335   5.753
 2834SOL    HW2 9402   4.101   6.261   5.678
 2835SOL     OW 9403   0.437   6.592   1.217
 2835SOL    HW1 9404   0.457   6.685   1.245
 2835SOL    HW2 9405   0.520   6.536   1.222
 2836SOL     OW 9406   0.696   6.727   1.855
 2836SOL    HW1 9407   0.688   6.661   1.780
 2836SOL    HW2 9408   0.611   6.778   1.864
 2837SOL     OW 9409   4.654   4.395   2.567
 2837SOL    HW1 9410   4.685   4.350   2.651
 2837SOL    HW2 9411   4.674   4.336   2.489
 2838SOL     OW 9412   3.869   3.753   0.942
 2838SOL    HW1 9413   3.857   3.775   0.845
 2838SOL    HW2 9414   3.952   3.798   0.976
 2839SOL     OW 9415   6.926   2.243   3.261
 2839SOL    HW1 9416   6.988   2.248   3.183
 2839SOL    HW2 9417   6.893   2.149   3.272
 2840SOL     OW 9418   2.064   0.218   1.801
 2840SOL    HW1 9419   2.105   0.200   1.891
 2840SOL    HW2 9420   2.029   0.132   1.763
 2841SOL     OW 9421   6.002   2.146   6.401
 2841SOL    HW1 9422   6.036   2.058   6.369
 2841SOL    HW2 9423   5.973   2.201   6.323
 2842SOL     OW 9424   0.266   4.792   4.098
 2842SOL    HW1 9425   0.255   4.881   4.144
 2842SOL    HW2 9426   0.322   4.803   4.016
 2843SOL     OW 9427   2.642   2.474   3.029
 2843SOL    HW1 9428   2.691   2.413   3.091
 2843SOL    HW2 9429   2.580   2.532   3.082
 2844SOL     OW 9430   6.511   5.369   0.243
 2844SOL    HW1 9431   6.423   5.348   0.201
 2844SOL    HW2 9432   6.541   5.291   0.298
 2845SOL     OW 9433   5.659   3.282   2.059
 2845SOL    HW1 9434   5.583   3.324   2.108
 2845SOL    HW2 9435   5.628   3.197   2.017
 2846SOL     OW 9436   4.384   0.380   0.428
 2846SOL    HW1 9437   4.328   0.373   0.510
 2846SOL    HW2 9438   4.407   0.289   0.395
 2847SOL     OW 9439   5.408   4.051   2.752
 2847SOL    HW1 9440   5.403   3.955   2.724
 2847SOL    HW2 9441   5.332   4.102   2.713
 2848SOL     OW 9442   2.247   2.394   5.009
 2848SOL    HW1 9443   2.160   2.400   5.058
 2848SOL    HW2 9444   2.245   2.455   4.930
 2849SOL     OW 9445   3.938   0.345   0.756
 2849SOL    HW1 9446   3.844   0.378   0.764
 2849SOL    HW2 9447   3.983   0.353   0.845
 2850SOL     OW 9448   1.995   0.446   2.796
 2850SOL    HW1 9449   2.055   0.522   2.773
 2850SOL    HW2 9450   1.962   0.456   2.889
 2851SOL     OW 9451   5.718   2.135   6.145
 2851SOL    HW1 9452   5.656   2.109   6.220
 2851SOL    HW2 9453   5.765   2.220   6.168
 2852SOL     OW 9454   6.877   4.126   6.755
 2852SOL    HW1 9455   6.878   4.143   6.853
 2852SOL    HW2 9456   6.805   4.061   6.732
 2853SOL     OW 9457   1.728   2.249   5.944
 2853SOL    HW1 9458   1.669   2.315   5.991
 2853SOL    HW2 9459   1.809   2.295   5.909
 2854SOL     OW 9460   4.273   1.099   5.718
 2854SOL    HW1 9461   4.180   1.067   5.702
 2854SOL    HW2 9462   4.330   1.024   5.751
 2855SOL     OW 9463   1.925   1.527   5.697
 2855SOL    HW1 9464   2.011   1.568   5.728
 2855SOL    HW2 9465   1.890   1.578   5.619
 2856SOL     OW 9466   0.651   3.618   4.975
 2856SOL    HW1 9467   0.598   3.576   5.048
 2856SOL    HW2 9468   0.597   3.693   4.935
 2857SOL     OW 9469   0.921   2.488   1.015
 2857SOL    HW1 9470   0.857   2.533   0.951
 2857SOL    HW2 9471   0.928   2.544   1.098
 2858SOL     OW 9472   4.220   5.195   2.445
 2858SOL    HW1 9473   4.159   5.153   2.378
 2858SOL    HW2 9474   4.170   5.264   2.498
 2859SOL     OW 9475   6.639   0.058   6.658
 2859SOL    HW1 9476   6.562   0.025   6.604
 2859SOL    HW2 9477   6.724   0.023   6.619
 2860SOL     OW 9478   2.020   1.511   2.339
 2860SOL    HW1 9479   2.045   1.463   2.255
 2860SOL    HW2 9480   2.081   1.588   2.353
 2861SOL     OW 9481   2.853   5.441   5.127
 2861SOL    HW1 9482   2.911   5.510   5.083
 2861SOL    HW2 9483   2.759   5.473   5.128
 2862SOL     OW 9484   4.871   1.790   1.320
 2862SOL    HW1 9485   4.940   1.802   1.249
 2862SOL    HW2 9486   4.788   1.841   1.295
 2863SOL     OW 9487   4.557   1.480   6.525
 2863SOL    HW1 9488   4.525   1.466   6.431
 2863SOL    HW2 9489   4.538   1.399   6.580
 2864SOL     OW 9490   4.941   2.227   1.059
 2864SOL    HW1 9491   4.996   2.225   0.975
 2864SOL    HW2 9492   4.997   2.258   1.135
 2865SOL     OW 9493   4.336   6.311   4.135
 2865SOL    HW1 9494   4.331   6.219   4.098
 2865SOL    HW2 9495   4.294   6.313   4.226
 2866SOL     OW 9496   5.680   4.597   6.424
 2866SOL    HW1 9497   5.706   4.595   6.328
 2866SOL    HW2 9498   5.738   4.661   6.474
 2867SOL     OW 9499   6.067   5.962   2.869
 2867SOL    HW1 9500   5.980   5.913   2.862
 2867SOL    HW2 9501   6.142   5.901   2.840
 2868SOL     OW 9502   1.857   1.436   6.075
 2868SOL    HW1 9503   1.797   1.414   5.998
 2868SOL    HW2 9504   1.872   1.535   6.078
 2869SOL     OW 9505   6.667   0.998   2.920
 2869SOL    HW1 9506   6.648   1.025   2.825
 2869SOL    HW2 9507   6.751   1.041   2.951
 2870SOL     OW 9508   0.618   1.622   5.665
 2870SOL    HW1 9509   0.519   1.636   5.677
 2870SOL    HW2 9510   0.643   1.532   5.700
 2871SOL     OW 9511   5.813   0.872   6.753
 2871SOL    HW1 9512   5.732   0.813   6.759
 2871SOL    HW2 9513   5.874   0.852   6.829
 2872SOL     OW 9514   2.387   2.163   1.506
 2872SOL    HW1 9515   2.448   2.118   1.441
 2872SOL    HW2 9516   2.439   2.227   1.563
 2873SOL     OW 9517   6.396   6.509   2.274
 2873SOL    HW1 9518   6.363   6.559   2.194
 2873SOL    HW2 9519   6.478   6.458   2.250
 2874SOL     OW 9520   4.307   6.388   2.411
 2874SOL    HW1 9521   4.372   6.330   2.461
 2874SOL    HW2 9522   4.259   6.447   2.475
 2875SOL     OW 9523   5.599   6.944   0.906
 2875SOL    HW1 9524   5.595   6.869   0.973
 2875SOL    HW2 9525   5.517   6.943   0.850
 2876SOL     OW 9526   2.129   0.658   2.630
 2876SOL    HW1 9527   2.215   0.709   2.625
 2876SOL    HW2 9528   2.053   0.722   2.620
 2877SOL     OW 9529   2.944   1.364   5.634
 2877SOL    HW1 9530   2.926   1.450   5.585
 2877SOL    HW2 9531   3.040   1.337   5.619
 2878SOL     OW 9532   3.329   4.248   5.428
 2878SOL    HW1 9533   3.327   4.164   5.374
 2878SOL    HW2 9534   3.267   4.315   5.388
 2879SOL     OW 9535   5.157   5.453   6.183
 2879SOL    HW1 9536   5.200   5.362   6.178
 2879SOL    HW2 9537   5.084   5.451   6.251
 2880SOL     OW 9538   0.284   2.098   2.668
 2880SOL    HW1 9539   0.224   2.018   2.667
 2880SOL    HW2 9540   0.367   2.077   2.718
 2881SOL     OW 9541   4.311   5.950   6.841
 2881SOL    HW1 9542   4.240   6.001   6.890
 2881SOL    HW2 9543   4.279   5.931   6.748
 2882SOL     OW 9544   6.921   5.642   1.695
 2882SOL    HW1 9545   6.896   5.621   1.601
 2882SOL    HW2 9546   6.844   5.620   1.755
 2883SOL     OW 9547   5.764   0.223   3.958
 2883SOL    HW1 9548   5.696   0.173   3.905
 2883SOL    HW2 9549   5.850   0.228   3.907
 2884SOL     OW 9550   0.708   6.850   3.212
 2884SOL    HW1 9551   0.663   6.787   3.149
 2884SOL    HW2 9552   0.748   6.799   3.288
 2885SOL     OW 9553   1.423   3.530   3.974
 2885SOL    HW1 9554   1.406   3.529   3.876
 2885SOL    HW2 9555   1.464   3.444   4.003
 2886SOL     OW 9556   1.526   3.164   6.431
 2886SOL    HW1 9557   1.537   3.147   6.333
 2886SOL    HW2 9558   1.554   3.082   6.482
 2887SOL     OW 9559   0.796   6.572   5.521
 2887SOL    HW1 9560   0.769   6.604   5.612
 2887SOL    HW2 9561   0.823   6.476   5.526
 2888SOL     OW 9562   0.187   3.716   6.564
 2888SOL    HW1 9563   0.135   3.802   6.565
 2888SOL    HW2 9564   0.236   3.706   6.650
 2889SOL     OW 9565   2.908   5.997   2.256
 2889SOL    HW1 9566   2.979   6.067   2.255
 2889SOL    HW2 9567   2.871   5.986   2.164
 2890SOL     OW 9568   1.698   6.177   0.433
 2890SOL    HW1 9569   1.771   6.109   0.428
 2890SOL    HW2 9570   1.714   6.238   0.510
 2891SOL     OW 9571   0.594   4.649   3.460
 2891SOL    HW1 9572   0.563   4.554   3.460
 2891SOL    HW2 9573   0.688   4.653   3.494
 2892SOL     OW 9574   6.527   2.790   0.855
 2892SOL    HW1 9575   6.435   2.749   0.859
 2892SOL    HW2 9576   6.552   2.804   0.759
 2893SOL     OW 9577   0.863   5.268   4.145
 2893SOL    HW1 9578   0.809   5.309   4.072
 2893SOL    HW2 9579   0.947   5.321   4.159
 2894SOL     OW 9580   6.876   3.080   2.250
 2894SOL    HW1 9581   6.866   3.015   2.326
 2894SOL    HW2 9582   6.972   3.101   2.237
 2895SOL     OW 9583   5.070   0.958   5.237
 2895SOL    HW1 9584   5.087   1.010   5.320
 2895SOL    HW2 9585   4.987   0.903   5.248
 2896SOL     OW 9586   4.362   6.595   5.498
 2896SOL    HW1 9587   4.354   6.687   5.536
 2896SOL    HW2 9588   4.395   6.600   5.404
 2897SOL     OW 9589   4.007   4.914   2.728
 2897SOL    HW1 9590   4.076   4.983   2.746
 2897SOL    HW2 9591   3.929   4.955   2.680
 2898SOL     OW 9592   4.625   4.468   4.532
 2898SOL    HW1 9593   4.598   4.554   4.489
 2898SOL    HW2 9594   4.589   4.465   4.626
 2899SOL     OW 9595   0.601   1.714   0.654
 2899SOL    HW1 9596   0.632   1.620   0.665
 2899SOL    HW2 9597   0.572   1.729   0.559
 2900SOL     OW 9598   2.817   4.381   6.686
 2900SOL    HW1 9599   2.857   4.468   6.715
 2900SOL    HW2 9600   2.870   4.306   6.726
 2901SOL     OW 9601   2.424   4.854   3.018
 2901SOL    HW1 9602   2.398   4.757   3.018
 2901SOL    HW2 9603   2.474   4.875   3.102
 2902SOL     OW 9604   5.943   5.467   3.248
 2902SOL    HW1 9605   5.973   5.523   3.324
 2902SOL    HW2 9606   5.966   5.371   3.266
 2903SOL     OW 9607   4.552   6.685   0.455
 2903SOL    HW1 9608   4.551   6.636   0.368
 2903SOL    HW2 9609   4.641   6.673   0.499
 2904SOL     OW 9610   2.713   5.044   4.614
 2904SOL    HW1 9611   2.664   5.124   4.579
 2904SOL    HW2 9612   2.664   5.005   4.691
 2905SOL     OW 9613   1.521   3.725   4.610
 2905SOL    HW1 9614   1.477   3.742   4.698
 2905SOL    HW2 9615   1.510   3.805   4.551
 2906SOL     OW 9616   4.641   4.900   2.616
 2906SOL    HW1 9617   4.736   4.894   2.648
 2906SOL    HW2 9618   4.617   4.817   2.567
 2907SOL     OW 9619   0.459   1.956   3.756
 2907SOL    HW1 9620   0.456   1.859   3.781
 2907SOL    HW2 9621   0.429   1.967   3.661
 2908SOL     OW 9622   5.337   6.505   3.571
 2908SOL    HW1 9623   5.410   6.445   3.606
 2908SOL    HW2 9624   5.377   6.594   3.548
 2909SOL     OW 9625   1.664   5.962   3.667
 2909SOL    HW1 9626   1.736   5.911   3.620
 2909SOL    HW2 9627   1.583   5.966   3.608
 2910SOL     OW 9628   5.602   0.901   4.385
 2910SOL    HW1 9629   5.633   0.811   4.415
 2910SOL    HW2 9630   5.568   0.953   4.464
 2911SOL     OW 9631   1.676   6.069   3.284
 2911SOL    HW1 9632   1.656   6.137   3.355
 2911SOL    HW2 9633   1.769   6.035   3.295
 2912SOL     OW 9634   5.759   6.447   0.456
 2912SOL    HW1 9635   5.776   6.388   0.378
 2912SOL    HW2 9636   5.749   6.541   0.426
 2913SOL     OW 9637   3.486   5.028   1.996
 2913SOL    HW1 9638   3.508   5.026   1.898
 2913SOL    HW2 9639   3.522   4.947   2.040
 2914SOL     OW 9640   6.809   5.968   6.541
 2914SOL    HW1 9641   6.825   5.874   6.570
 2914SOL    HW2 9642   6.838   5.979   6.446
 2915SOL     OW 9643   3.348   2.155   3.619
 2915SOL    HW1 9644   3.276   2.202   3.568
 2915SOL    HW2 9645   3.371   2.069   3.573
 2916SOL     OW 9646   1.262   5.690   0.412
 2916SOL    HW1 9647   1.280   5.632   0.333
 2916SOL    HW2 9648   1.171   5.669   0.449
 2917SOL     OW 9649   2.489   0.162   3.400
 2917SOL    HW1 9650   2.397   0.160   3.440
 2917SOL    HW2 9651   2.550   0.215   3.458
 2918SOL     OW 9652   6.339   4.224   5.236
 2918SOL    HW1 9653   6.321   4.221   5.335
 2918SOL    HW2 9654   6.253   4.240   5.187
 2919SOL     OW 9655   5.735   0.404   2.298
 2919SOL    HW1 9656   5.731   0.472   2.371
 2919SOL    HW2 9657   5.737   0.451   2.209
 2920SOL     OW 9658   3.054   1.156   1.105
 2920SOL    HW1 9659   3.152   1.134   1.100
 2920SOL    HW2 9660   3.040   1.251   1.076
 2921SOL     OW 9661   0.503   6.423   4.652
 2921SOL    HW1 9662   0.507   6.354   4.580
 2921SOL    HW2 9663   0.584   6.481   4.649
 2922SOL     OW 9664   4.725   6.934   1.400
 2922SOL    HW1 9665   4.695   6.905   1.491
 2922SOL    HW2 9666   4.817   6.975   1.407
 2923SOL     OW 9667   6.158   5.331   3.073
 2923SOL    HW1 9668   6.065   5.367   3.073
 2923SOL    HW2 9669   6.164   5.258   3.141
 2924SOL     OW 9670   6.683   2.387   5.776
 2924SOL    HW1 9671   6.684   2.447   5.696
 2924SOL    HW2 9672   6.623   2.427   5.846
 2925SOL     OW 9673   5.695   2.365   0.650
 2925SOL    HW1 9674   5.667   2.349   0.555
 2925SOL    HW2 9675   5.658   2.293   0.709
 2926SOL     OW 9676   6.080   1.706   6.374
 2926SOL    HW1 9677   6.077   1.799   6.338
 2926SOL    HW2 9678   6.013   1.649   6.326
 2927SOL     OW 9679   1.380   4.022   1.454
 2927SOL    HW1 9680   1.402   3.998   1.548
 2927SOL    HW2 9681   1.310   3.960   1.418
 2928SOL     OW 9682   0.648   0.762   6.873
 2928SOL    HW1 9683   0.599   0.829   6.928
 2928SOL    HW2 9684   0.633   0.780   6.776
 2929SOL     OW 9685   1.257   2.402   6.496
 2929SOL    HW1 9686   1.164   2.433   6.518
 2929SOL    HW2 9687   1.263   2.384   6.398
 2930SOL     OW 9688   5.303   6.753   5.555
 2930SOL    HW1 9689   5.246   6.828   5.588
 2930SOL    HW2 9690   5.400   6.777   5.565
 2931SOL     OW 9691   5.249   5.005   0.124
 2931SOL    HW1 9692   5.239   4.906   0.139
 2931SOL    HW2 9693   5.159   5.046   0.110
 2932SOL     OW 9694   1.058   6.000   2.089
 2932SOL    HW1 9695   1.139   5.947   2.114
 2932SOL    HW2 9696   1.069   6.034   1.995
 2933SOL     OW 9697   1.587   5.800   2.459
 2933SOL    HW1 9698   1.613   5.896   2.454
 2933SOL    HW2 9699   1.582   5.761   2.367
 2934SOL     OW 9700   5.048   1.451   6.685
 2934SOL    HW1 9701   5.116   1.516   6.719
 2934SOL    HW2 9702   5.009   1.400   6.762
 2935SOL     OW 9703   0.049   2.382   6.561
 2935SOL    HW1 9704   6.989   2.393   6.617
 2935SOL    HW2 9705   0.076   2.286   6.560
 2936SOL     OW 9706   4.638   6.289   0.331
 2936SOL    HW1 9707   4.627   6.261   0.427
 2936SOL    HW2 9708   4.732   6.271   0.302
 2937SOL     OW 9709   5.785   4.747   1.721
 2937SOL    HW1 9710   5.726   4.753   1.802
 2937SOL    HW2 9711   5.879   4.726   1.749
 2938SOL     OW 9712   4.693   5.196   6.826
 2938SOL    HW1 9713   4.792   5.186   6.816
 2938SOL    HW2 9714   4.664   5.284   6.790
 2939SOL     OW 9715   2.468   0.685   2.302
 2939SOL    HW1 9716   2.380   0.683   2.255
 2939SOL    HW2 9717   2.538   0.644   2.243
 2940SOL     OW 9718   5.677   4.801   5.591
 2940SOL    HW1 9719   5.627   4.753   5.518
 2940SOL    HW2 9720   5.628   4.789   5.677
 2941SOL     OW 9721   1.772   2.437   4.409
 2941SOL    HW1 9722   1.828   2.370   4.459
 2941SOL    HW2 9723   1.762   2.519   4.465
 2942SOL     OW 9724   3.971   2.095   0.435
 2942SOL    HW1 9725   4.001   2.190   0.439
 2942SOL    HW2 9726   4.019   2.048   0.361
 2943SOL     OW 9727   5.650   4.221   3.897
 2943SOL    HW1 9728   5.710   4.299   3.913
 2943SOL    HW2 9729   5.693   4.138   3.933
 2944SOL     OW 9730   2.916   6.087   4.590
 2944SOL    HW1 9731   2.957   6.170   4.551
 2944SOL    HW2 9732   2.925   6.012   4.524
 2945SOL     OW 9733   3.382   3.598   2.594
 2945SOL    HW1 9734   3.452   3.527   2.591
 2945SOL    HW2 9735   3.297   3.561   2.630
 2946SOL     OW 9736   1.539   4.899   5.970
 2946SOL    HW1 9737   1.509   4.805   5.984
 2946SOL    HW2 9738   1.637   4.900   5.952
 2947SOL     OW 9739   6.971   5.070   1.294
 2947SOL    HW1 9740   0.003   5.025   1.222
 2947SOL    HW2 9741   6.960   5.007   1.371
 2948SOL     OW 9742   0.401   3.842   4.186
 2948SOL    HW1 9743   0.483   3.845   4.130
 2948SOL    HW2 9744   0.423   3.810   4.278
 2949SOL     OW 9745   1.576   5.194   0.671
 2949SOL    HW1 9746   1.651   5.243   0.716
 2949SOL    HW2 9747   1.551   5.241   0.587
 2950SOL     OW 9748   5.445   5.343   4.555
 2950SOL    HW1 9749   5.359   5.383   4.526
 2950SOL    HW2 9750   5.460   5.256   4.508
 2951SOL     OW 9751   5.021   1.521   2.441
 2951SOL    HW1 9752   5.089   1.550   2.508
 2951SOL    HW2 9753   5.020   1.421   2.434
 2952SOL     OW 9754   0.016   5.316   5.032
 2952SOL    HW1 9755   6.999   5.226   5.050
 2952SOL    HW2 9756   6.983   5.386   5.079
 2953SOL     OW 9757   5.896   4.236   2.386
 2953SOL    HW1 9758   5.943   4.148   2.379
 2953SOL    HW2 9759   5.938   4.302   2.323
 2954SOL     OW 9760   1.229   5.191   1.883
 2954SOL    HW1 9761   1.242   5.114   1.946
 2954SOL    HW2 9762   1.132   5.208   1.871
 2955SOL     OW 9763   0.735   3.930   1.857
 2955SOL    HW1 9764   0.682   4.015   1.861
 2955SOL    HW2 9765   0.726   3.881   1.943
 2956SOL     OW 9766   5.737   6.196   2.787
 2956SOL    HW1 9767   5.645   6.205   2.751
 2956SOL    HW2 9768   5.733   6.163   2.882
 2957SOL     OW 9769   5.269   4.479   1.445
 2957SOL    HW1 9770   5.281   4.574   1.471
 2957SOL    HW2 9771   5.273   4.421   1.527
 2958SOL     OW 9772   2.192   4.109   3.451
 2958SOL    HW1 9773   2.207   4.191   3.395
 2958SOL    HW2 9774   2.147   4.039   3.396
 2959SOL     OW 9775   4.943   3.890   0.821
 2959SOL    HW1 9776   4.969   3.817   0.757
 2959SOL    HW2 9777   4.961   3.860   0.915
 2960SOL     OW 9778   3.190   0.552   0.470
 2960SOL    HW1 9779   3.166   0.524   0.377
 2960SOL    HW2 9780   3.182   0.473   0.531
 2961SOL     OW 9781   5.992   4.800   3.208
 2961SOL    HW1 9782   5.922   4.865   3.177
 2961SOL    HW2 9783   6.058   4.849   3.266
 2962SOL     OW 9784   4.527   6.902   3.164
 2962SOL    HW1 9785   4.606   6.842   3.154
 2962SOL    HW2 9786   4.450   6.850   3.202
 2963SOL     OW 9787   1.600   1.053   6.255
 2963SOL    HW1 9788   1.668   1.125   6.263
 2963SOL    HW2 9789   1.523   1.085   6.200
 2964SOL     OW 9790   0.155   1.041   5.018
 2964SOL    HW1 9791   0.069   1.035   4.967
 2964SOL    HW2 9792   0.231   1.052   4.953
 2965SOL     OW 9793   0.515   0.908   4.407
 2965SOL    HW1 9794   0.475   0.830   4.358
 2965SOL    HW2 9795   0.610   0.920   4.379
 2966SOL     OW 9796   4.367   4.614   3.692
 2966SOL    HW1 9797   4.447   4.570   3.652
 2966SOL    HW2 9798   4.322   4.670   3.623
 2967SOL     OW 9799   6.354   0.984   4.751
 2967SOL    HW1 9800   6.266   1.028   4.765
 2967SOL    HW2 9801   6.427   1.042   4.787
 2968SOL     OW 9802   1.208   2.986   0.564
 2968SOL    HW1 9803   1.109   2.973   0.558
 2968SOL    HW2 9804   1.229   3.040   0.646
 2969SOL     OW 9805   5.150   3.015   4.616
 2969SOL    HW1 9806   5.124   2.971   4.530
 2969SOL    HW2 9807   5.169   3.112   4.599
 2970SOL     OW 9808   2.670   2.446   5.238
 2970SOL    HW1 9809   2.693   2.400   5.153
 2970SOL    HW2 9810   2.580   2.489   5.230
 2971SOL     OW 9811   5.290   4.032   0.077
 2971SOL    HW1 9812   5.210   4.029   0.017
 2971SOL    HW2 9813   5.286   3.956   0.141
 2972SOL     OW 9814   0.127   4.760   6.298
 2972SOL    HW1 9815   0.220   4.782   6.271
 2972SOL    HW2 9816   0.112   4.661   6.289
 2973SOL     OW 9817   5.159   6.024   1.843
 2973SOL    HW1 9818   5.223   6.074   1.784
 2973SOL    HW2 9819   5.115   6.088   1.906
 2974SOL     OW 9820   0.746   4.496   3.723
 2974SOL    HW1 9821   0.711   4.431   3.656
 2974SOL    HW2 9822   0.808   4.560   3.678
 2975SOL     OW 9823   5.200   3.566   4.084
 2975SOL    HW1 9824   5.221   3.553   3.987
 2975SOL    HW2 9825   5.101   3.566   4.097
 2976SOL     OW 9826   4.034   2.127   2.987
 2976SOL    HW1 9827   4.106   2.187   3.023
 2976SOL    HW2 9828   3.963   2.116   3.057
 2977SOL     OW 9829   1.795   0.469   2.559
 2977SOL    HW1 9830   1.865   0.454   2.629
 2977SOL    HW2 9831   1.822   0.421   2.475
 2978SOL     OW 9832   4.225   5.053   0.003
 2978SOL    HW1 9833   4.253   4.965   6.987
 2978SOL    HW2 9834   4.256   5.060   0.098
 2979SOL     OW 9835   3.673   1.264   3.588
 2979SOL    HW1 9836   3.617   1.343   3.609
 2979SOL    HW2 9837   3.744   1.254   3.658
 2980SOL     OW 9838   1.348   5.071   5.060
 2980SOL    HW1 9839   1.436   5.040   5.096
 2980SOL    HW2 9840   1.336   5.168   5.081
 2981SOL     OW 9841   2.851   1.218   6.303
 2981SOL    HW1 9842   2.909   1.144   6.269
 2981SOL    HW2 9843   2.848   1.291   6.235
 2982SOL     OW 9844   2.867   5.703   1.902
 2982SOL    HW1 9845   2.823   5.781   1.857
 2982SOL    HW2 9846   2.964   5.722   1.914
 2983SOL     OW 9847   6.262   2.222   2.824
 2983SOL    HW1 9848   6.182   2.281   2.815
 2983SOL    HW2 9849   6.274   2.195   2.919
 2984SOL     OW 9850   6.325   4.496   6.954
 2984SOL    HW1 9851   6.280   4.415   6.916
 2984SOL    HW2 9852   6.255   4.560   6.988
 2985SOL     OW 9853   1.939   2.903   4.748
 2985SOL    HW1 9854   1.902   2.964   4.819
 2985SOL    HW2 9855   1.993   2.831   4.791
 2986SOL     OW 9856   3.558   4.140   3.128
 2986SOL    HW1 9857   3.496   4.119   3.203
 2986SOL    HW2 9858   3.635   4.194   3.161
 2987SOL     OW 9859   0.983   1.842   4.211
 2987SOL    HW1 9860   1.069   1.799   4.238
 2987SOL    HW2 9861   0.909   1.774   4.214
 2988SOL     OW 9862   1.815   6.400   2.878
 2988SOL    HW1 9863   1.860   6.342   2.946
 2988SOL    HW2 9864   1.884   6.440   2.818
 2989SOL     OW 9865   5.535   5.693   5.696
 2989SOL    HW1 9866   5.565   5.775   5.745
 2989SOL    HW2 9867   5.615   5.643   5.663
 2990SOL     OW 9868   3.569   2.074   4.608
 2990SOL    HW1 9869   3.483   2.125   4.609
 2990SOL    HW2 9870   3.558   1.990   4.555
 2991SOL     OW 9871   6.455   3.692   5.598
 2991SOL    HW1 9872   6.359   3.721   5.597
 2991SOL    HW2 9873   6.509   3.755   5.652
 2992SOL     OW 9874   1.591   5.222   4.506
 2992SOL    HW1 9875   1.677   5.265   4.478
 2992SOL    HW2 9876   1.603   5.180   4.596
 2993SOL     OW 9877   0.376   4.998   1.215
 2993SOL    HW1 9878   0.343   5.080   1.169
 2993SOL    HW2 9879   0.441   4.950   1.156
 2994SOL     OW 9880   3.673   6.525   6.948
 2994SOL    HW1 9881   3.759   6.473   6.942
 2994SOL    HW2 9882   3.691   6.621   6.927
 2995SOL     OW 9883   3.072   1.205   6.494
 2995SOL    HW1 9884   3.069   1.281   6.559
 2995SOL    HW2 9885   3.007   1.222   6.420
 2996SOL     OW 9886   0.831   1.472   5.199
 2996SOL    HW1 9887   0.920   1.505   5.229
 2996SOL    HW2 9888   0.832   1.458   5.099
 2997SOL     OW 9889   5.468   0.149   2.921
 2997SOL    HW1 9890   5.495   0.238   2.959
 2997SOL    HW2 9891   5.393   0.162   2.856
 2998SOL     OW 9892   5.463   6.813   3.753
 2998SOL    HW1 9893   5.372   6.781   3.778
 2998SOL    HW2 9894   5.470   6.819   3.653
 2999SOL     OW 9895   2.232   5.281   5.063
 2999SOL    HW1 9896   2.310   5.257   5.006
 2999SOL    HW2 9897   2.167   5.205   5.063
 3000SOL     OW 9898   3.422   4.104   6.248
 3000SOL    HW1 9899   3.441   4.054   6.163
 3000SOL    HW2 9900   3.328   4.136   6.247
 3001SOL     OW 9901   6.894   0.592   5.749
 3001SOL    HW1 9902   6.872   0.642   5.833
 3001SOL    HW2 9903   6.927   0.500   5.773
 3002SOL     OW 9904   3.172   1.766   6.766
 3002SOL    HW1 9905   3.108   1.774   6.843
 3002SOL    HW2 9906   3.123   1.779   6.680
 3003SOL     OW 9907   1.275   6.721   0.795
 3003SOL    HW1 9908   1.261   6.766   0.883
 3003SOL    HW2 9909   1.274   6.789   0.722
 3004SOL     OW 9910   0.526   3.827   3.012
 3004SOL    HW1 9911   0.553   3.775   2.932
 3004SOL    HW2 9912   0.433   3.804   3.038
 3005SOL     OW 9913   1.734   2.890   6.866
 3005SOL    HW1 9914   1.713   2.859   6.773
 3005SOL    HW2 9915   1.675   2.968   6.889
 3006SOL     OW 9916   5.517   1.576   4.326
 3006SOL    HW1 9917   5.457   1.627   4.265
 3006SOL    HW2 9918   5.570   1.640   4.382
 3007SOL     OW 9919   5.655   4.069   0.860
 3007SOL    HW1 9920   5.664   3.970   0.851
 3007SOL    HW2 9921   5.658   4.093   0.957
 3008SOL     OW 9922   3.355   2.272   6.117
 3008SOL    HW1 9923   3.296   2.335   6.168
 3008SOL    HW2 9924   3.361   2.302   6.022
 3009SOL     OW 9925   6.807   2.346   2.954
 3009SOL    HW1 9926   6.888   2.342   3.012
 3009SOL    HW2 9927   6.828   2.306   2.865
 3010SOL     OW 9928   3.038   5.713   3.158
 3010SOL    HW1 9929   2.945   5.710   3.122
 3010SOL    HW2 9930   3.076   5.620   3.160
 3011SOL     OW 9931   6.209   1.576   2.621
 3011SOL    HW1 9932   6.132   1.619   2.670
 3011SOL    HW2 9933   6.286   1.640   2.618
 3012SOL     OW 9934   1.952   3.520   6.504
 3012SOL    HW1 9935   2.027   3.509   6.438
 3012SOL    HW2 9936   1.980   3.583   6.576
 3013SOL     OW 9937   5.273   5.903   3.794
 3013SOL    HW1 9938   5.344   5.909   3.865
 3013SOL    HW2 9939   5.221   5.988   3.791
 3014SOL     OW 9940   4.877   2.494   5.338
 3014SOL    HW1 9941   4.792   2.503   5.285
 3014SOL    HW2 9942   4.955   2.510   5.278
 3015SOL     OW 9943   2.618   1.929   0.313
 3015SOL    HW1 9944   2.619   1.868   0.392
 3015SOL    HW2 9945   2.542   1.906   0.253
 3016SOL     OW 9946   2.885   6.321   4.147
 3016SOL    HW1 9947   2.862   6.335   4.243
 3016SOL    HW2 9948   2.819   6.258   4.106
 3017SOL     OW 9949   6.210   5.651   1.923
 3017SOL    HW1 9950   6.205   5.563   1.971
 3017SOL    HW2 9951   6.136   5.655   1.855
 3018SOL     OW 9952   2.496   6.953   5.847
 3018SOL    HW1 9953   2.483   6.944   5.749
 3018SOL    HW2 9954   2.543   6.872   5.883
 3019SOL     OW 9955   0.367   6.685   6.870
 3019SOL    HW1 9956   0.320   6.612   6.820
 3019SOL    HW2 9957   0.464   6.683   6.848
 3020SOL     OW 9958   3.981   2.402   1.190
 3020SOL    HW1 9959   3.998   2.317   1.240
 3020SOL    HW2 9960   3.994   2.386   1.092
 3021SOL     OW 9961   3.299   6.867   5.755
 3021SOL    HW1 9962   3.249   6.891   5.838
 3021SOL    HW2 9963   3.396   6.855   5.777
 3022SOL     OW 9964   4.084   5.618   5.258
 3022SOL    HW1 9965   4.183   5.605   5.249
 3022SOL    HW2 9966   4.049   5.663   5.175
 3023SOL     OW 9967   4.356   6.735   3.319
 3023SOL    HW1 9968   4.380   6.698   3.409
 3023SOL    HW2 9969   4.257   6.734   3.308
 3024SOL     OW 9970   5.021   6.477   4.863
 3024SOL    HW1 9971   5.088   6.518   4.924
 3024SOL    HW2 9972   4.930   6.484   4.904
 3025SOL     OW 9973   4.495   6.546   0.717
 3025SOL    HW1 9974   4.490   6.596   0.631
 3025SOL    HW2 9975   4.443   6.461   0.709
 3026SOL     OW 9976   1.228   0.966   6.108
 3026SOL    HW1 9977   1.296   1.039   6.115
 3026SOL    HW2 9978   1.138   1.003   6.134
 3027SOL     OW 9979   4.554   1.386   2.989
 3027SOL    HW1 9980   4.491   1.446   3.038
 3027SOL    HW2 9981   4.523   1.375   2.895
 3028SOL     OW 9982   1.653   3.583   5.886
 3028SOL    HW1 9983   1.677   3.649   5.956
 3028SOL    HW2 9984   1.696   3.495   5.906
 3029SOL     OW 9985   0.481   3.200   5.233
 3029SOL    HW1 9986   0.541   3.143   5.289
 3029SOL    HW2 9987   0.520   3.292   5.226
 3030SOL     OW 9988   0.406   3.403   0.407
 3030SOL    HW1 9989   0.425   3.386   0.504
 3030SOL    HW2 9990   0.485   3.373   0.353
 3031SOL     OW 9991   6.956   4.869   1.513
 3031SOL    HW1 9992   0.006   4.800   1.525
 3031SOL    HW2 9993   6.961   4.935   1.587
 3032SOL     OW 9994   2.396   6.666   1.484
 3032SOL    HW1 9995   2.307   6.701   1.452
 3032SOL    HW2 9996   2.455   6.744   1.505
 3033SOL     OW 9997   5.811   1.417   1.555
 3033SOL    HW1 9998   5.725   1.468   1.550
 3033SOL    HW2 9999   5.856   1.436   1.642
 3034SOL     OW10000   0.992   0.218   3.035
 3034SOL    HW110001   0.933   0.196   3.112
 3034SOL    HW210002   1.080   0.252   3.069
 3035SOL     OW10003   0.258   2.794   6.021
 3035SOL    HW110004   0.306   2.818   5.937
 3035SOL    HW210005   0.241   2.696   6.023
 3036SOL     OW10006   2.129   1.331   6.005
 3036SOL    HW110007   2.194   1.405   5.991
 3036SOL    HW210008   2.046   1.367   6.047
 3037SOL     OW10009   6.234   5.514   6.495
 3037SOL    HW110010   6.206   5.418   6.491
 3037SOL    HW210011   6.327   5.523   6.459
 3038SOL     OW10012   5.187   5.787   5.840
 3038SOL    HW110013   5.127   5.720   5.883
 3038SOL    HW210014   5.260   5.814   5.904
 3039SOL     OW10015   0.351   3.587   1.082
 3039SOL    HW110016   0.343   3.678   1.121
 3039SOL    HW210017   0.436   3.545   1.111
 3040SOL     OW10018   3.072   4.134   5.966
 3040SOL    HW110019   3.036   4.224   5.940
 3040SOL    HW210020   3.106   4.088   5.885
 3041SOL     OW10021   2.367   3.274   5.302
 3041SOL    HW110022   2.460   3.310   5.307
 3041SOL    HW210023   2.367   3.186   5.256
 3042SOL     OW10024   5.843   5.798   2.825
 3042SOL    HW110025   5.837   5.759   2.917
 3042SOL    HW210026   5.755   5.836   2.798
 3043SOL     OW10027   2.802   3.911   1.480
 3043SOL    HW110028   2.836   3.996   1.520
 3043SOL    HW210029   2.799   3.840   1.551
 3044SOL     OW10030   3.332   4.765   5.928
 3044SOL    HW110031   3.411   4.721   5.885
 3044SOL    HW210032   3.359   4.804   6.016
 3045SOL     OW10033   5.054   7.015   3.123
 3045SOL    HW110034   5.080   0.086   3.094
 3045SOL    HW210035   5.125   6.978   3.182
 3046SOL     OW10036   2.861   0.636   5.851
 3046SOL    HW110037   2.786   0.570   5.842
 3046SOL    HW210038   2.912   0.639   5.765
 3047SOL     OW10039   5.894   0.504   1.262
 3047SOL    HW110040   5.862   0.409   1.268
 3047SOL    HW210041   5.852   0.558   1.335
 3048SOL     OW10042   4.128   2.209   1.542
 3048SOL    HW110043   4.067   2.255   1.607
 3048SOL    HW210044   4.184   2.277   1.496
 3049SOL     OW10045   1.337   0.311   3.028
 3049SOL    HW110046   1.314   0.394   3.079
 3049SOL    HW210047   1.341   0.331   2.931
 3050SOL     OW10048   2.863   1.811   2.133
 3050SOL    HW110049   2.772   1.792   2.169
 3050SOL    HW210050   2.889   1.740   2.067
 3051SOL     OW10051   1.933   5.801   6.139
 3051SOL    HW110052   2.016   5.749   6.160
 3051SOL    HW210053   1.958   5.890   6.100
 3052SOL     OW10054   4.843   5.523   1.793
 3052SOL    HW110055   4.912   5.463   1.833
 3052SOL    HW210056   4.885   5.611   1.769
 3053SOL     OW10057   0.111   2.517   0.941
 3053SOL    HW110058   0.015   2.494   0.955
 3053SOL    HW210059   0.119   2.612   0.911
 3054SOL     OW10060   6.521   2.312   1.479
 3054SOL    HW110061   6.616   2.339   1.496
 3054SOL    HW210062   6.468   2.394   1.455
 3055SOL     OW10063   4.798   6.990   5.117
 3055SOL    HW110064   4.797   0.023   5.201
 3055SOL    HW210065   4.876   6.927   5.121
 3056SOL     OW10066   5.997   0.717   5.500
 3056SOL    HW110067   5.908   0.683   5.470
 3056SOL    HW210068   6.004   0.815   5.478
 3057SOL     OW10069   4.437   5.478   3.694
 3057SOL    HW110070   4.483   5.553   3.743
 3057SOL    HW210071   4.401   5.512   3.608
 3058SOL     OW10072   0.131   4.664   1.444
 3058SOL    HW110073   0.116   4.730   1.371
 3058SOL    HW210074   0.090   4.576   1.419
 3059SOL     OW10075   2.946   2.247   4.280
 3059SOL    HW110076   2.909   2.334   4.310
 3059SOL    HW210077   2.972   2.192   4.359
 3060SOL     OW10078   1.218   4.820   0.441
 3060SOL    HW110079   1.177   4.871   0.366
 3060SOL    HW210080   1.265   4.739   0.405
 3061SOL     OW10081   6.549   5.580   5.430
 3061SOL    HW110082   6.601   5.661   5.403
 3061SOL    HW210083   6.452   5.595   5.408
 3062SOL     OW10084   2.277   0.623   0.938
 3062SOL    HW110085   2.354   0.685   0.951
 3062SOL    HW210086   2.192   0.676   0.930
 3063SOL     OW10087   1.709   5.500   2.021
 3063SOL    HW110088   1.724   5.492   1.922
 3063SOL    HW210089   1.654   5.423   2.052
 3064SOL     OW10090   4.995   3.492   0.940
 3064SOL    HW110091   4.976   3.501   1.037
 3064SOL    HW210092   5.019   3.397   0.919
 3065SOL     OW10093   1.656   2.030   6.445
 3065SOL    HW110094   1.569   2.061   6.482
 3065SOL    HW210095   1.697   1.963   6.506
 3066SOL     OW10096   4.998   4.587   0.494
 3066SOL    HW110097   4.956   4.561   0.407
 3066SOL    HW210098   5.045   4.508   0.533
 3067SOL     OW10099   4.228   0.697   5.837
 3067SOL    HW110100   4.166   0.689   5.916
 3067SOL    HW210101   4.174   0.704   5.753
 3068SOL     OW10102   0.183   6.768   0.871
 3068SOL    HW110103   0.281   6.775   0.886
 3068SOL    HW210104   0.165   6.731   0.780
 3069SOL     OW10105   6.911   6.462   2.025
 3069SOL    HW110106   6.967   6.535   2.064
 3069SOL    HW210107   6.816   6.491   2.022
 3070SOL     OW10108   3.098   1.228   6.915
 3070SOL    HW110109   3.038   1.155   6.947
 3070SOL    HW210110   3.190   1.191   6.900
 3071SOL     OW10111   6.959   6.472   3.667
 3071SOL    HW110112   0.033   6.446   3.652
 3071SOL    HW210113   6.931   6.442   3.758
 3072SOL     OW10114   2.441   5.828   6.226
 3072SOL    HW110115   2.447   5.904   6.290
 3072SOL    HW210116   2.492   5.750   6.262
 3073SOL     OW10117   6.727   3.820   4.277
 3073SOL    HW110118   6.633   3.852   4.269
 3073SOL    HW210119   6.757   3.781   4.190
 3074SOL     OW10120   6.768   3.784   1.583
 3074SOL    HW110121   6.702   3.851   1.617
 3074SOL    HW210122   6.768   3.703   1.642
 3075SOL     OW10123   2.649   5.404   1.445
 3075SOL    HW110124   2.661   5.363   1.355
 3075SOL    HW210125   2.698   5.490   1.450
 3076SOL     OW10126   6.236   0.669   3.498
 3076SOL    HW110127   6.280   0.645   3.585
 3076SOL    HW210128   6.168   0.599   3.475
 3077SOL     OW10129   5.925   4.455   1.836
 3077SOL    HW110130   5.862   4.409   1.774
 3077SOL    HW210131   5.964   4.535   1.790
 3078SOL     OW10132   6.853   3.178   3.052
 3078SOL    HW110133   6.803   3.205   3.135
 3078SOL    HW210134   6.790   3.133   2.989
 3079SOL     OW10135   2.688   2.341   2.696
 3079SOL    HW110136   2.697   2.413   2.764
 3079SOL    HW210137   2.615   2.279   2.722
 3080SOL     OW10138   5.516   5.460   2.214
 3080SOL    HW110139   5.579   5.389   2.183
 3080SOL    HW210140   5.422   5.433   2.195
 3081SOL     OW10141   1.143   3.014   6.042
 3081SOL    HW110142   1.202   3.095   6.047
 3081SOL    HW210143   1.049   3.039   6.064
 3082SOL     OW10144   1.830   5.783   4.234
 3082SOL    HW110145   1.837   5.815   4.140
 3082SOL    HW210146   1.734   5.776   4.260
 3083SOL     OW10147   3.247   6.005   3.673
 3083SOL    HW110148   3.311   5.936   3.708
 3083SOL    HW210149   3.156   5.965   3.663
 3084SOL     OW10150   6.935   4.207   4.503
 3084SOL    HW110151   6.920   4.119   4.457
 3084SOL    HW210152   0.007   4.237   4.486
 3085SOL     OW10153   5.707   4.142   0.205
 3085SOL    HW110154   5.655   4.207   0.260
 3085SOL    HW210155   5.791   4.184   0.173
 3086SOL     OW10156   5.471   1.126   1.455
 3086SOL    HW110157   5.474   1.100   1.551
 3086SOL    HW210158   5.554   1.176   1.431
 3087SOL     OW10159   1.927   6.275   3.784
 3087SOL    HW110160   1.976   6.218   3.718
 3087SOL    HW210161   1.856   6.220   3.829
 3088SOL     OW10162   2.269   4.971   4.710
 3088SOL    HW110163   2.361   5.009   4.697
 3088SOL    HW210164   2.270   4.874   4.685
 3089SOL     OW10165   3.383   1.892   5.395
 3089SOL    HW110166   3.329   1.860   5.318
 3089SOL    HW210167   3.369   1.991   5.407
 3090SOL     OW10168   2.263   1.825   1.967
 3090SOL    HW110169   2.259   1.884   1.886
 3090SOL    HW210170   2.301   1.877   2.043
 3091SOL     OW10171   1.463   1.226   1.029
 3091SOL    HW110172   1.450   1.131   1.004
 3091SOL    HW210173   1.557   1.254   1.006
 3092SOL     OW10174   5.667   1.173   0.821
 3092SOL    HW110175   5.647   1.075   0.828
 3092SOL    HW210176   5.716   1.190   0.736
 3093SOL     OW10177   5.879   6.192   6.681
 3093SOL    HW110178   5.945   6.145   6.741
 3093SOL    HW210179   5.786   6.160   6.703
 3094SOL     OW10180   2.340   0.353   4.396
 3094SOL    HW110181   2.408   0.287   4.428
 3094SOL    HW210182   2.293   0.392   4.475
 3095SOL     OW10183   2.178   4.664   5.852
 3095SOL    HW110184   2.254   4.680   5.915
 3095SOL    HW210185   2.118   4.592   5.888
 3096SOL     OW10186   0.862   5.063   5.507
 3096SOL    HW110187   0.830   5.152   5.475
 3096SOL    HW210188   0.959   5.068   5.530
 3097SOL     OW10189   5.452   3.155   6.788
 3097SOL    HW110190   5.403   3.083   6.838
 3097SOL    HW210191   5.546   3.159   6.820
 3098SOL     OW10192   2.115   2.346   0.890
 3098SOL    HW110193   2.212   2.370   0.896
 3098SOL    HW210194   2.082   2.321   0.981
 3099SOL     OW10195   0.834   6.660   4.203
 3099SOL    HW110196   0.894   6.581   4.188
 3099SOL    HW210197   0.765   6.638   4.272
 3100SOL     OW10198   0.120   6.995   3.773
 3100SOL    HW110199   0.166   6.961   3.691
 3100SOL    HW210200   0.021   6.991   3.760
 3101SOL     OW10201   6.308   5.884   6.826
 3101SOL    HW110202   6.330   5.914   6.734
 3101SOL    HW210203   6.213   5.852   6.830
 3102SOL     OW10204   6.377   6.217   2.006
 3102SOL    HW110205   6.283   6.237   2.033
 3102SOL    HW210206   6.406   6.132   2.050
 3103SOL     OW10207   4.222   1.014   2.181
 3103SOL    HW110208   4.208   0.999   2.083
 3103SOL    HW210209   4.286   1.090   2.194
 3104SOL     OW10210   4.708   0.597   5.492
 3104SOL    HW110211   4.753   0.624   5.407
 3104SOL    HW210212   4.640   0.666   5.517
 3105SOL     OW10213   5.862   4.170   1.514
 3105SOL    HW110214   5.915   4.210   1.439
 3105SOL    HW210215   5.876   4.071   1.516
 3106SOL     OW10216   5.359   0.204   3.994
 3106SOL    HW110217   5.371   0.268   3.918
 3106SOL    HW210218   5.445   0.196   4.045
 3107SOL     OW10219   4.052   0.929   4.984
 3107SOL    HW110220   4.122   0.975   4.928
 3107SOL    HW210221   4.077   0.935   5.080
 3108SOL     OW10222   1.556   5.725   4.299
 3108SOL    HW110223   1.558   5.625   4.299
 3108SOL    HW210224   1.461   5.756   4.293
 3109SOL     OW10225   5.547   6.363   3.676
 3109SOL    HW110226   5.635   6.410   3.683
 3109SOL    HW210227   5.518   6.334   3.767
 3110SOL     OW10228   0.924   3.186   3.368
 3110SOL    HW110229   0.888   3.174   3.460
 3110SOL    HW210230   1.002   3.248   3.370
 3111SOL     OW10231   0.173   4.528   3.057
 3111SOL    HW110232   0.111   4.599   3.089
 3111SOL    HW210233   0.149   4.502   2.963
 3112SOL     OW10234   3.606   3.141   6.844
 3112SOL    HW110235   3.705   3.153   6.841
 3112SOL    HW210236   3.577   3.083   6.768
 3113SOL     OW10237   2.772   4.669   3.767
 3113SOL    HW110238   2.865   4.656   3.800
 3113SOL    HW210239   2.752   4.767   3.761
 3114SOL     OW10240   3.716   2.039   0.529
 3114SOL    HW110241   3.736   1.943   0.548
 3114SOL    HW210242   3.799   2.083   0.494
 3115SOL     OW10243   4.341   4.618   6.315
 3115SOL    HW110244   4.288   4.567   6.247
 3115SOL    HW210245   4.351   4.713   6.286
 3116SOL     OW10246   6.418   2.516   0.582
 3116SOL    HW110247   6.404   2.417   0.594
 3116SOL    HW210248   6.398   2.541   0.487
 3117SOL     OW10249   4.778   3.733   5.379
 3117SOL    HW110250   4.717   3.681   5.319
 3117SOL    HW210251   4.872   3.725   5.346
 3118SOL     OW10252   0.374   5.497   2.536
 3118SOL    HW110253   0.290   5.550   2.533
 3118SOL    HW210254   0.441   5.538   2.473
 3119SOL     OW10255   2.359   2.991   0.207
 3119SOL    HW110256   2.292   2.979   0.281
 3119SOL    HW210257   2.350   3.084   0.170
 3120SOL     OW10258   3.030   0.295   6.257
 3120SOL    HW110259   3.016   0.375   6.198
 3120SOL    HW210260   3.052   0.327   6.350
 3121SOL     OW10261   7.005   1.208   4.234
 3121SOL    HW110262   7.001   1.280   4.303
 3121SOL    HW210263   6.930   1.143   4.248
 3122SOL     OW10264   3.977   5.523   6.362
 3122SOL    HW110265   3.963   5.548   6.458
 3122SOL    HW210266   4.073   5.536   6.338
 3123SOL     OW10267   2.273   1.982   2.961
 3123SOL    HW110268   2.291   1.984   2.863
 3123SOL    HW210269   2.293   2.072   3.000
 3124SOL     OW10270   5.016   6.414   4.589
 3124SOL    HW110271   4.929   6.437   4.545
 3124SOL    HW210272   5.012   6.438   4.685
 3125SOL     OW10273   0.992   3.357   5.192
 3125SOL    HW110274   0.983   3.312   5.281
 3125SOL    HW210275   0.903   3.394   5.164
 3126SOL     OW10276   6.217   4.177   5.661
 3126SOL    HW110277   6.259   4.144   5.745
 3126SOL    HW210278   6.174   4.266   5.677
 3127SOL     OW10279   2.178   2.561   6.280
 3127SOL    HW110280   2.107   2.625   6.252
 3127SOL    HW210281   2.203   2.577   6.376
 3128SOL     OW10282   2.606   0.228   6.630
 3128SOL    HW110283   2.607   0.212   6.531
 3128SOL    HW210284   2.699   0.250   6.661
 3129SOL     OW10285   6.413   3.542   0.073
 3129SOL    HW110286   6.359   3.470   0.030
 3129SOL    HW210287   6.500   3.504   0.105
 3130SOL     OW10288   2.124   4.380   2.165
 3130SOL    HW110289   2.135   4.326   2.081
 3130SOL    HW210290   2.038   4.355   2.209
 3131SOL     OW10291   0.044   3.140   1.723
 3131SOL    HW110292   6.976   3.175   1.696
 3131SOL    HW210293   0.084   3.091   1.646
 3132SOL     OW10294   4.258   5.606   6.361
 3132SOL    HW110295   4.281   5.516   6.398
 3132SOL    HW210296   4.308   5.676   6.412
 3133SOL     OW10297   3.059   1.081   3.012
 3133SOL    HW110298   3.109   0.995   3.021
 3133SOL    HW210299   2.986   1.084   3.081
 3134SOL     OW10300   4.469   3.781   1.523
 3134SOL    HW110301   4.412   3.826   1.592
 3134SOL    HW210302   4.449   3.819   1.433
 3135SOL     OW10303   4.696   0.277   5.962
 3135SOL    HW110304   4.696   0.269   6.062
 3135SOL    HW210305   4.715   0.188   5.922
 3136SOL     OW10306   5.469   0.562   2.415
 3136SOL    HW110307   5.519   0.604   2.490
 3136SOL    HW210308   5.376   0.541   2.444
 3137SOL     OW10309   6.346   0.632   2.233
 3137SOL    HW110310   6.258   0.650   2.276
 3137SOL    HW210311   6.412   0.606   2.303
 3138SOL     OW10312   6.602   5.038   3.415
 3138SOL    HW110313   6.546   5.010   3.493
 3138SOL    HW210314   6.550   5.100   3.356
 3139SOL     OW10315   4.726   5.575   0.554
 3139SOL    HW110316   4.689   5.625   0.476
 3139SOL    HW210317   4.726   5.477   0.535
 3140SOL     OW10318   6.767   6.534   0.202
 3140SOL    HW110319   6.713   6.579   0.130
 3140SOL    HW210320   6.864   6.540   0.179
 3141SOL     OW10321   0.971   0.058   6.720
 3141SOL    HW110322   0.888   0.070   6.773
 3141SOL    HW210323   0.948   0.053   6.622
 3142SOL     OW10324   3.565   0.026   2.442
 3142SOL    HW110325   3.473   7.019   2.467
 3142SOL    HW210326   3.593   0.104   2.498
 3143SOL     OW10327   6.620   1.700   0.571
 3143SOL    HW110328   6.696   1.757   0.540
 3143SOL    HW210329   6.555   1.755   0.622
 3144SOL     OW10330   4.021   3.538   1.058
 3144SOL    HW110331   3.951   3.601   1.025
 3144SOL    HW210332   3.984   3.446   1.064
 3145SOL     OW10333   2.493   6.252   1.935
 3145SOL    HW110334   2.440   6.213   1.860
 3145SOL    HW210335   2.451   6.338   1.965
 3146SOL     OW10336   1.120   1.378   4.973
 3146SOL    HW110337   1.025   1.409   4.961
 3146SOL    HW210338   1.178   1.420   4.903
 3147SOL     OW10339   3.062   5.736   0.875
 3147SOL    HW110340   2.987   5.695   0.926
 3147SOL    HW210341   3.148   5.691   0.899
 3148SOL     OW10342   6.253   0.000   3.560
 3148SOL    HW110343   6.338   0.045   3.531
 3148SOL    HW210344   6.250   7.019   3.660
 3149SOL     OW10345   3.361   0.648   5.470
 3149SOL    HW110346   3.441   0.618   5.522
 3149SOL    HW210347   3.319   0.569   5.426
 3150SOL     OW10348   6.585   5.266   4.748
 3150SOL    HW110349   6.625   5.274   4.839
 3150SOL    HW210350   6.629   5.192   4.697
 3151SOL     OW10351   6.709   0.794   4.790
 3151SOL    HW110352   6.647   0.728   4.833
 3151SOL    HW210353   6.730   0.867   4.854
 3152SOL     OW10354   0.877   5.191   1.209
 3152SOL    HW110355   0.839   5.214   1.299
 3152SOL    HW210356   0.812   5.217   1.138
 3153SOL     OW10357   6.315   5.324   0.735
 3153SOL    HW110358   6.276   5.239   0.771
 3153SOL    HW210359   6.391   5.302   0.674
 3154SOL     OW10360   0.405   1.538   6.599
 3154SOL    HW110361   0.486   1.484   6.575
 3154SOL    HW210362   0.391   1.536   6.698
 3155SOL     OW10363   6.251   4.164   0.421
 3155SOL    HW110364   6.279   4.218   0.342
 3155SOL    HW210365   6.181   4.098   0.392
 3156SOL     OW10366   3.705   2.901   2.675
 3156SOL    HW110367   3.697   2.957   2.757
 3156SOL    HW210368   3.708   2.959   2.594
 3157SOL     OW10369   2.851   1.705   5.023
 3157SOL    HW110370   2.825   1.646   4.946
 3157SOL    HW210371   2.898   1.786   4.988
 3158SOL     OW10372   3.261   1.406   3.611
 3158SOL    HW110373   3.207   1.334   3.565
 3158SOL    HW210374   3.211   1.439   3.691
 3159SOL     OW10375   6.290   0.646   0.169
 3159SOL    HW110376   6.369   0.589   0.189
 3159SOL    HW210377   6.303   0.737   0.209
 3160SOL     OW10378   0.575   5.869   5.830
 3160SOL    HW110379   0.617   5.851   5.919
 3160SOL    HW210380   0.581   5.967   5.810
 3161SOL     OW10381   2.478   2.579   2.822
 3161SOL    HW110382   2.543   2.556   2.894
 3161SOL    HW210383   2.385   2.570   2.858
 3162SOL     OW10384   1.257   6.088   1.570
 3162SOL    HW110385   1.200   6.155   1.618
 3162SOL    HW210386   1.202   6.007   1.548
 3163SOL     OW10387   4.671   3.157   6.254
 3163SOL    HW110388   4.768   3.145   6.273
 3163SOL    HW210389   4.646   3.108   6.171
 3164SOL     OW10390   4.239   5.970   1.200
 3164SOL    HW110391   4.213   6.026   1.279
 3164SOL    HW210392   4.168   5.902   1.183
 3165SOL     OW10393   1.235   6.826   1.061
 3165SOL    HW110394   1.214   6.917   1.096
 3165SOL    HW210395   1.267   6.768   1.136
 3166SOL     OW10396   4.187   2.009   4.357
 3166SOL    HW110397   4.231   1.919   4.359
 3166SOL    HW210398   4.187   2.049   4.448
 3167SOL     OW10399   6.596   4.611   0.519
 3167SOL    HW110400   6.522   4.608   0.453
 3167SOL    HW210401   6.659   4.535   0.503
 3168SOL     OW10402   5.178   2.962   0.377
 3168SOL    HW110403   5.108   3.031   0.397
 3168SOL    HW210404   5.145   2.872   0.406
 3169SOL     OW10405   1.946   4.170   4.147
 3169SOL    HW110406   2.039   4.165   4.184
 3169SOL    HW210407   1.936   4.104   4.072
 3170SOL     OW10408   4.451   6.138   1.491
 3170SOL    HW110409   4.430   6.155   1.395
 3170SOL    HW210410   4.422   6.216   1.546
 3171SOL     OW10411   0.178   0.830   2.290
 3171SOL    HW110412   0.143   0.852   2.199
 3171SOL    HW210413   0.105   0.843   2.357
 3172SOL     OW10414   0.072   5.617   0.729
 3172SOL    HW110415   0.102   5.529   0.693
 3172SOL    HW210416   0.072   5.684   0.654
 3173SOL     OW10417   2.968   2.197   0.567
 3173SOL    HW110418   2.949   2.267   0.635
 3173SOL    HW210419   3.051   2.221   0.517
 3174SOL     OW10420   3.181   2.322   0.452
 3174SOL    HW110421   3.145   2.412   0.476
 3174SOL    HW210422   3.263   2.303   0.507
 3175SOL     OW10423   6.212   0.637   1.590
 3175SOL    HW110424   6.159   0.722   1.592
 3175SOL    HW210425   6.293   0.647   1.647
 3176SOL     OW10426   1.612   3.884   6.041
 3176SOL    HW110427   1.656   3.812   6.093
 3176SOL    HW210428   1.513   3.868   6.038
 3177SOL     OW10429   5.099   3.822   3.867
 3177SOL    HW110430   5.159   3.881   3.920
 3177SOL    HW210431   5.066   3.747   3.925
 3178SOL     OW10432   6.525   1.969   0.685
 3178SOL    HW110433   6.542   1.961   0.783
 3178SOL    HW210434   6.461   2.044   0.668
 3179SOL     OW10435   0.769   3.205   2.316
 3179SOL    HW110436   0.773   3.287   2.374
 3179SOL    HW210437   0.794   3.125   2.370
 3180SOL     OW10438   4.872   1.150   6.398
 3180SOL    HW110439   4.810   1.154   6.321
 3180SOL    HW210440   4.917   1.060   6.400
 3181SOL     OW10441   0.062   2.101   3.485
 3181SOL    HW110442   0.013   2.163   3.546
 3181SOL    HW210443   0.062   2.138   3.393
 3182SOL     OW10444   2.872   0.282   6.662
 3182SOL    HW110445   2.884   0.317   6.755
 3182SOL    HW210446   2.933   0.205   6.647
 3183SOL     OW10447   4.964   4.167   1.805
 3183SOL    HW110448   4.969   4.126   1.714
 3183SOL    HW210449   4.895   4.120   1.859
 3184SOL     OW10450   0.811   3.790   2.813
 3184SOL    HW110451   0.850   3.734   2.886
 3184SOL    HW210452   0.721   3.754   2.788
 3185SOL     OW10453   5.376   6.046   6.557
 3185SOL    HW110454   5.451   5.997   6.513
 3185SOL    HW210455   5.289   6.017   6.518
 3186SOL     OW10456   3.684   2.008   1.477
 3186SOL    HW110457   3.647   2.080   1.537
 3186SOL    HW210458   3.654   2.025   1.383
 3187SOL     OW10459   4.579   4.548   0.926
 3187SOL    HW110460   4.507   4.617   0.916
 3187SOL    HW210461   4.663   4.582   0.883
 3188SOL     OW10462   1.675   0.473   4.345
 3188SOL    HW110463   1.771   0.449   4.329
 3188SOL    HW210464   1.670   0.556   4.400
 3189SOL     OW10465   1.835   1.319   1.493
 3189SOL    HW110466   1.831   1.337   1.394
 3189SOL    HW210467   1.749   1.279   1.523
 3190SOL     OW10468   0.477   5.539   0.762
 3190SOL    HW110469   0.475   5.614   0.697
 3190SOL    HW210470   0.484   5.452   0.713
 3191SOL     OW10471   4.851   5.784   1.184
 3191SOL    HW110472   4.866   5.764   1.281
 3191SOL    HW210473   4.862   5.882   1.169
 3192SOL     OW10474   0.304   2.566   1.765
 3192SOL    HW110475   0.368   2.507   1.814
 3192SOL    HW210476   0.246   2.510   1.706
 3193SOL     OW10477   3.819   1.001   6.708
 3193SOL    HW110478   3.840   1.024   6.803
 3193SOL    HW210479   3.827   1.083   6.651
 3194SOL     OW10480   1.851   2.180   6.311
 3194SOL    HW110481   1.942   2.212   6.285
 3194SOL    HW210482   1.852   2.081   6.322
 3195SOL     OW10483   3.180   1.511   3.184
 3195SOL    HW110484   3.250   1.533   3.252
 3195SOL    HW210485   3.206   1.551   3.096
 3196SOL     OW10486   0.458   0.566   6.263
 3196SOL    HW110487   0.364   0.556   6.295
 3196SOL    HW210488   0.502   0.476   6.260
 3197SOL     OW10489   2.681   6.445   3.364
 3197SOL    HW110490   2.717   6.403   3.448
 3197SOL    HW210491   2.707   6.541   3.361
 3198SOL     OW10492   6.171   2.699   4.821
 3198SOL    HW110493   6.222   2.618   4.850
 3198SOL    HW210494   6.092   2.712   4.881
 3199SOL     OW10495   4.890   3.899   2.232
 3199SOL    HW110496   4.939   3.905   2.319
 3199SOL    HW210497   4.955   3.876   2.159
 3200SOL     OW10498   6.136   3.149   2.040
 3200SOL    HW110499   6.228   3.189   2.041
 3200SOL    HW210500   6.116   3.109   2.129
 3201SOL     OW10501   5.874   4.833   4.451
 3201SOL    HW110502   5.913   4.880   4.530
 3201SOL    HW210503   5.795   4.779   4.480
 3202SOL     OW10504   0.399   4.646   1.897
 3202SOL    HW110505   0.375   4.742   1.883
 3202SOL    HW210506   0.454   4.636   1.979
 3203SOL     OW10507   6.497   2.242   0.492
 3203SOL    HW110508   6.466   2.214   0.401
 3203SOL    HW210509   6.565   2.176   0.526
 3204SOL     OW10510   4.449   6.405   3.391
 3204SOL    HW110511   4.378   6.456   3.342
 3204SOL    HW210512   4.531   6.400   3.334
 3205SOL     OW10513   6.241   2.892   6.371
 3205SOL    HW110514   6.196   2.896   6.282
 3205SOL    HW210515   6.249   2.797   6.400
 3206SOL     OW10516   1.270   5.456   6.348
 3206SOL    HW110517   1.333   5.425   6.277
 3206SOL    HW210518   1.288   5.407   6.433
 3207SOL     OW10519   0.754   0.618   5.863
 3207SOL    HW110520   0.751   0.588   5.768
 3207SOL    HW210521   0.713   0.548   5.921
 3208SOL     OW10522   4.747   5.449   5.972
 3208SOL    HW110523   4.773   5.503   5.892
 3208SOL    HW210524   4.780   5.355   5.961
 3209SOL     OW10525   4.465   5.800   3.544
 3209SOL    HW110526   4.392   5.848   3.592
 3209SOL    HW210527   4.509   5.862   3.479
 3210SOL     OW10528   0.786   4.778   1.469
 3210SOL    HW110529   0.698   4.821   1.488
 3210SOL    HW210530   0.798   4.699   1.529
 3211SOL     OW10531   1.778   3.814   1.126
 3211SOL    HW110532   1.711   3.838   1.197
 3211SOL    HW210533   1.851   3.760   1.166
 3212SOL     OW10534   3.062   0.482   0.864
 3212SOL    HW110535   3.080   0.430   0.781
 3212SOL    HW210536   3.110   0.440   0.941
 3213SOL     OW10537   1.076   6.225   1.186
 3213SOL    HW110538   1.160   6.249   1.236
 3213SOL    HW210539   1.100   6.187   1.097
 3214SOL     OW10540   4.680   5.343   0.753
 3214SOL    HW110541   4.778   5.330   0.740
 3214SOL    HW210542   4.661   5.441   0.767
 3215SOL     OW10543   6.944   2.843   1.107
 3215SOL    HW110544   6.878   2.793   1.163
 3215SOL    HW210545   6.938   2.812   1.012
 3216SOL     OW10546   6.215   5.080   0.551
 3216SOL    HW110547   6.187   5.168   0.513
 3216SOL    HW210548   6.210   5.084   0.651
 3217SOL     OW10549   6.918   5.414   2.189
 3217SOL    HW110550   7.014   5.423   2.216
 3217SOL    HW210551   6.877   5.505   2.180
 3218SOL     OW10552   4.526   1.883   3.746
 3218SOL    HW110553   4.494   1.977   3.751
 3218SOL    HW210554   4.626   1.882   3.748
 3219SOL     OW10555   0.345   2.302   3.618
 3219SOL    HW110556   0.329   2.399   3.601
 3219SOL    HW210557   0.424   2.271   3.566
 3220SOL     OW10558   6.569   5.635   6.601
 3220SOL    HW110559   6.497   5.577   6.638
 3220SOL    HW210560   6.541   5.672   6.512
 3221SOL     OW10561   3.627   0.674   1.491
 3221SOL    HW110562   3.649   0.769   1.472
 3221SOL    HW210563   3.636   0.620   1.407
 3222SOL     OW10564   3.462   1.709   2.299
 3222SOL    HW110565   3.477   1.613   2.274
 3222SOL    HW210566   3.414   1.755   2.224
 3223SOL     OW10567   1.926   6.847   6.181
 3223SOL    HW110568   1.828   6.835   6.196
 3223SOL    HW210569   1.977   6.788   6.243
 3224SOL     OW10570   4.392   3.997   6.203
 3224SOL    HW110571   4.385   3.936   6.281
 3224SOL    HW210572   4.308   4.051   6.195
 3225SOL     OW10573   4.870   2.666   6.635
 3225SOL    HW110574   4.884   2.582   6.583
 3225SOL    HW210575   4.850   2.741   6.572
 3226SOL     OW10576   2.085   1.659   3.461
 3226SOL    HW110577   2.165   1.603   3.483
 3226SOL    HW210578   2.115   1.747   3.425
 3227SOL     OW10579   3.525   2.687   0.247
 3227SOL    HW110580   3.538   2.588   0.250
 3227SOL    HW210581   3.485   2.712   0.159
 3228SOL     OW10582   6.761   4.252   2.725
 3228SOL    HW110583   6.669   4.215   2.712
 3228SOL    HW210584   6.774   4.276   2.821
 3229SOL     OW10585   4.028   6.797   4.517
 3229SOL    HW110586   4.046   6.699   4.516
 3229SOL    HW210587   4.044   6.835   4.426
 3230SOL     OW10588   2.126   3.733   5.157
 3230SOL    HW110589   2.126   3.791   5.075
 3230SOL    HW210590   2.168   3.645   5.136
 3231SOL     OW10591   2.719   1.391   1.336
 3231SOL    HW110592   2.629   1.368   1.372
 3231SOL    HW210593   2.779   1.311   1.342
 3232SOL     OW10594   4.775   5.454   4.975
 3232SOL    HW110595   4.807   5.393   5.047
 3232SOL    HW210596   4.828   5.539   4.976
 3233SOL     OW10597   0.789   3.368   1.631
 3233SOL    HW110598   0.704   3.328   1.599
 3233SOL    HW210599   0.858   3.296   1.639
 3234SOL     OW10600   7.008   1.934   0.062
 3234SOL    HW110601   0.027   1.858   0.111
 3234SOL    HW210602   0.057   2.001   0.039
 3235SOL     OW10603   5.656   0.909   2.039
 3235SOL    HW110604   5.580   0.852   2.009
 3235SOL    HW210605   5.680   0.886   2.133
 3236SOL     OW10606   1.873   3.215   0.477
 3236SOL    HW110607   1.915   3.286   0.420
 3236SOL    HW210608   1.918   3.213   0.567
 3237SOL     OW10609   5.027   1.596   4.133
 3237SOL    HW110610   4.977   1.510   4.134
 3237SOL    HW210611   5.110   1.586   4.077
 3238SOL     OW10612   6.551   5.288   1.011
 3238SOL    HW110613   6.633   5.295   0.955
 3238SOL    HW210614   6.525   5.192   1.022
 3239SOL     OW10615   6.862   1.742   1.938
 3239SOL    HW110616   6.816   1.678   2.000
 3239SOL    HW210617   6.818   1.738   1.849
 3240SOL     OW10618   0.196   6.959   6.514
 3240SOL    HW110619   0.134   7.021   6.561
 3240SOL    HW210620   0.191   6.868   6.556
 3241SOL     OW10621   4.234   1.837   5.439
 3241SOL    HW110622   4.207   1.785   5.520
 3241SOL    HW210623   4.179   1.809   5.361
 3242SOL     OW10624   4.007   4.210   0.014
 3242SOL    HW110625   4.042   4.267   6.961
 3242SOL    HW210626   3.909   4.198   0.003
 3243SOL     OW10627   4.066   4.363   0.571
 3243SOL    HW110628   4.121   4.430   0.521
 3243SOL    HW210629   3.974   4.399   0.586
 3244SOL     OW10630   5.040   5.429   0.346
 3244SOL    HW110631   5.119   5.386   0.390
 3244SOL    HW210632   5.058   5.438   0.248
 3245SOL     OW10633   5.184   3.016   5.085
 3245SOL    HW110634   5.233   3.087   5.135
 3245SOL    HW210635   5.104   3.056   5.040
 3246SOL     OW10636   5.546   0.186   2.399
 3246SOL    HW110637   5.596   0.145   2.475
 3246SOL    HW210638   5.601   0.260   2.359
 3247SOL     OW10639   5.765   4.855   2.589
 3247SOL    HW110640   5.746   4.927   2.522
 3247SOL    HW210641   5.707   4.869   2.669
 3248SOL     OW10642   6.410   3.687   1.100
 3248SOL    HW110643   6.491   3.689   1.159
 3248SOL    HW210644   6.435   3.717   1.008
 3249SOL     OW10645   3.979   3.195   4.406
 3249SOL    HW110646   4.017   3.183   4.315
 3249SOL    HW210647   4.042   3.248   4.462
 3250SOL     OW10648   5.732   6.644   2.145
 3250SOL    HW110649   5.786   6.561   2.127
 3250SOL    HW210650   5.653   6.620   2.201
 3251SOL     OW10651   2.969   0.614   3.532
 3251SOL    HW110652   2.969   0.714   3.520
 3251SOL    HW210653   3.013   0.572   3.453
 3252SOL     OW10654   2.219   1.533   2.975
 3252SOL    HW110655   2.188   1.620   3.013
 3252SOL    HW210656   2.151   1.462   2.993
 3253SOL     OW10657   5.119   4.224   2.055
 3253SOL    HW110658   5.059   4.201   1.979
 3253SOL    HW210659   5.065   4.254   2.133
 3254SOL     OW10660   5.180   5.388   5.172
 3254SOL    HW110661   5.261   5.431   5.130
 3254SOL    HW210662   5.131   5.457   5.226
 3255SOL     OW10663   5.672   5.861   0.352
 3255SOL    HW110664   5.669   5.771   0.396
 3255SOL    HW210665   5.585   5.908   0.368
 3256SOL     OW10666   2.951   1.050   0.302
 3256SOL    HW110667   2.933   1.087   0.393
 3256SOL    HW210668   3.017   1.108   0.254
 3257SOL     OW10669   1.763   1.877   1.814
 3257SOL    HW110670   1.697   1.801   1.814
 3257SOL    HW210671   1.853   1.843   1.840
 3258SOL     OW10672   4.175   4.602   1.833
 3258SOL    HW110673   4.250   4.559   1.783
 3258SOL    HW210674   4.186   4.584   1.931
 3259SOL     OW10675   4.832   5.527   4.136
 3259SOL    HW110676   4.815   5.429   4.147
 3259SOL    HW210677   4.865   5.565   4.222
 3260SOL     OW10678   1.780   1.924   0.647
 3260SOL    HW110679   1.839   1.877   0.582
 3260SOL    HW210680   1.816   1.914   0.739
 3261SOL     OW10681   5.347   7.007   0.797
 3261SOL    HW110682   5.313   6.938   0.732
 3261SOL    HW210683   5.270   0.041   0.829
 3262SOL     OW10684   3.322   2.142   2.891
 3262SOL    HW110685   3.324   2.131   2.792
 3262SOL    HW210686   3.406   2.184   2.922
 3263SOL     OW10687   2.526   0.604   3.498
 3263SOL    HW110688   2.435   0.623   3.460
 3263SOL    HW210689   2.552   0.679   3.559
 3264SOL     OW10690   1.452   4.100   1.196
 3264SOL    HW110691   1.520   4.174   1.198
 3264SOL    HW210692   1.419   4.082   1.289
 3265SOL     OW10693   5.671   0.585   6.452
 3265SOL    HW110694   5.726   0.662   6.485
 3265SOL    HW210695   5.604   0.618   6.385
 3266SOL     OW10696   1.955   4.002   0.753
 3266SOL    HW110697   1.912   4.084   0.792
 3266SOL    HW210698   1.896   3.963   0.683
 3267SOL     OW10699   3.719   7.014   0.541
 3267SOL    HW110700   3.673   0.078   0.565
 3267SOL    HW210701   3.800   7.002   0.598
 3268SOL     OW10702   1.146   3.594   1.033
 3268SOL    HW110703   1.241   3.565   1.021
 3268SOL    HW210704   1.137   3.689   1.005
 3269SOL     OW10705   4.598   5.655   2.404
 3269SOL    HW110706   4.499   5.643   2.413
 3269SOL    HW210707   4.644   5.620   2.485
 3270SOL     OW10708   0.963   4.486   6.189
 3270SOL    HW110709   1.059   4.456   6.188
 3270SOL    HW210710   0.935   4.502   6.283
 3271SOL     OW10711   5.981   3.612   2.958
 3271SOL    HW110712   6.035   3.695   2.945
 3271SOL    HW210713   5.926   3.595   2.876
 3272SOL     OW10714   3.221   4.857   6.194
 3272SOL    HW110715   3.240   4.759   6.200
 3272SOL    HW210716   3.168   4.875   6.111
 3273SOL     OW10717   0.882   6.463   0.762
 3273SOL    HW110718   0.908   6.539   0.822
 3273SOL    HW210719   0.791   6.482   0.723
 3274SOL     OW10720   4.524   0.660   0.857
 3274SOL    HW110721   4.477   0.711   0.929
 3274SOL    HW210722   4.498   0.563   0.863
 3275SOL     OW10723   6.905   1.626   6.970
 3275SOL    HW110724   6.978   1.676   6.922
 3275SOL    HW210725   6.864   1.685   0.018
 3276SOL     OW10726   2.116   5.848   0.577
 3276SOL    HW110727   2.148   5.833   0.671
 3276SOL    HW210728   2.061   5.770   0.548
 3277SOL     OW10729   4.070   6.721   6.992
 3277SOL    HW110730   4.166   6.739   7.015
 3277SOL    HW210731   4.045   6.773   6.910
 3278SOL     OW10732   1.272   1.088   5.611
 3278SOL    HW110733   1.230   1.049   5.693
 3278SOL    HW210734   1.255   1.187   5.609
 3279SOL     OW10735   5.554   0.734   6.816
 3279SOL    HW110736   5.518   0.785   6.895
 3279SOL    HW210737   5.485   0.731   6.744
 3280SOL     OW10738   3.752   5.027   4.204
 3280SOL    HW110739   3.748   5.126   4.215
 3280SOL    HW210740   3.693   4.983   4.271
 3281SOL     OW10741   2.303   5.902   1.819
 3281SOL    HW110742   2.299   5.993   1.777
 3281SOL    HW210743   2.222   5.849   1.793
 3282SOL     OW10744   0.214   4.682   5.624
 3282SOL    HW110745   0.267   4.680   5.539
 3282SOL    HW210746   0.273   4.712   5.699
 3283SOL     OW10747   4.042   1.176   0.940
 3283SOL    HW110748   4.134   1.171   0.979
 3283SOL    HW210749   4.020   1.271   0.918
 3284SOL     OW10750   0.163   5.082   0.097
 3284SOL    HW110751   0.246   5.128   0.065
 3284SOL    HW210752   0.103   5.148   0.142
 3285SOL     OW10753   4.856   2.896   3.283
 3285SOL    HW110754   4.826   2.802   3.295
 3285SOL    HW210755   4.956   2.900   3.286
 3286SOL     OW10756   3.781   3.302   2.743
 3286SOL    HW110757   3.846   3.240   2.787
 3286SOL    HW210758   3.820   3.394   2.738
 3287SOL     OW10759   0.620   0.497   6.790
 3287SOL    HW110760   0.656   0.575   6.840
 3287SOL    HW210761   0.552   0.528   6.723
 3288SOL     OW10762   0.515   5.427   6.340
 3288SOL    HW110763   0.474   5.462   6.256
 3288SOL    HW210764   0.485   5.484   6.417
 3289SOL     OW10765   2.476   6.584   5.639
 3289SOL    HW110766   2.440   6.660   5.585
 3289SOL    HW210767   2.534   6.620   5.712
 3290SOL     OW10768   0.618   0.039   2.202
 3290SOL    HW110769   0.671   0.055   2.285
 3290SOL    HW210770   0.539   0.100   2.200
 3291SOL     OW10771   2.236   0.023   1.055
 3291SOL    HW110772   2.171   0.076   1.000
 3291SOL    HW210773   2.201   0.014   1.148
 3292SOL     OW10774   0.819   1.036   1.116
 3292SOL    HW110775   0.837   0.938   1.114
 3292SOL    HW210776   0.857   1.078   1.033
 3293SOL     OW10777   0.277   3.507   2.440
 3293SOL    HW110778   0.222   3.459   2.509
 3293SOL    HW210779   0.328   3.440   2.386
 3294SOL     OW10780   6.384   1.996   6.504
 3294SOL    HW110781   6.468   2.014   6.453
 3294SOL    HW210782   6.360   1.899   6.498
 3295SOL     OW10783   1.234   2.922   2.140
 3295SOL    HW110784   1.259   2.913   2.236
 3295SOL    HW210785   1.197   2.835   2.107
 3296SOL     OW10786   1.516   7.013   2.052
 3296SOL    HW110787   1.449   7.018   1.977
 3296SOL    HW210788   1.596   0.046   2.029
 3297SOL     OW10789   2.955   0.799   4.562
 3297SOL    HW110790   3.001   0.880   4.526
 3297SOL    HW210791   2.898   0.826   4.640
 3298SOL     OW10792   5.883   1.464   5.063
 3298SOL    HW110793   5.962   1.523   5.053
 3298SOL    HW210794   5.805   1.502   5.013
 3299SOL     OW10795   2.764   5.372   3.237
 3299SOL    HW110796   2.725   5.464   3.230
 3299SOL    HW210797   2.836   5.361   3.169
 3300SOL     OW10798   6.780   0.409   5.223
 3300SOL    HW110799   6.718   0.331   5.236
 3300SOL    HW210800   6.727   0.490   5.199
 3301SOL     OW10801   1.829   3.080   3.522
 3301SOL    HW110802   1.861   3.174   3.537
 3301SOL    HW210803   1.879   3.017   3.581
 3302SOL     OW10804   6.642   4.622   5.553
 3302SOL    HW110805   6.693   4.589   5.633
 3302SOL    HW210806   6.572   4.555   5.528
 3303SOL     OW10807   3.517   3.354   1.567
 3303SOL    HW110808   3.488   3.261   1.590
 3303SOL    HW210809   3.468   3.386   1.486
 3304SOL     OW10810   0.631   5.869   4.367
 3304SOL    HW110811   0.664   5.775   4.378
 3304SOL    HW210812   0.540   5.869   4.326
 3305SOL     OW10813   2.019   1.337   3.007
 3305SOL    HW110814   1.949   1.406   3.024
 3305SOL    HW210815   1.982   1.265   2.948
 3306SOL     OW10816   1.755   5.443   5.184
 3306SOL    HW110817   1.768   5.455   5.283
 3306SOL    HW210818   1.844   5.449   5.138
 3307SOL     OW10819   0.076   5.835   0.520
 3307SOL    HW110820   7.005   5.816   0.488
 3307SOL    HW210821   0.137   5.845   0.441
 3308SOL     OW10822   2.807   6.239   0.257
 3308SOL    HW110823   2.904   6.263   0.251
 3308SOL    HW210824   2.772   6.264   0.348
 3309SOL     OW10825   6.896   6.136   2.640
 3309SOL    HW110826   6.931   6.135   2.546
 3309SOL    HW210827   6.973   6.149   2.703
 3310SOL     OW10828   0.083   3.021   6.060
 3310SOL    HW110829   0.133   2.935   6.048
 3310SOL    HW210830   0.016   3.032   5.986
 3311SOL     OW10831   2.126   4.415   1.641
 3311SOL    HW110832   2.116   4.348   1.567
 3311SOL    HW210833   2.224   4.433   1.656
 3312SOL     OW10834   4.172   4.491   6.150
 3312SOL    HW110835   4.225   4.447   6.078
 3312SOL    HW210836   4.122   4.421   6.202
 3313SOL     OW10837   0.416   5.603   3.149
 3313SOL    HW110838   0.510   5.603   3.116
 3313SOL    HW210839   0.355   5.570   3.076
 3314SOL     OW10840   3.046   1.290   3.282
 3314SOL    HW110841   2.961   1.331   3.314
 3314SOL    HW210842   3.095   1.355   3.224
 3315SOL     OW10843   6.942   3.276   5.115
 3315SOL    HW110844   6.975   3.186   5.087
 3315SOL    HW210845   6.881   3.266   5.193
 3316SOL     OW10846   4.999   1.527   6.230
 3316SOL    HW110847   5.036   1.594   6.294
 3316SOL    HW210848   4.987   1.439   6.278
 3317SOL     OW10849   4.417   3.069   1.649
 3317SOL    HW110850   4.326   3.033   1.667
 3317SOL    HW210851   4.483   3.025   1.710
 3318SOL     OW10852   2.788   1.293   0.978
 3318SOL    HW110853   2.796   1.313   0.881
 3318SOL    HW210854   2.851   1.351   1.029
 3319SOL     OW10855   6.698   1.049   4.004
 3319SOL    HW110856   6.716   1.050   4.103
 3319SOL    HW210857   6.779   1.016   3.956
 3320SOL     OW10858   5.423   0.168   4.453
 3320SOL    HW110859   5.345   0.223   4.482
 3320SOL    HW210860   5.398   0.071   4.456
 3321SOL     OW10861   4.630   1.458   0.480
 3321SOL    HW110862   4.649   1.452   0.381
 3321SOL    HW210863   4.686   1.390   0.528
 3322SOL     OW10864   5.786   3.158   0.725
 3322SOL    HW110865   5.690   3.178   0.705
 3322SOL    HW210866   5.821   3.091   0.660
 3323SOL     OW10867   2.940   3.252   0.422
 3323SOL    HW110868   2.922   3.303   0.338
 3323SOL    HW210869   2.883   3.171   0.424
 3324SOL     OW10870   3.122   5.417   7.022
 3324SOL    HW110871   3.220   5.425   7.002
 3324SOL    HW210872   3.070   5.431   6.938
 3325SOL     OW10873   1.422   3.076   6.738
 3325SOL    HW110874   1.345   3.139   6.729
 3325SOL    HW210875   1.504   3.119   6.700
 3326SOL     OW10876   4.873   2.148   2.112
 3326SOL    HW110877   4.862   2.063   2.060
 3326SOL    HW210878   4.783   2.187   2.131
 3327SOL     OW10879   2.571   6.119   1.645
 3327SOL    HW110880   2.616   6.206   1.627
 3327SOL    HW210881   2.473   6.134   1.656
 3328SOL     OW10882   4.359   1.520   1.144
 3328SOL    HW110883   4.430   1.469   1.194
 3328SOL    HW210884   4.377   1.514   1.046
 3329SOL     OW10885   4.845   6.811   4.311
 3329SOL    HW110886   4.776   6.781   4.246
 3329SOL    HW210887   4.936   6.806   4.269
 3330SOL     OW10888   6.282   4.776   1.372
 3330SOL    HW110889   6.188   4.809   1.372
 3330SOL    HW210890   6.288   4.691   1.424
 3331SOL     OW10891   1.793   3.263   1.048
 3331SOL    HW110892   1.751   3.352   1.065
 3331SOL    HW210893   1.892   3.271   1.055
 3332SOL     OW10894   6.594   5.070   0.078
 3332SOL    HW110895   6.585   5.165   0.049
 3332SOL    HW210896   6.628   5.015   0.001
 3333SOL     OW10897   3.646   4.033   0.059
 3333SOL    HW110898   3.672   4.129   0.068
 3333SOL    HW210899   3.717   3.984   0.009
 3334SOL     OW10900   2.629   3.746   1.010
 3334SOL    HW110901   2.641   3.655   1.050
 3334SOL    HW210902   2.566   3.741   0.933
 3335SOL     OW10903   5.202   6.610   5.351
 3335SOL    HW110904   5.244   6.648   5.434
 3335SOL    HW210905   5.103   6.626   5.354
 3336SOL     OW10906   1.846   6.702   4.164
 3336SOL    HW110907   1.800   6.783   4.127
 3336SOL    HW210908   1.943   6.722   4.179
 3337SOL     OW10909   2.872   3.524   2.003
 3337SOL    HW110910   2.859   3.474   2.088
 3337SOL    HW210911   2.881   3.458   1.927
 3338SOL     OW10912   5.833   3.234   2.279
 3338SOL    HW110913   5.777   3.254   2.199
 3338SOL    HW210914   5.905   3.169   2.254
 3339SOL     OW10915   0.506   0.043   6.725
 3339SOL    HW110916   0.591   7.019   6.752
 3339SOL    HW210917   0.483   0.018   6.631
 3340SOL     OW10918   3.977   1.754   3.328
 3340SOL    HW110919   3.880   1.735   3.316
 3340SOL    HW210920   4.006   1.726   3.420
 3341SOL     OW10921   0.679   5.290   3.084
 3341SOL    HW110922   0.622   5.258   3.160
 3341SOL    HW210923   0.768   5.247   3.089
 3342SOL     OW10924   1.644   6.399   3.797
 3342SOL    HW110925   1.724   6.340   3.783
 3342SOL    HW210926   1.636   6.420   3.894
 3343SOL     OW10927   5.202   3.305   0.126
 3343SOL    HW110928   5.240   3.367   0.196
 3343SOL    HW210929   5.137   3.355   0.069
 3344SOL     OW10930   5.708   3.326   4.117
 3344SOL    HW110931   5.652   3.267   4.059
 3344SOL    HW210932   5.799   3.287   4.126
 3345SOL     OW10933   1.969   2.951   5.956
 3345SOL    HW110934   2.002   3.011   6.028
 3345SOL    HW210935   2.005   2.981   5.868
 3346SOL     OW10936   1.522   1.543   0.112
 3346SOL    HW110937   1.511   1.500   0.202
 3346SOL    HW210938   1.434   1.547   0.066
 3347SOL     OW10939   0.671   3.287   5.737
 3347SOL    HW110940   0.749   3.330   5.691
 3347SOL    HW210941   0.691   3.277   5.834
 3348SOL     OW10942   3.546   3.744   4.378
 3348SOL    HW110943   3.538   3.843   4.387
 3348SOL    HW210944   3.456   3.704   4.364
 3349SOL     OW10945   1.444   5.217   3.101
 3349SOL    HW110946   1.489   5.216   3.191
 3349SOL    HW210947   1.502   5.170   3.035
 3350SOL     OW10948   0.532   2.670   5.971
 3350SOL    HW110949   0.476   2.730   5.915
 3350SOL    HW210950   0.614   2.644   5.921
 3351SOL     OW10951   4.739   0.738   2.684
 3351SOL    HW110952   4.822   0.724   2.631
 3351SOL    HW210953   4.711   0.834   2.678
 3352SOL     OW10954   6.947   2.491   0.350
 3352SOL    HW110955   6.976   2.523   0.260
 3352SOL    HW210956   0.006   2.469   0.405
 3353SOL     OW10957   2.693   5.685   1.507
 3353SOL    HW110958   2.785   5.657   1.533
 3353SOL    HW210959   2.634   5.684   1.588
 3354SOL     OW10960   4.795   2.415   5.792
 3354SOL    HW110961   4.793   2.502   5.744
 3354SOL    HW210962   4.888   2.377   5.787
 3355SOL     OW10963   2.424   1.982   6.191
 3355SOL    HW110964   2.390   2.035   6.113
 3355SOL    HW210965   2.482   1.908   6.158
 3356SOL     OW10966   0.434   5.126   5.328
 3356SOL    HW110967   0.340   5.097   5.314
 3356SOL    HW210968   0.494   5.079   5.264
 3357SOL     OW10969   2.163   3.782   2.094
 3357SOL    HW110970   2.168   3.683   2.089
 3357SOL    HW210971   2.133   3.810   2.185
 3358SOL     OW10972   4.936   1.380   1.227
 3358SOL    HW110973   5.028   1.363   1.263
 3358SOL    HW210974   4.892   1.452   1.281
 3359SOL     OW10975   0.096   6.857   2.670
 3359SOL    HW110976   0.096   6.876   2.768
 3359SOL    HW210977   0.185   6.882   2.632
 3360SOL     OW10978   1.755   1.631   6.969
 3360SOL    HW110979   1.781   1.727   6.961
 3360SOL    HW210980   1.669   1.624   7.020
 3361SOL     OW10981   0.760   5.065   4.311
 3361SOL    HW110982   0.824   5.035   4.382
 3361SOL    HW210983   0.811   5.092   4.230
 3362SOL     OW10984   3.623   1.572   2.608
 3362SOL    HW110985   3.719   1.594   2.626
 3362SOL    HW210986   3.565   1.649   2.635
 3363SOL     OW10987   6.297   0.339   2.106
 3363SOL    HW110988   6.215   0.345   2.163
 3363SOL    HW210989   6.374   0.381   2.154
 3364SOL     OW10990   1.366   5.243   3.724
 3364SOL    HW110991   1.273   5.214   3.749
 3364SOL    HW210992   1.428   5.165   3.731
 3365SOL     OW10993   0.008   2.148   5.316
 3365SOL    HW110994   0.046   2.183   5.230
 3365SOL    HW210995   6.937   2.185   5.328
 3366SOL     OW10996   6.158   5.466   5.003
 3366SOL    HW110997   6.257   5.479   4.996
 3366SOL    HW210998   6.138   5.396   5.070
 3367SOL     OW10999   3.880   3.039   2.309
 3367SOL    HW111000   3.807   2.971   2.307
 3367SOL    HW211001   3.933   3.028   2.393
 3368SOL     OW11002   0.835   5.603   6.394
 3368SOL    HW111003   0.838   5.637   6.488
 3368SOL    HW211004   0.884   5.516   6.388
 3369SOL     OW11005   3.672   1.837   0.150
 3369SOL    HW111006   3.590   1.847   0.207
 3369SOL    HW211007   3.653   1.770   0.078
 3370SOL     OW11008   0.384   6.186   0.727
 3370SOL    HW111009   0.339   6.171   0.815
 3370SOL    HW211010   0.316   6.214   0.659
 3371SOL     OW11011   2.485   2.613   1.895
 3371SOL    HW111012   2.407   2.666   1.928
 3371SOL    HW211013   2.518   2.554   1.968
 3372SOL     OW11014   0.348   2.113   1.690
 3372SOL    HW111015   0.310   2.083   1.603
 3372SOL    HW211016   0.281   2.168   1.739
 3373SOL     OW11017   7.013   1.401   3.752
 3373SOL    HW111018   6.947   1.463   3.709
 3373SOL    HW211019   0.063   1.455   3.797
 3374SOL     OW11020   1.397   6.143   4.614
 3374SOL    HW111021   1.347   6.086   4.680
 3374SOL    HW211022   1.361   6.127   4.522
 3375SOL     OW11023   0.063   4.694   6.760
 3375SOL    HW111024   0.033   4.743   6.842
 3375SOL    HW211025   0.100   4.759   6.694
 3376SOL     OW11026   4.044   3.915   4.178
 3376SOL    HW111027   4.101   3.958   4.248
 3376SOL    HW211028   3.959   3.966   4.168
 3377SOL     OW11029   0.078   5.915   6.372
 3377SOL    HW111030   0.068   5.841   6.440
 3377SOL    HW211031   0.167   5.959   6.384
 3378SOL     OW11032   0.615   1.319   0.724
 3378SOL    HW111033   0.704   1.365   0.722
 3378SOL    HW211034   0.561   1.354   0.800
 3379SOL     OW11035   0.027   0.137   6.058
 3379SOL    HW111036   6.963   0.087   6.071
 3379SOL    HW211037   0.071   0.153   6.146
 3380SOL     OW11038   5.737   6.247   4.758
 3380SOL    HW111039   5.739   6.217   4.853
 3380SOL    HW211040   5.732   6.167   4.698
 3381SOL     OW11041   0.658   2.868   1.735
 3381SOL    HW111042   0.697   2.865   1.643
 3381SOL    HW211043   0.649   2.963   1.765
 3382SOL     OW11044   1.008   2.564   0.637
 3382SOL    HW111045   1.027   2.486   0.578
 3382SOL    HW211046   1.087   2.582   0.695
 3383SOL     OW11047   4.655   5.960   1.340
 3383SOL    HW111048   4.603   6.032   1.386
 3383SOL    HW211049   4.743   5.998   1.308
 3384SOL     OW11050   2.820   3.307   6.530
 3384SOL    HW111051   2.841   3.360   6.613
 3384SOL    HW211052   2.741   3.249   6.546
 3385SOL     OW11053   6.933   3.286   4.301
 3385SOL    HW111054   6.914   3.381   4.324
 3385SOL    HW211055   6.937   3.232   4.385
 3386SOL     OW11056   5.696   4.275   6.854
 3386SOL    HW111057   5.617   4.213   6.860
 3386SOL    HW211058   5.664   4.366   6.826
 3387SOL     OW11059   2.819   0.336   2.635
 3387SOL    HW111060   2.772   0.253   2.607
 3387SOL    HW211061   2.783   0.366   2.724
 3388SOL     OW11062   5.446   2.664   1.365
 3388SOL    HW111063   5.462   2.760   1.389
 3388SOL    HW211064   5.360   2.634   1.406
 3389SOL     OW11065   5.786   5.084   6.518
 3389SOL    HW111066   5.691   5.078   6.548
 3389SOL    HW211067   5.825   4.992   6.510
 3390SOL     OW11068   6.071   6.204   6.492
 3390SOL    HW111069   6.048   6.150   6.411
 3390SOL    HW211070   5.993   6.204   6.555
 3391SOL     OW11071   4.862   3.119   5.025
 3391SOL    HW111072   4.831   3.102   5.119
 3391SOL    HW211073   4.800   3.075   4.961
 3392SOL     OW11074   2.587   0.763   3.729
 3392SOL    HW111075   2.604   0.862   3.732
 3392SOL    HW211076   2.640   0.718   3.801
 3393SOL     OW11077   0.620   6.250   0.583
 3393SOL    HW111078   0.554   6.193   0.633
 3393SOL    HW211079   0.570   6.315   0.525
 3394SOL     OW11080   5.564   3.265   1.328
 3394SOL    HW111081   5.465   3.264   1.312
 3394SOL    HW211082   5.610   3.214   1.256
 3395SOL     OW11083   5.148   3.652   3.251
 3395SOL    HW111084   5.187   3.586   3.315
 3395SOL    HW211085   5.075   3.609   3.199
 3396SOL     OW11086   5.308   1.829   3.154
 3396SOL    HW111087   5.234   1.772   3.117
 3396SOL    HW211088   5.328   1.903   3.091
 3397SOL     OW11089   3.030   6.370   5.743
 3397SOL    HW111090   2.966   6.301   5.709
 3397SOL    HW211091   3.011   6.389   5.839
 3398SOL     OW11092   1.053   6.762   4.705
 3398SOL    HW111093   1.068   6.768   4.804
 3398SOL    HW211094   1.111   6.691   4.666
 3399SOL     OW11095   5.469   3.832   3.616
 3399SOL    HW111096   5.457   3.827   3.517
 3399SOL    HW211097   5.467   3.927   3.645
 3400SOL     OW11098   4.198   3.406   5.870
 3400SOL    HW111099   4.177   3.365   5.781
 3400SOL    HW211100   4.133   3.480   5.889
 3401SOL     OW11101   0.709   2.862   1.429
 3401SOL    HW111102   0.674   2.942   1.381
 3401SOL    HW211103   0.807   2.874   1.444
 3402SOL     OW11104   4.361   5.683   6.822
 3402SOL    HW111105   4.334   5.778   6.838
 3402SOL    HW211106   4.295   5.622   6.866
 3403SOL     OW11107   3.163   5.430   5.283
 3403SOL    HW111108   3.159   5.496   5.358
 3403SOL    HW211109   3.071   5.399   5.260
 3404SOL     OW11110   5.310   1.429   6.967
 3404SOL    HW111111   5.271   1.488   6.896
 3404SOL    HW211112   5.252   1.430   0.026
 3405SOL     OW11113   6.901   3.898   5.690
 3405SOL    HW111114   6.976   3.951   5.729
 3405SOL    HW211115   6.908   3.898   5.590
 3406SOL     OW11116   0.754   3.754   2.194
 3406SOL    HW111117   0.691   3.803   2.254
 3406SOL    HW211118   0.845   3.796   2.200
 3407SOL     OW11119   1.427   4.671   6.068
 3407SOL    HW111120   1.412   4.681   6.167
 3407SOL    HW211121   1.517   4.630   6.053
 3408SOL     OW11122   4.855   3.791   4.655
 3408SOL    HW111123   4.793   3.713   4.667
 3408SOL    HW211124   4.928   3.765   4.591
 3409SOL     OW11125   3.486   6.414   6.583
 3409SOL    HW111126   3.508   6.511   6.579
 3409SOL    HW211127   3.515   6.369   6.498
 3410SOL     OW11128   6.674   6.896   0.939
 3410SOL    HW111129   6.614   6.961   0.986
 3410SOL    HW211130   6.708   6.937   0.855
 3411SOL     OW11131   0.379   3.249   2.033
 3411SOL    HW111132   0.328   3.174   1.989
 3411SOL    HW211133   0.386   3.326   1.969
 3412SOL     OW11134   4.701   2.725   0.686
 3412SOL    HW111135   4.713   2.720   0.785
 3412SOL    HW211136   4.698   2.821   0.658
 3413SOL     OW11137   6.040   1.451   0.687
 3413SOL    HW111138   6.051   1.546   0.716
 3413SOL    HW211139   6.119   1.424   0.631
 3414SOL     OW11140   3.500   1.309   6.180
 3414SOL    HW111141   3.452   1.292   6.266
 3414SOL    HW211142   3.444   1.368   6.122
 3415SOL     OW11143   1.955   3.871   4.323
 3415SOL    HW111144   1.972   3.912   4.413
 3415SOL    HW211145   2.001   3.783   4.317
 3416SOL     OW11146   6.546   5.983   0.767
 3416SOL    HW111147   6.642   5.998   0.746
 3416SOL    HW211148   6.490   6.006   0.687
 3417SOL     OW11149   0.273   6.656   3.072
 3417SOL    HW111150   0.367   6.624   3.085
 3417SOL    HW211151   0.239   6.627   2.982
 3418SOL     OW11152   3.091   6.235   3.534
 3418SOL    HW111153   3.079   6.191   3.623
 3418SOL    HW211154   3.032   6.190   3.467
 3419SOL     OW11155   2.861   6.195   5.583
 3419SOL    HW111156   2.811   6.111   5.564
 3419SOL    HW211157   2.796   6.271   5.591
 3420SOL     OW11158   5.685   3.166   4.364
 3420SOL    HW111159   5.696   3.215   4.278
 3420SOL    HW211160   5.620   3.214   4.422
 3421SOL     OW11161   4.541   1.375   5.283
 3421SOL    HW111162   4.453   1.422   5.270
 3421SOL    HW211163   4.614   1.427   5.239
 3422SOL     OW11164   2.376   0.388   0.728
 3422SOL    HW111165   2.389   0.482   0.694
 3422SOL    HW211166   2.333   0.390   0.818
 3423SOL     OW11167   0.440   4.858   6.515
 3423SOL    HW111168   0.369   4.792   6.541
 3423SOL    HW211169   0.526   4.810   6.502
 3424SOL     OW11170   2.845   6.785   0.840
 3424SOL    HW111171   2.749   6.780   0.814
 3424SOL    HW211172   2.873   6.699   0.883
 3425SOL     OW11173   5.153   5.297   2.273
 3425SOL    HW111174   5.065   5.342   2.288
 3425SOL    HW211175   5.201   5.287   2.360
 3426SOL     OW11176   4.179   2.898   0.471
 3426SOL    HW111177   4.203   2.803   0.450
 3426SOL    HW211178   4.202   2.956   0.393
 3427SOL     OW11179   0.169   0.979   0.058
 3427SOL    HW111180   0.184   0.961   6.982
 3427SOL    HW211181   0.084   1.030   0.069
 3428SOL     OW11182   2.139   5.858   0.289
 3428SOL    HW111183   2.084   5.920   0.233
 3428SOL    HW211184   2.105   5.859   0.383
 3429SOL     OW11185   0.788   1.845   0.799
 3429SOL    HW111186   0.705   1.795   0.774
 3429SOL    HW211187   0.783   1.937   0.761
 3430SOL     OW11188   1.458   6.445   5.159
 3430SOL    HW111189   1.507   6.527   5.189
 3430SOL    HW211190   1.489   6.367   5.213
 3431SOL     OW11191   1.755   0.334   1.414
 3431SOL    HW111192   1.795   0.262   1.358
 3431SOL    HW211193   1.708   0.400   1.355
 3432SOL     OW11194   2.009   2.940   6.510
 3432SOL    HW111195   2.053   2.975   6.427
 3432SOL    HW211196   1.931   2.884   6.485
 3433SOL     OW11197   1.184   6.955   5.161
 3433SOL    HW111198   1.136   0.020   5.169
 3433SOL    HW211199   1.204   6.919   5.252
 3434SOL     OW11200   4.488   0.977   1.804
 3434SOL    HW111201   4.414   1.039   1.780
 3434SOL    HW211202   4.451   0.888   1.829
 3435SOL     OW11203   1.328   1.552   1.352
 3435SOL    HW111204   1.313   1.603   1.437
 3435SOL    HW211205   1.408   1.590   1.305
 3436SOL     OW11206   3.962   6.480   6.925
 3436SOL    HW111207   4.017   6.563   6.926
 3436SOL    HW211208   3.997   6.417   6.856
 3437SOL     OW11209   2.250   0.137   5.399
 3437SOL    HW111210   2.238   0.193   5.481
 3437SOL    HW211211   2.219   0.044   5.417
 3438SOL     OW11212   1.496   2.987   6.985
 3438SOL    HW111213   1.472   3.008   6.890
 3438SOL    HW211214   1.477   2.891   7.004
 3439SOL     OW11215   2.374   5.918   4.705
 3439SOL    HW111216   2.354   5.822   4.685
 3439SOL    HW211217   2.360   5.935   4.803
 3440SOL     OW11218   2.951   3.475   1.091
 3440SOL    HW111219   2.852   3.480   1.081
 3440SOL    HW211220   2.975   3.467   1.188
 3441SOL     OW11221   6.025   5.446   5.696
 3441SOL    HW111222   6.017   5.387   5.616
 3441SOL    HW211223   6.076   5.398   5.768
 3442SOL     OW11224   2.072   4.599   1.961
 3442SOL    HW111225   2.032   4.562   1.878
 3442SOL    HW211226   2.091   4.525   2.025
 3443SOL     OW11227   3.684   6.258   1.239
 3443SOL    HW111228   3.618   6.296   1.174
 3443SOL    HW211229   3.750   6.201   1.190
 3444SOL     OW11230   5.458   5.120   0.294
 3444SOL    HW111231   5.505   5.205   0.269
 3444SOL    HW211232   5.382   5.104   0.231
 3445SOL     OW11233   6.376   5.509   2.993
 3445SOL    HW111234   6.294   5.476   3.041
 3445SOL    HW211235   6.447   5.438   2.997
 3446SOL     OW11236   6.726   1.209   2.025
 3446SOL    HW111237   6.704   1.225   2.121
 3446SOL    HW211238   6.772   1.289   1.987
 3447SOL     OW11239   5.775   5.128   0.764
 3447SOL    HW111240   5.689   5.098   0.723
 3447SOL    HW211241   5.769   5.120   0.864
 3448SOL     OW11242   3.539   0.595   6.983
 3448SOL    HW111243   3.468   0.650   6.941
 3448SOL    HW211244   3.505   0.556   0.047
 3449SOL     OW11245   5.393   5.888   4.894
 3449SOL    HW111246   5.469   5.848   4.843
 3449SOL    HW211247   5.310   5.887   4.837
 3450SOL     OW11248   6.911   2.465   6.863
 3450SOL    HW111249   6.823   2.506   6.888
 3450SOL    HW211250   6.908   2.367   6.882
 3451SOL     OW11251   2.440   6.275   0.610
 3451SOL    HW111252   2.408   6.187   0.575
 3451SOL    HW211253   2.458   6.267   0.708
 3452SOL     OW11254   6.041   0.678   6.221
 3452SOL    HW111255   5.996   0.698   6.308
 3452SOL    HW211256   6.110   0.607   6.235
 3453SOL     OW11257   6.855   5.829   0.019
 3453SOL    HW111258   6.796   5.751   7.020
 3453SOL    HW211259   6.821   5.911   6.995
 3454SOL     OW11260   1.089   2.911   5.057
 3454SOL    HW111261   1.135   2.990   5.098
 3454SOL    HW211262   1.121   2.827   5.101
 3455SOL     OW11263   2.487   1.980   4.492
 3455SOL    HW111264   2.563   2.033   4.455
 3455SOL    HW211265   2.505   1.882   4.478
 3456SOL     OW11266   5.608   5.484   1.845
 3456SOL    HW111267   5.619   5.415   1.916
 3456SOL    HW211268   5.513   5.484   1.812
 3457SOL     OW11269   2.930   5.298   3.002
 3457SOL    HW111270   2.918   5.214   2.948
 3457SOL    HW211271   3.021   5.336   2.986
 3458SOL     OW11272   4.567   0.925   2.375
 3458SOL    HW111273   4.504   0.955   2.446
 3458SOL    HW211274   4.651   0.979   2.380
 3459SOL     OW11275   5.411   3.478   2.604
 3459SOL    HW111276   5.345   3.463   2.530
 3459SOL    HW211277   5.502   3.491   2.565
 3460SOL     OW11278   2.632   2.939   0.559
 3460SOL    HW111279   2.644   2.871   0.632
 3460SOL    HW211280   2.557   3.000   0.583
 3461SOL     OW11281   4.937   4.626   5.155
 3461SOL    HW111282   4.925   4.534   5.116
 3461SOL    HW211283   4.852   4.656   5.196
 3462SOL     OW11284   0.276   4.821   3.221
 3462SOL    HW111285   0.204   4.841   3.288
 3462SOL    HW211286   0.296   4.724   3.221
 3463SOL     OW11287   1.166   4.184   2.300
 3463SOL    HW111288   1.229   4.131   2.243
 3463SOL    HW211289   1.146   4.271   2.255
 3464SOL     OW11290   6.997   4.222   5.626
 3464SOL    HW111291   0.005   4.317   5.631
 3464SOL    HW211292   0.028   4.167   5.690
 3465SOL     OW11293   1.650   1.903   2.188
 3465SOL    HW111294   1.710   1.965   2.137
 3465SOL    HW211295   1.595   1.849   2.124
 3466SOL     OW11296   6.973   4.748   0.124
 3466SOL    HW111297   6.978   4.827   0.064
 3466SOL    HW211298   0.023   4.753   0.193
 3467SOL     OW11299   1.940   2.800   0.315
 3467SOL    HW111300   1.929   2.739   0.394
 3467SOL    HW211301   1.997   2.877   0.341
 3468SOL     OW11302   4.891   6.386   2.882
 3468SOL    HW111303   4.904   6.297   2.840
 3468SOL    HW211304   4.814   6.382   2.945
 3469SOL     OW11305   5.582   0.895   2.558
 3469SOL    HW111306   5.658   0.950   2.523
 3469SOL    HW211307   5.529   0.950   2.623
 3470SOL     OW11308   6.134   4.063   1.000
 3470SOL    HW111309   6.119   3.969   0.971
 3470SOL    HW211310   6.223   4.095   0.966
 3471SOL     OW11311   4.144   4.960   4.326
 3471SOL    HW111312   4.216   4.890   4.324
 3471SOL    HW211313   4.141   5.007   4.238
 3472SOL     OW11314   2.587   1.175   2.334
 3472SOL    HW111315   2.610   1.081   2.356
 3472SOL    HW211316   2.493   1.195   2.362
 3473SOL     OW11317   0.574   2.491   1.060
 3473SOL    HW111318   0.482   2.501   1.097
 3473SOL    HW211319   0.631   2.566   1.093
 3474SOL     OW11320   1.578   5.350   2.230
 3474SOL    HW111321   1.493   5.398   2.251
 3474SOL    HW211322   1.630   5.337   2.314
 3475SOL     OW11323   0.508   5.083   3.962
 3475SOL    HW111324   0.578   5.150   3.987
 3475SOL    HW211325   0.551   5.008   3.910
 3476SOL     OW11326   2.991   1.721   3.258
 3476SOL    HW111327   3.047   1.782   3.201
 3476SOL    HW211328   3.009   1.626   3.233
 3477SOL     OW11329   2.543   4.983   0.952
 3477SOL    HW111330   2.636   5.019   0.948
 3477SOL    HW211331   2.511   4.983   1.047
 3478SOL     OW11332   2.358   5.793   5.083
 3478SOL    HW111333   2.284   5.847   5.043
 3478SOL    HW211334   2.337   5.695   5.074
 3479SOL     OW11335   1.852   0.798   2.962
 3479SOL    HW111336   1.782   0.828   2.898
 3479SOL    HW211337   1.813   0.732   3.026
 3480SOL     OW11338   0.073   6.833   5.158
 3480SOL    HW111339   0.057   6.931   5.169
 3480SOL    HW211340   7.007   6.785   5.157
 3481SOL     OW11341   4.840   0.333   0.584
 3481SOL    HW111342   4.785   0.314   0.502
 3481SOL    HW211343   4.917   0.392   0.559
 3482SOL     OW11344   5.900   1.465   1.828
 3482SOL    HW111345   5.837   1.390   1.846
 3482SOL    HW211346   5.980   1.457   1.888
 3483SOL     OW11347   4.793   1.530   1.402
 3483SOL    HW111348   4.809   1.503   1.497
 3483SOL    HW211349   4.818   1.626   1.390
 3484SOL     OW11350   2.027   3.577   0.944
 3484SOL    HW111351   2.058   3.671   0.957
 3484SOL    HW211352   1.933   3.577   0.908
 3485SOL     OW11353   1.812   0.973   4.177
 3485SOL    HW111354   1.810   0.915   4.259
 3485SOL    HW211355   1.852   1.061   4.199
 3486SOL     OW11356   2.901   1.241   2.856
 3486SOL    HW111357   2.950   1.190   2.927
 3486SOL    HW211358   2.809   1.264   2.889
 3487SOL     OW11359   5.700   2.506   6.022
 3487SOL    HW111360   5.702   2.593   5.972
 3487SOL    HW211361   5.674   2.433   5.959
 3488SOL     OW11362   6.048   1.676   4.810
 3488SOL    HW111363   6.056   1.643   4.904
 3488SOL    HW211364   6.139   1.697   4.775
 3489SOL     OW11365   3.144   6.943   0.595
 3489SOL    HW111366   3.101   6.996   0.668
 3489SOL    HW211367   3.088   6.862   0.575
 3490SOL     OW11368   4.230   4.529   0.333
 3490SOL    HW111369   4.169   4.463   0.289
 3490SOL    HW211370   4.276   4.584   0.264
 3491SOL     OW11371   5.462   2.935   5.241
 3491SOL    HW111372   5.481   3.020   5.289
 3491SOL    HW211373   5.371   2.902   5.268
 3492SOL     OW11374   0.325   5.868   1.414
 3492SOL    HW111375   0.254   5.799   1.428
 3492SOL    HW211376   0.415   5.825   1.417
 3493SOL     OW11377   5.350   4.240   6.315
 3493SOL    HW111378   5.283   4.242   6.241
 3493SOL    HW211379   5.374   4.145   6.336
 3494SOL     OW11380   3.833   0.722   1.705
 3494SOL    HW111381   3.918   0.718   1.652
 3494SOL    HW211382   3.758   0.684   1.652
 3495SOL     OW11383   4.704   5.211   2.362
 3495SOL    HW111384   4.613   5.251   2.371
 3495SOL    HW211385   4.773   5.277   2.391
 3496SOL     OW11386   6.737   4.057   0.352
 3496SOL    HW111387   6.656   4.102   0.390
 3496SOL    HW211388   6.726   4.048   0.253
 3497SOL     OW11389   3.164   0.532   3.347
 3497SOL    HW111390   3.151   0.474   3.267
 3497SOL    HW211391   3.198   0.622   3.317
 3498SOL     OW11392   2.420   2.242   0.924
 3498SOL    HW111393   2.438   2.191   0.839
 3498SOL    HW211394   2.401   2.337   0.902
 3499SOL     OW11395   4.707   2.815   4.400
 3499SOL    HW111396   4.651   2.735   4.377
 3499SOL    HW211397   4.720   2.819   4.499
 3500SOL     OW11398   1.505   3.585   5.464
 3500SOL    HW111399   1.483   3.631   5.550
 3500SOL    HW211400   1.422   3.546   5.425
 3501SOL     OW11401   1.810   5.247   4.294
 3501SOL    HW111402   1.745   5.242   4.218
 3501SOL    HW211403   1.891   5.192   4.272
 3502SOL     OW11404   6.104   2.656   2.344
 3502SOL    HW111405   6.065   2.681   2.255
 3502SOL    HW211406   6.102   2.736   2.404
 3503SOL     OW11407   6.546   6.238   4.895
 3503SOL    HW111408   6.592   6.150   4.910
 3503SOL    HW211409   6.503   6.239   4.805
 3504SOL     OW11410   2.074   2.192   1.112
 3504SOL    HW111411   2.125   2.126   1.057
 3504SOL    HW211412   2.109   2.193   1.205
 3505SOL     OW11413   5.335   5.009   5.015
 3505SOL    HW111414   5.376   4.987   4.926
 3505SOL    HW211415   5.273   4.936   5.043
 3506SOL     OW11416   4.703   5.494   6.293
 3506SOL    HW111417   4.703   5.484   6.194
 3506SOL    HW211418   4.775   5.436   6.332
 3507SOL     OW11419   2.256   0.985   0.390
 3507SOL    HW111420   2.159   0.963   0.385
 3507SOL    HW211421   2.287   1.021   0.303
 3508SOL     OW11422   3.136   2.497   6.132
 3508SOL    HW111423   3.159   2.568   6.065
 3508SOL    HW211424   3.153   2.533   6.224
 3509SOL     OW11425   5.909   6.902   5.648
 3509SOL    HW111426   5.856   6.980   5.615
 3509SOL    HW211427   5.903   6.897   5.747
 3510SOL     OW11428   1.989   2.578   1.570
 3510SOL    HW111429   1.911   2.521   1.594
 3510SOL    HW211430   1.964   2.674   1.579
 3511SOL     OW11431   1.943   4.902   0.784
 3511SOL    HW111432   2.018   4.848   0.744
 3511SOL    HW211433   1.868   4.840   0.808
 3512SOL     OW11434   0.255   4.982   0.643
 3512SOL    HW111435   0.301   4.989   0.555
 3512SOL    HW211436   0.165   5.025   0.638
 3513SOL     OW11437   6.063   3.638   0.397
 3513SOL    HW111438   6.000   3.716   0.404
 3513SOL    HW211439   6.085   3.605   0.489
 3514SOL     OW11440   0.709   1.590   2.082
 3514SOL    HW111441   0.670   1.675   2.116
 3514SOL    HW211442   0.671   1.513   2.133
 3515SOL     OW11443   4.153   5.969   3.054
 3515SOL    HW111444   4.212   6.045   3.026
 3515SOL    HW211445   4.204   5.906   3.111
 3516SOL     OW11446   4.835   6.795   1.009
 3516SOL    HW111447   4.740   6.768   0.995
 3516SOL    HW211448   4.888   6.715   1.038
 3517SOL     OW11449   0.770   2.100   0.744
 3517SOL    HW111450   0.791   2.130   0.837
 3517SOL    HW211451   0.792   2.173   0.680
 3518SOL     OW11452   5.940   4.007   4.949
 3518SOL    HW111453   5.878   4.023   4.872
 3518SOL    HW211454   6.034   4.024   4.920
 3519SOL     OW11455   0.634   0.837   6.098
 3519SOL    HW111456   0.601   0.798   6.012
 3519SOL    HW211457   0.635   0.766   6.168
 3520SOL     OW11458   3.011   5.479   6.780
 3520SOL    HW111459   3.069   5.489   6.700
 3520SOL    HW211460   2.929   5.536   6.769
 3521SOL     OW11461   5.476   3.467   0.240
 3521SOL    HW111462   5.483   3.436   0.145
 3521SOL    HW211463   5.542   3.417   0.296
 3522SOL     OW11464   6.339   4.975   1.613
 3522SOL    HW111465   6.331   4.939   1.521
 3522SOL    HW211466   6.291   4.914   1.677
 3523SOL     OW11467   2.802   4.688   5.718
 3523SOL    HW111468   2.878   4.751   5.731
 3523SOL    HW211469   2.746   4.719   5.641
 3524SOL     OW11470   3.313   1.064   1.078
 3524SOL    HW111471   3.290   1.050   0.981
 3524SOL    HW211472   3.406   1.033   1.095
 3525SOL     OW11473   0.749   4.123   2.141
 3525SOL    HW111474   0.824   4.095   2.082
 3525SOL    HW211475   0.718   4.214   2.115
 3526SOL     OW11476   2.784   6.340   3.605
 3526SOL    HW111477   2.812   6.263   3.663
 3526SOL    HW211478   2.849   6.416   3.616
 3527SOL     OW11479   6.353   3.328   6.196
 3527SOL    HW111480   6.360   3.308   6.099
 3527SOL    HW211481   6.258   3.354   6.218
 3528SOL     OW11482   0.969   5.105   3.828
 3528SOL    HW111483   0.885   5.049   3.830
 3528SOL    HW211484   1.040   5.060   3.881
 3529SOL     OW11485   5.060   0.145   6.199
 3529SOL    HW111486   5.136   0.162   6.262
 3529SOL    HW211487   5.092   0.158   6.105
 3530SOL     OW11488   1.727   5.401   3.457
 3530SOL    HW111489   1.673   5.321   3.432
 3530SOL    HW211490   1.729   5.410   3.557
 3531SOL     OW11491   4.506   3.606   0.912
 3531SOL    HW111492   4.494   3.684   0.850
 3531SOL    HW211493   4.417   3.580   0.950
 3532SOL     OW11494   2.714   1.012   0.875
 3532SOL    HW111495   2.811   0.998   0.853
 3532SOL    HW211496   2.704   1.093   0.932
 3533SOL     OW11497   1.524   1.775   2.382
 3533SOL    HW111498   1.584   1.714   2.433
 3533SOL    HW211499   1.579   1.832   2.320
 3534SOL     OW11500   5.628   0.949   5.137
 3534SOL    HW111501   5.531   0.957   5.160
 3534SOL    HW211502   5.649   0.852   5.120
 3535SOL     OW11503   0.497   5.761   0.573
 3535SOL    HW111504   0.547   5.714   0.500
 3535SOL    HW211505   0.439   5.832   0.533
 3536SOL     OW11506   2.028   2.022   4.398
 3536SOL    HW111507   2.087   2.007   4.319
 3536SOL    HW211508   1.959   1.950   4.403
 3537SOL     OW11509   2.552   5.356   0.600
 3537SOL    HW111510   2.591   5.425   0.539
 3537SOL    HW211511   2.471   5.393   0.645
 3538SOL     OW11512   1.548   0.594   5.250
 3538SOL    HW111513   1.552   0.504   5.207
 3538SOL    HW211514   1.522   0.663   5.182
 3539SOL     OW11515   5.746   3.581   6.530
 3539SOL    HW111516   5.721   3.677   6.529
 3539SOL    HW211517   5.724   3.540   6.441
 3540SOL     OW11518   2.026   2.298   5.666
 3540SOL    HW111519   2.082   2.279   5.746
 3540SOL    HW211520   1.936   2.256   5.678
 3541SOL     OW11521   2.372   2.235   6.020
 3541SOL    HW111522   2.299   2.290   5.979
 3541SOL    HW211523   2.402   2.277   6.105
 3542SOL     OW11524   0.384   3.772   1.749
 3542SOL    HW111525   0.374   3.704   1.822
 3542SOL    HW211526   0.365   3.863   1.785
 3543SOL     OW11527   0.766   3.650   5.973
 3543SOL    HW111528   0.666   3.659   5.972
 3543SOL    HW211529   0.808   3.738   5.950
 3544SOL     OW11530   2.261   4.961   6.524
 3544SOL    HW111531   2.267   4.898   6.602
 3544SOL    HW211532   2.242   4.908   6.441
 3545SOL     OW11533   3.760   5.218   0.700
 3545SOL    HW111534   3.712   5.149   0.647
 3545SOL    HW211535   3.858   5.197   0.701
 3546SOL     OW11536   0.111   4.468   2.813
 3546SOL    HW111537   0.018   4.462   2.778
 3546SOL    HW211538   0.175   4.483   2.738
 3547SOL     OW11539   6.086   4.667   4.818
 3547SOL    HW111540   6.139   4.646   4.736
 3547SOL    HW211541   6.049   4.582   4.856
 3548SOL     OW11542   4.916   0.359   5.672
 3548SOL    HW111543   4.961   0.436   5.718
 3548SOL    HW211544   4.832   0.392   5.628
 3549SOL     OW11545   0.372   4.475   6.438
 3549SOL    HW111546   0.279   4.483   6.401
 3549SOL    HW211547   0.381   4.531   6.520
 3550SOL     OW11548   5.879   2.648   4.329
 3550SOL    HW111549   5.855   2.591   4.250
 3550SOL    HW211550   5.905   2.589   4.405
 3551SOL     OW11551   3.770   1.837   3.724
 3551SOL    HW111552   3.793   1.924   3.768
 3551SOL    HW211553   3.718   1.780   3.787
 3552SOL     OW11554   6.383   0.175   1.276
 3552SOL    HW111555   6.343   0.086   1.254
 3552SOL    HW211556   6.322   0.247   1.246
 3553SOL     OW11557   3.803   5.602   0.609
 3553SOL    HW111558   3.735   5.536   0.576
 3553SOL    HW211559   3.844   5.649   0.531
 3554SOL     OW11560   4.715   2.077   0.977
 3554SOL    HW111561   4.786   2.143   1.002
 3554SOL    HW211562   4.758   1.998   0.932
 3555SOL     OW11563   0.817   3.976   5.180
 3555SOL    HW111564   0.880   3.922   5.124
 3555SOL    HW211565   0.734   3.923   5.198
 3556SOL     OW11566   4.297   0.735   4.242
 3556SOL    HW111567   4.249   0.650   4.264
 3556SOL    HW211568   4.346   0.725   4.155
 3557SOL     OW11569   1.162   0.398   3.735
 3557SOL    HW111570   1.124   0.335   3.668
 3557SOL    HW211571   1.164   0.355   3.825
 3558SOL     OW11572   1.301   6.021   2.582
 3558SOL    HW111573   1.343   6.107   2.555
 3558SOL    HW211574   1.300   5.958   2.504
 3559SOL     OW11575   0.693   6.329   5.476
 3559SOL    HW111576   0.639   6.244   5.478
 3559SOL    HW211577   0.763   6.322   5.406
 3560SOL     OW11578   2.477   5.251   2.404
 3560SOL    HW111579   2.410   5.312   2.363
 3560SOL    HW211580   2.528   5.299   2.476
 3561SOL     OW11581   4.661   3.939   5.230
 3561SOL    HW111582   4.700   3.973   5.144
 3561SOL    HW211583   4.722   3.870   5.270
 3562SOL     OW11584   3.906   0.799   3.185
 3562SOL    HW111585   3.967   0.720   3.182
 3562SOL    HW211586   3.939   0.864   3.253
 3563SOL     OW11587   6.344   1.906   0.480
 3563SOL    HW111588   6.349   1.899   0.580
 3563SOL    HW211589   6.415   1.848   0.439
 3564SOL     OW11590   1.175   4.634   2.901
 3564SOL    HW111591   1.086   4.588   2.911
 3564SOL    HW211592   1.165   4.731   2.921
 3565SOL     OW11593   3.072   6.321   4.510
 3565SOL    HW111594   3.164   6.358   4.497
 3565SOL    HW211595   3.004   6.389   4.480
 3566SOL     OW11596   6.518   3.472   6.821
 3566SOL    HW111597   6.546   3.377   6.828
 3566SOL    HW211598   6.418   3.477   6.821
 3567SOL     OW11599   0.534   1.890   6.401
 3567SOL    HW111600   0.531   1.792   6.382
 3567SOL    HW211601   0.563   1.904   6.496
 3568SOL     OW11602   5.001   3.929   4.272
 3568SOL    HW111603   5.096   3.932   4.300
 3568SOL    HW211604   4.943   3.967   4.344
 3569SOL     OW11605   2.166   2.052   6.295
 3569SOL    HW111606   2.092   1.994   6.331
 3569SOL    HW211607   2.252   2.003   6.301
 3570SOL     OW11608   5.129   0.204   5.939
 3570SOL    HW111609   5.210   0.234   5.888
 3570SOL    HW211610   5.061   0.168   5.875
 3571SOL     OW11611   0.981   5.362   5.675
 3571SOL    HW111612   0.935   5.363   5.586
 3571SOL    HW211613   0.940   5.431   5.734
 3572SOL     OW11614   6.109   4.236   2.632
 3572SOL    HW111615   6.046   4.204   2.703
 3572SOL    HW211616   6.108   4.172   2.556
 3573SOL     OW11617   0.372   5.339   3.355
 3573SOL    HW111618   0.339   5.249   3.325
 3573SOL    HW211619   0.468   5.332   3.381
 3574SOL     OW11620   0.295   3.970   1.290
 3574SOL    HW111621   0.232   3.908   1.243
 3574SOL    HW211622   0.389   3.939   1.275
 3575SOL     OW11623   4.910   4.838   2.604
 3575SOL    HW111624   5.006   4.830   2.580
 3575SOL    HW211625   4.886   4.770   2.673
 3576SOL     OW11626   0.014   1.849   5.815
 3576SOL    HW111627   7.003   1.943   5.803
 3576SOL    HW211628   0.031   1.808   5.725
 3577SOL     OW11629   2.023   2.120   5.960
 3577SOL    HW111630   1.962   2.049   5.996
 3577SOL    HW211631   2.028   2.196   6.025
 3578SOL     OW11632   3.393   2.275   0.633
 3578SOL    HW111633   3.407   2.344   0.705
 3578SOL    HW211634   3.466   2.282   0.566
 3579SOL     OW11635   6.612   2.632   4.212
 3579SOL    HW111636   6.561   2.718   4.219
 3579SOL    HW211637   6.708   2.652   4.196
 3580SOL     OW11638   5.534   3.382   1.615
 3580SOL    HW111639   5.555   3.477   1.593
 3580SOL    HW211640   5.561   3.323   1.539
 3581SOL     OW11641   0.781   6.117   3.454
 3581SOL    HW111642   0.842   6.067   3.517
 3581SOL    HW211643   0.811   6.102   3.360
 3582SOL     OW11644   1.254   2.566   5.555
 3582SOL    HW111645   1.326   2.505   5.588
 3582SOL    HW211646   1.266   2.657   5.593
 3583SOL     OW11647   0.803   3.976   6.715
 3583SOL    HW111648   0.742   3.938   6.785
 3583SOL    HW211649   0.813   3.910   6.641
 3584SOL     OW11650   6.000   5.302   6.872
 3584SOL    HW111651   5.931   5.236   6.841
 3584SOL    HW211652   5.960   5.393   6.878
 3585SOL     OW11653   3.468   0.238   4.500
 3585SOL    HW111654   3.408   0.186   4.560
 3585SOL    HW211655   3.462   0.335   4.525
 3586SOL     OW11656   6.991   1.659   5.014
 3586SOL    HW111657   0.027   1.582   5.041
 3586SOL    HW211658   6.971   1.653   4.916
 3587SOL     OW11659   2.724   5.308   6.807
 3587SOL    HW111660   2.688   5.295   6.899
 3587SOL    HW211661   2.810   5.258   6.796
 3588SOL     OW11662   1.571   2.453   6.079
 3588SOL    HW111663   1.532   2.459   5.987
 3588SOL    HW211664   1.540   2.530   6.134
 3589SOL     OW11665   3.656   1.267   4.987
 3589SOL    HW111666   3.715   1.322   4.927
 3589SOL    HW211667   3.567   1.313   4.995
 3590SOL     OW11668   1.033   2.969   6.784
 3590SOL    HW111669   1.101   2.905   6.819
 3590SOL    HW211670   1.043   2.978   6.685
 3591SOL     OW11671   5.006   3.644   6.258
 3591SOL    HW111672   4.982   3.637   6.355
 3591SOL    HW211673   5.063   3.567   6.232
 3592SOL     OW11674   0.012   4.833   1.837
 3592SOL    HW111675   0.083   4.892   1.876
 3592SOL    HW211676   0.054   4.747   1.806
 3593SOL     OW11677   0.390   5.963   5.026
 3593SOL    HW111678   0.421   5.960   4.931
 3593SOL    HW211679   0.400   5.873   5.067
 3594SOL     OW11680   4.465   0.325   3.157
 3594SOL    HW111681   4.451   0.414   3.201
 3594SOL    HW211682   4.377   0.281   3.141
 3595SOL     OW11683   3.195   5.868   6.940
 3595SOL    HW111684   3.295   5.861   6.934
 3595SOL    HW211685   3.170   5.957   6.978
 3596SOL     OW11686   6.216   3.074   3.521
 3596SOL    HW111687   6.253   3.107   3.434
 3596SOL    HW211688   6.122   3.108   3.532
 3597SOL     OW11689   1.465   2.010   4.928
 3597SOL    HW111690   1.488   1.921   4.889
 3597SOL    HW211691   1.366   2.016   4.941
 3598SOL     OW11692   0.974   5.159   6.109
 3598SOL    HW111693   1.052   5.128   6.163
 3598SOL    HW211694   0.997   5.156   6.012
 3599SOL     OW11695   0.068   2.128   6.651
 3599SOL    HW111696   0.081   2.059   6.581
 3599SOL    HW211697   0.148   2.129   6.712
 3600SOL     OW11698   0.792   3.420   1.366
 3600SOL    HW111699   0.712   3.359   1.363
 3600SOL    HW211700   0.821   3.431   1.461
 3601SOL     OW11701   5.405   4.619   6.416
 3601SOL    HW111702   5.505   4.623   6.416
 3601SOL    HW211703   5.372   4.626   6.322
 3602SOL     OW11704   1.918   2.681   0.560
 3602SOL    HW111705   1.832   2.728   0.582
 3602SOL    HW211706   1.970   2.666   0.644
 3603SOL     OW11707   3.320   0.508   3.567
 3603SOL    HW111708   3.353   0.413   3.562
 3603SOL    HW211709   3.263   0.527   3.487
 3604SOL     OW11710   6.482   5.232   3.283
 3604SOL    HW111711   6.495   5.236   3.184
 3604SOL    HW211712   6.548   5.292   3.327
 3605SOL     OW11713   6.597   3.547   5.052
 3605SOL    HW111714   6.565   3.457   5.021
 3605SOL    HW211715   6.518   3.605   5.070
 3606SOL     OW11716   0.076   0.274   4.568
 3606SOL    HW111717   0.016   0.271   4.488
 3606SOL    HW211718   0.020   0.286   4.651
 3607SOL     OW11719   5.980   5.663   1.773
 3607SOL    HW111720   5.916   5.737   1.793
 3607SOL    HW211721   5.985   5.649   1.674
 3608SOL     OW11722   5.831   2.302   3.800
 3608SOL    HW111723   5.850   2.234   3.870
 3608SOL    HW211724   5.916   2.344   3.770
 3609SOL     OW11725   1.148   6.861   4.374
 3609SOL    HW111726   1.101   6.777   4.401
 3609SOL    HW211727   1.242   6.859   4.407
 3610SOL     OW11728   1.496   7.002   5.243
 3610SOL    HW111729   1.506   6.936   5.169
 3610SOL    HW211730   1.541   6.967   5.325
 3611SOL     OW11731   3.998   5.835   5.592
 3611SOL    HW111732   4.048   5.757   5.629
 3611SOL    HW211733   3.901   5.814   5.588
 3612SOL     OW11734   6.676   6.684   7.000
 3612SOL    HW111735   6.665   6.782   6.980
 3612SOL    HW211736   6.602   6.633   6.956
 3613SOL     OW11737   4.484   5.412   2.158
 3613SOL    HW111738   4.474   5.372   2.249
 3613SOL    HW211739   4.535   5.350   2.099
 3614SOL     OW11740   4.063   3.300   1.607
 3614SOL    HW111741   4.118   3.378   1.638
 3614SOL    HW211742   4.101   3.216   1.644
 3615SOL     OW11743   5.120   5.564   6.763
 3615SOL    HW111744   5.188   5.493   6.745
 3615SOL    HW211745   5.161   5.654   6.748
 3616SOL     OW11746   0.912   2.184   6.914
 3616SOL    HW111747   0.865   2.204   7.000
 3616SOL    HW211748   1.006   2.217   6.920
 3617SOL     OW11749   3.926   1.439   6.948
 3617SOL    HW111750   3.986   1.512   6.981
 3617SOL    HW211751   3.830   1.467   6.962
 3618SOL     OW11752   2.010   2.718   5.380
 3618SOL    HW111753   2.100   2.715   5.424
 3618SOL    HW211754   2.007   2.795   5.317
 3619SOL     OW11755   5.913   2.565   4.628
 3619SOL    HW111756   5.929   2.664   4.632
 3619SOL    HW211757   6.000   2.517   4.620
 3620SOL     OW11758   6.143   6.566   6.057
 3620SOL    HW111759   6.095   6.539   6.141
 3620SOL    HW211760   6.125   6.499   5.985
 3621SOL     OW11761   3.397   2.872   5.163
 3621SOL    HW111762   3.453   2.874   5.246
 3621SOL    HW211763   3.302   2.853   5.187
 3622SOL     OW11764   1.882   1.659   5.453
 3622SOL    HW111765   1.922   1.588   5.395
 3622SOL    HW211766   1.939   1.741   5.449
 3623SOL     OW11767   6.113   5.749   4.414
 3623SOL    HW111768   6.013   5.760   4.411
 3623SOL    HW211769   6.145   5.705   4.330
 3624SOL     OW11770   1.497   6.756   1.805
 3624SOL    HW111771   1.443   6.716   1.731
 3624SOL    HW211772   1.468   6.718   1.892
 3625SOL     OW11773   6.273   2.777   6.816
 3625SOL    HW111774   6.175   2.768   6.795
 3625SOL    HW211775   6.311   2.854   6.766
 3626SOL     OW11776   1.657   2.075   6.138
 3626SOL    HW111777   1.689   2.138   6.067
 3626SOL    HW211778   1.627   2.128   6.218
 3627SOL     OW11779   3.599   3.109   2.517
 3627SOL    HW111780   3.629   3.178   2.452
 3627SOL    HW211781   3.522   3.144   2.570
 3628SOL     OW11782   1.740   1.096   2.103
 3628SOL    HW111783   1.782   1.175   2.059
 3628SOL    HW211784   1.649   1.082   2.066
 3629SOL     OW11785   6.823   0.801   5.477
 3629SOL    HW111786   6.879   0.881   5.494
 3629SOL    HW211787   6.792   0.763   5.564
 3630SOL     OW11788   4.906   2.719   4.166
 3630SOL    HW111789   4.916   2.621   4.146
 3630SOL    HW211790   4.866   2.730   4.257
 3631SOL     OW11791   2.433   1.175   3.423
 3631SOL    HW111792   2.411   1.182   3.520
 3631SOL    HW211793   2.403   1.085   3.388
 3632SOL     OW11794   5.336   5.833   1.345
 3632SOL    HW111795   5.351   5.931   1.337
 3632SOL    HW211796   5.247   5.809   1.307
 3633SOL     OW11797   3.996   1.724   5.936
 3633SOL    HW111798   3.900   1.752   5.931
 3633SOL    HW211799   4.037   1.761   6.018
 3634SOL     OW11800   1.609   4.486   4.812
 3634SOL    HW111801   1.588   4.415   4.879
 3634SOL    HW211802   1.593   4.576   4.853
 3635SOL     OW11803   3.581   0.149   0.280
 3635SOL    HW111804   3.615   0.069   0.230
 3635SOL    HW211805   3.641   0.227   0.262
 3636SOL     OW11806   0.237   5.722   1.164
 3636SOL    HW111807   0.297   5.789   1.207
 3636SOL    HW211808   0.223   5.747   1.068
 3637SOL     OW11809   0.189   1.747   2.229
 3637SOL    HW111810   0.265   1.683   2.243
 3637SOL    HW211811   0.210   1.806   2.151
 3638SOL     OW11812   0.818   4.431   3.276
 3638SOL    HW111813   0.897   4.474   3.319
 3638SOL    HW211814   0.755   4.502   3.244
 3639SOL     OW11815   3.550   4.969   0.938
 3639SOL    HW111816   3.500   4.883   0.925
 3639SOL    HW211817   3.583   5.002   0.849
 3640SOL     OW11818   4.323   0.826   0.601
 3640SOL    HW111819   4.416   0.812   0.636
 3640SOL    HW211820   4.311   0.775   0.516
 3641SOL     OW11821   5.057   3.805   2.020
 3641SOL    HW111822   5.047   3.706   2.021
 3641SOL    HW211823   5.091   3.834   1.930
 3642SOL     OW11824   5.546   1.002   6.700
 3642SOL    HW111825   5.543   1.094   6.739
 3642SOL    HW211826   5.639   0.984   6.666
 3643SOL     OW11827   3.525   5.626   4.516
 3643SOL    HW111828   3.523   5.610   4.615
 3643SOL    HW211829   3.435   5.604   4.477
 3644SOL     OW11830   0.151   1.034   1.373
 3644SOL    HW111831   0.122   0.957   1.429
 3644SOL    HW211832   0.072   1.090   1.349
 3645SOL     OW11833   0.552   2.663   3.671
 3645SOL    HW111834   0.614   2.719   3.615
 3645SOL    HW211835   0.560   2.567   3.643
 3646SOL     OW11836   1.063   4.148   6.401
 3646SOL    HW111837   1.100   4.203   6.325
 3646SOL    HW211838   0.983   4.098   6.369
 3647SOL     OW11839   2.674   5.442   5.936
 3647SOL    HW111840   2.632   5.365   5.984
 3647SOL    HW211841   2.604   5.491   5.885
 3648SOL     OW11842   3.969   4.876   1.812
 3648SOL    HW111843   3.905   4.845   1.883
 3648SOL    HW211844   3.971   4.976   1.811
 3649SOL     OW11845   5.077   3.012   1.293
 3649SOL    HW111846   5.071   3.112   1.303
 3649SOL    HW211847   5.171   2.987   1.271
 3650SOL     OW11848   6.671   5.993   1.506
 3650SOL    HW111849   6.670   6.066   1.437
 3650SOL    HW211850   6.583   5.991   1.553
 3651SOL     OW11851   0.801   6.810   4.571
 3651SOL    HW111852   0.728   6.816   4.639
 3651SOL    HW211853   0.888   6.794   4.616
 3652SOL     OW11854   5.734   6.630   3.213
 3652SOL    HW111855   5.821   6.579   3.216
 3652SOL    HW211856   5.733   6.698   3.286
 3653SOL     OW11857   0.953   1.633   3.923
 3653SOL    HW111858   0.947   1.636   4.022
 3653SOL    HW211859   0.937   1.724   3.885
 3654SOL     OW11860   3.518   4.235   0.673
 3654SOL    HW111861   3.447   4.224   0.603
 3654SOL    HW211862   3.483   4.202   0.761
 3655SOL     OW11863   2.204   6.142   4.268
 3655SOL    HW111864   2.109   6.166   4.290
 3655SOL    HW211865   2.262   6.222   4.281
 3656SOL     OW11866   0.036   4.425   1.377
 3656SOL    HW111867   0.010   4.478   1.296
 3656SOL    HW211868   0.103   4.356   1.351
 3657SOL     OW11869   5.351   5.833   6.066
 3657SOL    HW111870   5.404   5.833   6.151
 3657SOL    HW211871   5.322   5.927   6.045
 3658SOL     OW11872   1.721   5.081   6.162
 3658SOL    HW111873   1.789   5.130   6.216
 3658SOL    HW211874   1.764   5.003   6.117
 3659SOL     OW11875   2.349   3.677   6.588
 3659SOL    HW111876   2.444   3.648   6.580
 3659SOL    HW211877   2.346   3.773   6.617
 3660SOL     OW11878   5.460   6.225   3.443
 3660SOL    HW111879   5.469   6.278   3.527
 3660SOL    HW211880   5.404   6.275   3.377
 3661SOL     OW11881   5.906   0.349   5.260
 3661SOL    HW111882   5.986   0.388   5.215
 3661SOL    HW211883   5.849   0.302   5.193
 3662SOL     OW11884   3.672   0.685   3.830
 3662SOL    HW111885   3.636   0.673   3.737
 3662SOL    HW211886   3.596   0.693   3.894
 3663SOL     OW11887   1.859   1.909   6.874
 3663SOL    HW111888   1.864   1.972   6.951
 3663SOL    HW211889   1.949   1.868   6.858
 3664SOL     OW11890   4.915   2.578   1.379
 3664SOL    HW111891   4.922   2.675   1.402
 3664SOL    HW211892   4.948   2.523   1.456
 3665SOL     OW11893   1.368   6.583   4.914
 3665SOL    HW111894   1.400   6.512   4.852
 3665SOL    HW211895   1.403   6.565   5.006
 3666SOL     OW11896   0.457   3.403   3.279
 3666SOL    HW111897   0.525   3.334   3.254
 3666SOL    HW211898   0.475   3.435   3.372
 3667SOL     OW11899   0.948   1.473   3.709
 3667SOL    HW111900   0.928   1.528   3.790
 3667SOL    HW211901   1.001   1.528   3.644
 3668SOL     OW11902   1.476   0.949   0.954
 3668SOL    HW111903   1.386   0.904   0.957
 3668SOL    HW211904   1.547   0.883   0.976
 3669SOL     OW11905   5.480   1.379   3.347
 3669SOL    HW111906   5.410   1.333   3.402
 3669SOL    HW211907   5.436   1.426   3.271
 3670SOL     OW11908   1.573   5.684   0.321
 3670SOL    HW111909   1.507   5.757   0.302
 3670SOL    HW211910   1.550   5.641   0.409
 3671SOL     OW11911   0.059   2.008   4.438
 3671SOL    HW111912   0.041   1.996   4.536
 3671SOL    HW211913   0.144   1.963   4.414
 3672SOL     OW11914   4.972   1.685   1.710
 3672SOL    HW111915   5.065   1.681   1.747
 3672SOL    HW211916   4.969   1.751   1.635
 3673SOL     OW11917   3.628   6.244   6.733
 3673SOL    HW111918   3.567   6.202   6.799
 3673SOL    HW211919   3.581   6.319   6.686
 3674SOL     OW11920   1.262   4.906   5.882
 3674SOL    HW111921   1.352   4.887   5.922
 3674SOL    HW211922   1.249   5.004   5.875
 3675SOL     OW11923   1.970   2.965   4.074
 3675SOL    HW111924   2.050   2.978   4.016
 3675SOL    HW211925   1.975   3.029   4.151
 3676SOL     OW11926   5.795   4.989   3.066
 3676SOL    HW111927   5.867   5.037   3.016
 3676SOL    HW211928   5.749   5.052   3.129
 3677SOL     OW11929   2.589   5.924   3.760
 3677SOL    HW111930   2.686   5.920   3.737
 3677SOL    HW211931   2.568   6.013   3.801
 3678SOL     OW11932   0.334   1.670   4.491
 3678SOL    HW111933   0.313   1.764   4.463
 3678SOL    HW211934   0.424   1.667   4.535
 3679SOL     OW11935   0.578   0.733   3.474
 3679SOL    HW111936   0.537   0.724   3.565
 3679SOL    HW211937   0.571   0.828   3.444
 3680SOL     OW11938   5.213   3.170   4.210
 3680SOL    HW111939   5.279   3.122   4.268
 3680SOL    HW211940   5.252   3.184   4.119
 3681SOL     OW11941   0.315   1.029   6.283
 3681SOL    HW111942   0.317   0.947   6.340
 3681SOL    HW211943   0.356   1.105   6.333
 3682SOL     OW11944   5.195   2.368   6.713
 3682SOL    HW111945   5.292   2.389   6.725
 3682SOL    HW211946   5.155   2.348   6.803
 3683SOL     OW11947   6.833   1.436   3.974
 3683SOL    HW111948   6.928   1.420   4.000
 3683SOL    HW211949   6.814   1.535   3.975
 3684SOL     OW11950   1.172   4.637   7.018
 3684SOL    HW111951   1.210   4.555   0.039
 3684SOL    HW211952   1.246   4.702   6.999
 3685SOL     OW11953   1.689   6.308   6.490
 3685SOL    HW111954   1.616   6.358   6.444
 3685SOL    HW211955   1.724   6.363   6.566
 3686SOL     OW11956   5.181   5.648   4.187
 3686SOL    HW111957   5.143   5.721   4.245
 3686SOL    HW211958   5.156   5.664   4.092
 3687SOL     OW11959   3.703   5.841   4.329
 3687SOL    HW111960   3.651   5.758   4.353
 3687SOL    HW211961   3.790   5.840   4.378
 3688SOL     OW11962   0.696   3.384   6.676
 3688SOL    HW111963   0.681   3.458   6.740
 3688SOL    HW211964   0.710   3.422   6.584
 3689SOL     OW11965   2.164   6.906   5.500
 3689SOL    HW111966   2.207   6.822   5.465
 3689SOL    HW211967   2.094   6.882   5.567
 3690SOL     OW11968   4.365   6.062   0.198
 3690SOL    HW111969   4.449   6.061   0.143
 3690SOL    HW211970   4.310   5.981   0.177
 3691SOL     OW11971   2.301   1.536   6.029
 3691SOL    HW111972   2.280   1.596   6.106
 3691SOL    HW211973   2.384   1.483   6.050
 3692SOL     OW11974   6.914   5.363   5.460
 3692SOL    HW111975   6.900   5.274   5.416
 3692SOL    HW211976   6.827   5.411   5.466
 3693SOL     OW11977   2.189   3.769   3.072
 3693SOL    HW111978   2.238   3.682   3.071
 3693SOL    HW211979   2.135   3.778   2.988
 3694SOL     OW11980   1.056   6.584   2.596
 3694SOL    HW111981   1.090   6.550   2.508
 3694SOL    HW211982   1.054   6.684   2.594
 3695SOL     OW11983   5.431   3.625   2.006
 3695SOL    HW111984   5.411   3.616   1.908
 3695SOL    HW211985   5.526   3.654   2.018
 3696SOL     OW11986   3.789   6.458   4.453
 3696SOL    HW111987   3.743   6.539   4.489
 3696SOL    HW211988   3.729   6.412   4.387
 3697SOL     OW11989   0.172   6.591   2.576
 3697SOL    HW111990   0.110   6.665   2.604
 3697SOL    HW211991   0.121   6.524   2.522
 3698SOL     OW11992   3.135   0.991   4.502
 3698SOL    HW111993   3.178   1.020   4.588
 3698SOL    HW211994   3.205   0.954   4.441
 3699SOL     OW11995   1.538   2.810   4.473
 3699SOL    HW111996   1.450   2.792   4.517
 3699SOL    HW211997   1.611   2.765   4.523
 3700SOL     OW11998   0.762   5.286   4.528
 3700SOL    HW111999   0.825   5.218   4.564
 3700SOL    HW212000   0.764   5.284   4.428
 3701SOL     OW12001   1.530   1.193   4.329
 3701SOL    HW112002   1.582   1.278   4.333
 3701SOL    HW212003   1.457   1.202   4.261
 3702SOL     OW12004   5.752   7.018   3.285
 3702SOL    HW112005   5.753   0.092   3.257
 3702SOL    HW212006   5.844   6.989   3.310
 3703SOL     OW12007   5.536   0.281   5.568
 3703SOL    HW112008   5.601   0.355   5.585
 3703SOL    HW212009   5.585   0.195   5.554
 3704SOL     OW12010   3.710   1.263   1.002
 3704SOL    HW112011   3.672   1.180   0.960
 3704SOL    HW212012   3.776   1.304   0.940
 3705SOL     OW12013   4.970   4.466   4.321
 3705SOL    HW112014   4.896   4.521   4.282
 3705SOL    HW212015   4.948   4.445   4.417
 3706SOL     OW12016   1.362   4.035   0.094
 3706SOL    HW112017   1.305   4.079   0.164
 3706SOL    HW212018   1.365   4.094   0.013
 3707SOL     OW12019   5.261   4.597   3.998
 3707SOL    HW112020   5.242   4.507   3.960
 3707SOL    HW212021   5.358   4.619   3.985
 3708SOL     OW12022   6.587   0.807   6.521
 3708SOL    HW112023   6.604   0.835   6.616
 3708SOL    HW212024   6.493   0.775   6.512
 3709SOL     OW12025   3.199   0.900   1.288
 3709SOL    HW112026   3.256   0.961   1.232
 3709SOL    HW212027   3.259   0.843   1.344
 3710SOL     OW12028   6.288   5.659   5.343
 3710SOL    HW112029   6.300   5.563   5.318
 3710SOL    HW212030   6.212   5.698   5.291
 3711SOL     OW12031   0.696   6.609   4.444
 3711SOL    HW112032   0.782   6.560   4.441
 3711SOL    HW212033   0.709   6.698   4.488
 3712SOL     OW12034   0.560   5.013   5.559
 3712SOL    HW112035   0.654   4.994   5.531
 3712SOL    HW212036   0.515   5.068   5.488
 3713SOL     OW12037   0.843   6.421   5.901
 3713SOL    HW112038   0.918   6.370   5.944
 3713SOL    HW212039   0.771   6.358   5.873
 3714SOL     OW12040   5.873   5.490   5.977
 3714SOL    HW112041   5.948   5.430   6.004
 3714SOL    HW212042   5.847   5.472   5.882
 3715SOL     OW12043   0.679   3.963   2.351
 3715SOL    HW112044   0.702   4.037   2.289
 3715SOL    HW212045   0.755   3.947   2.415
 3716SOL     OW12046   6.030   6.611   4.335
 3716SOL    HW112047   6.024   6.554   4.252
 3716SOL    HW212048   6.118   6.595   4.380
 3717SOL     OW12049   0.030   6.530   6.844
 3717SOL    HW112050   0.113   6.479   6.823
 3717SOL    HW212051   6.996   6.537   6.761
 3718SOL     OW12052   0.661   0.715   6.344
 3718SOL    HW112053   0.587   0.652   6.321
 3718SOL    HW212054   0.664   0.729   6.443
 3719SOL     OW12055   5.206   4.152   1.677
 3719SOL    HW112056   5.126   4.183   1.728
 3719SOL    HW212057   5.238   4.065   1.714
 3720SOL     OW12058   5.754   2.791   6.621
 3720SOL    HW112059   5.721   2.884   6.606
 3720SOL    HW212060   5.762   2.774   6.720
 3721SOL     OW12061   6.023   4.573   1.429
 3721SOL    HW112062   5.932   4.575   1.472
 3721SOL    HW212063   6.058   4.666   1.421
 3722SOL     OW12064   5.768   5.843   0.641
 3722SOL    HW112065   5.849   5.892   0.608
 3722SOL    HW212066   5.752   5.763   0.584
 3723SOL     OW12067   5.673   5.374   1.226
 3723SOL    HW112068   5.593   5.346   1.172
 3723SOL    HW212069   5.722   5.292   1.258
 3724SOL     OW12070   2.135   4.563   4.663
 3724SOL    HW112071   2.194   4.492   4.703
 3724SOL    HW212072   2.039   4.537   4.675
 3725SOL     OW12073   6.964   5.530   0.315
 3725SOL    HW112074   6.955   5.443   0.364
 3725SOL    HW212075   0.038   5.542   0.287
 3726SOL     OW12076   6.056   3.268   0.672
 3726SOL    HW112077   5.964   3.247   0.705
 3726SOL    HW212078   6.079   3.362   0.694
 3727SOL     OW12079   6.452   1.560   5.475
 3727SOL    HW112080   6.527   1.513   5.429
 3727SOL    HW212081   6.395   1.494   5.523
 3728SOL     OW12082   1.528   3.671   6.456
 3728SOL    HW112083   1.604   3.730   6.486
 3728SOL    HW212084   1.443   3.701   6.501
 3729SOL     OW12085   1.483   2.498   4.388
 3729SOL    HW112086   1.462   2.586   4.345
 3729SOL    HW212087   1.582   2.488   4.397
 3730SOL     OW12088   2.601   5.360   5.264
 3730SOL    HW112089   2.623   5.377   5.360
 3730SOL    HW212090   2.568   5.444   5.222
 3731SOL     OW12091   0.420   1.391   0.518
 3731SOL    HW112092   0.493   1.378   0.586
 3731SOL    HW212093   0.340   1.336   0.545
 3732SOL     OW12094   2.998   1.570   0.229
 3732SOL    HW112095   2.944   1.532   0.154
 3732SOL    HW212096   2.959   1.657   0.258
 3733SOL     OW12097   1.723   3.308   3.071
 3733SOL    HW112098   1.663   3.329   3.148
 3733SOL    HW212099   1.668   3.286   2.990
 3734SOL     OW12100   5.141   0.601   1.304
 3734SOL    HW112101   5.206   0.653   1.248
 3734SOL    HW212102   5.079   0.550   1.244
 3735SOL     OW12103   2.477   1.166   2.924
 3735SOL    HW112104   2.506   1.123   2.838
 3735SOL    HW212105   2.380   1.150   2.939
 3736SOL     OW12106   6.893   2.117   1.311
 3736SOL    HW112107   6.949   2.036   1.296
 3736SOL    HW212108   6.812   2.092   1.363
 3737SOL     OW12109   5.503   1.157   3.860
 3737SOL    HW112110   5.438   1.092   3.900
 3737SOL    HW212111   5.570   1.108   3.806
 3738SOL     OW12112   0.402   0.196   2.103
 3738SOL    HW112113   0.468   0.247   2.048
 3738SOL    HW212114   0.320   0.252   2.117
 3739SOL     OW12115   2.015   5.351   0.569
 3739SOL    HW112116   2.048   5.305   0.652
 3739SOL    HW212117   2.029   5.290   0.490
 3740SOL     OW12118   6.492   0.641   0.583
 3740SOL    HW112119   6.527   0.650   0.677
 3740SOL    HW212120   6.495   0.545   0.556
 3741SOL     OW12121   5.120   3.228   6.264
 3741SOL    HW112122   5.042   3.272   6.307
 3741SOL    HW212123   5.201   3.241   6.320
 3742SOL     OW12124   2.720   2.336   6.835
 3742SOL    HW112125   2.697   2.304   6.926
 3742SOL    HW212126   2.653   2.300   6.769
 3743SOL     OW12127   5.695   3.531   0.604
 3743SOL    HW112128   5.649   3.443   0.615
 3743SOL    HW212129   5.628   3.599   0.571
 3744SOL     OW12130   1.590   6.226   1.964
 3744SOL    HW112131   1.662   6.165   1.930
 3744SOL    HW212132   1.530   6.251   1.888
 3745SOL     OW12133   4.293   4.963   1.871
 3745SOL    HW112134   4.341   5.044   1.839
 3745SOL    HW212135   4.279   4.969   1.970
 3746SOL     OW12136   5.738   0.795   3.778
 3746SOL    HW112137   5.792   0.711   3.774
 3746SOL    HW212138   5.726   0.821   3.874
 3747SOL     OW12139   2.586   5.975   5.147
 3747SOL    HW112140   2.636   5.950   5.230
 3747SOL    HW212141   2.550   5.892   5.104
 3748SOL     OW12142   5.829   1.137   1.543
 3748SOL    HW112143   5.841   1.146   1.642
 3748SOL    HW212144   5.796   1.224   1.506
 3749SOL     OW12145   2.064   5.355   3.588
 3749SOL    HW112146   2.146   5.401   3.552
 3749SOL    HW212147   1.993   5.423   3.607
 3750SOL     OW12148   6.926   4.590   1.188
 3750SOL    HW112149   6.948   4.656   1.116
 3750SOL    HW212150   6.855   4.627   1.247
 3751SOL     OW12151   6.488   3.376   1.417
 3751SOL    HW112152   6.554   3.448   1.393
 3751SOL    HW212153   6.398   3.417   1.433
 3752SOL     OW12154   5.999   6.749   0.536
 3752SOL    HW112155   5.965   6.748   0.630
 3752SOL    HW212156   6.078   6.688   0.529
 3753SOL     OW12157   6.667   0.495   3.803
 3753SOL    HW112158   6.585   0.481   3.858
 3753SOL    HW212159   6.702   0.587   3.819
 3754SOL     OW12160   3.540   0.274   0.994
 3754SOL    HW112161   3.590   0.188   0.998
 3754SOL    HW212162   3.578   0.338   1.060
 3755SOL     OW12163   4.768   5.514   4.398
 3755SOL    HW112164   4.773   5.418   4.424
 3755SOL    HW212165   4.803   5.571   4.472
 3756SOL     OW12166   2.249   5.641   6.990
 3756SOL    HW112167   2.160   5.601   6.973
 3756SOL    HW212168   2.239   5.739   7.007
 3757SOL     OW12169   4.419   6.496   6.589
 3757SOL    HW112170   4.510   6.459   6.572
 3757SOL    HW212171   4.351   6.424   6.577
 3758SOL     OW12172   2.476   1.055   5.086
 3758SOL    HW112173   2.406   1.100   5.141
 3758SOL    HW212174   2.448   1.051   4.990
 3759SOL     OW12175   4.734   6.450   6.307
 3759SOL    HW112176   4.637   6.472   6.318
 3759SOL    HW212177   4.788   6.507   6.370
 3760SOL     OW12178   1.882   0.910   4.478
 3760SOL    HW112179   1.898   0.838   4.545
 3760SOL    HW212180   1.954   0.979   4.486
 3761SOL     OW12181   1.375   1.089   4.844
 3761SOL    HW112182   1.391   1.162   4.910
 3761SOL    HW212183   1.277   1.078   4.828
 3762SOL     OW12184   1.049   3.904   0.903
 3762SOL    HW112185   1.126   3.950   0.947
 3762SOL    HW212186   1.013   3.963   0.830
 3763SOL     OW12187   6.648   3.796   1.197
 3763SOL    HW112188   6.722   3.768   1.136
 3763SOL    HW212189   6.598   3.872   1.156
 3764SOL     OW12190   1.869   0.188   2.723
 3764SOL    HW112191   1.931   0.259   2.756
 3764SOL    HW212192   1.896   0.162   2.630
 3765SOL     OW12193   5.257   1.104   0.742
 3765SOL    HW112194   5.338   1.057   0.775
 3765SOL    HW212195   5.250   1.194   0.787
 3766SOL     OW12196   1.440   1.386   3.872
 3766SOL    HW112197   1.471   1.357   3.781
 3766SOL    HW212198   1.367   1.453   3.862
 3767SOL     OW12199   2.028   4.763   0.185
 3767SOL    HW112200   2.004   4.816   0.267
 3767SOL    HW212201   1.945   4.741   0.134
 3768SOL     OW12202   1.531   6.537   4.477
 3768SOL    HW112203   1.610   6.542   4.417
 3768SOL    HW212204   1.448   6.524   4.423
 3769SOL     OW12205   6.521   6.145   5.248
 3769SOL    HW112206   6.533   6.061   5.197
 3769SOL    HW212207   6.605   6.199   5.244
 3770SOL     OW12208   1.569   1.372   6.350
 3770SOL    HW112209   1.554   1.456   6.299
 3770SOL    HW212210   1.658   1.333   6.324
 3771SOL     OW12211   5.529   3.435   6.992
 3771SOL    HW112212   5.607   3.379   6.963
 3771SOL    HW212213   5.458   3.432   6.922
 3772SOL     OW12214   0.368   1.140   5.910
 3772SOL    HW112215   0.301   1.075   5.947
 3772SOL    HW212216   0.340   1.233   5.934
 3773SOL     OW12217   6.096   2.860   6.136
 3773SOL    HW112218   6.113   2.915   6.054
 3773SOL    HW212219   5.998   2.859   6.156
 3774SOL     OW12220   7.015   6.007   0.948
 3774SOL    HW112221   6.964   5.983   1.030
 3774SOL    HW212222   7.012   6.106   0.934
 3775SOL     OW12223   4.253   5.323   1.982
 3775SOL    HW112224   4.170   5.278   2.014
 3775SOL    HW212225   4.286   5.387   2.051
 3776SOL     OW12226   4.468   1.396   0.002
 3776SOL    HW112227   4.388   1.439   0.045
 3776SOL    HW212228   4.438   1.336   6.950
 3777SOL     OW12229   3.434   5.823   3.740
 3777SOL    HW112230   3.442   5.770   3.824
 3777SOL    HW212231   3.492   5.782   3.669
 3778SOL     OW12232   3.334   4.935   2.417
 3778SOL    HW112233   3.242   4.973   2.425
 3778SOL    HW212234   3.333   4.860   2.350
 3779SOL     OW12235   1.388   4.386   0.526
 3779SOL    HW112236   1.351   4.311   0.471
 3779SOL    HW212237   1.381   4.363   0.623
 3780SOL     OW12238   6.178   5.117   5.075
 3780SOL    HW112239   6.107   5.063   5.030
 3780SOL    HW212240   6.260   5.118   5.018
 3781SOL     OW12241   0.969   5.630   4.443
 3781SOL    HW112242   0.984   5.682   4.359
 3781SOL    HW212243   1.022   5.545   4.440
 3782SOL     OW12244   2.337   0.282   3.942
 3782SOL    HW112245   2.430   0.312   3.917
 3782SOL    HW212246   2.342   0.205   4.005
 3783SOL     OW12247   5.784   5.664   3.051
 3783SOL    HW112248   5.785   5.572   3.091
 3783SOL    HW212249   5.802   5.731   3.123
 3784SOL     OW12250   4.770   2.527   3.159
 3784SOL    HW112251   4.717   2.456   3.112
 3784SOL    HW212252   4.855   2.544   3.109
 3785SOL     OW12253   2.350   2.616   6.060
 3785SOL    HW112254   2.281   2.656   6.000
 3785SOL    HW212255   2.309   2.595   6.149
 3786SOL     OW12256   2.008   5.466   2.891
 3786SOL    HW112257   1.997   5.434   2.985
 3786SOL    HW212258   1.943   5.541   2.874
 3787SOL     OW12259   5.915   1.397   2.643
 3787SOL    HW112260   5.933   1.394   2.545
 3787SOL    HW212261   5.937   1.488   2.678
 3788SOL     OW12262   0.530   4.643   4.365
 3788SOL    HW112263   0.570   4.689   4.285
 3788SOL    HW212264   0.568   4.551   4.372
 3789SOL     OW12265   0.515   2.933   4.690
 3789SOL    HW112266   0.524   2.859   4.757
 3789SOL    HW212267   0.593   2.996   4.700
 3790SOL     OW12268   1.375   4.396   5.645
 3790SOL    HW112269   1.384   4.415   5.743
 3790SOL    HW212270   1.389   4.298   5.629
 3791SOL     OW12271   5.318   1.025   6.544
 3791SOL    HW112272   5.383   0.991   6.612
 3791SOL    HW212273   5.228   0.987   6.562
 3792SOL     OW12274   1.071   2.501   5.027
 3792SOL    HW112275   1.030   2.585   4.990
 3792SOL    HW212276   1.007   2.458   5.091
 3793SOL     OW12277   4.928   6.775   2.376
 3793SOL    HW112278   5.014   6.827   2.380
 3793SOL    HW212279   4.929   6.702   2.444
 3794SOL     OW12280   2.404   3.489   0.957
 3794SOL    HW112281   2.332   3.540   0.909
 3794SOL    HW212282   2.455   3.433   0.892
 3795SOL     OW12283   4.101   6.258   6.818
 3795SOL    HW112284   4.124   6.222   6.909
 3795SOL    HW212285   4.181   6.254   6.759
 3796SOL     OW12286   3.276   2.132   2.614
 3796SOL    HW112287   3.305   2.200   2.547
 3796SOL    HW212288   3.176   2.123   2.611
 3797SOL     OW12289   0.089   3.573   1.329
 3797SOL    HW112290   0.128   3.633   1.400
 3797SOL    HW212291   0.076   3.626   1.245
 3798SOL     OW12292   2.790   5.535   2.984
 3798SOL    HW112293   2.822   5.443   2.960
 3798SOL    HW212294   2.779   5.590   2.901
 3799SOL     OW12295   0.170   2.547   4.220
 3799SOL    HW112296   0.134   2.637   4.193
 3799SOL    HW212297   0.210   2.502   4.140
 3800SOL     OW12298   5.796   3.632   4.052
 3800SOL    HW112299   5.697   3.615   4.045
 3800SOL    HW212300   5.844   3.545   4.059
 3801SOL     OW12301   6.111   0.058   2.372
 3801SOL    HW112302   6.182   0.006   2.325
 3801SOL    HW212303   6.032   0.069   2.311
 3802SOL     OW12304   0.982   2.206   2.580
 3802SOL    HW112305   1.042   2.268   2.632
 3802SOL    HW212306   0.951   2.252   2.497
 3803SOL     OW12307   3.461   2.562   1.584
 3803SOL    HW112308   3.397   2.486   1.599
 3803SOL    HW212309   3.538   2.553   1.647
 3804SOL     OW12310   4.824   1.390   3.960
 3804SOL    HW112311   4.754   1.319   3.949
 3804SOL    HW212312   4.781   1.474   3.993
 3805SOL     OW12313   2.691   2.746   1.576
 3805SOL    HW112314   2.705   2.651   1.604
 3805SOL    HW212315   2.671   2.749   1.478
 3806SOL     OW12316   3.559   3.751   6.631
 3806SOL    HW112317   3.506   3.697   6.696
 3806SOL    HW212318   3.537   3.723   6.538
 3807SOL     OW12319   1.471   5.963   2.809
 3807SOL    HW112320   1.527   6.046   2.811
 3807SOL    HW212321   1.414   5.963   2.727
 3808SOL     OW12322   4.678   1.084   0.846
 3808SOL    HW112323   4.719   1.119   0.930
 3808SOL    HW212324   4.737   1.013   0.808
 3809SOL     OW12325   5.034   3.205   0.966
 3809SOL    HW112326   5.021   3.204   1.065
 3809SOL    HW212327   5.048   3.112   0.933
 3810SOL     OW12328   4.460   2.360   3.680
 3810SOL    HW112329   4.372   2.320   3.652
 3810SOL    HW212330   4.518   2.372   3.600
 3811SOL     OW12331   1.069   4.513   4.122
 3811SOL    HW112332   1.069   4.512   4.022
 3811SOL    HW212333   1.100   4.601   4.155
 3812SOL     OW12334   5.037   6.041   4.586
 3812SOL    HW112335   5.071   5.963   4.638
 3812SOL    HW212336   5.079   6.125   4.621
 3813SOL     OW12337   4.899   4.155   0.786
 3813SOL    HW112338   4.967   4.202   0.729
 3813SOL    HW212339   4.918   4.057   0.787
 3814SOL     OW12340   7.000   7.021   6.951
 3814SOL    HW112341   0.068   6.998   6.916
 3814SOL    HW212342   7.003   0.090   6.993
 3815SOL     OW12343   4.514   2.341   0.470
 3815SOL    HW112344   4.558   2.252   0.466
 3815SOL    HW212345   4.466   2.351   0.558
 3816SOL     OW12346   0.802   6.068   0.227
 3816SOL    HW112347   0.870   6.024   0.285
 3816SOL    HW212348   0.816   6.167   0.227
 3817SOL     OW12349   5.227   4.197   2.645
 3817SOL    HW112350   5.142   4.166   2.687
 3817SOL    HW212351   5.242   4.294   2.665
 3818SOL     OW12352   6.456   0.943   6.907
 3818SOL    HW112353   6.410   1.027   6.878
 3818SOL    HW212354   6.394   0.888   6.963
 3819SOL     OW12355   5.336   5.135   1.925
 3819SOL    HW112356   5.403   5.091   1.984
 3819SOL    HW212357   5.253   5.155   1.978
 3820SOL     OW12358   5.524   6.588   3.971
 3820SOL    HW112359   5.583   6.654   4.017
 3820SOL    HW212360   5.547   6.584   3.874
 3821SOL     OW12361   2.463   1.746   1.034
 3821SOL    HW112362   2.526   1.682   1.078
 3821SOL    HW212363   2.371   1.734   1.072
 3822SOL     OW12364   1.861   0.535   0.976
 3822SOL    HW112365   1.769   0.510   1.008
 3822SOL    HW212366   1.917   0.560   1.055
 3823SOL     OW12367   3.375   3.433   6.003
 3823SOL    HW112368   3.322   3.377   5.940
 3823SOL    HW212369   3.327   3.519   6.020
 3824SOL     OW12370   6.684   2.285   0.838
 3824SOL    HW112371   6.780   2.282   0.809
 3824SOL    HW212372   6.679   2.295   0.937
 3825SOL     OW12373   0.716   5.974   0.840
 3825SOL    HW112374   0.770   5.984   0.924
 3825SOL    HW212375   0.621   5.998   0.858
 3826SOL     OW12376   1.035   2.982   6.498
 3826SOL    HW112377   1.086   2.963   6.414
 3826SOL    HW212378   1.016   3.080   6.504
 3827SOL     OW12379   2.169   2.256   1.388
 3827SOL    HW112380   2.188   2.354   1.395
 3827SOL    HW212381   2.250   2.205   1.416
 3828SOL     OW12382   3.937   2.954   1.889
 3828SOL    HW112383   3.861   2.953   1.825
 3828SOL    HW212384   3.944   3.045   1.930
 3829SOL     OW12385   1.678   4.570   3.572
 3829SOL    HW112386   1.715   4.493   3.624
 3829SOL    HW212387   1.619   4.536   3.498
 3830SOL     OW12388   0.822   1.476   4.437
 3830SOL    HW112389   0.863   1.530   4.511
 3830SOL    HW212390   0.751   1.529   4.392
 3831SOL     OW12391   4.785   1.986   1.800
 3831SOL    HW112392   4.785   1.974   1.701
 3831SOL    HW212393   4.873   1.954   1.837
 3832SOL     OW12394   6.011   1.027   2.549
 3832SOL    HW112395   6.014   0.933   2.582
 3832SOL    HW212396   6.052   1.088   2.617
 3833SOL     OW12397   0.648   6.261   5.816
 3833SOL    HW112398   0.710   6.182   5.817
 3833SOL    HW212399   0.594   6.262   5.900
 3834SOL     OW12400   4.674   3.921   1.794
 3834SOL    HW112401   4.625   3.971   1.723
 3834SOL    HW212402   4.700   3.983   1.868
 3835SOL     OW12403   3.436   5.307   4.394
 3835SOL    HW112404   3.345   5.279   4.425
 3835SOL    HW212405   3.501   5.300   4.470
 3836SOL     OW12406   1.894   3.945   5.952
 3836SOL    HW112407   1.887   3.917   5.856
 3836SOL    HW212408   1.834   3.889   6.008
 3837SOL     OW12409   4.743   4.702   6.207
 3837SOL    HW112410   4.774   4.645   6.131
 3837SOL    HW212411   4.748   4.799   6.182
 3838SOL     OW12412   6.996   3.749   4.857
 3838SOL    HW112413   6.923   3.781   4.918
 3838SOL    HW212414   0.040   3.694   4.910
 3839SOL     OW12415   4.715   0.658   3.246
 3839SOL    HW112416   4.692   0.632   3.152
 3839SOL    HW212417   4.649   0.725   3.279
 3840SOL     OW12418   2.017   0.764   6.056
 3840SOL    HW112419   2.006   0.666   6.074
 3840SOL    HW212420   1.934   0.813   6.084
 3841SOL     OW12421   0.354   3.391   5.436
 3841SOL    HW112422   0.393   3.451   5.367
 3841SOL    HW212423   0.310   3.446   5.507
 3842SOL     OW12424   1.819   3.425   6.937
 3842SOL    HW112425   1.807   3.482   6.856
 3842SOL    HW212426   1.917   3.407   6.951
 3843SOL     OW12427   6.285   4.316   2.864
 3843SOL    HW112428   6.202   4.303   2.809
 3843SOL    HW212429   6.352   4.246   2.841
 3844SOL     OW12430   0.688   2.698   6.199
 3844SOL    HW112431   0.650   2.695   6.107
 3844SOL    HW212432   0.619   2.668   6.265
 3845SOL     OW12433   3.822   3.205   4.020
 3845SOL    HW112434   3.817   3.275   3.949
 3845SOL    HW212435   3.797   3.116   3.981
 3846SOL     OW12436   0.771   5.578   3.661
 3846SOL    HW112437   0.832   5.508   3.699
 3846SOL    HW212438   0.681   5.537   3.644
 3847SOL     OW12439   6.314   0.609   4.518
 3847SOL    HW112440   6.344   0.702   4.493
 3847SOL    HW212441   6.392   0.548   4.517
 3848SOL     OW12442   3.377   5.756   3.088
 3848SOL    HW112443   3.316   5.811   3.145
 3848SOL    HW212444   3.345   5.760   2.993
 3849SOL     OW12445   1.024   1.596   5.634
 3849SOL    HW112446   0.942   1.627   5.585
 3849SOL    HW212447   1.015   1.619   5.731
 3850SOL     OW12448   2.680   3.013   1.170
 3850SOL    HW112449   2.723   2.929   1.205
 3850SOL    HW212450   2.648   3.068   1.247
 3851SOL     OW12451   1.912   4.489   2.606
 3851SOL    HW112452   1.917   4.504   2.704
 3851SOL    HW212453   1.879   4.571   2.560
 3852SOL     OW12454   4.557   6.780   3.813
 3852SOL    HW112455   4.586   6.706   3.873
 3852SOL    HW212456   4.549   6.746   3.719
 3853SOL     OW12457   0.805   3.478   3.313
 3853SOL    HW112458   0.773   3.555   3.258
 3853SOL    HW212459   0.759   3.394   3.283
 3854SOL     OW12460   1.349   3.401   2.200
 3854SOL    HW112461   1.375   3.491   2.167
 3854SOL    HW212462   1.427   3.357   2.245
 3855SOL     OW12463   5.079   6.586   6.560
 3855SOL    HW112464   5.076   6.486   6.567
 3855SOL    HW212465   5.138   6.623   6.631
 3856SOL     OW12466   0.040   6.436   5.471
 3856SOL    HW112467   0.109   6.502   5.443
 3856SOL    HW212468   6.996   6.480   5.532
 3857SOL     OW12469   0.679   5.848   6.097
 3857SOL    HW112470   0.686   5.784   6.174
 3857SOL    HW212471   0.771   5.881   6.073
 3858SOL     OW12472   1.516   7.011   5.798
 3858SOL    HW112473   1.465   6.999   5.713
 3858SOL    HW212474   1.561   0.079   5.797
 3859SOL     OW12475   6.593   2.156   3.421
 3859SOL    HW112476   6.600   2.195   3.513
 3859SOL    HW212477   6.548   2.221   3.360
 3860SOL     OW12478   2.205   0.382   5.614
 3860SOL    HW112479   2.107   0.396   5.600
 3860SOL    HW212480   2.255   0.461   5.580
 3861SOL     OW12481   4.718   4.324   3.441
 3861SOL    HW112482   4.644   4.353   3.381
 3861SOL    HW212483   4.749   4.233   3.415
 3862SOL     OW12484   1.016   0.223   4.915
 3862SOL    HW112485   1.004   0.213   4.816
 3862SOL    HW212486   1.021   0.321   4.938
 3863SOL     OW12487   4.411   2.886   6.054
 3863SOL    HW112488   4.485   2.939   6.014
 3863SOL    HW212489   4.394   2.805   5.997
 3864SOL     OW12490   2.614   0.412   5.473
 3864SOL    HW112491   2.565   0.483   5.422
 3864SOL    HW212492   2.654   0.451   5.556
 3865SOL     OW12493   3.505   6.231   7.011
 3865SOL    HW112494   3.491   6.325   6.981
 3865SOL    HW212495   3.596   6.223   0.031
 3866SOL     OW12496   4.059   1.126   1.519
 3866SOL    HW112497   3.966   1.140   1.552
 3866SOL    HW212498   4.084   1.199   1.456
 3867SOL     OW12499   1.424   4.190   3.941
 3867SOL    HW112500   1.464   4.098   3.945
 3867SOL    HW212501   1.423   4.229   4.033
 3868SOL     OW12502   3.469   6.823   0.459
 3868SOL    HW112503   3.545   6.888   0.464
 3868SOL    HW212504   3.403   6.853   0.391
 3869SOL     OW12505   6.725   3.212   5.313
 3869SOL    HW112506   6.656   3.284   5.323
 3869SOL    HW212507   6.688   3.137   5.258
 3870SOL     OW12508   4.302   5.326   0.341
 3870SOL    HW112509   4.271   5.232   0.327
 3870SOL    HW212510   4.223   5.387   0.340
 3871SOL     OW12511   4.378   0.209   2.665
 3871SOL    HW112512   4.304   0.253   2.615
 3871SOL    HW212513   4.356   0.206   2.763
 3872SOL     OW12514   3.896   3.360   2.459
 3872SOL    HW112515   3.959   3.359   2.381
 3872SOL    HW212516   3.845   3.274   2.461
 3873SOL     OW12517   6.712   4.213   1.145
 3873SOL    HW112518   6.632   4.256   1.188
 3873SOL    HW212519   6.682   4.141   1.082
 3874SOL     OW12520   3.673   5.958   6.472
 3874SOL    HW112521   3.666   5.871   6.423
 3874SOL    HW212522   3.674   6.033   6.407
 3875SOL     OW12523   1.474   2.857   1.923
 3875SOL    HW112524   1.398   2.822   1.869
 3875SOL    HW212525   1.445   2.867   2.018
 3876SOL     OW12526   5.825   4.595   6.860
 3876SOL    HW112527   5.783   4.639   6.940
 3876SOL    HW212528   5.755   4.583   6.790
 3877SOL     OW12529   6.991   2.704   0.023
 3877SOL    HW112530   6.912   2.758   7.017
 3877SOL    HW212531   0.009   2.659   6.965
 3878SOL     OW12532   2.470   6.368   5.225
 3878SOL    HW112533   2.493   6.466   5.224
 3878SOL    HW212534   2.437   6.342   5.135
 3879SOL     OW12535   5.342   6.833   1.469
 3879SOL    HW112536   5.440   6.839   1.454
 3879SOL    HW212537   5.307   6.922   1.498
 3880SOL     OW12538   6.194   4.921   3.767
 3880SOL    HW112539   6.268   4.960   3.711
 3880SOL    HW212540   6.225   4.835   3.808
 3881SOL     OW12541   0.987   4.694   0.992
 3881SOL    HW112542   1.081   4.719   0.968
 3881SOL    HW212543   0.986   4.656   1.085
 3882SOL     OW12544   6.647   1.260   4.645
 3882SOL    HW112545   6.656   1.224   4.552
 3882SOL    HW212546   6.559   1.305   4.655
 3883SOL     OW12547   4.750   1.330   3.455
 3883SOL    HW112548   4.832   1.292   3.498
 3883SOL    HW212549   4.770   1.356   3.361
 3884SOL     OW12550   1.404   5.549   3.662
 3884SOL    HW112551   1.492   5.581   3.696
 3884SOL    HW212552   1.412   5.525   3.565
 3885SOL     OW12553   6.451   0.879   3.808
 3885SOL    HW112554   6.446   0.921   3.717
 3885SOL    HW212555   6.396   0.931   3.872
 3886SOL     OW12556   6.685   5.371   4.984
 3886SOL    HW112557   6.704   5.314   5.064
 3886SOL    HW212558   6.738   5.455   4.990
 3887SOL     OW12559   5.753   1.113   5.326
 3887SOL    HW112560   5.740   1.060   5.242
 3887SOL    HW212561   5.723   1.207   5.311
 3888SOL     OW12562   0.668   0.265   6.623
 3888SOL    HW112563   0.687   0.340   6.687
 3888SOL    HW212564   0.607   0.199   6.667
 3889SOL     OW12565   6.718   2.676   6.107
 3889SOL    HW112566   6.683   2.770   6.106
 3889SOL    HW212567   6.725   2.645   6.202
 3890SOL     OW12568   6.193   5.572   2.519
 3890SOL    HW112569   6.178   5.590   2.421
 3890SOL    HW212570   6.246   5.647   2.559
 3891SOL     OW12571   5.572   5.052   4.391
 3891SOL    HW112572   5.487   5.020   4.348
 3891SOL    HW212573   5.610   4.980   4.449
 3892SOL     OW12574   0.367   2.121   2.232
 3892SOL    HW112575   0.442   2.096   2.293
 3892SOL    HW212576   0.280   2.086   2.269
 3893SOL     OW12577   2.907   5.499   1.736
 3893SOL    HW112578   2.883   5.577   1.794
 3893SOL    HW212579   2.872   5.415   1.776
 3894SOL     OW12580   2.848   2.008   0.956
 3894SOL    HW112581   2.916   2.007   1.029
 3894SOL    HW212582   2.845   2.099   0.914
 3895SOL     OW12583   1.580   0.293   5.227
 3895SOL    HW112584   1.484   0.266   5.226
 3895SOL    HW212585   1.622   0.272   5.139
 3896SOL     OW12586   0.196   2.170   6.278
 3896SOL    HW112587   0.103   2.141   6.258
 3896SOL    HW212588   0.231   2.120   6.358
 3897SOL     OW12589   3.734   0.094   1.967
 3897SOL    HW112590   3.692   0.127   2.052
 3897SOL    HW212591   3.770   0.002   1.982
 3898SOL     OW12592   3.268   3.616   3.751
 3898SOL    HW112593   3.311   3.531   3.721
 3898SOL    HW212594   3.261   3.617   3.850
 3899SOL     OW12595   4.802   0.760   4.213
 3899SOL    HW112596   4.736   0.823   4.170
 3899SOL    HW212597   4.789   0.762   4.312
 3900SOL     OW12598   4.981   2.636   2.918
 3900SOL    HW112599   5.029   2.598   2.839
 3900SOL    HW212600   5.048   2.659   2.989
 3901SOL     OW12601   2.969   6.624   5.777
 3901SOL    HW112602   2.995   6.541   5.728
 3901SOL    HW212603   3.032   6.638   5.854
 3902SOL     OW12604   5.921   3.415   1.572
 3902SOL    HW112605   5.841   3.460   1.612
 3902SOL    HW212606   5.990   3.484   1.551
 3903SOL     OW12607   4.776   3.987   6.577
 3903SOL    HW112608   4.801   3.957   6.669
 3903SOL    HW212609   4.678   4.008   6.574
 3904SOL     OW12610   2.160   6.981   6.135
 3904SOL    HW112611   2.195   6.964   6.043
 3904SOL    HW212612   2.081   6.922   6.152
 3905SOL     OW12613   5.797   6.636   6.007
 3905SOL    HW112614   5.866   6.573   5.973
 3905SOL    HW212615   5.820   6.664   6.100
 3906SOL     OW12616   1.867   4.660   5.650
 3906SOL    HW112617   1.869   4.760   5.652
 3906SOL    HW212618   1.959   4.625   5.667
 3907SOL     OW12619   6.530   0.748   4.171
 3907SOL    HW112620   6.623   0.731   4.138
 3907SOL    HW212621   6.530   0.832   4.227
 3908SOL     OW12622   1.806   0.985   0.038
 3908SOL    HW112623   1.833   1.069   0.086
 3908SOL    HW212624   1.850   0.982   6.971
 3909SOL     OW12625   0.006   4.504   6.544
 3909SOL    HW112626   0.009   4.408   6.571
 3909SOL    HW212627   0.005   4.561   6.626
 3910SOL     OW12628   3.211   3.819   2.074
 3910SOL    HW112629   3.271   3.893   2.045
 3910SOL    HW212630   3.265   3.738   2.095
 3911SOL     OW12631   5.137   1.192   0.298
 3911SOL    HW112632   5.197   1.134   0.354
 3911SOL    HW212633   5.100   1.265   0.355
 3912SOL     OW12634   3.731   1.148   6.153
 3912SOL    HW112635   3.820   1.192   6.149
 3912SOL    HW212636   3.660   1.216   6.173
 3913SOL     OW12637   2.832   6.405   0.041
 3913SOL    HW112638   2.917   6.444   0.077
 3913SOL    HW212639   2.796   6.465   6.992
 3914SOL     OW12640   5.009   1.058   1.362
 3914SOL    HW112641   4.947   1.006   1.303
 3914SOL    HW212642   5.100   1.018   1.358
 3915SOL     OW12643   4.823   6.648   0.240
 3915SOL    HW112644   4.830   6.680   0.145
 3915SOL    HW212645   4.756   6.574   0.246
 3916SOL     OW12646   2.594   6.865   2.764
 3916SOL    HW112647   2.664   6.819   2.710
 3916SOL    HW212648   2.575   6.955   2.725
 3917SOL     OW12649   1.012   4.182   1.592
 3917SOL    HW112650   0.996   4.207   1.688
 3917SOL    HW212651   1.102   4.214   1.564
 3918SOL     OW12652   3.553   6.655   1.157
 3918SOL    HW112653   3.497   6.574   1.170
 3918SOL    HW212654   3.528   6.724   1.225
 3919SOL     OW12655   3.374   0.456   6.667
 3919SOL    HW112656   3.460   0.410   6.689
 3919SOL    HW212657   3.319   0.467   6.751
 3920SOL     OW12658   3.155   0.799   6.325
 3920SOL    HW112659   3.085   0.732   6.302
 3920SOL    HW212660   3.136   0.838   6.415
 3921SOL     OW12661   0.222   2.021   6.996
 3921SOL    HW112662   0.287   1.978   0.037
 3921SOL    HW212663   0.272   2.065   6.922
 3922SOL     OW12664   4.572   5.313   1.354
 3922SOL    HW112665   4.611   5.317   1.447
 3922SOL    HW212666   4.474   5.331   1.359
 3923SOL     OW12667   5.992   2.103   0.878
 3923SOL    HW112668   5.996   2.201   0.897
 3923SOL    HW212669   5.897   2.074   0.870
 3924SOL     OW12670   0.379   5.234   2.962
 3924SOL    HW112671   0.468   5.214   2.923
 3924SOL    HW212672   0.373   5.332   2.983
 3925SOL     OW12673   4.480   4.699   1.243
 3925SOL    HW112674   4.452   4.795   1.246
 3925SOL    HW212675   4.427   4.646   1.308
 3926SOL     OW12676   0.162   0.143   4.893
 3926SOL    HW112677   0.196   0.069   4.834
 3926SOL    HW212678   0.226   0.221   4.888
 3927SOL     OW12679   0.217   2.838   4.729
 3927SOL    HW112680   0.307   2.836   4.774
 3927SOL    HW212681   0.230   2.842   4.630
 3928SOL     OW12682   3.159   5.786   3.397
 3928SOL    HW112683   3.106   5.749   3.321
 3928SOL    HW212684   3.195   5.711   3.453
 3929SOL     OW12685   0.169   1.267   6.830
 3929SOL    HW112686   0.108   1.283   6.908
 3929SOL    HW212687   0.151   1.336   6.760
 3930SOL     OW12688   0.731   2.062   3.558
 3930SOL    HW112689   0.659   2.068   3.627
 3930SOL    HW212690   0.692   2.078   3.467
 3931SOL     OW12691   1.935   1.477   1.920
 3931SOL    HW112692   2.002   1.425   1.973
 3931SOL    HW212693   1.946   1.575   1.940
 3932SOL     OW12694   2.150   4.838   3.712
 3932SOL    HW112695   2.111   4.923   3.676
 3932SOL    HW212696   2.079   4.788   3.761
 3933SOL     OW12697   1.586   6.982   7.016
 3933SOL    HW112698   1.665   6.975   0.055
 3933SOL    HW212699   1.614   6.958   6.922
 3934SOL     OW12700   6.859   1.168   3.033
 3934SOL    HW112701   6.783   1.213   3.081
 3934SOL    HW212702   6.920   1.237   2.995
 3935SOL     OW12703   1.222   1.652   5.994
 3935SOL    HW112704   1.298   1.636   5.931
 3935SOL    HW212705   1.137   1.657   5.943
 3936SOL     OW12706   0.118   5.952   5.053
 3936SOL    HW112707   0.206   5.971   5.098
 3936SOL    HW212708   0.044   5.984   5.111
 3937SOL     OW12709   6.699   6.300   2.322
 3937SOL    HW112710   6.625   6.234   2.310
 3937SOL    HW212711   6.673   6.367   2.391
 3938SOL     OW12712   6.021   4.442   4.268
 3938SOL    HW112713   5.924   4.465   4.260
 3938SOL    HW212714   6.070   4.479   4.189
 3939SOL     OW12715   2.822   1.387   3.398
 3939SOL    HW112716   2.773   1.473   3.387
 3939SOL    HW212717   2.845   1.373   3.494
 3940SOL     OW12718   2.793   4.793   1.738
 3940SOL    HW112719   2.815   4.727   1.810
 3940SOL    HW212720   2.866   4.792   1.669
 3941SOL     OW12721   5.635   0.189   4.628
 3941SOL    HW112722   5.706   0.234   4.575
 3941SOL    HW212723   5.563   0.156   4.567
 3942SOL     OW12724   0.521   6.092   5.518
 3942SOL    HW112725   0.463   6.142   5.582
 3942SOL    HW212726   0.471   6.012   5.484
 3943SOL     OW12727   0.817   3.128   2.762
 3943SOL    HW112728   0.791   3.175   2.678
 3943SOL    HW212729   0.905   3.164   2.794
 3944SOL     OW12730   6.269   3.748   6.157
 3944SOL    HW112731   6.262   3.654   6.190
 3944SOL    HW212732   6.263   3.811   6.234
 3945SOL     OW12733   1.151   2.398   3.209
 3945SOL    HW112734   1.148   2.352   3.298
 3945SOL    HW212735   1.075   2.367   3.152
 3946SOL     OW12736   0.316   3.684   6.790
 3946SOL    HW112737   0.270   3.612   6.841
 3946SOL    HW212738   0.298   3.772   6.835
 3947SOL     OW12739   5.950   4.880   0.661
 3947SOL    HW112740   5.901   4.967   0.672
 3947SOL    HW212741   6.004   4.883   0.576
 3948SOL     OW12742   1.373   3.828   6.861
 3948SOL    HW112743   1.350   3.831   6.958
 3948SOL    HW212744   1.335   3.745   6.820
 3949SOL     OW12745   6.858   7.007   3.713
 3949SOL    HW112746   6.850   6.911   3.687
 3949SOL    HW212747   6.775   0.034   3.686
 3950SOL     OW12748   3.865   3.937   1.708
 3950SOL    HW112749   3.881   3.870   1.635
 3950SOL    HW212750   3.926   3.917   1.785
 3951SOL     OW12751   0.510   1.129   6.864
 3951SOL    HW112752   0.528   1.213   6.916
 3951SOL    HW212753   0.487   1.055   6.927
 3952SOL     OW12754   6.158   2.831   4.347
 3952SOL    HW112755   6.068   2.874   4.352
 3952SOL    HW212756   6.203   2.836   4.437
 3953SOL     OW12757   3.483   4.029   5.964
 3953SOL    HW112758   3.573   3.986   5.951
 3953SOL    HW212759   3.413   3.973   5.921
 3954SOL     OW12760   5.850   5.003   5.706
 3954SOL    HW112761   5.791   4.934   5.665
 3954SOL    HW212762   5.914   5.037   5.636
 3955SOL     OW12763   5.099   6.537   0.013
 3955SOL    HW112764   5.116   6.500   0.104
 3955SOL    HW212765   5.102   6.637   0.017
 3956SOL     OW12766   0.908   2.441   5.269
 3956SOL    HW112767   0.986   2.421   5.327
 3956SOL    HW212768   0.831   2.472   5.325
 3957SOL     OW12769   3.736   6.434   3.390
 3957SOL    HW112770   3.708   6.380   3.311
 3957SOL    HW212771   3.828   6.471   3.375
 3958SOL     OW12772   6.384   6.091   6.966
 3958SOL    HW112773   6.294   6.135   6.956
 3958SOL    HW212774   6.385   6.005   6.916
 3959SOL     OW12775   3.369   6.443   1.183
 3959SOL    HW112776   3.299   6.514   1.171
 3959SOL    HW212777   3.332   6.370   1.240
 3960SOL     OW12778   5.572   2.288   5.926
 3960SOL    HW112779   5.520   2.239   5.856
 3960SOL    HW212780   5.653   2.234   5.950
 3961SOL     OW12781   5.212   1.701   1.818
 3961SOL    HW112782   5.253   1.750   1.895
 3961SOL    HW212783   5.207   1.603   1.839
 3962SOL     OW12784   0.574   5.837   0.109
 3962SOL    HW112785   0.638   5.900   0.065
 3962SOL    HW212786   0.500   5.889   0.151
 3963SOL     OW12787   5.515   5.121   3.620
 3963SOL    HW112788   5.523   5.024   3.642
 3963SOL    HW212789   5.549   5.136   3.526
 3964SOL     OW12790   4.019   4.922   4.925
 3964SOL    HW112791   4.047   4.873   5.008
 3964SOL    HW212792   3.941   4.981   4.946
 3965SOL     OW12793   3.484   4.877   6.376
 3965SOL    HW112794   3.554   4.908   6.312
 3965SOL    HW212795   3.395   4.909   6.345
 3966SOL     OW12796   6.448   4.884   0.214
 3966SOL    HW112797   6.498   4.950   0.158
 3966SOL    HW212798   6.440   4.797   0.165
 3967SOL     OW12799   1.203   5.167   2.408
 3967SOL    HW112800   1.301   5.162   2.427
 3967SOL    HW212801   1.171   5.078   2.375
 3968SOL     OW12802   6.197   0.834   1.121
 3968SOL    HW112803   6.222   0.767   1.192
 3968SOL    HW212804   6.239   0.808   1.035
 3969SOL     OW12805   0.293   4.229   2.718
 3969SOL    HW112806   0.275   4.281   2.635
 3969SOL    HW212807   0.209   4.186   2.750
 3970SOL     OW12808   5.080   5.380   3.655
 3970SOL    HW112809   5.095   5.429   3.741
 3970SOL    HW212810   5.053   5.286   3.675
 3971SOL     OW12811   2.464   5.198   1.844
 3971SOL    HW112812   2.508   5.187   1.933
 3971SOL    HW212813   2.534   5.202   1.772
 3972SOL     OW12814   0.929   5.749   1.216
 3972SOL    HW112815   1.027   5.729   1.217
 3972SOL    HW212816   0.889   5.722   1.304
 3973SOL     OW12817   3.013   3.185   5.255
 3973SOL    HW112818   3.049   3.239   5.179
 3973SOL    HW212819   3.042   3.090   5.246
 3974SOL     OW12820   0.762   0.517   5.631
 3974SOL    HW112821   0.677   0.557   5.598
 3974SOL    HW212822   0.799   0.455   5.561
 3975SOL     OW12823   5.917   0.162   5.951
 3975SOL    HW112824   5.997   0.181   5.893
 3975SOL    HW212825   5.909   0.064   5.965
 3976SOL     OW12826   1.175   5.054   0.960
 3976SOL    HW112827   1.230   5.055   1.044
 3976SOL    HW212828   1.228   5.093   0.885
 3977SOL     OW12829   3.050   5.136   5.948
 3977SOL    HW112830   3.123   5.117   5.883
 3977SOL    HW212831   2.978   5.067   5.938
 3978SOL     OW12832   4.944   6.914   4.550
 3978SOL    HW112833   4.901   6.867   4.473
 3978SOL    HW212834   5.021   6.968   4.517
 3979SOL     OW12835   2.313   6.148   1.703
 3979SOL    HW112836   2.290   6.146   1.606
 3979SOL    HW212837   2.265   6.223   1.748
 3980SOL     OW12838   0.198   4.408   5.911
 3980SOL    HW112839   0.159   4.324   5.948
 3980SOL    HW212840   0.267   4.443   5.975
 3981SOL     OW12841   1.148   2.103   6.281
 3981SOL    HW112842   1.168   2.092   6.378
 3981SOL    HW212843   1.225   2.069   6.227
 3982SOL     OW12844   2.332   0.708   3.864
 3982SOL    HW112845   2.406   0.711   3.796
 3982SOL    HW212846   2.357   0.764   3.942
 3983SOL     OW12847   3.489   5.891   4.138
 3983SOL    HW112848   3.525   5.907   4.046
 3983SOL    HW212849   3.563   5.860   4.197
 3984SOL     OW12850   2.394   0.745   2.000
 3984SOL    HW112851   2.492   0.726   1.994
 3984SOL    HW212852   2.375   0.833   1.956
 3985SOL     OW12853   2.433   4.296   0.152
 3985SOL    HW112854   2.524   4.254   0.156
 3985SOL    HW212855   2.370   4.244   0.209
 3986SOL     OW12856   0.445   1.751   3.370
 3986SOL    HW112857   0.399   1.829   3.412
 3986SOL    HW212858   0.444   1.674   3.434
 3987SOL     OW12859   1.302   5.095   4.780
 3987SOL    HW112860   1.282   5.102   4.877
 3987SOL    HW212861   1.400   5.105   4.765
 3988SOL     OW12862   3.535   1.856   5.612
 3988SOL    HW112863   3.481   1.820   5.688
 3988SOL    HW212864   3.475   1.881   5.536
 3989SOL     OW12865   5.869   0.538   6.019
 3989SOL    HW112866   5.914   0.607   6.076
 3989SOL    HW212867   5.877   0.563   5.923
 3990SOL     OW12868   5.969   1.700   3.844
 3990SOL    HW112869   6.045   1.646   3.809
 3990SOL    HW212870   5.952   1.675   3.939
 3991SOL     OW12871   6.666   2.310   3.664
 3991SOL    HW112872   6.604   2.348   3.733
 3991SOL    HW212873   6.737   2.256   3.709
 3992SOL     OW12874   4.634   2.133   6.499
 3992SOL    HW112875   4.663   2.079   6.577
 3992SOL    HW212876   4.643   2.230   6.521
 3993SOL     OW12877   1.941   2.030   3.455
 3993SOL    HW112878   1.928   2.120   3.412
 3993SOL    HW212879   2.018   1.983   3.412
 3994SOL     OW12880   1.734   2.662   4.584
 3994SOL    HW112881   1.722   2.580   4.640
 3994SOL    HW212882   1.800   2.723   4.628
 3995SOL     OW12883   2.390   4.385   4.079
 3995SOL    HW112884   2.307   4.441   4.080
 3995SOL    HW212885   2.468   4.441   4.051
 3996SOL     OW12886   1.393   0.876   5.049
 3996SOL    HW112887   1.455   0.917   5.117
 3996SOL    HW212888   1.366   0.946   4.983
 3997SOL     OW12889   5.143   3.739   3.575
 3997SOL    HW112890   5.102   3.755   3.665
 3997SOL    HW212891   5.232   3.784   3.571
 3998SOL     OW12892   5.297   1.884   2.212
 3998SOL    HW112893   5.200   1.866   2.194
 3998SOL    HW212894   5.342   1.800   2.243
 3999SOL     OW12895   5.758   3.739   3.532
 3999SOL    HW112896   5.672   3.710   3.573
 3999SOL    HW212897   5.796   3.815   3.586
 4000SOL     OW12898   3.351   5.659   2.626
 4000SOL    HW112899   3.271   5.660   2.566
 4000SOL    HW212900   3.343   5.733   2.693
 4001SOL     OW12901   2.297   2.752   5.055
 4001SOL    HW112902   2.257   2.759   4.964
 4001SOL    HW212903   2.331   2.841   5.084
 4002SOL     OW12904   3.631   3.807   5.868
 4002SOL    HW112905   3.682   3.795   5.954
 4002SOL    HW212906   3.671   3.748   5.798
 4003SOL     OW12907   2.372   0.612   5.915
 4003SOL    HW112908   2.384   0.686   5.981
 4003SOL    HW212909   2.401   0.644   5.824
 4004SOL     OW12910   5.911   2.964   4.338
 4004SOL    HW112911   5.866   3.053   4.344
 4004SOL    HW212912   5.843   2.894   4.319
 4005SOL     OW12913   5.022   5.117   1.387
 4005SOL    HW112914   4.991   5.200   1.434
 4005SOL    HW212915   5.122   5.119   1.380
 4006SOL     OW12916   4.565   4.869   2.226
 4006SOL    HW112917   4.513   4.804   2.281
 4006SOL    HW212918   4.653   4.888   2.270
 4007SOL     OW12919   0.556   2.852   2.331
 4007SOL    HW112920   0.472   2.799   2.336
 4007SOL    HW212921   0.551   2.916   2.254
 4008SOL     OW12922   3.671   1.348   5.840
 4008SOL    HW112923   3.589   1.302   5.804
 4008SOL    HW212924   3.733   1.369   5.764
 4009SOL     OW12925   4.436   2.654   0.628
 4009SOL    HW112926   4.435   2.664   0.528
 4009SOL    HW212927   4.528   2.671   0.662
 4010SOL     OW12928   2.336   3.094   1.717
 4010SOL    HW112929   2.426   3.060   1.690
 4010SOL    HW212930   2.329   3.191   1.693
 4011SOL     OW12931   1.105   6.870   2.532
 4011SOL    HW112932   1.108   6.865   2.433
 4011SOL    HW212933   1.015   6.902   2.562
 4012SOL     OW12934   4.474   5.329   2.463
 4012SOL    HW112935   4.482   5.406   2.525
 4012SOL    HW212936   4.377   5.305   2.452
 4013SOL     OW12937   2.838   0.387   0.989
 4013SOL    HW112938   2.809   0.316   0.924
 4013SOL    HW212939   2.924   0.427   0.958
 4014SOL     OW12940   4.012   5.290   4.083
 4014SOL    HW112941   3.919   5.288   4.047
 4014SOL    HW212942   4.009   5.314   4.180
 4015SOL     OW12943   4.072   4.835   6.613
 4015SOL    HW112944   4.033   4.764   6.554
 4015SOL    HW212945   4.092   4.916   6.558
 4016SOL     OW12946   1.703   5.484   0.234
 4016SOL    HW112947   1.769   5.517   0.167
 4016SOL    HW212948   1.645   5.560   0.264
 4017SOL     OW12949   0.482   6.573   6.570
 4017SOL    HW112950   0.393   6.531   6.587
 4017SOL    HW212951   0.539   6.566   6.652
 4018SOL     OW12952   5.208   6.295   0.964
 4018SOL    HW112953   5.277   6.255   0.904
 4018SOL    HW212954   5.246   6.375   1.011
 4019SOL     OW12955   6.273   3.905   2.745
 4019SOL    HW112956   6.209   3.935   2.674
 4019SOL    HW212957   6.225   3.903   2.833
 4020SOL     OW12958   0.417   2.838   5.805
 4020SOL    HW112959   0.491   2.905   5.807
 4020SOL    HW212960   0.382   2.829   5.712
 4021SOL     OW12961   3.083   3.634   5.247
 4021SOL    HW112962   3.024   3.569   5.295
 4021SOL    HW212963   3.044   3.725   5.251
 4022SOL     OW12964   4.463   6.999   6.463
 4022SOL    HW112965   4.512   6.917   6.490
 4022SOL    HW212966   4.403   6.979   6.386
 4023SOL     OW12967   6.823   0.636   4.076
 4023SOL    HW112968   6.779   0.706   4.020
 4023SOL    HW212969   6.914   0.616   4.039
 4024SOL     OW12970   2.050   5.592   4.213
 4024SOL    HW112971   2.012   5.518   4.157
 4024SOL    HW212972   1.978   5.660   4.231
 4025SOL     OW12973   0.449   6.483   4.353
 4025SOL    HW112974   0.530   6.533   4.385
 4025SOL    HW212975   0.462   6.386   4.373
 4026SOL     OW12976   6.373   0.196   2.901
 4026SOL    HW112977   6.327   0.127   2.844
 4026SOL    HW212978   6.397   0.156   2.990
 4027SOL     OW12979   3.089   2.621   0.956
 4027SOL    HW112980   3.115   2.714   0.932
 4027SOL    HW212981   2.989   2.614   0.960
 4028SOL     OW12982   2.692   2.181   2.936
 4028SOL    HW112983   2.599   2.178   2.974
 4028SOL    HW212984   2.702   2.109   2.868
 4029SOL     OW12985   3.131   4.623   5.824
 4029SOL    HW112986   3.169   4.538   5.789
 4029SOL    HW212987   3.201   4.673   5.874
 4030SOL     OW12988   1.304   1.519   1.765
 4030SOL    HW112989   1.264   1.499   1.854
 4030SOL    HW212990   1.264   1.602   1.728
 4031SOL     OW12991   4.987   6.079   3.324
 4031SOL    HW112992   4.918   6.028   3.376
 4031SOL    HW212993   5.078   6.060   3.362
 4032SOL     OW12994   6.130   0.514   2.563
 4032SOL    HW112995   6.042   0.470   2.545
 4032SOL    HW212996   6.187   0.453   2.618
 4033SOL     OW12997   2.180   3.531   1.382
 4033SOL    HW112998   2.082   3.528   1.361
 4033SOL    HW212999   2.213   3.625   1.371
 4034SOL     OW13000   6.593   1.187   4.376
 4034SOL    HW113001   6.613   1.272   4.327
 4034SOL    HW213002   6.517   1.140   4.332
 4035SOL     OW13003   6.196   2.238   0.574
 4035SOL    HW113004   6.179   2.176   0.651
 4035SOL    HW213005   6.288   2.276   0.583
 4036SOL     OW13006   4.804   5.857   2.586
 4036SOL    HW113007   4.881   5.874   2.525
 4036SOL    HW213008   4.760   5.771   2.562
 4037SOL     OW13009   2.574   1.553   0.520
 4037SOL    HW113010   2.633   1.633   0.527
 4037SOL    HW213011   2.612   1.489   0.454
 4038SOL     OW13012   4.446   3.339   1.642
 4038SOL    HW113013   4.447   3.241   1.661
 4038SOL    HW213014   4.467   3.354   1.545
 4039SOL     OW13015   4.965   4.479   1.767
 4039SOL    HW113016   5.036   4.514   1.828
 4039SOL    HW213017   4.945   4.384   1.790
 4040SOL     OW13018   3.750   6.940   5.979
 4040SOL    HW113019   3.823   7.002   6.006
 4040SOL    HW213020   3.686   6.928   6.054
 4041SOL     OW13021   1.422   4.877   1.414
 4041SOL    HW113022   1.426   4.791   1.362
 4041SOL    HW213023   1.350   4.936   1.375
 4042SOL     OW13024   6.224   5.749   3.233
 4042SOL    HW113025   6.177   5.702   3.158
 4042SOL    HW213026   6.321   5.725   3.232
 4043SOL     OW13027   5.847   1.710   4.389
 4043SOL    HW113028   5.839   1.611   4.397
 4043SOL    HW213029   5.860   1.750   4.480
 4044SOL     OW13030   4.928   0.018   3.418
 4044SOL    HW113031   4.904   0.010   3.322
 4044SOL    HW213032   4.856   0.069   3.466
 4045SOL     OW13033   2.919   5.748   5.323
 4045SOL    HW113034   2.916   5.663   5.271
 4045SOL    HW213035   2.831   5.762   5.370
 4046SOL     OW13036   1.570   2.154   4.200
 4046SOL    HW113037   1.597   2.095   4.275
 4046SOL    HW213038   1.475   2.182   4.212
 4047SOL     OW13039   1.730   2.132   0.934
 4047SOL    HW113040   1.776   2.214   0.966
 4047SOL    HW213041   1.669   2.155   0.858
 4048SOL     OW13042   5.350   1.913   1.942
 4048SOL    HW113043   5.347   1.996   1.886
 4048SOL    HW213044   5.347   1.939   2.038
 4049SOL     OW13045   6.195   4.994   6.300
 4049SOL    HW113046   6.262   4.984   6.226
 4049SOL    HW213047   6.105   5.013   6.261
 4050SOL     OW13048   1.336   6.735   1.324
 4050SOL    HW113049   1.425   6.777   1.306
 4050SOL    HW213050   1.349   6.641   1.356
 4051SOL     OW13051   3.865   2.152   6.590
 4051SOL    HW113052   3.928   2.127   6.516
 4051SOL    HW213053   3.796   2.215   6.555
 4052SOL     OW13054   6.978   0.996   2.617
 4052SOL    HW113055   6.884   1.018   2.589
 4052SOL    HW213056   0.019   1.062   2.576
 4053SOL     OW13057   3.103   5.359   4.199
 4053SOL    HW113058   3.176   5.410   4.245
 4053SOL    HW213059   3.025   5.350   4.261
 4054SOL     OW13060   6.103   3.600   1.782
 4054SOL    HW113061   6.090   3.647   1.695
 4054SOL    HW213062   6.102   3.501   1.767
 4055SOL     OW13063   3.181   3.407   6.463
 4055SOL    HW113064   3.142   3.473   6.399
 4055SOL    HW213065   3.159   3.434   6.557
 4056SOL     OW13066   3.554   4.068   1.102
 4056SOL    HW113067   3.478   4.047   1.040
 4056SOL    HW213068   3.606   3.984   1.120
 4057SOL     OW13069   5.758   2.726   1.504
 4057SOL    HW113070   5.703   2.798   1.462
 4057SOL    HW213071   5.747   2.641   1.452
 4058SOL     OW13072   2.057   0.178   3.933
 4058SOL    HW113073   2.079   0.218   4.022
 4058SOL    HW213074   2.131   0.200   3.868
 4059SOL     OW13075   1.466   2.277   3.462
 4059SOL    HW113076   1.415   2.214   3.521
 4059SOL    HW213077   1.453   2.370   3.495
 4060SOL     OW13078   5.151   5.810   4.723
 4060SOL    HW113079   5.147   5.732   4.786
 4060SOL    HW213080   5.159   5.776   4.629
 4061SOL     OW13081   3.094   4.936   1.613
 4061SOL    HW113082   3.116   4.844   1.643
 4061SOL    HW213083   3.120   4.948   1.517
 4062SOL     OW13084   2.051   2.670   2.213
 4062SOL    HW113085   2.000   2.733   2.154
 4062SOL    HW213086   1.997   2.650   2.295
 4063SOL     OW13087   6.371   5.508   6.132
 4063SOL    HW113088   6.377   5.524   6.034
 4063SOL    HW213089   6.290   5.553   6.168
 4064SOL     OW13090   2.137   6.746   3.604
 4064SOL    HW113091   2.166   6.819   3.542
 4064SOL    HW213092   2.156   6.773   3.698
 4065SOL     OW13093   0.273   0.161   0.942
 4065SOL    HW113094   0.336   0.083   0.950
 4065SOL    HW213095   0.324   0.246   0.954
 4066SOL     OW13096   5.327   5.617   3.141
 4066SOL    HW113097   5.235   5.654   3.124
 4066SOL    HW213098   5.383   5.687   3.186
 4067SOL     OW13099   6.219   3.155   3.178
 4067SOL    HW113100   6.197   3.133   3.083
 4067SOL    HW213101   6.318   3.162   3.188
 4068SOL     OW13102   3.313   0.804   4.936
 4068SOL    HW113103   3.284   0.731   4.998
 4068SOL    HW213104   3.278   0.892   4.969
 4069SOL     OW13105   2.779   5.088   5.790
 4069SOL    HW113106   2.791   5.042   5.702
 4069SOL    HW213107   2.818   5.180   5.786
 4070SOL     OW13108   0.143   3.037   2.194
 4070SOL    HW113109   0.145   3.137   2.191
 4070SOL    HW213110   0.178   3.000   2.108
 4071SOL     OW13111   1.490   0.503   5.512
 4071SOL    HW113112   1.549   0.424   5.528
 4071SOL    HW213113   1.505   0.538   5.419
 4072SOL     OW13114   0.430   5.985   4.176
 4072SOL    HW113115   0.422   6.076   4.136
 4072SOL    HW213116   0.348   5.965   4.230
 4073SOL     OW13117   2.359   6.274   6.191
 4073SOL    HW113118   2.422   6.337   6.146
 4073SOL    HW213119   2.279   6.325   6.223
 4074SOL     OW13120   6.604   2.709   1.977
 4074SOL    HW113121   6.644   2.800   1.978
 4074SOL    HW213122   6.647   2.655   1.904
 4075SOL     OW13123   3.988   1.880   2.665
 4075SOL    HW113124   3.987   1.948   2.592
 4075SOL    HW213125   4.060   1.903   2.731
 4076SOL     OW13126   2.847   3.030   5.929
 4076SOL    HW113127   2.883   3.007   5.839
 4076SOL    HW213128   2.918   3.021   5.998
 4077SOL     OW13129   3.916   0.494   0.447
 4077SOL    HW113130   3.958   0.585   0.448
 4077SOL    HW213131   3.833   0.496   0.502
 4078SOL     OW13132   6.874   5.894   2.200
 4078SOL    HW113133   6.889   5.796   2.211
 4078SOL    HW213134   6.840   5.913   2.109
 4079SOL     OW13135   1.283   2.199   4.192
 4079SOL    HW113136   1.274   2.292   4.155
 4079SOL    HW213137   1.195   2.168   4.226
 4080SOL     OW13138   2.984   4.204   6.827
 4080SOL    HW113139   3.016   4.190   6.921
 4080SOL    HW213140   3.063   4.220   6.768
 4081SOL     OW13141   2.301   1.994   4.702
 4081SOL    HW113142   2.257   1.951   4.623
 4081SOL    HW213143   2.399   2.006   4.683
 4082SOL     OW13144   1.498   3.191   0.137
 4082SOL    HW113145   1.432   3.169   0.209
 4082SOL    HW213146   1.499   3.117   0.069
 4083SOL     OW13147   6.960   4.478   1.732
 4083SOL    HW113148   6.981   4.381   1.716
 4083SOL    HW213149   0.021   4.533   1.720
 4084SOL     OW13150   4.559   2.313   3.404
 4084SOL    HW113151   4.477   2.291   3.352
 4084SOL    HW213152   4.640   2.278   3.356
 4085SOL     OW13153   2.325   5.724   0.827
 4085SOL    HW113154   2.379   5.807   0.844
 4085SOL    HW213155   2.276   5.698   0.910
 4086SOL     OW13156   0.626   5.222   1.811
 4086SOL    HW113157   0.599   5.290   1.743
 4086SOL    HW213158   0.630   5.265   1.902
 4087SOL     OW13159   1.362   1.805   3.372
 4087SOL    HW113160   1.264   1.825   3.374
 4087SOL    HW213161   1.412   1.876   3.421
 4088SOL     OW13162   6.245   0.725   6.779
 4088SOL    HW113163   6.297   0.646   6.812
 4088SOL    HW213164   6.225   0.785   6.856
 4089SOL     OW13165   5.510   4.859   3.736
 4089SOL    HW113166   5.414   4.852   3.707
 4089SOL    HW213167   5.514   4.906   3.824
 4090SOL     OW13168   1.166   4.907   5.171
 4090SOL    HW113169   1.074   4.932   5.140
 4090SOL    HW213170   1.231   4.974   5.137
 4091SOL     OW13171   0.438   6.271   6.894
 4091SOL    HW113172   0.478   6.357   6.924
 4091SOL    HW213173   0.510   6.207   6.870
 4092SOL     OW13174   5.677   2.843   4.482
 4092SOL    HW113175   5.638   2.751   4.473
 4092SOL    HW213176   5.656   2.896   4.400
 4093SOL     OW13177   4.714   6.104   2.176
 4093SOL    HW113178   4.650   6.180   2.184
 4093SOL    HW213179   4.775   6.119   2.098
 4094SOL     OW13180   1.694   5.331   5.952
 4094SOL    HW113181   1.793   5.319   5.954
 4094SOL    HW213182   1.651   5.267   6.015
 4095SOL     OW13183   0.480   4.403   0.766
 4095SOL    HW113184   0.433   4.335   0.822
 4095SOL    HW213185   0.421   4.431   0.690
 4096SOL     OW13186   4.800   0.826   6.170
 4096SOL    HW113187   4.816   0.761   6.245
 4096SOL    HW213188   4.879   0.887   6.162
 4097SOL     OW13189   4.140   4.823   4.719
 4097SOL    HW113190   4.069   4.816   4.648
 4097SOL    HW213191   4.101   4.861   4.802
 4098SOL     OW13192   0.340   2.409   2.133
 4098SOL    HW113193   0.243   2.433   2.127
 4098SOL    HW213194   0.348   2.310   2.148
 4099SOL     OW13195   3.691   4.984   1.539
 4099SOL    HW113196   3.765   4.943   1.593
 4099SOL    HW213197   3.668   4.923   1.463
 4100SOL     OW13198   6.831   6.595   4.330
 4100SOL    HW113199   6.799   6.504   4.302
 4100SOL    HW213200   6.759   6.640   4.384
 4101SOL     OW13201   6.691   0.875   6.785
 4101SOL    HW113202   6.761   0.946   6.780
 4101SOL    HW213203   6.611   0.911   6.833
 4102SOL     OW13204   0.218   0.885   0.299
 4102SOL    HW113205   0.316   0.900   0.311
 4102SOL    HW213206   0.185   0.941   0.224
 4103SOL     OW13207   0.509   6.852   0.232
 4103SOL    HW113208   0.576   6.898   0.173
 4103SOL    HW213209   0.539   6.860   0.327
 4104SOL     OW13210   0.022   5.353   2.970
 4104SOL    HW113211   6.972   5.306   2.919
 4104SOL    HW213212   7.003   5.419   3.033
 4105SOL     OW13213   5.357   0.340   2.065
 4105SOL    HW113214   5.384   0.246   2.085
 4105SOL    HW213215   5.315   0.345   1.975
 4106SOL     OW13216   6.613   3.073   2.990
 4106SOL    HW113217   6.548   3.058   3.065
 4106SOL    HW213218   6.605   2.998   2.924
 4107SOL     OW13219   0.913   5.123   0.937
 4107SOL    HW113220   1.001   5.076   0.928
 4107SOL    HW213221   0.925   5.202   0.997
 4108SOL     OW13222   6.468   5.337   4.498
 4108SOL    HW113223   6.457   5.436   4.487
 4108SOL    HW213224   6.475   5.316   4.595
 4109SOL     OW13225   6.379   6.511   4.595
 4109SOL    HW113226   6.442   6.563   4.653
 4109SOL    HW213227   6.325   6.449   4.651
 4110SOL     OW13228   4.206   3.798   5.517
 4110SOL    HW113229   4.262   3.868   5.563
 4110SOL    HW213230   4.157   3.840   5.441
 4111SOL     OW13231   5.287   3.903   6.770
 4111SOL    HW113232   5.273   3.818   6.821
 4111SOL    HW213233   5.357   3.958   6.816
 4112SOL     OW13234   5.120   6.225   4.794
 4112SOL    HW113235   5.088   6.318   4.812
 4112SOL    HW213236   5.068   6.161   4.850
 4113SOL     OW13237   5.353   5.807   5.304
 4113SOL    HW113238   5.447   5.826   5.277
 4113SOL    HW213239   5.347   5.796   5.403
 4114SOL     OW13240   4.383   2.395   4.255
 4114SOL    HW113241   4.419   2.366   4.166
 4114SOL    HW213242   4.283   2.388   4.253
 4115SOL     OW13243   3.253   5.163   1.979
 4115SOL    HW113244   3.164   5.119   1.963
 4115SOL    HW213245   3.318   5.094   2.011
 4116SOL     OW13246   3.718   1.580   2.308
 4116SOL    HW113247   3.663   1.658   2.337
 4116SOL    HW213248   3.808   1.612   2.277
 4117SOL     OW13249   1.456   3.328   2.541
 4117SOL    HW113250   1.496   3.325   2.450
 4117SOL    HW213251   1.528   3.319   2.610
 4118SOL     OW13252   4.962   5.644   0.696
 4118SOL    HW113253   4.918   5.593   0.621
 4118SOL    HW213254   4.894   5.669   0.764
 4119SOL     OW13255   3.843   1.690   4.219
 4119SOL    HW113256   3.883   1.781   4.222
 4119SOL    HW213257   3.873   1.642   4.137
 4120SOL     OW13258   4.066   0.459   6.231
 4120SOL    HW113259   4.102   0.483   6.321
 4120SOL    HW213260   4.132   0.403   6.182
 4121SOL     OW13261   6.324   0.095   4.329
 4121SOL    HW113262   6.281   0.163   4.389
 4121SOL    HW213263   6.400   0.138   4.279
 4122SOL     OW13264   1.053   6.182   4.145
 4122SOL    HW113265   1.050   6.139   4.235
 4122SOL    HW213266   1.046   6.112   4.074
 4123SOL     OW13267   4.397   4.752   5.322
 4123SOL    HW113268   4.429   4.846   5.331
 4123SOL    HW213269   4.393   4.709   5.412
 4124SOL     OW13270   6.767   6.412   0.653
 4124SOL    HW113271   6.835   6.419   0.580
 4124SOL    HW213272   6.762   6.499   0.702
 4125SOL     OW13273   4.672   1.477   2.354
 4125SOL    HW113274   4.677   1.527   2.268
 4125SOL    HW213275   4.711   1.532   2.428
 4126SOL     OW13276   1.824   3.734   3.940
 4126SOL    HW113277   1.826   3.712   3.843
 4126SOL    HW213278   1.856   3.828   3.954
 4127SOL     OW13279   5.722   4.443   5.501
 4127SOL    HW113280   5.783   4.490   5.564
 4127SOL    HW213281   5.693   4.355   5.541
 4128SOL     OW13282   0.975   2.883   1.491
 4128SOL    HW113283   1.067   2.879   1.453
 4128SOL    HW213284   0.972   2.832   1.577
 4129SOL     OW13285   4.101   0.919   6.805
 4129SOL    HW113286   4.095   0.958   6.713
 4129SOL    HW213287   4.037   0.966   6.865
 4130SOL     OW13288   6.340   2.778   0.605
 4130SOL    HW113289   6.346   2.681   0.578
 4130SOL    HW213290   6.431   2.818   0.608
 4131SOL     OW13291   0.259   1.688   4.012
 4131SOL    HW113292   0.218   1.720   3.927
 4131SOL    HW213293   0.311   1.604   3.995
 4132SOL     OW13294   4.751   4.081   3.671
 4132SOL    HW113295   4.756   4.175   3.638
 4132SOL    HW213296   4.782   4.019   3.599
 4133SOL     OW13297   3.170   6.034   1.169
 4133SOL    HW113298   3.244   5.972   1.195
 4133SOL    HW213299   3.102   6.038   1.242
 4134SOL     OW13300   2.645   4.053   1.293
 4134SOL    HW113301   2.699   4.042   1.210
 4134SOL    HW213302   2.681   3.994   1.365
 4135SOL     OW13303   0.573   2.082   2.418
 4135SOL    HW113304   0.663   2.090   2.375
 4135SOL    HW213305   0.583   2.073   2.517
 4136SOL     OW13306   1.457   3.017   3.226
 4136SOL    HW113307   1.522   2.982   3.294
 4136SOL    HW213308   1.400   2.941   3.194
 4137SOL     OW13309   0.880   3.727   1.722
 4137SOL    HW113310   0.810   3.789   1.759
 4137SOL    HW213311   0.884   3.738   1.623
 4138SOL     OW13312   4.394   5.893   2.765
 4138SOL    HW113313   4.425   5.805   2.802
 4138SOL    HW213314   4.367   5.953   2.841
 4139SOL     OW13315   2.152   1.655   5.786
 4139SOL    HW113316   2.140   1.749   5.753
 4139SOL    HW213317   2.204   1.655   5.871
 4140SOL     OW13318   2.780   0.033   5.689
 4140SOL    HW113319   2.747   0.060   5.780
 4140SOL    HW213320   2.860   6.996   5.699
 4141SOL     OW13321   5.285   6.719   1.224
 4141SOL    HW113322   5.248   6.796   1.172
 4141SOL    HW213323   5.321   6.751   1.312
 4142SOL     OW13324   6.488   4.517   0.803
 4142SOL    HW113325   6.537   4.578   0.865
 4142SOL    HW213326   6.533   4.428   0.801
 4143SOL     OW13327   5.445   1.645   1.041
 4143SOL    HW113328   5.411   1.580   0.974
 4143SOL    HW213329   5.371   1.704   1.073
 4144SOL     OW13330   5.414   1.553   0.307
 4144SOL    HW113331   5.496   1.548   0.250
 4144SOL    HW213332   5.336   1.517   0.256
 4145SOL     OW13333   0.180   6.432   1.758
 4145SOL    HW113334   0.212   6.509   1.703
 4145SOL    HW213335   0.081   6.422   1.746
 4146SOL     OW13336   6.963   0.750   2.741
 4146SOL    HW113337   6.924   0.770   2.831
 4146SOL    HW213338   6.958   0.833   2.684
 4147SOL     OW13339   5.064   4.691   6.095
 4147SOL    HW113340   5.002   4.617   6.118
 4147SOL    HW213341   5.074   4.752   6.174
 4148SOL     OW13342   1.383   0.633   4.885
 4148SOL    HW113343   1.385   0.714   4.943
 4148SOL    HW213344   1.460   0.635   4.821
 4149SOL     OW13345   0.075   4.071   0.983
 4149SOL    HW113346   0.159   4.019   0.998
 4149SOL    HW213347   7.019   4.019   1.017
 4150SOL     OW13348   0.769   0.134   5.720
 4150SOL    HW113349   0.807   0.083   5.642
 4150SOL    HW213350   0.703   0.201   5.686
 4151SOL     OW13351   3.303   6.308   5.758
 4151SOL    HW113352   3.207   6.334   5.763
 4151SOL    HW213353   3.327   6.255   5.839
 4152SOL     OW13354   4.475   5.908   0.717
 4152SOL    HW113355   4.399   5.845   0.700
 4152SOL    HW213356   4.536   5.870   0.786
 4153SOL     OW13357   5.574   5.036   0.518
 4153SOL    HW113358   5.534   5.064   0.431
 4153SOL    HW213359   5.627   4.952   0.504
 4154SOL     OW13360   0.152   5.019   3.591
 4154SOL    HW113361   0.235   5.060   3.629
 4154SOL    HW213362   0.076   5.084   3.598
 4155SOL     OW13363   0.173   1.431   2.612
 4155SOL    HW113364   0.176   1.522   2.653
 4155SOL    HW213365   0.090   1.422   2.558
 4156SOL     OW13366   5.840   5.830   5.001
 4156SOL    HW113367   5.892   5.801   4.920
 4156SOL    HW213368   5.799   5.750   5.044
 4157SOL     OW13369   5.165   5.320   4.000
 4157SOL    HW113370   5.169   5.364   4.090
 4157SOL    HW213371   5.085   5.260   3.995
 4158SOL     OW13372   6.927   3.149   1.334
 4158SOL    HW113373   6.917   3.246   1.351
 4158SOL    HW213374   6.838   3.104   1.342
 4159SOL     OW13375   1.969   3.449   3.342
 4159SOL    HW113376   2.043   3.389   3.312
 4159SOL    HW213377   1.940   3.423   3.434
 4160SOL     OW13378   5.791   0.632   0.125
 4160SOL    HW113379   5.759   0.575   0.200
 4160SOL    HW213380   5.757   0.726   0.138
 4161SOL     OW13381   1.048   1.857   0.916
 4161SOL    HW113382   1.130   1.840   0.862
 4161SOL    HW213383   0.967   1.836   0.862
 4162SOL     OW13384   6.886   5.789   0.311
 4162SOL    HW113385   6.894   5.794   0.212
 4162SOL    HW213386   6.912   5.698   0.342
 4163SOL     OW13387   4.481   0.096   3.392
 4163SOL    HW113388   4.534   0.141   3.320
 4163SOL    HW213389   4.442   0.011   3.356
 4164SOL     OW13390   1.672   6.743   5.710
 4164SOL    HW113391   1.719   6.655   5.704
 4164SOL    HW213392   1.708   6.794   5.788
 4165SOL     OW13393   4.114   0.373   5.843
 4165SOL    HW113394   4.168   0.362   5.926
 4165SOL    HW213395   4.175   0.397   5.767
 4166SOL     OW13396   5.472   2.660   0.288
 4166SOL    HW113397   5.525   2.715   0.353
 4166SOL    HW213398   5.501   2.682   0.195
 4167SOL     OW13399   1.655   4.265   1.181
 4167SOL    HW113400   1.739   4.215   1.162
 4167SOL    HW213401   1.678   4.351   1.226
 4168SOL     OW13402   6.917   4.289   0.998
 4168SOL    HW113403   7.003   4.266   1.044
 4168SOL    HW213404   6.841   4.268   1.059
 4169SOL     OW13405   6.083   4.261   5.109
 4169SOL    HW113406   6.010   4.317   5.146
 4169SOL    HW213407   6.080   4.263   5.009
 4170SOL     OW13408   4.308   4.033   5.875
 4170SOL    HW113409   4.381   4.101   5.883
 4170SOL    HW213410   4.256   4.030   5.960
 4171SOL     OW13411   6.110   6.133   0.777
 4171SOL    HW113412   6.134   6.067   0.848
 4171SOL    HW213413   6.034   6.190   0.809
 4172SOL     OW13414   1.256   1.752   5.606
 4172SOL    HW113415   1.202   1.676   5.641
 4172SOL    HW213416   1.333   1.770   5.668
 4173SOL     OW13417   5.129   3.865   5.085
 4173SOL    HW113418   5.059   3.859   5.013
 4173SOL    HW213419   5.103   3.807   5.162
 4174SOL     OW13420   5.214   1.498   2.863
 4174SOL    HW113421   5.268   1.422   2.899
 4174SOL    HW213422   5.166   1.544   2.937
 4175SOL     OW13423   2.136   5.559   4.480
 4175SOL    HW113424   2.101   5.533   4.390
 4175SOL    HW213425   2.153   5.477   4.535
 4176SOL     OW13426   2.904   5.994   1.980
 4176SOL    HW113427   2.968   6.069   1.995
 4176SOL    HW213428   2.847   6.013   1.900
 4177SOL     OW13429   6.420   4.449   5.079
 4177SOL    HW113430   6.492   4.453   5.149
 4177SOL    HW213431   6.378   4.358   5.079
 4178SOL     OW13432   4.790   0.522   4.062
 4178SOL    HW113433   4.774   0.572   4.147
 4178SOL    HW213434   4.852   0.445   4.080
 4179SOL     OW13435   4.818   3.109   3.489
 4179SOL    HW113436   4.780   3.054   3.563
 4179SOL    HW213437   4.841   3.050   3.412
 4180SOL     OW13438   5.311   4.679   0.882
 4180SOL    HW113439   5.212   4.686   0.871
 4180SOL    HW213440   5.346   4.607   0.822
 4181SOL     OW13441   2.741   1.375   0.688
 4181SOL    HW113442   2.795   1.444   0.736
 4181SOL    HW213443   2.663   1.419   0.642
 4182SOL     OW13444   0.951   6.797   3.577
 4182SOL    HW113445   0.888   6.744   3.520
 4182SOL    HW213446   1.002   6.735   3.637
 4183SOL     OW13447   2.808   1.514   0.010
 4183SOL    HW113448   2.800   1.574   6.952
 4183SOL    HW213449   2.742   1.440   0.003
 4184SOL     OW13450   4.905   5.649   1.434
 4184SOL    HW113451   4.890   5.680   1.528
 4184SOL    HW213452   4.856   5.563   1.419
 4185SOL     OW13453   0.344   4.966   2.163
 4185SOL    HW113454   0.249   4.995   2.176
 4185SOL    HW213455   0.356   4.874   2.198
 4186SOL     OW13456   2.134   5.104   0.050
 4186SOL    HW113457   2.211   5.158   0.017
 4186SOL    HW213458   2.146   5.009   0.021
 4187SOL     OW13459   3.405   2.874   5.472
 4187SOL    HW113460   3.420   2.776   5.456
 4187SOL    HW213461   3.324   2.886   5.529
 4188SOL     OW13462   4.649   6.827   4.745
 4188SOL    HW113463   4.633   6.732   4.771
 4188SOL    HW213464   4.699   6.830   4.658
 4189SOL     OW13465   2.417   5.142   5.487
 4189SOL    HW113466   2.347   5.104   5.427
 4189SOL    HW213467   2.382   5.225   5.531
 4190SOL     OW13468   0.859   0.712   0.065
 4190SOL    HW113469   0.926   0.786   0.061
 4190SOL    HW213470   0.821   0.697   6.996
 4191SOL     OW13471   4.904   4.056   3.456
 4191SOL    HW113472   5.002   4.074   3.458
 4191SOL    HW213473   4.885   3.979   3.394
 4192SOL     OW13474   0.955   0.776   4.326
 4192SOL    HW113475   1.054   0.780   4.318
 4192SOL    HW213476   0.919   0.865   4.353
 4193SOL     OW13477   1.089   1.056   1.807
 4193SOL    HW113478   1.073   0.970   1.855
 4193SOL    HW213479   1.001   1.103   1.791
 4194SOL     OW13480   5.424   0.358   4.768
 4194SOL    HW113481   5.341   0.318   4.807
 4194SOL    HW213482   5.475   0.287   4.718
 4195SOL     OW13483   3.579   6.855   1.826
 4195SOL    HW113484   3.649   6.863   1.897
 4195SOL    HW213485   3.578   6.761   1.791
 4196SOL     OW13486   5.500   2.307   3.377
 4196SOL    HW113487   5.513   2.328   3.474
 4196SOL    HW213488   5.434   2.233   3.368
 4197SOL     OW13489   5.032   5.733   6.280
 4197SOL    HW113490   5.057   5.727   6.183
 4197SOL    HW213491   4.934   5.748   6.289
 4198SOL     OW13492   5.862   2.273   0.028
 4198SOL    HW113493   5.823   2.181   0.034
 4198SOL    HW213494   5.796   2.339   0.061
 4199SOL     OW13495   2.241   2.744   5.844
 4199SOL    HW113496   2.279   2.827   5.803
 4199SOL    HW213497   2.150   2.728   5.807
 4200SOL     OW13498   3.874   6.586   6.018
 4200SOL    HW113499   3.881   6.646   6.097
 4200SOL    HW213500   3.778   6.576   5.991
 4201SOL     OW13501   5.678   5.926   3.737
 4201SOL    HW113502   5.745   5.968   3.676
 4201SOL    HW213503   5.723   5.862   3.798
 4202SOL     OW13504   4.050   5.188   5.821
 4202SOL    HW113505   4.140   5.182   5.865
 4202SOL    HW213506   3.982   5.218   5.888
 4203SOL     OW13507   4.723   4.911   0.345
 4203SOL    HW113508   4.685   4.838   0.287
 4203SOL    HW213509   4.733   4.877   0.438
 4204SOL     OW13510   4.037   3.785   2.717
 4204SOL    HW113511   3.970   3.856   2.695
 4204SOL    HW213512   4.087   3.760   2.634
 4205SOL     OW13513   3.612   5.683   3.577
 4205SOL    HW113514   3.634   5.600   3.627
 4205SOL    HW213515   3.688   5.707   3.516
 4206SOL     OW13516   6.845   7.003   6.099
 4206SOL    HW113517   6.782   6.980   6.173
 4206SOL    HW213518   6.879   6.919   6.056
 4207SOL     OW13519   1.672   1.323   0.921
 4207SOL    HW113520   1.765   1.313   0.956
 4207SOL    HW213521   1.645   1.419   0.926
 4208SOL     OW13522   0.787   3.378   5.992
 4208SOL    HW113523   0.779   3.478   5.984
 4208SOL    HW213524   0.716   3.344   6.053
 4209SOL     OW13525   0.550   0.541   5.114
 4209SOL    HW113526   0.569   0.459   5.061
 4209SOL    HW213527   0.471   0.525   5.173
 4210SOL     OW13528   3.007   3.136   2.799
 4210SOL    HW113529   3.025   3.104   2.706
 4210SOL    HW213530   2.916   3.106   2.827
 4211SOL     OW13531   4.346   5.700   5.780
 4211SOL    HW113532   4.411   5.718   5.854
 4211SOL    HW213533   4.329   5.784   5.729
 4212SOL     OW13534   5.774   2.201   3.117
 4212SOL    HW113535   5.681   2.238   3.118
 4212SOL    HW213536   5.786   2.141   3.038
 4213SOL     OW13537   2.343   1.181   1.499
 4213SOL    HW113538   2.402   1.213   1.573
 4213SOL    HW213539   2.262   1.137   1.537
 4214SOL     OW13540   1.738   4.596   5.097
 4214SOL    HW113541   1.672   4.542   5.149
 4214SOL    HW213542   1.693   4.675   5.056
 4215SOL     OW13543   6.881   5.987   4.887
 4215SOL    HW113544   6.965   5.973   4.835
 4215SOL    HW213545   6.879   6.080   4.923
 4216SOL     OW13546   1.047   1.599   2.642
 4216SOL    HW113547   1.073   1.515   2.689
 4216SOL    HW213548   1.127   1.639   2.597
 4217SOL     OW13549   0.913   0.691   2.163
 4217SOL    HW113550   0.841   0.743   2.117
 4217SOL    HW213551   0.879   0.659   2.252
 4218SOL     OW13552   4.418   0.733   1.899
 4218SOL    HW113553   4.365   0.657   1.861
 4218SOL    HW213554   4.468   0.701   1.979
 4219SOL     OW13555   3.024   5.222   3.836
 4219SOL    HW113556   3.030   5.263   3.745
 4219SOL    HW213557   3.110   5.236   3.885
 4220SOL     OW13558   5.087   2.890   4.017
 4220SOL    HW113559   5.023   2.839   4.073
 4220SOL    HW213560   5.180   2.855   4.032
 4221SOL     OW13561   6.210   5.172   6.795
 4221SOL    HW113562   6.118   5.196   6.822
 4221SOL    HW213563   6.217   5.174   6.695
 4222SOL     OW13564   5.907   1.503   3.170
 4222SOL    HW113565   5.812   1.532   3.157
 4222SOL    HW213566   5.917   1.459   3.260
 4223SOL     OW13567   3.540   3.471   6.235
 4223SOL    HW113568   3.500   3.393   6.284
 4223SOL    HW213569   3.501   3.475   6.143
 4224SOL     OW13570   5.003   3.505   3.561
 4224SOL    HW113571   4.984   3.460   3.648
 4224SOL    HW213572   5.059   3.587   3.577
 4225SOL     OW13573   3.947   0.707   5.773
 4225SOL    HW113574   3.958   0.676   5.867
 4225SOL    HW213575   3.871   0.657   5.730
 4226SOL     OW13576   0.946   0.307   2.274
 4226SOL    HW113577   0.850   0.335   2.278
 4226SOL    HW213578   1.004   0.379   2.312
 4227SOL     OW13579   3.901   4.666   0.226
 4227SOL    HW113580   3.802   4.675   0.217
 4227SOL    HW213581   3.925   4.570   0.238
 4228SOL     OW13582   0.916   3.777   5.009
 4228SOL    HW113583   0.928   3.796   4.912
 4228SOL    HW213584   0.826   3.736   5.024
 4229SOL     OW13585   4.810   5.621   5.757
 4229SOL    HW113586   4.856   5.708   5.775
 4229SOL    HW213587   4.738   5.635   5.690
 4230SOL     OW13588   1.369   6.801   3.210
 4230SOL    HW113589   1.381   6.708   3.173
 4230SOL    HW213590   1.403   6.804   3.304
 4231SOL     OW13591   6.180   6.008   5.347
 4231SOL    HW113592   6.261   5.966   5.389
 4231SOL    HW213593   6.114   5.937   5.323
 4232SOL     OW13594   6.588   4.790   2.604
 4232SOL    HW113595   6.507   4.739   2.575
 4232SOL    HW213596   6.661   4.777   2.537
 4233SOL     OW13597   6.662   6.913   6.299
 4233SOL    HW113598   6.668   6.841   6.368
 4233SOL    HW213599   6.646   7.001   6.344
 4234SOL     OW13600   2.281   6.659   5.423
 4234SOL    HW113601   2.338   6.643   5.343
 4234SOL    HW213602   2.248   6.572   5.459
 4235SOL     OW13603   5.700   3.538   6.242
 4235SOL    HW113604   5.781   3.575   6.196
 4235SOL    HW213605   5.622   3.542   6.179
 4236SOL     OW13606   6.924   3.780   3.125
 4236SOL    HW113607   6.936   3.812   3.031
 4236SOL    HW213608   6.832   3.805   3.157
 4237SOL     OW13609   6.163   5.345   2.773
 4237SOL    HW113610   6.196   5.429   2.731
 4237SOL    HW213611   6.171   5.352   2.873
 4238SOL     OW13612   3.058   5.312   2.546
 4238SOL    HW113613   2.981   5.353   2.497
 4238SOL    HW213614   3.055   5.213   2.537
 4239SOL     OW13615   5.407   1.521   3.126
 4239SOL    HW113616   5.322   1.572   3.123
 4239SOL    HW213617   5.484   1.583   3.114
 4240SOL     OW13618   2.169   0.551   0.280
 4240SOL    HW113619   2.127   0.620   0.220
 4240SOL    HW213620   2.101   0.481   0.302
 4241SOL     OW13621   6.072   0.523   0.018
 4241SOL    HW113622   6.148   0.570   0.063
 4241SOL    HW213623   5.985   0.563   0.048
 4242SOL     OW13624   2.077   0.415   3.351
 4242SOL    HW113625   2.132   0.416   3.434
 4242SOL    HW213626   2.031   0.503   3.340
 4243SOL     OW13627   6.020   3.558   3.379
 4243SOL    HW113628   6.106   3.533   3.335
 4243SOL    HW213629   5.943   3.527   3.323
 4244SOL     OW13630   4.856   4.690   1.967
 4244SOL    HW113631   4.798   4.618   1.928
 4244SOL    HW213632   4.846   4.774   1.913
 4245SOL     OW13633   6.602   1.063   6.052
 4245SOL    HW113634   6.533   1.101   6.114
 4245SOL    HW213635   6.620   0.968   6.075
 4246SOL     OW13636   6.317   3.342   2.608
 4246SOL    HW113637   6.252   3.401   2.656
 4246SOL    HW213638   6.390   3.316   2.670
 4247SOL     OW13639   2.269   4.685   3.350
 4247SOL    HW113640   2.188   4.704   3.295
 4247SOL    HW213641   2.290   4.766   3.406
 4248SOL     OW13642   2.015   1.797   3.817
 4248SOL    HW113643   2.093   1.757   3.770
 4248SOL    HW213644   1.940   1.730   3.820
 4249SOL     OW13645   5.386   1.669   4.069
 4249SOL    HW113646   5.338   1.592   4.026
 4249SOL    HW213647   5.481   1.671   4.038
 4250SOL     OW13648   6.892   5.979   3.730
 4250SOL    HW113649   6.978   6.010   3.772
 4250SOL    HW213650   6.874   5.885   3.757
 4251SOL     OW13651   5.900   3.899   1.501
 4251SOL    HW113652   5.891   3.917   1.403
 4251SOL    HW213653   5.811   3.869   1.537
 4252SOL     OW13654   6.694   6.725   6.495
 4252SOL    HW113655   6.633   6.660   6.451
 4252SOL    HW213656   6.677   6.726   6.594
 4253SOL     OW13657   3.122   6.493   0.723
 4253SOL    HW113658   3.175   6.444   0.793
 4253SOL    HW213659   3.037   6.443   0.705
 4254SOL     OW13660   1.206   3.226   2.595
 4254SOL    HW113661   1.302   3.253   2.591
 4254SOL    HW213662   1.155   3.269   2.521
 4255SOL     OW13663   6.852   4.541   4.000
 4255SOL    HW113664   6.871   4.490   3.917
 4255SOL    HW213665   6.881   4.636   3.988
 4256SOL     OW13666   1.461   6.223   1.071
 4256SOL    HW113667   1.404   6.280   1.131
 4256SOL    HW213668   1.418   6.218   0.981
 4257SOL     OW13669   3.468   0.725   4.036
 4257SOL    HW113670   3.375   0.749   4.008
 4257SOL    HW213671   3.484   0.756   4.129
 4258SOL     OW13672   3.399   5.812   1.238
 4258SOL    HW113673   3.449   5.887   1.281
 4258SOL    HW213674   3.462   5.760   1.180
 4259SOL     OW13675   1.573   0.453   0.911
 4259SOL    HW113676   1.634   0.420   0.840
 4259SOL    HW213677   1.539   0.376   0.965
 4260SOL     OW13678   5.877   0.367   2.623
 4260SOL    HW113679   5.823   0.391   2.703
 4260SOL    HW213680   5.913   0.274   2.632
 4261SOL     OW13681   1.980   1.100   2.579
 4261SOL    HW113682   2.048   1.126   2.648
 4261SOL    HW213683   1.940   1.182   2.540
 4262SOL     OW13684   0.654   3.864   6.925
 4262SOL    HW113685   0.563   3.889   6.957
 4262SOL    HW213686   0.664   3.764   6.928
 4263SOL     OW13687   2.655   0.652   2.955
 4263SOL    HW113688   2.650   0.669   3.053
 4263SOL    HW213689   2.685   0.736   2.908
 4264SOL     OW13690   6.118   1.978   4.510
 4264SOL    HW113691   6.124   1.907   4.440
 4264SOL    HW213692   6.133   2.067   4.468
 4265SOL     OW13693   4.034   0.793   0.395
 4265SOL    HW113694   3.972   0.763   0.323
 4265SOL    HW213695   4.119   0.739   0.391
 4266SOL     OW13696   1.491   6.452   6.376
 4266SOL    HW113697   1.497   6.501   6.289
 4266SOL    HW213698   1.425   6.377   6.367
 4267SOL     OW13699   2.142   3.778   3.696
 4267SOL    HW113700   2.144   3.712   3.770
 4267SOL    HW213701   2.113   3.733   3.611
 4268SOL     OW13702   1.442   5.901   6.522
 4268SOL    HW113703   1.435   5.967   6.597
 4268SOL    HW213704   1.361   5.908   6.464
 4269SOL     OW13705   3.067   0.293   2.516
 4269SOL    HW113706   2.978   0.316   2.554
 4269SOL    HW213707   3.062   0.206   2.468
 4270SOL     OW13708   4.095   3.672   2.995
 4270SOL    HW113709   4.067   3.739   2.926
 4270SOL    HW213710   4.113   3.584   2.951
 4271SOL     OW13711   6.285   1.150   6.833
 4271SOL    HW113712   6.239   1.219   6.890
 4271SOL    HW213713   6.217   1.108   6.772
 4272SOL     OW13714   6.947   1.642   4.699
 4272SOL    HW113715   0.017   1.604   4.684
 4272SOL    HW213716   6.878   1.578   4.665
 4273SOL     OW13717   3.899   6.901   5.235
 4273SOL    HW113718   3.950   6.987   5.226
 4273SOL    HW213719   3.914   6.862   5.325
 4274SOL     OW13720   1.376   0.514   1.272
 4274SOL    HW113721   1.311   0.485   1.201
 4274SOL    HW213722   1.392   0.612   1.265
 4275SOL     OW13723   6.592   1.849   4.533
 4275SOL    HW113724   6.672   1.870   4.478
 4275SOL    HW213725   6.510   1.853   4.475
 4276SOL     OW13726   2.657   5.267   3.692
 4276SOL    HW113727   2.666   5.306   3.783
 4276SOL    HW213728   2.723   5.311   3.630
 4277SOL     OW13729   6.301   4.717   3.486
 4277SOL    HW113730   6.311   4.680   3.393
 4277SOL    HW213731   6.278   4.643   3.549
 4278SOL     OW13732   0.352   6.685   4.767
 4278SOL    HW113733   0.287   6.646   4.833
 4278SOL    HW213734   0.357   6.625   4.688
 4279SOL     OW13735   3.270   0.933   3.451
 4279SOL    HW113736   3.285   0.867   3.377
 4279SOL    HW213737   3.351   0.936   3.509
 4280SOL     OW13738   5.540   6.999   5.855
 4280SOL    HW113739   5.634   6.969   5.873
 4280SOL    HW213740   5.517   0.054   5.914
 4281SOL     OW13741   6.723   4.606   3.020
 4281SOL    HW113742   6.746   4.632   2.926
 4281SOL    HW213743   6.753   4.677   3.083
 4282SOL     OW13744   3.598   4.705   0.206
 4282SOL    HW113745   3.569   4.766   0.132
 4282SOL    HW213746   3.585   4.610   0.178
 4283SOL     OW13747   1.981   0.647   3.341
 4283SOL    HW113748   2.000   0.745   3.351
 4283SOL    HW213749   1.895   0.635   3.292
 4284SOL     OW13750   3.606   3.742   1.476
 4284SOL    HW113751   3.676   3.675   1.452
 4284SOL    HW213752   3.604   3.815   1.407
 4285SOL     OW13753   1.976   0.635   5.778
 4285SOL    HW113754   1.965   0.685   5.692
 4285SOL    HW213755   1.973   0.699   5.854
 4286SOL     OW13756   5.548   6.548   6.001
 4286SOL    HW113757   5.637   6.592   6.007
 4286SOL    HW213758   5.501   6.579   5.918
 4287SOL     OW13759   5.450   0.389   6.022
 4287SOL    HW113760   5.378   0.394   5.952
 4287SOL    HW213761   5.529   0.342   5.984
 4288SOL     OW13762   0.439   5.771   2.636
 4288SOL    HW113763   0.441   5.696   2.702
 4288SOL    HW213764   0.345   5.789   2.608
 4289SOL     OW13765   6.742   3.320   6.587
 4289SOL    HW113766   6.669   3.330   6.520
 4289SOL    HW213767   6.704   3.313   6.679
 4290SOL     OW13768   1.512   6.741   4.076
 4290SOL    HW113769   1.564   6.655   4.082
 4290SOL    HW213770   1.575   6.818   4.069
 4291SOL     OW13771   4.596   3.975   0.381
 4291SOL    HW113772   4.525   4.026   0.430
 4291SOL    HW213773   4.601   3.882   0.418
 4292SOL     OW13774   6.076   2.911   0.176
 4292SOL    HW113775   6.084   2.870   0.267
 4292SOL    HW213776   6.160   2.893   0.124
 4293SOL     OW13777   2.810   3.124   6.854
 4293SOL    HW113778   2.772   3.058   6.789
 4293SOL    HW213779   2.847   3.202   6.804
 4294SOL     OW13780   2.220   1.415   6.325
 4294SOL    HW113781   2.251   1.454   6.412
 4294SOL    HW213782   2.269   1.330   6.307
 4295SOL     OW13783   3.579   6.068   5.023
 4295SOL    HW113784   3.561   6.115   4.936
 4295SOL    HW213785   3.510   6.094   5.090
 4296SOL     OW13786   3.452   6.579   0.598
 4296SOL    HW113787   3.434   6.593   0.696
 4296SOL    HW213788   3.430   6.663   0.548
 4297SOL     OW13789   5.633   0.376   1.023
 4297SOL    HW113790   5.551   0.320   1.015
 4297SOL    HW213791   5.683   0.376   0.937
 4298SOL     OW13792   4.408   5.424   0.893
 4298SOL    HW113793   4.329   5.424   0.954
 4298SOL    HW213794   4.386   5.372   0.810
 4299SOL     OW13795   1.639   3.302   6.659
 4299SOL    HW113796   1.594   3.261   6.579
 4299SOL    HW213797   1.725   3.254   6.677
 4300SOL     OW13798   3.068   6.782   0.298
 4300SOL    HW113799   3.059   6.746   0.391
 4300SOL    HW213800   3.146   6.845   0.295
 4301SOL     OW13801   4.803   0.207   1.264
 4301SOL    HW113802   4.881   0.153   1.298
 4301SOL    HW213803   4.749   0.239   1.341
 4302SOL     OW13804   0.217   0.079   5.877
 4302SOL    HW113805   0.157   0.075   5.797
 4302SOL    HW213806   0.163   0.102   5.958
 4303SOL     OW13807   7.011   4.770   4.005
 4303SOL    HW113808   6.982   4.866   4.008
 4303SOL    HW213809   0.086   4.763   4.029
 4304SOL     OW13810   3.355   2.891   2.678
 4304SOL    HW113811   3.397   2.911   2.590
 4304SOL    HW213812   3.426   2.868   2.745
 4305SOL     OW13813   0.836   6.683   5.802
 4305SOL    HW113814   0.810   6.748   5.873
 4305SOL    HW213815   0.838   6.591   5.842
 4306SOL     OW13816   4.317   5.051   4.857
 4306SOL    HW113817   4.400   5.037   4.912
 4306SOL    HW213818   4.289   4.964   4.816
 4307SOL     OW13819   6.017   3.843   6.107
 4307SOL    HW113820   6.018   3.937   6.140
 4307SOL    HW213821   6.105   3.799   6.126
 4308SOL     OW13822   6.044   4.861   1.401
 4308SOL    HW113823   5.979   4.869   1.476
 4308SOL    HW213824   6.017   4.923   1.327
 4309SOL     OW13825   1.111   1.316   0.788
 4309SOL    HW113826   1.157   1.322   0.699
 4309SOL    HW213827   1.152   1.381   0.851
 4310SOL     OW13828   1.779   2.601   2.034
 4310SOL    HW113829   1.774   2.551   2.120
 4310SOL    HW213830   1.832   2.549   1.968
 4311SOL     OW13831   1.455   6.479   2.689
 4311SOL    HW113832   1.554   6.495   2.687
 4311SOL    HW213833   1.411   6.533   2.617
 4312SOL     OW13834   1.177   6.271   2.036
 4312SOL    HW113835   1.134   6.225   2.114
 4312SOL    HW213836   1.127   6.250   1.952
 4313SOL     OW13837   4.839   1.858   0.855
 4313SOL    HW113838   4.765   1.800   0.888
 4313SOL    HW213839   4.897   1.807   0.792
 4314SOL     OW13840   5.822   1.169   4.413
 4314SOL    HW113841   5.860   1.144   4.324
 4314SOL    HW213842   5.740   1.115   4.431
 4315SOL     OW13843   1.989   0.186   3.095
 4315SOL    HW113844   1.952   0.276   3.120
 4315SOL    HW213845   1.915   0.129   3.059
 4316SOL     OW13846   5.041   1.118   1.749
 4316SOL    HW113847   5.080   1.159   1.667
 4316SOL    HW213848   5.041   1.185   1.823
 4317SOL     OW13849   5.304   2.316   5.592
 4317SOL    HW113850   5.294   2.243   5.660
 4317SOL    HW213851   5.250   2.294   5.511
 4318SOL     OW13852   0.300   2.370   4.834
 4318SOL    HW113853   0.396   2.350   4.855
 4318SOL    HW213854   0.264   2.301   4.771
 4319SOL     OW13855   2.000   1.336   0.360
 4319SOL    HW113856   1.961   1.405   0.421
 4319SOL    HW213857   2.085   1.301   0.398
 4320SOL     OW13858   4.237   4.997   0.928
 4320SOL    HW113859   4.188   5.047   0.857
 4320SOL    HW213860   4.215   5.037   1.017
 4321SOL     OW13861   0.514   5.368   5.249
 4321SOL    HW113862   0.504   5.424   5.331
 4321SOL    HW213863   0.469   5.280   5.264
 4322SOL     OW13864   6.320   2.856   0.054
 4322SOL    HW113865   6.326   2.801   6.992
 4322SOL    HW213866   6.398   2.919   0.057
 4323SOL     OW13867   4.657   3.749   0.082
 4323SOL    HW113868   4.593   3.717   0.012
 4323SOL    HW213869   4.613   3.748   0.171
 4324SOL     OW13870   6.082   4.477   6.425
 4324SOL    HW113871   6.042   4.420   6.497
 4324SOL    HW213872   6.181   4.480   6.435
 4325SOL     OW13873   2.764   1.491   1.610
 4325SOL    HW113874   2.779   1.590   1.612
 4325SOL    HW213875   2.704   1.467   1.534
 4326SOL     OW13876   4.585   4.357   2.897
 4326SOL    HW113877   4.533   4.412   2.832
 4326SOL    HW213878   4.621   4.417   2.969
 4327SOL     OW13879   5.617   6.122   1.769
 4327SOL    HW113880   5.641   6.158   1.859
 4327SOL    HW213881   5.681   6.049   1.744
 4328SOL     OW13882   4.344   4.425   5.959
 4328SOL    HW113883   4.378   4.422   5.866
 4328SOL    HW213884   4.421   4.422   6.023
 4329SOL     OW13885   4.634   2.307   5.516
 4329SOL    HW113886   4.677   2.216   5.522
 4329SOL    HW213887   4.705   2.377   5.509
 4330SOL     OW13888   1.662   6.207   4.655
 4330SOL    HW113889   1.696   6.140   4.720
 4330SOL    HW213890   1.571   6.180   4.624
 4331SOL     OW13891   6.576   1.568   1.878
 4331SOL    HW113892   6.502   1.502   1.863
 4331SOL    HW213893   6.555   1.653   1.830
 4332SOL     OW13894   5.058   2.605   2.648
 4332SOL    HW113895   5.141   2.656   2.669
 4332SOL    HW213896   4.987   2.668   2.616
 4333SOL     OW13897   4.492   0.761   5.594
 4333SOL    HW113898   4.409   0.744   5.541
 4333SOL    HW213899   4.470   0.816   5.674
 4334SOL     OW13900   1.522   2.037   2.497
 4334SOL    HW113901   1.603   2.065   2.445
 4334SOL    HW213902   1.497   1.943   2.472
 4335SOL     OW13903   3.140   4.047   2.358
 4335SOL    HW113904   3.083   4.115   2.311
 4335SOL    HW213905   3.112   3.955   2.330
 4336SOL     OW13906   3.371   6.766   6.203
 4336SOL    HW113907   3.304   6.776   6.130
 4336SOL    HW213908   3.332   6.800   6.289
 4337SOL     OW13909   1.056   4.345   0.646
 4337SOL    HW113910   0.979   4.376   0.701
 4337SOL    HW213911   1.074   4.411   0.573
 4338SOL     OW13912   6.524   6.531   6.383
 4338SOL    HW113913   6.459   6.547   6.458
 4338SOL    HW213914   6.525   6.434   6.361
 4339SOL     OW13915   4.378   3.195   5.574
 4339SOL    HW113916   4.416   3.114   5.529
 4339SOL    HW213917   4.440   3.227   5.645
 4340SOL     OW13918   6.410   3.126   1.317
 4340SOL    HW113919   6.409   3.210   1.372
 4340SOL    HW213920   6.367   3.144   1.229
 4341SOL     OW13921   0.797   5.447   1.816
 4341SOL    HW113922   0.704   5.469   1.786
 4341SOL    HW213923   0.822   5.506   1.893
 4342SOL     OW13924   4.854   3.751   3.063
 4342SOL    HW113925   4.874   3.654   3.072
 4342SOL    HW213926   4.764   3.763   3.019
 4343SOL     OW13927   3.216   6.500   4.766
 4343SOL    HW113928   3.173   6.411   4.782
 4343SOL    HW213929   3.147   6.567   4.741
 4344SOL     OW13930   0.388   4.260   2.179
 4344SOL    HW113931   0.393   4.161   2.193
 4344SOL    HW213932   0.305   4.282   2.127
 4345SOL     OW13933   3.257   4.426   5.702
 4345SOL    HW113934   3.276   4.400   5.607
 4345SOL    HW213935   3.310   4.368   5.764
 4346SOL     OW13936   1.789   3.791   3.083
 4346SOL    HW113937   1.754   3.772   3.175
 4346SOL    HW213938   1.795   3.706   3.031
 4347SOL     OW13939   5.885   0.173   2.183
 4347SOL    HW113940   5.828   0.123   2.118
 4347SOL    HW213941   5.826   0.219   2.250
 4348SOL     OW13942   0.200   5.349   3.618
 4348SOL    HW113943   0.230   5.371   3.525
 4348SOL    HW213944   0.280   5.339   3.677
 4349SOL     OW13945   5.992   2.352   3.208
 4349SOL    HW113946   6.036   2.412   3.142
 4349SOL    HW213947   5.905   2.320   3.171
 4350SOL     OW13948   3.462   1.764   3.812
 4350SOL    HW113949   3.520   1.736   3.888
 4350SOL    HW213950   3.427   1.856   3.828
 4351SOL     OW13951   1.376   6.029   1.336
 4351SOL    HW113952   1.354   6.046   1.432
 4351SOL    HW213953   1.396   6.116   1.291
 4352SOL     OW13954   6.131   3.931   2.497
 4352SOL    HW113955   6.206   3.907   2.435
 4352SOL    HW213956   6.044   3.905   2.455
 4353SOL     OW13957   4.085   2.652   6.485
 4353SOL    HW113958   4.009   2.689   6.431
 4353SOL    HW213959   4.140   2.591   6.428
 4354SOL     OW13960   1.767   1.036   5.906
 4354SOL    HW113961   1.746   0.986   5.990
 4354SOL    HW213962   1.750   0.977   5.827
 4355SOL     OW13963   2.445   0.508   2.520
 4355SOL    HW113964   2.496   0.539   2.440
 4355SOL    HW213965   2.356   0.472   2.491
 4356SOL     OW13966   5.305   3.605   6.733
 4356SOL    HW113967   5.266   3.626   6.823
 4356SOL    HW213968   5.266   3.666   6.664
 4357SOL     OW13969   6.856   0.860   1.324
 4357SOL    HW113970   6.885   0.782   1.268
 4357SOL    HW213971   6.764   0.842   1.361
 4358SOL     OW13972   6.884   0.733   0.984
 4358SOL    HW113973   6.856   0.707   0.891
 4358SOL    HW213974   6.857   0.827   1.002
 4359SOL     OW13975   1.063   1.621   6.219
 4359SOL    HW113976   0.965   1.639   6.210
 4359SOL    HW213977   1.108   1.631   6.130
 4360SOL     OW13978   0.595   3.739   3.754
 4360SOL    HW113979   0.569   3.832   3.730
 4360SOL    HW213980   0.691   3.724   3.731
 4361SOL     OW13981   1.966   3.607   1.898
 4361SOL    HW113982   2.053   3.570   1.930
 4361SOL    HW213983   1.983   3.666   1.819
 4362SOL     OW13984   6.840   5.117   3.578
 4362SOL    HW113985   6.773   5.064   3.526
 4362SOL    HW213986   6.891   5.176   3.516
 4363SOL     OW13987   5.343   2.298   0.839
 4363SOL    HW113988   5.423   2.238   0.841
 4363SOL    HW213989   5.263   2.246   0.807
 4364SOL     OW13990   3.154   3.952   3.587
 4364SOL    HW113991   3.065   3.924   3.622
 4364SOL    HW213992   3.226   3.920   3.649
 4365SOL     OW13993   2.918   0.734   1.629
 4365SOL    HW113994   3.007   0.689   1.618
 4365SOL    HW213995   2.859   0.677   1.686
 4366SOL     OW13996   6.669   6.961   6.894
 4366SOL    HW113997   6.655   7.014   6.810
 4366SOL    HW213998   6.762   6.975   6.928
 4367SOL     OW13999   2.735   4.764   4.096
 4367SOL    HW114000   2.831   4.760   4.067
 4367SOL    HW214001   2.689   4.679   4.071
 4368SOL     OW14002   4.056   6.029   1.414
 4368SOL    HW114003   4.016   5.958   1.472
 4368SOL    HW214004   4.055   6.116   1.463
 4369SOL     OW14005   4.636   4.841   3.037
 4369SOL    HW114006   4.588   4.920   3.074
 4369SOL    HW214007   4.630   4.842   2.937
 4370SOL     OW14008   3.695   4.626   1.648
 4370SOL    HW114009   3.643   4.650   1.566
 4370SOL    HW214010   3.648   4.662   1.729
 4371SOL     OW14011   1.783   2.056   2.031
 4371SOL    HW114012   1.823   2.006   1.955
 4371SOL    HW214013   1.766   2.151   2.004
 4372SOL     OW14014   2.749   2.149   4.072
 4372SOL    HW114015   2.805   2.219   4.117
 4372SOL    HW214016   2.654   2.181   4.067
 4373SOL     OW14017   5.245   1.616   6.777
 4373SOL    HW114018   5.213   1.709   6.796
 4373SOL    HW214019   5.320   1.620   6.710
 4374SOL     OW14020   1.067   1.816   1.215
 4374SOL    HW114021   1.111   1.727   1.225
 4374SOL    HW214022   1.056   1.838   1.118
 4375SOL     OW14023   4.149   6.445   3.188
 4375SOL    HW114024   4.122   6.352   3.212
 4375SOL    HW214025   4.100   6.510   3.246
 4376SOL     OW14026   6.317   0.366   2.690
 4376SOL    HW114027   6.398   0.413   2.655
 4376SOL    HW214028   6.343   0.307   2.767
 4377SOL     OW14029   5.574   5.751   6.590
 4377SOL    HW114030   5.519   5.667   6.593
 4377SOL    HW214031   5.620   5.764   6.678
 4378SOL     OW14032   2.025   2.514   2.568
 4378SOL    HW114033   1.933   2.497   2.603
 4378SOL    HW214034   2.041   2.457   2.487
 4379SOL     OW14035   2.404   2.172   2.514
 4379SOL    HW114036   2.394   2.248   2.449
 4379SOL    HW214037   2.444   2.207   2.599
 4380SOL     OW14038   1.190   6.361   3.353
 4380SOL    HW114039   1.225   6.449   3.385
 4380SOL    HW214040   1.092   6.356   3.373
 4381SOL     OW14041   2.251   3.874   5.347
 4381SOL    HW114042   2.314   3.927   5.289
 4381SOL    HW214043   2.199   3.810   5.290
 4382SOL     OW14044   6.036   3.654   6.438
 4382SOL    HW114045   5.944   3.691   6.451
 4382SOL    HW214046   6.100   3.698   6.501
 4383SOL     OW14047   0.745   2.510   5.865
 4383SOL    HW114048   0.829   2.556   5.895
 4383SOL    HW214049   0.767   2.452   5.786
 4384SOL     OW14050   5.587   1.574   6.126
 4384SOL    HW114051   5.547   1.665   6.111
 4384SOL    HW214052   5.597   1.527   6.038
 4385SOL     OW14053   6.191   2.811   5.138
 4385SOL    HW114054   6.163   2.899   5.100
 4385SOL    HW214055   6.111   2.764   5.175
 4386SOL     OW14056   2.148   3.617   7.012
 4386SOL    HW114057   2.130   3.529   6.967
 4386SOL    HW214058   2.221   3.606   0.057
 4387SOL     OW14059   0.019   1.058   1.912
 4387SOL    HW114060   0.042   1.102   2.000
 4387SOL    HW214061   0.016   0.959   1.924
 4388SOL     OW14062   5.345   1.886   6.469
 4388SOL    HW114063   5.279   1.915   6.539
 4388SOL    HW214064   5.396   1.807   6.503
 4389SOL     OW14065   0.104   3.828   0.761
 4389SOL    HW114066   0.168   3.886   0.811
 4389SOL    HW214067   0.010   3.851   0.788
 4390SOL     OW14068   3.614   1.107   1.815
 4390SOL    HW114069   3.621   1.040   1.889
 4390SOL    HW214070   3.604   1.199   1.855
 4391SOL     OW14071   1.372   5.618   6.540
 4391SOL    HW114072   1.352   5.573   6.453
 4391SOL    HW214073   1.375   5.717   6.526
 4392SOL     OW14074   6.775   3.025   6.490
 4392SOL    HW114075   6.695   2.976   6.457
 4392SOL    HW214076   6.746   3.108   6.537
 4393SOL     OW14077   6.299   0.243   2.444
 4393SOL    HW114078   6.222   0.188   2.414
 4393SOL    HW214079   6.286   0.271   2.539
 4394SOL     OW14080   5.620   5.778   2.650
 4394SOL    HW114081   5.598   5.696   2.597
 4394SOL    HW214082   5.567   5.855   2.616
 4395SOL     OW14083   3.342   0.426   1.655
 4395SOL    HW114084   3.410   0.367   1.697
 4395SOL    HW214085   3.360   0.432   1.557
 4396SOL     OW14086   2.163   2.398   4.371
 4396SOL    HW114087   2.134   2.373   4.279
 4396SOL    HW214088   2.102   2.357   4.439
 4397SOL     OW14089   0.454   1.119   4.561
 4397SOL    HW114090   0.490   1.038   4.515
 4397SOL    HW214091   0.527   1.188   4.569
 4398SOL     OW14092   0.368   4.512   5.093
 4398SOL    HW114093   0.350   4.523   4.995
 4398SOL    HW214094   0.387   4.602   5.133
 4399SOL     OW14095   2.008   1.118   1.460
 4399SOL    HW114096   2.037   1.143   1.368
 4399SOL    HW214097   1.951   1.191   1.499
 4400SOL     OW14098   3.623   6.492   5.959
 4400SOL    HW114099   3.618   6.392   5.963
 4400SOL    HW214100   3.594   6.524   5.869
 4401SOL     OW14101   4.887   6.719   6.750
 4401SOL    HW114102   4.875   6.812   6.716
 4401SOL    HW214103   4.919   6.661   6.675
 4402SOL     OW14104   2.788   0.116   0.964
 4402SOL    HW114105   2.693   0.087   0.975
 4402SOL    HW214106   2.823   0.147   1.052
 4403SOL     OW14107   0.881   0.473   3.583
 4403SOL    HW114108   0.959   0.484   3.645
 4403SOL    HW214109   0.809   0.422   3.629
 4404SOL     OW14110   0.512   4.134   5.790
 4404SOL    HW114111   0.577   4.208   5.808
 4404SOL    HW214112   0.431   4.171   5.745
 4405SOL     OW14113   1.287   4.519   1.613
 4405SOL    HW114114   1.266   4.439   1.556
 4405SOL    HW214115   1.232   4.597   1.582
 4406SOL     OW14116   6.866   3.808   0.450
 4406SOL    HW114117   6.964   3.795   0.434
 4406SOL    HW214118   6.843   3.904   0.439
 4407SOL     OW14119   6.805   4.732   0.976
 4407SOL    HW114120   6.821   4.719   0.878
 4407SOL    HW214121   6.804   4.830   0.997
 4408SOL     OW14122   3.114   1.343   1.406
 4408SOL    HW114123   3.027   1.336   1.358
 4408SOL    HW214124   3.182   1.286   1.361
 4409SOL     OW14125   4.909   0.026   2.229
 4409SOL    HW114126   4.908   6.955   2.265
 4409SOL    HW214127   4.836   0.079   2.270
 4410SOL     OW14128   1.115   5.859   6.645
 4410SOL    HW114129   1.027   5.887   6.684
 4410SOL    HW214130   1.164   5.803   6.711
 4411SOL     OW14131   3.277   4.101   3.887
 4411SOL    HW114132   3.294   4.136   3.795
 4411SOL    HW214133   3.186   4.057   3.889
 4412SOL     OW14134   4.122   6.430   4.814
 4412SOL    HW114135   4.202   6.374   4.838
 4412SOL    HW214136   4.048   6.413   4.879
 4413SOL     OW14137   5.709   5.614   5.097
 4413SOL    HW114138   5.689   5.600   5.194
 4413SOL    HW214139   5.704   5.526   5.050
 4414SOL     OW14140   3.588   4.095   1.604
 4414SOL    HW114141   3.651   4.169   1.582
 4414SOL    HW214142   3.534   4.073   1.523
 4415SOL     OW14143   3.881   3.151   0.170
 4415SOL    HW114144   3.950   3.154   0.098
 4415SOL    HW214145   3.824   3.070   0.158
 4416SOL     OW14146   1.950   0.533   4.317
 4416SOL    HW114147   1.917   0.562   4.227
 4416SOL    HW214148   2.008   0.452   4.307
 4417SOL     OW14149   6.011   4.289   3.314
 4417SOL    HW114150   5.993   4.334   3.226
 4417SOL    HW214151   6.048   4.356   3.378
 4418SOL     OW14152   5.876   1.679   2.407
 4418SOL    HW114153   5.826   1.723   2.332
 4418SOL    HW214154   5.931   1.604   2.371
 4419SOL     OW14155   6.081   5.751   6.950
 4419SOL    HW114156   6.103   5.655   6.939
 4419SOL    HW214157   6.033   5.765   0.015
 4420SOL     OW14158   5.260   1.134   1.923
 4420SOL    HW114159   5.246   1.059   1.987
 4420SOL    HW214160   5.206   1.118   1.840
 4421SOL     OW14161   1.805   0.671   5.265
 4421SOL    HW114162   1.845   0.613   5.194
 4421SOL    HW214163   1.721   0.630   5.299
 4422SOL     OW14164   3.240   4.572   6.238
 4422SOL    HW114165   3.319   4.556   6.179
 4422SOL    HW214166   3.263   4.546   6.332
 4423SOL     OW14167   1.578   2.908   5.735
 4423SOL    HW114168   1.497   2.886   5.790
 4423SOL    HW214169   1.577   2.854   5.651
 4424SOL     OW14170   5.070   0.788   4.083
 4424SOL    HW114171   5.015   0.778   4.166
 4424SOL    HW214172   5.140   0.716   4.081
 4425SOL     OW14173   3.424   5.113   0.396
 4425SOL    HW114174   3.518   5.138   0.374
 4425SOL    HW214175   3.387   5.179   0.462
 4426SOL     OW14176   0.297   0.792   4.635
 4426SOL    HW114177   0.292   0.763   4.540
 4426SOL    HW214178   0.302   0.892   4.640
 4427SOL     OW14179   0.393   6.224   2.443
 4427SOL    HW114180   0.376   6.216   2.345
 4427SOL    HW214181   0.491   6.236   2.459
 4428SOL     OW14182   2.845   6.944   2.184
 4428SOL    HW114183   2.764   6.919   2.237
 4428SOL    HW214184   2.825   0.004   2.129
 4429SOL     OW14185   3.034   0.055   2.409
 4429SOL    HW114186   3.011   7.016   2.333
 4429SOL    HW214187   3.013   0.010   2.496
 4430SOL     OW14188   5.091   3.575   4.686
 4430SOL    HW114189   5.146   3.601   4.765
 4430SOL    HW214190   5.059   3.480   4.698
 4431SOL     OW14191   2.192   0.894   2.429
 4431SOL    HW114192   2.098   0.872   2.456
 4431SOL    HW214193   2.218   0.837   2.351
 4432SOL     OW14194   3.373   3.881   4.940
 4432SOL    HW114195   3.287   3.832   4.948
 4432SOL    HW214196   3.442   3.821   4.898
 4433SOL     OW14197   4.510   1.049   4.664
 4433SOL    HW114198   4.597   1.020   4.706
 4433SOL    HW214199   4.529   1.113   4.590
 4434SOL     OW14200   4.572   1.948   4.437
 4434SOL    HW114201   4.666   1.923   4.461
 4434SOL    HW214202   4.573   2.011   4.359
 4435SOL     OW14203   4.432   3.019   1.382
 4435SOL    HW114204   4.460   3.110   1.354
 4435SOL    HW214205   4.421   3.016   1.481
 4436SOL     OW14206   4.439   1.034   1.014
 4436SOL    HW114207   4.508   1.026   0.942
 4436SOL    HW214208   4.367   1.097   0.985
 4437SOL     OW14209   5.897   1.843   2.970
 4437SOL    HW114210   5.891   1.933   2.927
 4437SOL    HW214211   5.967   1.845   3.041
 4438SOL     OW14212   5.111   0.298   0.026
 4438SOL    HW114213   5.170   0.346   6.984
 4438SOL    HW214214   5.152   0.301   0.118
 4439SOL     OW14215   0.258   5.388   1.941
 4439SOL    HW114216   0.243   5.475   1.989
 4439SOL    HW214217   0.335   5.340   1.983
 4440SOL     OW14218   1.969   5.631   0.505
 4440SOL    HW114219   1.886   5.679   0.536
 4440SOL    HW214220   1.955   5.532   0.510
 4441SOL     OW14221   6.868   1.935   2.972
 4441SOL    HW114222   6.831   1.985   3.050
 4441SOL    HW214223   6.792   1.903   2.915
 4442SOL     OW14224   2.831   5.738   4.661
 4442SOL    HW114225   2.797   5.812   4.720
 4442SOL    HW214226   2.755   5.698   4.611
 4443SOL     OW14227   0.163   2.737   0.563
 4443SOL    HW114228   0.120   2.742   0.473
 4443SOL    HW214229   0.137   2.816   0.618
 4444SOL     OW14230   2.940   5.117   6.246
 4444SOL    HW114231   3.038   5.137   6.250
 4444SOL    HW214232   2.909   5.124   6.152
 4445SOL     OW14233   0.390   0.434   0.984
 4445SOL    HW114234   0.295   0.422   1.015
 4445SOL    HW214235   0.443   0.477   1.057
 4446SOL     OW14236   6.004   1.252   2.353
 4446SOL    HW114237   6.001   1.210   2.262
 4446SOL    HW214238   6.013   1.181   2.423
 4447SOL     OW14239   5.245   3.486   6.203
 4447SOL    HW114240   5.269   3.429   6.281
 4447SOL    HW214241   5.201   3.431   6.133
 4448SOL     OW14242   2.800   3.960   1.045
 4448SOL    HW114243   2.886   3.917   1.072
 4448SOL    HW214244   2.734   3.889   1.022
 4449SOL     OW14245   5.299   0.362   5.792
 4449SOL    HW114246   5.328   0.301   5.719
 4449SOL    HW214247   5.273   0.450   5.753
 4450SOL     OW14248   3.672   3.004   4.298
 4450SOL    HW114249   3.727   2.978   4.377
 4450SOL    HW214250   3.690   3.100   4.274
 4451SOL     OW14251   5.827   4.419   3.937
 4451SOL    HW114252   5.920   4.431   3.904
 4451SOL    HW214253   5.815   4.469   4.023
 4452SOL     OW14254   5.468   6.116   4.466
 4452SOL    HW114255   5.425   6.189   4.520
 4452SOL    HW214256   5.399   6.048   4.441
 4453SOL     OW14257   0.502   2.423   1.908
 4453SOL    HW114258   0.477   2.427   2.005
 4453SOL    HW214259   0.540   2.333   1.887
 4454SOL     OW14260   1.207   2.106   6.938
 4454SOL    HW114261   1.213   2.122   6.839
 4454SOL    HW214262   1.153   2.024   6.955
 4455SOL     OW14263   4.070   5.955   6.254
 4455SOL    HW114264   4.089   5.872   6.202
 4455SOL    HW214265   4.089   6.035   6.198
 4456SOL     OW14266   3.584   6.025   2.109
 4456SOL    HW114267   3.525   5.952   2.145
 4456SOL    HW214268   3.547   6.114   2.138
 4457SOL     OW14269   4.961   1.911   1.546
 4457SOL    HW114270   4.946   1.873   1.454
 4457SOL    HW214271   5.049   1.958   1.549
 4458SOL     OW14272   1.249   2.959   6.327
 4458SOL    HW114273   1.207   2.945   6.238
 4458SOL    HW214274   1.264   3.057   6.342
 4459SOL     OW14275   3.714   0.191   4.776
 4459SOL    HW114276   3.780   0.172   4.848
 4459SOL    HW214277   3.718   0.119   4.706
 4460SOL     OW14278   3.113   2.668   5.583
 4460SOL    HW114279   3.020   2.692   5.610
 4460SOL    HW214280   3.111   2.610   5.502
 4461SOL     OW14281   1.621   1.192   1.625
 4461SOL    HW114282   1.592   1.108   1.669
 4461SOL    HW214283   1.542   1.252   1.612
 4462SOL     OW14284   6.035   4.678   2.127
 4462SOL    HW114285   6.063   4.731   2.207
 4462SOL    HW214286   5.937   4.693   2.110
 4463SOL     OW14287   5.732   1.898   6.013
 4463SOL    HW114288   5.718   1.986   6.059
 4463SOL    HW214289   5.643   1.852   6.003
 4464SOL     OW14290   6.475   4.938   1.006
 4464SOL    HW114291   6.414   4.862   1.028
 4464SOL    HW214292   6.546   4.945   1.076
 4465SOL     OW14293   2.803   5.387   1.087
 4465SOL    HW114294   2.713   5.363   1.124
 4465SOL    HW214295   2.811   5.352   0.994
 4466SOL     OW14296   1.924   2.033   3.110
 4466SOL    HW114297   2.015   2.039   3.150
 4466SOL    HW214298   1.863   2.097   3.157
 4467SOL     OW14299   1.990   6.876   2.638
 4467SOL    HW114300   1.894   6.898   2.652
 4467SOL    HW214301   2.041   6.890   2.722
 4468SOL     OW14302   2.127   2.995   1.181
 4468SOL    HW114303   2.094   2.900   1.175
 4468SOL    HW214304   2.207   2.999   1.241
 4469SOL     OW14305   4.362   0.623   1.526
 4469SOL    HW114306   4.376   0.608   1.428
 4469SOL    HW214307   4.314   0.709   1.541
 4470SOL     OW14308   5.974   2.270   2.496
 4470SOL    HW114309   5.995   2.312   2.585
 4470SOL    HW214310   5.952   2.341   2.430
 4471SOL     OW14311   0.487   1.737   6.846
 4471SOL    HW114312   0.545   1.771   6.921
 4471SOL    HW214313   0.482   1.637   6.852
 4472SOL     OW14314   1.187   2.873   3.526
 4472SOL    HW114315   1.241   2.803   3.572
 4472SOL    HW214316   1.170   2.949   3.589
 4473SOL     OW14317   6.813   2.368   4.901
 4473SOL    HW114318   6.845   2.308   4.827
 4473SOL    HW214319   6.764   2.446   4.862
 4474SOL     OW14320   2.864   1.167   1.349
 4474SOL    HW114321   2.901   1.153   1.257
 4474SOL    HW214322   2.902   1.099   1.412
 4475SOL     OW14323   1.375   4.128   2.851
 4475SOL    HW114324   1.421   4.216   2.862
 4475SOL    HW214325   1.389   4.072   2.933
 4476SOL     OW14326   3.569   6.883   3.695
 4476SOL    HW114327   3.535   6.920   3.608
 4476SOL    HW214328   3.527   6.933   3.770
 4477SOL     OW14329   1.581   6.847   5.024
 4477SOL    HW114330   1.519   6.848   4.946
 4477SOL    HW214331   1.669   6.885   4.998
 4478SOL     OW14332   3.894   0.080   2.713
 4478SOL    HW114333   3.813   0.117   2.668
 4478SOL    HW214334   3.906   7.006   2.687
 4479SOL     OW14335   1.200   0.691   1.441
 4479SOL    HW114336   1.163   0.770   1.490
 4479SOL    HW214337   1.260   0.639   1.502
 4480SOL     OW14338   2.163   3.966   5.985
 4480SOL    HW114339   2.067   3.979   6.009
 4480SOL    HW214340   2.173   3.884   5.929
 4481SOL     OW14341   2.630   6.232   5.402
 4481SOL    HW114342   2.705   6.172   5.373
 4481SOL    HW214343   2.575   6.257   5.323
 4482SOL     OW14344   0.930   4.392   4.320
 4482SOL    HW114345   1.000   4.437   4.265
 4482SOL    HW214346   0.956   4.296   4.335
 4483SOL     OW14347   5.228   3.128   1.551
 4483SOL    HW114348   5.295   3.175   1.609
 4483SOL    HW214349   5.140   3.174   1.558
 4484SOL     OW14350   3.028   3.004   6.125
 4484SOL    HW114351   3.028   3.058   6.209
 4484SOL    HW214352   2.989   2.914   6.143
 4485SOL     OW14353   5.348   1.629   5.025
 4485SOL    HW114354   5.319   1.678   5.108
 4485SOL    HW214355   5.351   1.693   4.948
 4486SOL     OW14356   5.222   4.742   4.859
 4486SOL    HW114357   5.253   4.648   4.873
 4486SOL    HW214358   5.172   4.747   4.772
 4487SOL     OW14359   2.260   3.006   6.229
 4487SOL    HW114360   2.283   3.061   6.310
 4487SOL    HW214361   2.342   2.992   6.174
 4488SOL     OW14362   6.515   2.941   6.406
 4488SOL    HW114363   6.415   2.947   6.406
 4488SOL    HW214364   6.545   2.878   6.478
 4489SOL     OW14365   6.134   6.038   3.954
 4489SOL    HW114366   6.129   5.958   4.014
 4489SOL    HW214367   6.141   6.009   3.859
 4490SOL     OW14368   6.125   2.746   3.291
 4490SOL    HW114369   6.208   2.801   3.274
 4490SOL    HW214370   6.052   2.806   3.323
 4491SOL     OW14371   6.732   2.052   4.789
 4491SOL    HW114372   6.823   2.032   4.753
 4491SOL    HW214373   6.664   2.038   4.717
 4492SOL     OW14374   5.611   4.040   1.733
 4492SOL    HW114375   5.602   4.140   1.740
 4492SOL    HW214376   5.703   4.012   1.759
 4493SOL     OW14377   4.478   5.779   5.238
 4493SOL    HW114378   4.571   5.816   5.239
 4493SOL    HW214379   4.413   5.853   5.220
 4494SOL     OW14380   6.750   1.111   5.806
 4494SOL    HW114381   6.841   1.143   5.834
 4494SOL    HW214382   6.693   1.098   5.887
 4495SOL     OW14383   3.974   6.497   4.196
 4495SOL    HW114384   3.959   6.449   4.283
 4495SOL    HW214385   3.941   6.591   4.203
 4496SOL     OW14386   5.539   5.689   1.308
 4496SOL    HW114387   5.464   5.753   1.322
 4496SOL    HW214388   5.554   5.637   1.392
 4497SOL     OW14389   4.416   1.281   6.716
 4497SOL    HW114390   4.461   1.192   6.719
 4497SOL    HW214391   4.320   1.270   6.690
 4498SOL     OW14392   6.691   3.503   0.459
 4498SOL    HW114393   6.753   3.529   0.533
 4498SOL    HW214394   6.604   3.473   0.498
 4499SOL     OW14395   6.478   3.617   4.577
 4499SOL    HW114396   6.442   3.538   4.628
 4499SOL    HW214397   6.574   3.629   4.599
 4500SOL     OW14398   3.332   3.323   3.774
 4500SOL    HW114399   3.398   3.289   3.707
 4500SOL    HW214400   3.369   3.311   3.866
 4501SOL     OW14401   0.192   3.509   4.475
 4501SOL    HW114402   0.225   3.433   4.419
 4501SOL    HW214403   0.268   3.571   4.495
 4502SOL     OW14404   0.785   2.993   6.917
 4502SOL    HW114405   0.872   3.001   6.868
 4502SOL    HW214406   0.713   2.964   6.854
 4503SOL     OW14407   3.064   6.713   1.868
 4503SOL    HW114408   3.053   6.812   1.872
 4503SOL    HW214409   3.086   6.686   1.774
 4504SOL     OW14410   6.564   0.503   4.419
 4504SOL    HW114411   6.647   0.556   4.435
 4504SOL    HW214412   6.566   0.464   4.327
 4505SOL     OW14413   5.659   5.294   2.027
 4505SOL    HW114414   5.664   5.195   2.019
 4505SOL    HW214415   5.750   5.333   2.017
 4506SOL     OW14416   4.197   2.302   3.591
 4506SOL    HW114417   4.119   2.239   3.589
 4506SOL    HW214418   4.197   2.358   3.508
 4507SOL     OW14419   5.479   4.998   2.122
 4507SOL    HW114420   5.517   5.052   2.197
 4507SOL    HW214421   5.449   4.909   2.157
 4508SOL     OW14422   0.669   4.638   6.660
 4508SOL    HW114423   0.622   4.652   6.573
 4508SOL    HW214424   0.722   4.719   6.684
 4509SOL     OW14425   4.745   2.079   2.787
 4509SOL    HW114426   4.672   2.147   2.800
 4509SOL    HW214427   4.796   2.069   2.872
 4510SOL     OW14428   4.365   0.999   4.288
 4510SOL    HW114429   4.349   1.059   4.209
 4510SOL    HW214430   4.323   0.910   4.271
 4511SOL     OW14431   6.987   3.200   0.220
 4511SOL    HW114432   6.930   3.163   0.293
 4511SOL    HW214433   0.056   3.158   0.224
 4512SOL     OW14434   2.933   0.633   5.178
 4512SOL    HW114435   2.945   0.565   5.106
 4512SOL    HW214436   2.912   0.722   5.138
 4513SOL     OW14437   6.060   4.854   0.418
 4513SOL    HW114438   6.098   4.778   0.366
 4513SOL    HW214439   6.126   4.929   0.421
 4514SOL     OW14440   4.166   1.255   6.614
 4514SOL    HW114441   4.092   1.193   6.639
 4514SOL    HW214442   4.162   1.274   6.515
 4515SOL     OW14443   6.869   1.675   5.950
 4515SOL    HW114444   6.916   1.754   5.910
 4515SOL    HW214445   6.801   1.707   6.017
 4516SOL     OW14446   1.997   0.189   6.996
 4516SOL    HW114447   1.934   0.254   0.017
 4516SOL    HW214448   2.052   0.236   6.928
 4517SOL     OW14449   4.155   0.654   6.758
 4517SOL    HW114450   4.137   0.751   6.769
 4517SOL    HW214451   4.244   0.641   6.715
 4518SOL     OW14452   6.988   0.453   2.538
 4518SOL    HW114453   6.916   0.385   2.550
 4518SOL    HW214454   0.022   0.458   2.621
 4519SOL     OW14455   6.610   0.748   1.418
 4519SOL    HW114456   6.564   0.725   1.332
 4519SOL    HW214457   6.543   0.777   1.486
 4520SOL     OW14458   4.573   6.491   4.801
 4520SOL    HW114459   4.489   6.462   4.849
 4520SOL    HW214460   4.614   6.413   4.756
 4521SOL     OW14461   6.184   1.793   4.281
 4521SOL    HW114462   6.122   1.723   4.246
 4521SOL    HW214463   6.278   1.760   4.274
 4522SOL     OW14464   6.387   6.694   3.241
 4522SOL    HW114465   6.349   6.606   3.270
 4522SOL    HW214466   6.315   6.763   3.240
 4523SOL     OW14467   0.600   4.101   0.471
 4523SOL    HW114468   0.505   4.130   0.476
 4523SOL    HW214469   0.629   4.063   0.559
 4524SOL     OW14470   6.107   2.363   3.697
 4524SOL    HW114471   6.203   2.350   3.723
 4524SOL    HW214472   6.102   2.411   3.610
 4525SOL     OW14473   5.101   1.335   4.359
 4525SOL    HW114474   5.027   1.269   4.344
 4525SOL    HW214475   5.123   1.340   4.456
 4526SOL     OW14476   6.647   0.524   1.234
 4526SOL    HW114477   6.570   0.569   1.190
 4526SOL    HW214478   6.613   0.462   1.306
 4527SOL     OW14479   5.291   0.922   3.520
 4527SOL    HW114480   5.202   0.898   3.482
 4527SOL    HW214481   5.288   0.917   3.620
 4528SOL     OW14482   4.807   0.299   0.029
 4528SOL    HW114483   4.907   0.294   0.032
 4528SOL    HW214484   4.769   0.264   0.115
 4529SOL     OW14485   3.197   0.858   5.595
 4529SOL    HW114486   3.274   0.808   5.556
 4529SOL    HW214487   3.145   0.902   5.522
 4530SOL     OW14488   1.978   4.151   6.183
 4530SOL    HW114489   2.019   4.084   6.245
 4530SOL    HW214490   1.906   4.107   6.129
 4531SOL     OW14491   0.453   3.594   4.580
 4531SOL    HW114492   0.525   3.526   4.567
 4531SOL    HW214493   0.413   3.583   4.671
 4532SOL     OW14494   5.995   2.122   3.598
 4532SOL    HW114495   5.998   2.213   3.639
 4532SOL    HW214496   6.033   2.055   3.662
 4533SOL     OW14497   1.306   1.221   1.856
 4533SOL    HW114498   1.223   1.164   1.857
 4533SOL    HW214499   1.322   1.255   1.764
 4534SOL     OW14500   4.857   3.993   4.483
 4534SOL    HW114501   4.775   4.046   4.464
 4534SOL    HW214502   4.841   3.933   4.561
 4535SOL     OW14503   4.394   1.079   2.547
 4535SOL    HW114504   4.334   1.021   2.491
 4535SOL    HW214505   4.432   1.152   2.491
 4536SOL     OW14506   4.030   1.118   3.665
 4536SOL    HW114507   4.092   1.197   3.660
 4536SOL    HW214508   4.071   1.041   3.615
 4537SOL     OW14509   4.068   3.466   6.297
 4537SOL    HW114510   3.990   3.515   6.259
 4537SOL    HW214511   4.095   3.392   6.236
 4538SOL     OW14512   2.070   0.267   4.307
 4538SOL    HW114513   2.161   0.257   4.349
 4538SOL    HW214514   2.040   0.178   4.274
 4539SOL     OW14515   2.437   0.397   4.785
 4539SOL    HW114516   2.467   0.316   4.734
 4539SOL    HW214517   2.462   0.386   4.881
 4540SOL     OW14518   3.333   2.165   5.491
 4540SOL    HW114519   3.355   2.216   5.408
 4540SOL    HW214520   3.246   2.198   5.528
 4541SOL     OW14521   6.235   2.014   0.824
 4541SOL    HW114522   6.250   1.925   0.866
 4541SOL    HW214523   6.141   2.043   0.839
 4542SOL     OW14524   6.955   1.420   2.460
 4542SOL    HW114525   6.858   1.445   2.462
 4542SOL    HW214526   6.964   1.322   2.445
 4543SOL     OW14527   5.062   2.181   1.334
 4543SOL    HW114528   4.967   2.211   1.349
 4543SOL    HW214529   5.085   2.112   1.402
 4544SOL     OW14530   2.978   6.326   6.052
 4544SOL    HW114531   2.914   6.304   6.126
 4544SOL    HW214532   3.066   6.355   6.091
 4545SOL     OW14533   5.263   3.624   4.919
 4545SOL    HW114534   5.281   3.665   5.009
 4545SOL    HW214535   5.312   3.537   4.912
 4546SOL     OW14536   1.414   1.166   6.104
 4546SOL    HW114537   1.392   1.213   6.018
 4546SOL    HW214538   1.388   1.224   6.181
 4547SOL     OW14539   5.482   2.506   3.182
 4547SOL    HW114540   5.477   2.430   3.246
 4547SOL    HW214541   5.469   2.472   3.088
 4548SOL     OW14542   0.946   4.095   4.267
 4548SOL    HW114543   0.859   4.108   4.219
 4548SOL    HW214544   1.021   4.126   4.208
 4549SOL     OW14545   6.277   4.555   1.597
 4549SOL    HW114546   6.367   4.556   1.642
 4549SOL    HW214547   6.263   4.468   1.551
 4550SOL     OW14548   1.100   5.633   3.149
 4550SOL    HW114549   1.137   5.708   3.203
 4550SOL    HW214550   1.068   5.669   3.061
 4551SOL     OW14551   0.164   1.763   5.537
 4551SOL    HW114552   0.201   1.854   5.521
 4551SOL    HW214553   0.105   1.736   5.461
 4552SOL     OW14554   6.444   3.181   0.801
 4552SOL    HW114555   6.379   3.132   0.743
 4552SOL    HW214556   6.531   3.191   0.753
 4553SOL     OW14557   3.664   4.949   6.816
 4553SOL    HW114558   3.581   4.946   6.762
 4553SOL    HW214559   3.643   4.925   6.911
 4554SOL     OW14560   5.807   0.715   0.781
 4554SOL    HW114561   5.862   0.794   0.755
 4554SOL    HW214562   5.842   0.678   0.867
 4555SOL     OW14563   3.181   1.886   5.994
 4555SOL    HW114564   3.177   1.982   5.968
 4555SOL    HW214565   3.155   1.829   5.915
 4556SOL     OW14566   4.762   2.891   4.000
 4556SOL    HW114567   4.663   2.900   4.014
 4556SOL    HW214568   4.800   2.831   4.071
 4557SOL     OW14569   4.665   6.010   5.513
 4557SOL    HW114570   4.724   6.086   5.486
 4557SOL    HW214571   4.571   6.043   5.521
 4558SOL     OW14572   0.585   4.649   4.937
 4558SOL    HW114573   0.498   4.624   4.896
 4558SOL    HW214574   0.649   4.572   4.930
 4559SOL     OW14575   0.016   4.044   2.055
 4559SOL    HW114576   6.985   4.127   2.074
 4559SOL    HW214577   7.015   3.973   2.122
 4560SOL     OW14578   5.126   4.578   1.977
 4560SOL    HW114579   5.184   4.641   1.924
 4560SOL    HW214580   5.034   4.617   1.986
 4561SOL     OW14581   2.223   1.696   2.317
 4561SOL    HW114582   2.273   1.640   2.252
 4561SOL    HW214583   2.247   1.792   2.305
 4562SOL     OW14584   3.151   6.226   4.892
 4562SOL    HW114585   3.124   6.146   4.839
 4562SOL    HW214586   3.230   6.204   4.949
 4563SOL     OW14587   0.243   3.148   1.037
 4563SOL    HW114588   0.258   3.054   1.006
 4563SOL    HW214589   0.262   3.154   1.135
 4564SOL     OW14590   6.853   6.674   1.235
 4564SOL    HW114591   6.912   6.738   1.185
 4564SOL    HW214592   6.907   6.628   1.306
 4565SOL     OW14593   0.628   1.268   5.302
 4565SOL    HW114594   0.699   1.313   5.248
 4565SOL    HW214595   0.645   1.169   5.305
 4566SOL     OW14596   6.886   2.448   1.024
 4566SOL    HW114597   6.839   2.371   1.066
 4566SOL    HW214598   6.819   2.517   0.997
 4567SOL     OW14599   6.428   0.630   6.931
 4567SOL    HW114600   6.380   0.621   7.018
 4567SOL    HW214601   6.527   0.624   6.947
 4568SOL     OW14602   2.267   4.125   5.776
 4568SOL    HW114603   2.234   4.085   5.691
 4568SOL    HW214604   2.200   4.111   5.848
 4569SOL     OW14605   1.714   1.892   3.362
 4569SOL    HW114606   1.634   1.902   3.420
 4569SOL    HW214607   1.793   1.936   3.405
 4570SOL     OW14608   0.840   6.597   3.902
 4570SOL    HW114609   0.761   6.651   3.876
 4570SOL    HW214610   0.872   6.626   3.993
 4571SOL     OW14611   4.130   4.124   6.130
 4571SOL    HW114612   4.080   4.168   6.205
 4571SOL    HW214613   4.067   4.103   6.055
 4572SOL     OW14614   1.472   6.552   6.627
 4572SOL    HW114615   1.494   6.516   6.537
 4572SOL    HW214616   1.546   6.611   6.659
 4573SOL     OW14617   6.303   6.886   0.896
 4573SOL    HW114618   6.323   6.875   0.994
 4573SOL    HW214619   6.388   6.882   0.844
 4574SOL     OW14620   6.115   3.527   0.641
 4574SOL    HW114621   6.048   3.542   0.713
 4574SOL    HW214622   6.202   3.497   0.682
 4575SOL     OW14623   6.163   1.505   6.090
 4575SOL    HW114624   6.157   1.474   6.184
 4575SOL    HW214625   6.114   1.592   6.080
 4576SOL     OW14626   2.485   6.508   6.028
 4576SOL    HW114627   2.438   6.585   6.072
 4576SOL    HW214628   2.579   6.536   6.005
 4577SOL     OW14629   1.053   2.174   4.527
 4577SOL    HW114630   1.062   2.147   4.623
 4577SOL    HW214631   1.015   2.266   4.522
 4578SOL     OW14632   0.733   3.467   4.763
 4578SOL    HW114633   0.713   3.530   4.839
 4578SOL    HW214634   0.810   3.409   4.788
 4579SOL     OW14635   4.504   1.111   3.024
 4579SOL    HW114636   4.420   1.092   2.974
 4579SOL    HW214637   4.523   1.209   3.022
 4580SOL     OW14638   4.915   5.083   0.408
 4580SOL    HW114639   4.832   5.028   0.396
 4580SOL    HW214640   4.987   5.026   0.449
 4581SOL     OW14641   2.532   4.524   2.660
 4581SOL    HW114642   2.558   4.433   2.628
 4581SOL    HW214643   2.434   4.525   2.680
 4582SOL     OW14644   5.605   6.748   4.550
 4582SOL    HW114645   5.538   6.688   4.506
 4582SOL    HW214646   5.559   6.801   4.622
 4583SOL     OW14647   2.496   2.145   5.795
 4583SOL    HW114648   2.455   2.155   5.886
 4583SOL    HW214649   2.476   2.227   5.741
 4584SOL     OW14650   0.272   5.142   5.934
 4584SOL    HW114651   0.188   5.126   5.986
 4584SOL    HW214652   0.250   5.187   5.847
 4585SOL     OW14653   2.586   6.599   2.855
 4585SOL    HW114654   2.573   6.567   2.761
 4585SOL    HW214655   2.596   6.699   2.855
 4586SOL     OW14656   3.400   5.339   0.879
 4586SOL    HW114657   3.498   5.343   0.897
 4586SOL    HW214658   3.364   5.432   0.870
 4587SOL     OW14659   3.511   3.770   2.437
 4587SOL    HW114660   3.459   3.716   2.504
 4587SOL    HW214661   3.450   3.831   2.388
 4588SOL     OW14662   3.498   3.943   5.196
 4588SOL    HW114663   3.561   4.020   5.181
 4588SOL    HW214664   3.472   3.904   5.107
 4589SOL     OW14665   6.114   0.801   2.342
 4589SOL    HW114666   6.033   0.796   2.400
 4589SOL    HW214667   6.186   0.852   2.388
 4590SOL     OW14668   5.204   5.856   0.966
 4590SOL    HW114669   5.201   5.927   1.037
 4590SOL    HW214670   5.298   5.826   0.953
 4591SOL     OW14671   0.759   5.891   4.840
 4591SOL    HW114672   0.755   5.988   4.818
 4591SOL    HW214673   0.834   5.848   4.790
 4592SOL     OW14674   3.062   1.684   1.700
 4592SOL    HW114675   3.035   1.644   1.788
 4592SOL    HW214676   3.161   1.697   1.698
 4593SOL     OW14677   4.575   5.244   3.472
 4593SOL    HW114678   4.509   5.170   3.486
 4593SOL    HW214679   4.647   5.214   3.410
 4594SOL     OW14680   2.894   1.476   2.470
 4594SOL    HW114681   2.968   1.508   2.411
 4594SOL    HW214682   2.888   1.377   2.466
 4595SOL     OW14683   3.860   2.833   6.437
 4595SOL    HW114684   3.844   2.748   6.386
 4595SOL    HW214685   3.868   2.909   6.372
 4596SOL     OW14686   6.078   6.790   2.073
 4596SOL    HW114687   5.993   6.779   2.021
 4596SOL    HW214688   6.099   6.887   2.085
 4597SOL     OW14689   4.111   4.902   6.233
 4597SOL    HW114690   4.181   4.880   6.165
 4597SOL    HW214691   4.156   4.936   6.316
 4598SOL     OW14692   2.289   6.083   6.553
 4598SOL    HW114693   2.341   6.077   6.468
 4598SOL    HW214694   2.216   6.014   6.552
 4599SOL     OW14695   0.568   5.716   1.395
 4599SOL    HW114696   0.653   5.690   1.442
 4599SOL    HW214697   0.554   5.656   1.316
 4600SOL     OW14698   1.390   5.006   5.494
 4600SOL    HW114699   1.386   4.923   5.439
 4600SOL    HW214700   1.477   5.010   5.542
 4601SOL     OW14701   2.219   0.301   5.191
 4601SOL    HW114702   2.212   0.232   5.119
 4601SOL    HW214703   2.249   0.259   5.276
 4602SOL     OW14704   1.511   5.799   1.263
 4602SOL    HW114705   1.450   5.875   1.288
 4602SOL    HW214706   1.604   5.819   1.294
 4603SOL     OW14707   2.892   6.365   0.719
 4603SOL    HW114708   2.888   6.293   0.788
 4603SOL    HW214709   2.823   6.347   0.649
 4604SOL     OW14710   4.580   0.329   0.799
 4604SOL    HW114711   4.623   0.364   0.716
 4604SOL    HW214712   4.494   0.284   0.776
 4605SOL     OW14713   3.197   0.387   3.098
 4605SOL    HW114714   3.162   0.344   3.015
 4605SOL    HW214715   3.180   0.327   3.176
 4606SOL     OW14716   1.120   6.831   1.731
 4606SOL    HW114717   1.176   6.907   1.764
 4606SOL    HW214718   1.069   6.791   1.807
 4607SOL     OW14719   2.227   2.505   1.447
 4607SOL    HW114720   2.140   2.545   1.474
 4607SOL    HW214721   2.302   2.566   1.473
 4608SOL     OW14722   0.897   6.142   3.731
 4608SOL    HW114723   0.855   6.231   3.715
 4608SOL    HW214724   0.996   6.152   3.738
 4609SOL     OW14725   4.501   5.269   7.001
 4609SOL    HW114726   4.554   5.225   6.929
 4609SOL    HW214727   4.561   5.293   0.055
 4610SOL     OW14728   5.454   2.928   0.508
 4610SOL    HW114729   5.378   2.916   0.444
 4610SOL    HW214730   5.428   2.994   0.579
 4611SOL     OW14731   0.287   6.125   6.104
 4611SOL    HW114732   0.212   6.059   6.106
 4611SOL    HW214733   0.272   6.191   6.031
 4612SOL     OW14734   1.244   5.868   6.894
 4612SOL    HW114735   1.293   5.955   6.885
 4612SOL    HW214736   1.309   5.793   6.903
 4613SOL     OW14737   2.763   6.318   1.899
 4613SOL    HW114738   2.762   6.332   1.800
 4613SOL    HW214739   2.671   6.293   1.930
 4614SOL     OW14740   6.966   3.020   5.012
 4614SOL    HW114741   7.021   2.979   4.940
 4614SOL    HW214742   6.876   2.976   5.014
 4615SOL     OW14743   2.192   6.999   7.009
 4615SOL    HW114744   2.214   6.997   6.911
 4615SOL    HW214745   2.124   0.048   0.004
 4616SOL     OW14746   6.626   0.152   4.992
 4616SOL    HW114747   6.571   0.091   4.934
 4616SOL    HW214748   6.697   0.195   4.938
 4617SOL     OW14749   0.766   2.630   2.295
 4617SOL    HW114750   0.840   2.679   2.248
 4617SOL    HW214751   0.735   2.683   2.373
 4618SOL     OW14752   2.171   3.013   5.225
 4618SOL    HW114753   2.242   2.992   5.158
 4618SOL    HW214754   2.087   2.963   5.201
 4619SOL     OW14755   3.381   6.518   3.304
 4619SOL    HW114756   3.409   6.503   3.399
 4619SOL    HW214757   3.287   6.486   3.291
 4620SOL     OW14758   2.045   4.619   0.515
 4620SOL    HW114759   1.969   4.554   0.525
 4620SOL    HW214760   2.016   4.694   0.455
 4621SOL     OW14761   5.476   1.249   2.314
 4621SOL    HW114762   5.550   1.281   2.255
 4621SOL    HW214763   5.389   1.262   2.268
 4622SOL     OW14764   2.230   4.748   0.679
 4622SOL    HW114765   2.160   4.685   0.644
 4622SOL    HW214766   2.256   4.812   0.606
 4623SOL     OW14767   5.523   6.638   0.189
 4623SOL    HW114768   5.472   6.684   0.117
 4623SOL    HW214769   5.503   6.540   0.187
 4624SOL     OW14770   5.086   6.472   3.422
 4624SOL    HW114771   5.146   6.505   3.495
 4624SOL    HW214772   5.142   6.439   3.345
 4625SOL     OW14773   2.090   3.923   1.181
 4625SOL    HW114774   2.095   3.897   1.084
 4625SOL    HW214775   2.182   3.922   1.219
 4626SOL     OW14776   5.175   4.771   2.462
 4626SOL    HW114777   5.138   4.695   2.410
 4626SOL    HW214778   5.227   4.831   2.400
 4627SOL     OW14779   2.609   4.634   4.451
 4627SOL    HW114780   2.579   4.601   4.540
 4627SOL    HW214781   2.540   4.611   4.382
 4628SOL     OW14782   6.278   4.728   4.079
 4628SOL    HW114783   6.362   4.727   4.133
 4628SOL    HW214784   6.212   4.789   4.123
 4629SOL     OW14785   1.896   5.116   5.329
 4629SOL    HW114786   1.943   5.194   5.370
 4629SOL    HW214787   1.955   5.075   5.259
 4630SOL     OW14788   2.991   5.352   2.118
 4630SOL    HW114789   3.004   5.275   2.055
 4630SOL    HW214790   2.906   5.399   2.096
 4631SOL     OW14791   2.146   6.223   2.451
 4631SOL    HW114792   2.202   6.250   2.530
 4631SOL    HW214793   2.071   6.165   2.482
 4632SOL     OW14794   3.759   5.001   2.628
 4632SOL    HW114795   3.659   5.005   2.640
 4632SOL    HW214796   3.780   4.956   2.541
 4633SOL     OW14797   4.905   0.170   4.646
 4633SOL    HW114798   4.935   0.102   4.580
 4633SOL    HW214799   4.834   0.131   4.705
 4634SOL     OW14800   2.654   5.204   6.131
 4634SOL    HW114801   2.672   5.230   6.225
 4634SOL    HW214802   2.684   5.109   6.116
 4635SOL     OW14803   5.141   4.131   1.388
 4635SOL    HW114804   5.156   4.129   1.486
 4635SOL    HW214805   5.043   4.134   1.369
 4636SOL     OW14806   1.854   4.675   6.959
 4636SOL    HW114807   1.839   4.594   7.016
 4636SOL    HW214808   1.934   4.662   6.902
 4637SOL     OW14809   1.249   6.965   0.669
 4637SOL    HW114810   1.152   6.965   0.692
 4637SOL    HW214811   1.293   0.023   0.710
 4638SOL     OW14812   5.130   3.792   6.576
 4638SOL    HW114813   5.164   3.847   6.652
 4638SOL    HW214814   5.137   3.844   6.491
 4639SOL     OW14815   2.978   4.569   6.175
 4639SOL    HW114816   2.924   4.581   6.258
 4639SOL    HW214817   3.075   4.583   6.196
 4640SOL     OW14818   4.864   3.797   3.635
 4640SOL    HW114819   4.888   3.787   3.538
 4640SOL    HW214820   4.856   3.706   3.677
 4641SOL     OW14821   2.045   6.870   5.165
 4641SOL    HW114822   2.029   6.772   5.176
 4641SOL    HW214823   2.003   6.920   5.241
 4642SOL     OW14824   0.384   5.299   3.835
 4642SOL    HW114825   0.358   5.209   3.871
 4642SOL    HW214826   0.437   5.348   3.904
 4643SOL     OW14827   6.065   2.822   1.342
 4643SOL    HW114828   6.053   2.847   1.246
 4643SOL    HW214829   6.115   2.736   1.349
 4644SOL     OW14830   6.949   5.062   5.016
 4644SOL    HW114831   0.023   5.043   4.997
 4644SOL    HW214832   6.895   4.979   5.004
 4645SOL     OW14833   0.933   0.658   4.610
 4645SOL    HW114834   0.951   0.690   4.517
 4645SOL    HW214835   1.018   0.624   4.650
 4646SOL     OW14836   1.892   5.866   3.559
 4646SOL    HW114837   1.924   5.829   3.472
 4646SOL    HW214838   1.928   5.958   3.572
 4647SOL     OW14839   1.652   0.809   3.180
 4647SOL    HW114840   1.560   0.778   3.154
 4647SOL    HW214841   1.647   0.860   3.266
 4648SOL     OW14842   3.764   0.839   2.339
 4648SOL    HW114843   3.827   0.903   2.295
 4648SOL    HW214844   3.676   0.885   2.354
 4649SOL     OW14845   5.322   0.078   6.576
 4649SOL    HW114846   5.265   0.131   6.514
 4649SOL    HW214847   5.412   0.121   6.584
 4650SOL     OW14848   4.542   5.271   2.805
 4650SOL    HW114849   4.558   5.205   2.879
 4650SOL    HW214850   4.514   5.223   2.722
 4651SOL     OW14851   6.934   2.572   0.661
 4651SOL    HW114852   6.957   2.551   0.566
 4651SOL    HW214853   6.836   2.592   0.668
 4652SOL     OW14854   6.459   0.173   3.938
 4652SOL    HW114855   6.545   0.125   3.951
 4652SOL    HW214856   6.383   0.110   3.952
 4653SOL     OW14857   5.682   4.787   0.457
 4653SOL    HW114858   5.664   4.710   0.395
 4653SOL    HW214859   5.764   4.767   0.511
 4654SOL     OW14860   1.192   6.630   0.103
 4654SOL    HW114861   1.139   6.674   0.031
 4654SOL    HW214862   1.264   6.692   0.134
 4655SOL     OW14863   5.351   4.384   1.720
 4655SOL    HW114864   5.337   4.384   1.819
 4655SOL    HW214865   5.356   4.290   1.686
 4656SOL     OW14866   1.084   0.801   3.109
 4656SOL    HW114867   1.147   0.735   3.149
 4656SOL    HW214868   0.990   0.768   3.121
 4657SOL     OW14869   4.925   6.282   1.688
 4657SOL    HW114870   4.840   6.233   1.669
 4657SOL    HW214871   4.997   6.249   1.626
 4658SOL     OW14872   3.759   1.307   2.707
 4658SOL    HW114873   3.710   1.335   2.624
 4658SOL    HW214874   3.699   1.317   2.786
 4659SOL     OW14875   2.988   4.760   5.350
 4659SOL    HW114876   3.012   4.841   5.297
 4659SOL    HW214877   2.977   4.682   5.289
 4660SOL     OW14878   1.192   4.317   6.178
 4660SOL    HW114879   1.282   4.284   6.206
 4660SOL    HW214880   1.167   4.276   6.090
 4661SOL     OW14881   3.309   4.106   5.660
 4661SOL    HW114882   3.214   4.076   5.670
 4661SOL    HW214883   3.325   4.137   5.567
 4662SOL     OW14884   3.317   0.357   5.593
 4662SOL    HW114885   3.283   0.421   5.662
 4662SOL    HW214886   3.240   0.327   5.536
 4663SOL     OW14887   0.271   2.275   2.457
 4663SOL    HW114888   0.283   2.193   2.511
 4663SOL    HW214889   0.344   2.282   2.389
 4664SOL     OW14890   1.265   1.441   0.994
 4664SOL    HW114891   1.196   1.427   1.065
 4664SOL    HW214892   1.333   1.368   0.999
 4665SOL     OW14893   3.219   6.863   6.702
 4665SOL    HW114894   3.131   6.873   6.748
 4665SOL    HW214895   3.292   6.854   6.770
 4666SOL     OW14896   1.345   2.315   0.645
 4666SOL    HW114897   1.327   2.262   0.562
 4666SOL    HW214898   1.364   2.253   0.720
 4667SOL     OW14899   6.264   3.620   2.700
 4667SOL    HW114900   6.259   3.590   2.795
 4667SOL    HW214901   6.279   3.719   2.697
 4668SOL     OW14902   4.152   1.913   2.288
 4668SOL    HW114903   4.138   2.012   2.290
 4668SOL    HW214904   4.247   1.892   2.309
 4669SOL     OW14905   5.135   5.891   6.469
 4669SOL    HW114906   5.128   5.843   6.381
 4669SOL    HW214907   5.078   5.973   6.467
 4670SOL     OW14908   2.996   2.209   5.363
 4670SOL    HW114909   3.039   2.278   5.305
 4670SOL    HW214910   3.009   2.234   5.459
 4671SOL     OW14911   6.711   2.540   1.804
 4671SOL    HW114912   6.790   2.482   1.825
 4671SOL    HW214913   6.687   2.530   1.707
 4672SOL     OW14914   2.581   4.905   6.302
 4672SOL    HW114915   2.526   4.988   6.297
 4672SOL    HW214916   2.650   4.905   6.229
 4673SOL     OW14917   4.972   0.347   1.637
 4673SOL    HW114918   4.989   0.251   1.655
 4673SOL    HW214919   4.904   0.356   1.564
 4674SOL     OW14920   5.353   6.846   6.202
 4674SOL    HW114921   5.414   6.814   6.130
 4674SOL    HW214922   5.357   6.946   6.208
 4675SOL     OW14923   1.529   1.637   6.241
 4675SOL    HW114924   1.611   1.694   6.249
 4675SOL    HW214925   1.490   1.648   6.150
 4676SOL     OW14926   0.476   6.411   3.601
 4676SOL    HW114927   0.481   6.427   3.700
 4676SOL    HW214928   0.419   6.331   3.583
 4677SOL     OW14929   2.757   1.568   6.508
 4677SOL    HW114930   2.847   1.547   6.470
 4677SOL    HW214931   2.696   1.491   6.494
 4678SOL     OW14932   1.532   4.850   3.158
 4678SOL    HW114933   1.628   4.876   3.171
 4678SOL    HW214934   1.494   4.902   3.081
 4679SOL     OW14935   4.067   0.298   0.349
 4679SOL    HW114936   4.004   0.372   0.373
 4679SOL    HW214937   4.017   0.225   0.302
 4680SOL     OW14938   3.255   1.579   0.242
 4680SOL    HW114939   3.279   1.675   0.258
 4680SOL    HW214940   3.156   1.570   0.236
 4681SOL     OW14941   5.295   5.354   6.692
 4681SOL    HW114942   5.358   5.313   6.626
 4681SOL    HW214943   5.278   5.290   6.766
 4682SOL     OW14944   4.853   4.064   5.456
 4682SOL    HW114945   4.794   3.995   5.416
 4682SOL    HW214946   4.916   4.099   5.386
 4683SOL     OW14947   4.295   4.621   2.377
 4683SOL    HW114948   4.267   4.660   2.289
 4683SOL    HW214949   4.230   4.648   2.448
 4684SOL     OW14950   5.657   0.646   5.040
 4684SOL    HW114951   5.750   0.621   5.068
 4684SOL    HW214952   5.608   0.563   5.012
 4685SOL     OW14953   0.937   5.920   5.624
 4685SOL    HW114954   1.003   5.991   5.602
 4685SOL    HW214955   0.985   5.838   5.656
 4686SOL     OW14956   4.435   4.924   0.413
 4686SOL    HW114957   4.420   4.843   0.469
 4686SOL    HW214958   4.521   4.968   0.440
 4687SOL     OW14959   6.170   3.372   4.439
 4687SOL    HW114960   6.176   3.472   4.430
 4687SOL    HW214961   6.248   3.330   4.394
 4688SOL     OW14962   5.718   4.034   4.775
 4688SOL    HW114963   5.666   4.059   4.693
 4688SOL    HW214964   5.690   3.943   4.805
 4689SOL     OW14965   4.928   1.025   0.219
 4689SOL    HW114966   4.983   0.942   0.215
 4689SOL    HW214967   4.986   1.102   0.246
 4690SOL     OW14968   1.147   0.601   6.936
 4690SOL    HW114969   1.132   0.695   6.967
 4690SOL    HW214970   1.245   0.580   6.940
 4691SOL     OW14971   2.555   4.915   1.491
 4691SOL    HW114972   2.620   4.966   1.547
 4691SOL    HW214973   2.471   4.967   1.481
 4692SOL     OW14974   5.838   5.885   1.798
 4692SOL    HW114975   5.906   5.953   1.770
 4692SOL    HW214976   5.774   5.871   1.723
 4693SOL     OW14977   1.024   2.111   3.578
 4693SOL    HW114978   1.006   2.145   3.486
 4693SOL    HW214979   0.939   2.077   3.618
 4694SOL     OW14980   2.344   1.030   0.140
 4694SOL    HW114981   2.369   0.934   0.131
 4694SOL    HW214982   2.314   1.065   0.051
 4695SOL     OW14983   1.027   3.530   2.373
 4695SOL    HW114984   1.062   3.438   2.355
 4695SOL    HW214985   0.990   3.534   2.466
 4696SOL     OW14986   0.141   4.264   0.084
 4696SOL    HW114987   0.145   4.363   0.095
 4696SOL    HW214988   0.210   4.220   0.142
 4697SOL     OW14989   1.729   3.190   0.773
 4697SOL    HW114990   1.707   3.287   0.777
 4697SOL    HW214991   1.789   3.166   0.848
 4698SOL     OW14992   4.435   5.088   2.622
 4698SOL    HW114993   4.375   5.084   2.542
 4698SOL    HW214994   4.511   5.024   2.610
 4699SOL     OW14995   1.403   6.669   2.472
 4699SOL    HW114996   1.385   6.763   2.443
 4699SOL    HW214997   1.341   6.607   2.423
 4700SOL     OW14998   0.262   1.341   3.366
 4700SOL    HW114999   0.179   1.302   3.404
 4700SOL    HW215000   0.326   1.363   3.440
 4701SOL     OW15001   2.387   2.496   0.819
 4701SOL    HW115002   2.354   2.590   0.826
 4701SOL    HW215003   2.342   2.450   0.742
 4702SOL     OW15004   4.869   4.746   0.100
 4702SOL    HW115005   4.804   4.696   0.157
 4702SOL    HW215006   4.956   4.756   0.148
 4703SOL     OW15007   0.729   1.763   1.859
 4703SOL    HW115008   0.670   1.714   1.794
 4703SOL    HW215009   0.735   1.710   1.944
 4704SOL     OW15010   0.501   6.261   0.201
 4704SOL    HW115011   0.533   6.295   0.289
 4704SOL    HW215012   0.516   6.332   0.131
 4705SOL     OW15013   3.590   2.755   1.860
 4705SOL    HW115014   3.544   2.717   1.940
 4705SOL    HW215015   3.639   2.682   1.813
 4706SOL     OW15016   3.130   0.090   0.225
 4706SOL    HW115017   3.040   0.117   0.258
 4706SOL    HW215018   3.186   0.172   0.211
 4707SOL     OW15019   1.698   6.833   0.922
 4707SOL    HW115020   1.709   6.880   0.834
 4707SOL    HW215021   1.621   6.770   0.917
 4708SOL     OW15022   1.168   1.979   6.518
 4708SOL    HW115023   1.090   1.921   6.497
 4708SOL    HW215024   1.253   1.929   6.502
 4709SOL     OW15025   4.661   5.674   5.544
 4709SOL    HW115026   4.711   5.760   5.546
 4709SOL    HW215027   4.617   5.663   5.455
 4710SOL     OW15028   4.946   6.657   5.337
 4710SOL    HW115029   4.970   6.724   5.267
 4710SOL    HW215030   4.872   6.694   5.394
 4711SOL     OW15031   6.107   1.379   1.663
 4711SOL    HW115032   6.044   1.421   1.728
 4711SOL    HW215033   6.116   1.281   1.684
 4712SOL     OW15034   3.007   4.388   0.224
 4712SOL    HW115035   2.974   4.334   0.147
 4712SOL    HW215036   2.936   4.451   0.255
 4713SOL     OW15037   3.888   3.963   1.318
 4713SOL    HW115038   3.933   4.008   1.241
 4713SOL    HW215039   3.825   3.893   1.284
 4714SOL     OW15040   0.598   1.966   6.134
 4714SOL    HW115041   0.571   2.059   6.110
 4714SOL    HW215042   0.573   1.947   6.229
 4715SOL     OW15043   5.828   2.479   2.680
 4715SOL    HW115044   5.803   2.475   2.583
 4715SOL    HW215045   5.825   2.574   2.711
 4716SOL     OW15046   4.306   6.227   6.631
 4716SOL    HW115047   4.310   6.185   6.540
 4716SOL    HW215048   4.392   6.211   6.679
 4717SOL     OW15049   6.711   0.074   3.946
 4717SOL    HW115050   6.786   0.079   4.013
 4717SOL    HW215051   6.732   0.003   3.879
 4718SOL     OW15052   5.361   2.191   1.688
 4718SOL    HW115053   5.411   2.276   1.668
 4718SOL    HW215054   5.422   2.126   1.732
 4719SOL     OW15055   4.775   3.083   1.683
 4719SOL    HW115056   4.730   3.091   1.772
 4719SOL    HW215057   4.726   3.018   1.626
 4720SOL     OW15058   2.224   5.588   5.957
 4720SOL    HW115059   2.232   5.490   5.940
 4720SOL    HW215060   2.237   5.606   6.054
 4721SOL     OW15061   6.333   2.294   2.399
 4721SOL    HW115062   6.407   2.259   2.456
 4721SOL    HW215063   6.359   2.383   2.361
 4722SOL     OW15064   1.062   6.178   6.650
 4722SOL    HW115065   1.013   6.205   6.733
 4722SOL    HW215066   1.087   6.081   6.656
 4723SOL     OW15067   2.865   3.620   6.065
 4723SOL    HW115068   2.838   3.573   6.150
 4723SOL    HW215069   2.803   3.697   6.049
 4724SOL     OW15070   6.053   6.613   3.125
 4724SOL    HW115071   6.057   6.551   3.204
 4724SOL    HW215072   6.081   6.564   3.043
 4725SOL     OW15073   6.648   5.099   1.371
 4725SOL    HW115074   6.581   5.147   1.315
 4725SOL    HW215075   6.704   5.166   1.421
 4726SOL     OW15076   0.911   3.048   6.224
 4726SOL    HW115077   0.864   3.106   6.290
 4726SOL    HW215078   0.943   2.965   6.269
 4727SOL     OW15079   1.293   5.966   1.069
 4727SOL    HW115080   1.256   5.874   1.060
 4727SOL    HW215081   1.308   5.987   1.166
 4728SOL     OW15082   5.788   0.929   1.790
 4728SOL    HW115083   5.717   0.922   1.859
 4728SOL    HW215084   5.854   1.000   1.816
 4729SOL     OW15085   3.544   1.659   0.419
 4729SOL    HW115086   3.560   1.566   0.454
 4729SOL    HW215087   3.519   1.654   0.322
 4730SOL     OW15088   3.172   5.719   5.750
 4730SOL    HW115089   3.149   5.813   5.725
 4730SOL    HW215090   3.270   5.711   5.767
 4731SOL     OW15091   3.969   0.569   6.957
 4731SOL    HW115092   3.898   0.640   6.951
 4731SOL    HW215093   4.034   0.581   6.882
 4732SOL     OW15094   1.249   4.137   5.726
 4732SOL    HW115095   1.184   4.213   5.732
 4732SOL    HW215096   1.308   4.137   5.806
 4733SOL     OW15097   1.054   3.798   3.834
 4733SOL    HW115098   1.125   3.778   3.901
 4733SOL    HW215099   1.014   3.888   3.853
 4734SOL     OW15100   3.659   2.763   6.967
 4734SOL    HW115101   3.694   2.803   6.883
 4734SOL    HW215102   3.732   2.712   7.013
 4735SOL     OW15103   6.175   5.717   4.009
 4735SOL    HW115104   6.180   5.662   4.092
 4735SOL    HW215105   6.128   5.666   3.937
 4736SOL     OW15106   6.406   1.965   5.355
 4736SOL    HW115107   6.393   1.924   5.445
 4736SOL    HW215108   6.383   2.062   5.359
 4737SOL     OW15109   2.567   4.581   1.852
 4737SOL    HW115110   2.508   4.660   1.868
 4737SOL    HW215111   2.635   4.574   1.925
 4738SOL     OW15112   0.728   6.435   2.984
 4738SOL    HW115113   0.737   6.336   2.974
 4738SOL    HW215114   0.814   6.473   3.017
 4739SOL     OW15115   4.218   0.925   2.972
 4739SOL    HW115116   4.157   0.859   2.928
 4739SOL    HW215117   4.229   1.006   2.914
 4740SOL     OW15118   0.947   1.510   1.502
 4740SOL    HW115119   0.992   1.580   1.558
 4740SOL    HW215120   0.852   1.502   1.531
 4741SOL     OW15121   4.945   3.536   0.529
 4741SOL    HW115122   4.935   3.633   0.506
 4741SOL    HW215123   4.943   3.481   0.445
 4742SOL     OW15124   3.231   6.859   6.430
 4742SOL    HW115125   3.237   6.840   6.528
 4742SOL    HW215126   3.215   6.957   6.415
 4743SOL     OW15127   1.835   3.394   4.202
 4743SOL    HW115128   1.786   3.311   4.229
 4743SOL    HW215129   1.771   3.463   4.169
 4744SOL     OW15130   1.832   4.208   0.575
 4744SOL    HW115131   1.872   4.198   0.484
 4744SOL    HW215132   1.763   4.137   0.589
 4745SOL     OW15133   3.121   5.147   0.035
 4745SOL    HW115134   3.120   5.246   0.019
 4745SOL    HW215135   3.084   5.128   0.126
 4746SOL     OW15136   5.391   6.071   2.100
 4746SOL    HW115137   5.353   6.143   2.042
 4746SOL    HW215138   5.489   6.064   2.085
 4747SOL     OW15139   1.650   3.844   6.766
 4747SOL    HW115140   1.574   3.863   6.827
 4747SOL    HW215141   1.655   3.746   6.748
 4748SOL     OW15142   0.998   5.149   0.574
 4748SOL    HW115143   0.943   5.218   0.528
 4748SOL    HW215144   1.052   5.192   0.646
 4749SOL     OW15145   2.605   6.079   5.769
 4749SOL    HW115146   2.666   6.008   5.735
 4749SOL    HW215147   2.639   6.114   5.857
 4750SOL     OW15148   0.372   4.108   4.051
 4750SOL    HW115149   0.362   4.110   3.951
 4750SOL    HW215150   0.405   4.019   4.079
 4751SOL     OW15151   4.061   1.799   1.808
 4751SOL    HW115152   3.998   1.848   1.748
 4751SOL    HW215153   4.011   1.762   1.887
 4752SOL     OW15154   4.055   0.687   6.054
 4752SOL    HW115155   4.080   0.606   6.108
 4752SOL    HW215156   4.061   0.768   6.112
 4753SOL     OW15157   5.511   0.440   4.301
 4753SOL    HW115158   5.535   0.360   4.245
 4753SOL    HW215159   5.522   0.417   4.397
 4754SOL     OW15160   5.760   6.116   4.994
 4754SOL    HW115161   5.764   6.017   4.980
 4754SOL    HW215162   5.674   6.140   5.039
 4755SOL     OW15163   1.999   0.735   0.837
 4755SOL    HW115164   1.971   0.829   0.860
 4755SOL    HW215165   1.946   0.671   0.892
 4756SOL     OW15166   5.819   2.604   0.237
 4756SOL    HW115167   5.914   2.584   0.264
 4756SOL    HW215168   5.777   2.663   0.306
 4757SOL     OW15169   2.314   1.667   0.812
 4757SOL    HW115170   2.225   1.684   0.853
 4757SOL    HW215171   2.386   1.695   0.875
 4758SOL     OW15172   2.263   6.025   4.014
 4758SOL    HW115173   2.218   6.053   4.099
 4758SOL    HW215174   2.226   5.937   3.984
 4759SOL     OW15175   6.104   4.701   5.521
 4759SOL    HW115176   6.067   4.687   5.429
 4759SOL    HW215177   6.154   4.787   5.523
 4760SOL     OW15178   2.018   2.195   0.650
 4760SOL    HW115179   2.047   2.265   0.715
 4760SOL    HW215180   1.922   2.210   0.626
 4761SOL     OW15181   0.849   6.490   0.065
 4761SOL    HW115182   0.882   6.580   0.094
 4761SOL    HW215183   0.844   6.429   0.145
 4762SOL     OW15184   0.623   6.091   2.258
 4762SOL    HW115185   0.646   6.009   2.207
 4762SOL    HW215186   0.593   6.163   2.194
 4763SOL     OW15187   6.426   0.064   3.194
 4763SOL    HW115188   6.333   0.026   3.196
 4763SOL    HW215189   6.492   7.012   3.210
 4764SOL     OW15190   5.003   3.697   4.431
 4764SOL    HW115191   5.099   3.676   4.450
 4764SOL    HW215192   4.997   3.779   4.375
 4765SOL     OW15193   4.973   0.957   3.886
 4765SOL    HW115194   5.011   0.920   3.970
 4765SOL    HW215195   5.021   1.041   3.861
 4766SOL     OW15196   5.395   5.972   4.062
 4766SOL    HW115197   5.489   5.973   4.096
 4766SOL    HW215198   5.343   6.045   4.106
 4767SOL     OW15199   3.126   5.596   5.504
 4767SOL    HW115200   3.149   5.628   5.595
 4767SOL    HW215201   3.072   5.665   5.456
 4768SOL     OW15202   4.227   2.101   6.166
 4768SOL    HW115203   4.300   2.086   6.100
 4768SOL    HW215204   4.247   2.184   6.219
 4769SOL     OW15205   4.976   4.193   6.522
 4769SOL    HW115206   4.990   4.226   6.616
 4769SOL    HW215207   4.906   4.121   6.523
 4770SOL     OW15208   0.366   1.104   4.208
 4770SOL    HW115209   0.322   1.056   4.132
 4770SOL    HW215210   0.414   1.037   4.265
 4771SOL     OW15211   2.826   6.089   5.293
 4771SOL    HW115212   2.849   6.151   5.217
 4771SOL    HW215213   2.910   6.066   5.342
 4772SOL     OW15214   4.072   5.020   1.359
 4772SOL    HW115215   4.112   5.095   1.307
 4772SOL    HW215216   3.977   5.042   1.382
 4773SOL     OW15217   6.951   5.336   3.452
 4773SOL    HW115218   6.940   5.397   3.530
 4773SOL    HW215219   0.006   5.366   3.396
 4774SOL     OW15220   1.575   2.972   1.396
 4774SOL    HW115221   1.671   2.990   1.416
 4774SOL    HW215222   1.545   3.029   1.320
 4775SOL     OW15223   5.293   6.612   2.557
 4775SOL    HW115224   5.309   6.656   2.468
 4775SOL    HW215225   5.214   6.551   2.550
 4776SOL     OW15226   1.307   6.550   5.363
 4776SOL    HW115227   1.356   6.508   5.439
 4776SOL    HW215228   1.346   6.518   5.276
 4777SOL     OW15229   2.252   5.009   0.996
 4777SOL    HW115230   2.288   4.927   0.951
 4777SOL    HW215231   2.158   4.993   1.025
 4778SOL     OW15232   6.262   2.289   4.029
 4778SOL    HW115233   6.186   2.354   4.031
 4778SOL    HW215234   6.315   2.302   3.945
 4779SOL     OW15235   6.397   5.806   2.275
 4779SOL    HW115236   6.346   5.726   2.306
 4779SOL    HW215237   6.336   5.885   2.269
 4780SOL     OW15238   5.941   0.909   6.995
 4780SOL    HW115239   5.858   0.883   0.023
 4780SOL    HW215240   5.941   1.007   6.979
 4781SOL     OW15241   2.444   5.510   2.168
 4781SOL    HW115242   2.352   5.529   2.201
 4781SOL    HW215243   2.459   5.558   2.081
 4782SOL     OW15244   5.297   5.673   0.322
 4782SOL    HW115245   5.328   5.664   0.417
 4782SOL    HW215246   5.201   5.702   0.321
 4783SOL     OW15247   4.384   3.861   6.844
 4783SOL    HW115248   4.450   3.931   6.822
 4783SOL    HW215249   4.432   3.777   6.871
 4784SOL     OW15250   6.282   3.960   6.800
 4784SOL    HW115251   6.352   3.982   6.867
 4784SOL    HW215252   6.194   3.949   6.846
 4785SOL     OW15253   1.159   6.616   2.899
 4785SOL    HW115254   1.134   6.593   2.805
 4785SOL    HW215255   1.129   6.709   2.920
 4786SOL     OW15256   2.680   1.230   0.034
 4786SOL    HW115257   2.640   1.213   0.124
 4786SOL    HW215258   2.630   1.178   6.987
 4787SOL     OW15259   4.162   1.420   2.212
 4787SOL    HW115260   4.208   1.390   2.128
 4787SOL    HW215261   4.122   1.510   2.197
 4788SOL     OW15262   0.387   5.850   6.428
 4788SOL    HW115263   0.348   5.927   6.479
 4788SOL    HW215264   0.408   5.879   6.335
 4789SOL     OW15265   5.044   1.938   1.081
 4789SOL    HW115266   4.994   1.873   1.024
 4789SOL    HW215267   4.992   2.024   1.085
 4790SOL     OW15268   6.262   2.202   5.468
 4790SOL    HW115269   6.228   2.294   5.448
 4790SOL    HW215270   6.282   2.195   5.566
 4791SOL     OW15271   0.348   2.778   1.604
 4791SOL    HW115272   0.256   2.782   1.565
 4791SOL    HW215273   0.356   2.696   1.661
 4792SOL     OW15274   1.940   4.030   3.678
 4792SOL    HW115275   2.027   3.981   3.674
 4792SOL    HW215276   1.955   4.127   3.659
 4793SOL     OW15277   1.985   3.262   5.233
 4793SOL    HW115278   1.912   3.208   5.190
 4793SOL    HW215279   2.070   3.210   5.232
 4794SOL     OW15280   4.453   0.395   4.617
 4794SOL    HW115281   4.367   0.445   4.615
 4794SOL    HW215282   4.475   0.369   4.711
 4795SOL     OW15283   6.088   2.081   4.202
 4795SOL    HW115284   6.090   1.984   4.179
 4795SOL    HW215285   6.171   2.105   4.252
 4796SOL     OW15286   4.768   1.933   5.143
 4796SOL    HW115287   4.794   2.019   5.099
 4796SOL    HW215288   4.777   1.858   5.078
 4797SOL     OW15289   1.095   6.548   5.548
 4797SOL    HW115290   1.152   6.549   5.466
 4797SOL    HW215291   0.999   6.565   5.522
 4798SOL     OW15292   0.863   4.261   5.141
 4798SOL    HW115293   0.809   4.187   5.180
 4798SOL    HW215294   0.822   4.290   5.055
 4799SOL     OW15295   4.781   1.784   0.215
 4799SOL    HW115296   4.794   1.859   0.281
 4799SOL    HW215297   4.685   1.780   0.188
 4800SOL     OW15298   3.234   2.774   6.237
 4800SOL    HW115299   3.313   2.713   6.235
 4800SOL    HW215300   3.193   2.778   6.146
 4801SOL     OW15301   2.957   2.233   6.721
 4801SOL    HW115302   2.868   2.268   6.750
 4801SOL    HW215303   2.999   2.182   6.796
 4802SOL     OW15304   1.251   6.846   2.093
 4802SOL    HW115305   1.254   6.893   2.181
 4802SOL    HW215306   1.251   6.913   2.019
 4803SOL     OW15307   6.988   5.036   0.640
 4803SOL    HW115308   6.934   5.048   0.557
 4803SOL    HW215309   6.986   4.940   0.668
 4804SOL     OW15310   6.061   5.970   1.225
 4804SOL    HW115311   6.114   5.976   1.309
 4804SOL    HW215312   6.099   6.033   1.157
 4805SOL     OW15313   6.166   2.077   2.581
 4805SOL    HW115314   6.209   2.129   2.654
 4805SOL    HW215315   6.099   2.135   2.534
 4806SOL     OW15316   1.378   4.426   2.882
 4806SOL    HW115317   1.460   4.467   2.841
 4806SOL    HW215318   1.297   4.477   2.852
 4807SOL     OW15319   0.960   4.888   0.564
 4807SOL    HW115320   0.978   4.986   0.568
 4807SOL    HW215321   1.041   4.840   0.528
 4808SOL     OW15322   5.334   4.462   0.097
 4808SOL    HW115323   5.406   4.413   0.146
 4808SOL    HW215324   5.246   4.450   0.144
 4809SOL     OW15325   3.590   4.988   0.683
 4809SOL    HW115326   3.647   4.929   0.626
 4809SOL    HW215327   3.511   5.020   0.630
 4810SOL     OW15328   1.704   5.252   2.483
 4810SOL    HW115329   1.679   5.292   2.572
 4810SOL    HW215330   1.781   5.190   2.496
 4811SOL     OW15331   2.385   4.079   1.440
 4811SOL    HW115332   2.480   4.107   1.429
 4811SOL    HW215333   2.382   3.992   1.490
 4812SOL     OW15334   0.059   5.089   2.505
 4812SOL    HW115335   6.983   5.088   2.525
 4812SOL    HW215336   0.103   5.157   2.563
 4813SOL     OW15337   6.074   2.254   0.222
 4813SOL    HW115338   6.011   2.245   0.145
 4813SOL    HW215339   6.164   2.281   0.188
 4814SOL     OW15340   0.045   3.300   1.137
 4814SOL    HW115341   7.006   3.252   1.200
 4814SOL    HW215342   0.100   3.233   1.087
 4815SOL     OW15343   5.611   4.046   2.422
 4815SOL    HW115344   5.601   4.098   2.337
 4815SOL    HW215345   5.545   3.971   2.422
 4816SOL     OW15346   2.072   4.586   0.932
 4816SOL    HW115347   2.133   4.663   0.915
 4816SOL    HW215348   1.993   4.592   0.871
 4817SOL     OW15349   1.222   1.604   6.658
 4817SOL    HW115350   1.165   1.544   6.601
 4817SOL    HW215351   1.165   1.677   6.696
 4818SOL     OW15352   0.716   6.137   4.341
 4818SOL    HW115353   0.776   6.146   4.421
 4818SOL    HW215354   0.691   6.041   4.329
 4819SOL     OW15355   1.387   2.228   0.353
 4819SOL    HW115356   1.445   2.203   0.431
 4819SOL    HW215357   1.441   2.223   0.269
 4820SOL     OW15358   6.206   2.481   2.568
 4820SOL    HW115359   6.159   2.532   2.496
 4820SOL    HW215360   6.251   2.402   2.529
 4821SOL     OW15361   0.649   6.363   2.540
 4821SOL    HW115362   0.735   6.411   2.558
 4821SOL    HW215363   0.579   6.429   2.513
 4822SOL     OW15364   1.934   3.345   4.720
 4822SOL    HW115365   2.007   3.406   4.752
 4822SOL    HW215366   1.863   3.340   4.789
 4823SOL     OW15367   1.837   0.416   4.589
 4823SOL    HW115368   1.884   0.459   4.511
 4823SOL    HW215369   1.897   0.348   4.630
 4824SOL     OW15370   5.449   1.968   4.596
 4824SOL    HW115371   5.405   1.983   4.507
 4824SOL    HW215372   5.522   2.035   4.609
 4825SOL     OW15373   1.679   2.981   4.028
 4825SOL    HW115374   1.779   2.975   4.025
 4825SOL    HW215375   1.644   2.916   4.096
 4826SOL     OW15376   6.095   1.129   6.608
 4826SOL    HW115377   6.056   1.172   6.527
 4826SOL    HW215378   6.028   1.130   6.682
 4827SOL     OW15379   6.272   1.335   0.577
 4827SOL    HW115380   6.304   1.363   0.487
 4827SOL    HW215381   6.350   1.326   0.639
 4828SOL     OW15382   5.717   2.801   0.423
 4828SOL    HW115383   5.637   2.847   0.462
 4828SOL    HW215384   5.783   2.782   0.496
 4829SOL     OW15385   4.022   6.964   6.329
 4829SOL    HW115386   4.061   0.012   6.269
 4829SOL    HW215387   3.967   6.901   6.274
 4830SOL     OW15388   4.174   6.514   4.027
 4830SOL    HW115389   4.235   6.441   4.056
 4830SOL    HW215390   4.088   6.509   4.078
 4831SOL     OW15391   0.141   4.477   6.309
 4831SOL    HW115392   0.120   4.421   6.229
 4831SOL    HW215393   0.060   4.482   6.368
 4832SOL     OW15394   3.810   3.421   3.846
 4832SOL    HW115395   3.847   3.418   3.753
 4832SOL    HW215396   3.758   3.506   3.858
 4833SOL     OW15397   4.988   2.041   3.225
 4833SOL    HW115398   5.021   2.001   3.139
 4833SOL    HW215399   5.001   1.976   3.300
 4834SOL     OW15400   3.848   6.316   0.956
 4834SOL    HW115401   3.785   6.389   0.980
 4834SOL    HW215402   3.924   6.314   1.022
 4835SOL     OW15403   5.869   1.681   6.914
 4835SOL    HW115404   5.826   1.597   6.880
 4835SOL    HW215405   5.961   1.688   6.877
 4836SOL     OW15406   5.494   2.965   4.953
 4836SOL    HW115407   5.399   2.975   4.923
 4836SOL    HW215408   5.497   2.938   5.049
 4837SOL     OW15409   6.386   4.235   3.132
 4837SOL    HW115410   6.315   4.196   3.191
 4837SOL    HW215411   6.348   4.251   3.041
 4838SOL     OW15412   0.932   5.395   0.410
 4838SOL    HW115413   0.891   5.398   0.319
 4838SOL    HW215414   0.859   5.396   0.479
 4839SOL     OW15415   2.096   3.378   6.927
 4839SOL    HW115416   2.081   3.280   6.934
 4839SOL    HW215417   2.161   3.398   6.854
 4840SOL     OW15418   6.673   4.362   6.376
 4840SOL    HW115419   6.635   4.270   6.379
 4840SOL    HW215420   6.714   4.386   6.464
 4841SOL     OW15421   2.557   5.483   1.905
 4841SOL    HW115422   2.650   5.480   1.942
 4841SOL    HW215423   2.549   5.417   1.831
 4842SOL     OW15424   3.642   5.245   2.909
 4842SOL    HW115425   3.569   5.200   2.857
 4842SOL    HW215426   3.638   5.344   2.893
 4843SOL     OW15427   6.673   3.029   1.344
 4843SOL    HW115428   6.606   3.087   1.298
 4843SOL    HW215429   6.627   2.973   1.413
 4844SOL     OW15430   0.942   3.272   6.651
 4844SOL    HW115431   0.961   3.324   6.567
 4844SOL    HW215432   0.853   3.300   6.687
 4845SOL     OW15433   5.618   5.302   0.095
 4845SOL    HW115434   5.535   5.341   0.055
 4845SOL    HW215435   5.628   5.207   0.067
 4846SOL     OW15436   6.528   2.980   3.574
 4846SOL    HW115437   6.434   3.013   3.570
 4846SOL    HW215438   6.559   2.955   3.482
 4847SOL     OW15439   2.364   0.386   6.502
 4847SOL    HW115440   2.372   0.400   6.404
 4847SOL    HW215441   2.424   0.312   6.531
 4848SOL     OW15442   1.609   1.088   4.739
 4848SOL    HW115443   1.603   1.065   4.642
 4848SOL    HW215444   1.520   1.072   4.782
 4849SOL     OW15445   0.837   5.933   7.004
 4849SOL    HW115446   0.848   6.001   0.055
 4849SOL    HW215447   0.865   5.843   0.016
 4850SOL     OW15448   3.915   1.445   1.899
 4850SOL    HW115449   4.006   1.413   1.874
 4850SOL    HW215450   3.870   1.377   1.957
 4851SOL     OW15451   3.959   0.049   5.601
 4851SOL    HW115452   3.868   0.037   5.641
 4851SOL    HW215453   3.978   6.996   5.538
 4852SOL     OW15454   1.287   6.019   5.118
 4852SOL    HW115455   1.306   6.107   5.075
 4852SOL    HW215456   1.213   5.973   5.068
 4853SOL     OW15457   3.626   0.682   3.202
 4853SOL    HW115458   3.687   0.648   3.273
 4853SOL    HW215459   3.669   0.759   3.154
 4854SOL     OW15460   4.226   6.662   1.779
 4854SOL    HW115461   4.201   6.669   1.683
 4854SOL    HW215462   4.146   6.680   1.836
 4855SOL     OW15463   6.158   2.430   4.431
 4855SOL    HW115464   6.177   2.515   4.383
 4855SOL    HW215465   6.225   2.418   4.505
 4856SOL     OW15466   1.328   2.798   3.104
 4856SOL    HW115467   1.326   2.726   3.174
 4856SOL    HW215468   1.234   2.819   3.076
 4857SOL     OW15469   3.938   1.942   4.260
 4857SOL    HW115470   4.034   1.958   4.282
 4857SOL    HW215471   3.884   2.021   4.288
 4858SOL     OW15472   0.518   0.435   4.661
 4858SOL    HW115473   0.606   0.457   4.704
 4858SOL    HW215474   0.526   0.449   4.562
 4859SOL     OW15475   0.949   6.473   4.451
 4859SOL    HW115476   1.018   6.490   4.521
 4859SOL    HW215477   0.992   6.477   4.361
 4860SOL     OW15478   4.238   4.229   1.557
 4860SOL    HW115479   4.272   4.140   1.587
 4860SOL    HW215480   4.289   4.301   1.604
 4861SOL     OW15481   6.067   5.388   0.224
 4861SOL    HW115482   6.113   5.473   0.198
 4861SOL    HW215483   6.065   5.381   0.324
 4862SOL     OW15484   2.444   4.416   5.085
 4862SOL    HW115485   2.366   4.363   5.051
 4862SOL    HW215486   2.461   4.391   5.181
 4863SOL     OW15487   4.998   3.812   1.082
 4863SOL    HW115488   4.962   3.732   1.130
 4863SOL    HW215489   5.097   3.815   1.092
 4864SOL     OW15490   4.004   1.679   2.258
 4864SOL    HW115491   3.970   1.664   2.165
 4864SOL    HW215492   4.044   1.771   2.265
 4865SOL     OW15493   2.467   6.335   4.220
 4865SOL    HW115494   2.482   6.279   4.139
 4865SOL    HW215495   2.451   6.430   4.193
 4866SOL     OW15496   6.746   4.085   1.452
 4866SOL    HW115497   6.739   4.185   1.459
 4866SOL    HW215498   6.664   4.044   1.491
 4867SOL     OW15499   4.168   5.654   2.187
 4867SOL    HW115500   4.227   5.708   2.128
 4867SOL    HW215501   4.084   5.705   2.207
 4868SOL     OW15502   6.490   5.023   2.416
 4868SOL    HW115503   6.508   5.024   2.514
 4868SOL    HW215504   6.496   4.930   2.381
 4869SOL     OW15505   0.631   1.406   1.326
 4869SOL    HW115506   0.676   1.387   1.414
 4869SOL    HW215507   0.637   1.325   1.268
 4870SOL     OW15508   6.999   6.159   1.713
 4870SOL    HW115509   6.930   6.090   1.737
 4870SOL    HW215510   6.954   6.248   1.703
 4871SOL     OW15511   1.017   1.168   5.135
 4871SOL    HW115512   1.070   1.107   5.194
 4871SOL    HW215513   1.068   1.252   5.119
 4872SOL     OW15514   6.494   5.696   3.945
 4872SOL    HW115515   6.549   5.614   3.964
 4872SOL    HW215516   6.405   5.686   3.988
 4873SOL     OW15517   6.657   5.000   3.859
 4873SOL    HW115518   6.746   5.045   3.860
 4873SOL    HW215519   6.666   4.908   3.821
 4874SOL     OW15520   5.950   3.141   3.291
 4874SOL    HW115521   6.036   3.110   3.251
 4874SOL    HW215522   5.967   3.175   3.384
 4875SOL     OW15523   6.113   3.117   1.614
 4875SOL    HW115524   6.026   3.091   1.572
 4875SOL    HW215525   6.188   3.077   1.561
 4876SOL     OW15526   5.583   1.350   4.176
 4876SOL    HW115527   5.542   1.424   4.229
 4876SOL    HW215528   5.516   1.278   4.161
 4877SOL     OW15529   1.048   1.794   6.751
 4877SOL    HW115530   1.040   1.813   6.849
 4877SOL    HW215531   1.022   1.875   6.699
 4878SOL     OW15532   6.550   0.482   2.644
 4878SOL    HW115533   6.556   0.579   2.666
 4878SOL    HW215534   6.599   0.429   2.713
 4879SOL     OW15535   4.406   5.008   3.522
 4879SOL    HW115536   4.433   4.913   3.510
 4879SOL    HW215537   4.337   5.014   3.594
 4880SOL     OW15538   5.868   3.322   0.085
 4880SOL    HW115539   5.867   3.259   0.163
 4880SOL    HW215540   5.935   3.394   0.102
 4881SOL     OW15541   1.883   0.856   6.814
 4881SOL    HW115542   1.888   0.757   6.826
 4881SOL    HW215543   1.791   0.880   6.781
 4882SOL     OW15544   5.042   1.712   4.739
 4882SOL    HW115545   5.133   1.706   4.696
 4882SOL    HW215546   5.018   1.624   4.779
 4883SOL     OW15547   5.604   4.690   1.946
 4883SOL    HW115548   5.504   4.693   1.956
 4883SOL    HW215549   5.629   4.628   1.872
 4884SOL     OW15550   3.414   0.428   1.386
 4884SOL    HW115551   3.434   0.333   1.410
 4884SOL    HW215552   3.497   0.471   1.351
 4885SOL     OW15553   1.628   5.376   2.711
 4885SOL    HW115554   1.652   5.469   2.682
 4885SOL    HW215555   1.632   5.371   2.811
 4886SOL     OW15556   0.277   6.145   0.978
 4886SOL    HW115557   0.220   6.228   0.974
 4886SOL    HW215558   0.273   6.107   1.070
 4887SOL     OW15559   0.931   0.531   3.014
 4887SOL    HW115560   0.902   0.471   3.089
 4887SOL    HW215561   0.857   0.540   2.948
 4888SOL     OW15562   2.198   6.467   4.328
 4888SOL    HW115563   2.283   6.475   4.380
 4888SOL    HW215564   2.127   6.425   4.385
 4889SOL     OW15565   6.352   0.744   6.445
 4889SOL    HW115566   6.273   0.684   6.459
 4889SOL    HW215567   6.321   0.839   6.443
 4890SOL     OW15568   0.874   2.010   6.234
 4890SOL    HW115569   0.963   1.965   6.242
 4890SOL    HW215570   0.802   1.948   6.268
 4891SOL     OW15571   1.377   4.824   6.978
 4891SOL    HW115572   1.448   4.763   6.942
 4891SOL    HW215573   1.392   4.916   6.943
 4892SOL     OW15574   3.458   5.994   1.587
 4892SOL    HW115575   3.374   6.046   1.575
 4892SOL    HW215576   3.461   5.954   1.678
 4893SOL     OW15577   0.009   3.889   1.822
 4893SOL    HW115578   0.018   3.951   1.900
 4893SOL    HW215579   0.069   3.921   1.748
 4894SOL     OW15580   2.157   1.871   2.559
 4894SOL    HW115581   2.144   1.773   2.571
 4894SOL    HW215582   2.246   1.898   2.597
 4895SOL     OW15583   0.862   5.560   2.780
 4895SOL    HW115584   0.933   5.621   2.815
 4895SOL    HW215585   0.863   5.562   2.680
 4896SOL     OW15586   2.100   5.719   1.756
 4896SOL    HW115587   2.025   5.785   1.753
 4896SOL    HW215588   2.072   5.639   1.811
 4897SOL     OW15589   2.590   4.463   6.349
 4897SOL    HW115590   2.649   4.447   6.270
 4897SOL    HW215591   2.532   4.383   6.365
 4898SOL     OW15592   3.609   1.733   4.048
 4898SOL    HW115593   3.571   1.808   4.103
 4898SOL    HW215594   3.683   1.688   4.099
 4899SOL     OW15595   6.531   5.243   3.003
 4899SOL    HW115596   6.596   5.167   3.010
 4899SOL    HW215597   6.448   5.212   2.955
 4900SOL     OW15598   1.670   5.560   4.556
 4900SOL    HW115599   1.741   5.615   4.599
 4900SOL    HW215600   1.611   5.619   4.501
 4901SOL     OW15601   3.474   6.516   6.186
 4901SOL    HW115602   3.422   6.601   6.180
 4901SOL    HW215603   3.540   6.511   6.111
 4902SOL     OW15604   2.576   1.694   4.729
 4902SOL    HW115605   2.651   1.636   4.760
 4902SOL    HW215606   2.607   1.789   4.724
 4903SOL     OW15607   2.818   5.984   6.789
 4903SOL    HW115608   2.875   6.059   6.825
 4903SOL    HW215609   2.820   5.908   6.854
 4904SOL     OW15610   1.569   0.312   4.147
 4904SOL    HW115611   1.608   0.358   4.227
 4904SOL    HW215612   1.642   0.267   4.096
 4905SOL     OW15613   4.188   0.635   2.386
 4905SOL    HW115614   4.113   0.643   2.320
 4905SOL    HW215615   4.244   0.555   2.365
 4906SOL     OW15616   4.793   2.117   5.888
 4906SOL    HW115617   4.866   2.104   5.955
 4906SOL    HW215618   4.792   2.213   5.859
 4907SOL     OW15619   4.320   5.953   0.935
 4907SOL    HW115620   4.399   6.010   0.914
 4907SOL    HW215621   4.304   5.954   1.034
 4908SOL     OW15622   5.133   4.897   6.590
 4908SOL    HW115623   5.052   4.869   6.642
 4908SOL    HW215624   5.206   4.924   6.653
 4909SOL     OW15625   6.478   0.070   4.547
 4909SOL    HW115626   6.542   7.016   4.545
 4909SOL    HW215627   6.411   0.059   4.474
 4910SOL     OW15628   5.271   6.306   4.539
 4910SOL    HW115629   5.325   6.365   4.599
 4910SOL    HW215630   5.175   6.331   4.546
 4911SOL     OW15631   0.795   3.372   4.147
 4911SOL    HW115632   0.852   3.444   4.185
 4911SOL    HW215633   0.727   3.412   4.086
 4912SOL     OW15634   5.425   1.842   0.260
 4912SOL    HW115635   5.425   1.745   0.282
 4912SOL    HW215636   5.440   1.854   0.161
 4913SOL     OW15637   3.819   3.411   4.587
 4913SOL    HW115638   3.737   3.466   4.571
 4913SOL    HW215639   3.801   3.344   4.658
 4914SOL     OW15640   3.686   6.664   5.292
 4914SOL    HW115641   3.753   6.695   5.223
 4914SOL    HW215642   3.735   6.639   5.375
 4915SOL     OW15643   4.221   0.531   4.600
 4915SOL    HW115644   4.150   0.544   4.668
 4915SOL    HW215645   4.192   0.568   4.512
 4916SOL     OW15646   1.624   0.993   3.818
 4916SOL    HW115647   1.605   0.984   3.916
 4916SOL    HW215648   1.679   0.915   3.789
 4917SOL     OW15649   1.473   4.634   1.244
 4917SOL    HW115650   1.421   4.559   1.203
 4917SOL    HW215651   1.524   4.600   1.323
 4918SOL     OW15652   3.649   6.570   2.420
 4918SOL    HW115653   3.694   6.503   2.480
 4918SOL    HW215654   3.564   6.601   2.463
 4919SOL     OW15655   2.674   2.304   0.079
 4919SOL    HW115656   2.628   2.294   0.168
 4919SOL    HW215657   2.770   2.278   0.089
 4920SOL     OW15658   5.196   0.503   5.328
 4920SOL    HW115659   5.189   0.573   5.257
 4920SOL    HW215660   5.292   0.483   5.345
 4921SOL     OW15661   1.573   4.529   0.354
 4921SOL    HW115662   1.516   4.469   0.411
 4921SOL    HW215663   1.554   4.624   0.377
 4922SOL     OW15664   1.866   3.087   4.934
 4922SOL    HW115665   1.953   3.105   4.980
 4922SOL    HW215666   1.810   3.170   4.937
 4923SOL     OW15667   3.551   1.410   0.585
 4923SOL    HW115668   3.574   1.314   0.570
 4923SOL    HW215669   3.625   1.455   0.633
 4924SOL     OW15670   2.310   1.626   5.464
 4924SOL    HW115671   2.320   1.606   5.561
 4924SOL    HW215672   2.391   1.594   5.415
 4925SOL     OW15673   5.835   6.848   1.979
 4925SOL    HW115674   5.791   6.936   1.999
 4925SOL    HW215675   5.792   6.777   2.034
 4926SOL     OW15676   5.309   1.896   0.574
 4926SOL    HW115677   5.342   1.928   0.485
 4926SOL    HW215678   5.217   1.932   0.591
 4927SOL     OW15679   4.055   3.586   3.868
 4927SOL    HW115680   4.120   3.624   3.934
 4927SOL    HW215681   3.971   3.560   3.915
 4928SOL     OW15682   0.965   0.399   6.902
 4928SOL    HW115683   1.020   0.479   6.925
 4928SOL    HW215684   0.987   0.368   6.810
 4929SOL     OW15685   1.220   4.712   4.334
 4929SOL    HW115686   1.141   4.734   4.392
 4929SOL    HW215687   1.300   4.696   4.391
 4930SOL     OW15688   4.722   0.706   2.964
 4930SOL    HW115689   4.763   0.713   2.873
 4930SOL    HW215690   4.624   0.725   2.958
 4931SOL     OW15691   6.562   0.126   0.597
 4931SOL    HW115692   6.522   0.035   0.595
 4931SOL    HW215693   6.634   0.133   0.527
 4932SOL     OW15694   2.280   3.370   1.637
 4932SOL    HW115695   2.210   3.417   1.583
 4932SOL    HW215696   2.288   3.413   1.727
 4933SOL     OW15697   2.117   0.395   3.639
 4933SOL    HW115698   2.138   0.429   3.731
 4933SOL    HW215699   2.126   0.296   3.637
 4934SOL     OW15700   2.562   5.379   2.620
 4934SOL    HW115701   2.597   5.323   2.695
 4934SOL    HW215702   2.555   5.474   2.651
 4935SOL     OW15703   1.598   1.431   6.733
 4935SOL    HW115704   1.515   1.394   6.693
 4935SOL    HW215705   1.631   1.370   6.804
 4936SOL     OW15706   1.598   4.747   1.030
 4936SOL    HW115707   1.544   4.700   1.099
 4936SOL    HW215708   1.654   4.817   1.074
 4937SOL     OW15709   6.778   2.632   6.362
 4937SOL    HW115710   6.751   2.547   6.408
 4937SOL    HW215711   6.872   2.654   6.388
 4938SOL     OW15712   2.453   6.068   6.317
 4938SOL    HW115713   2.550   6.080   6.336
 4938SOL    HW215714   2.419   6.148   6.266
 4939SOL     OW15715   6.811   1.907   4.390
 4939SOL    HW115716   6.905   1.936   4.372
 4939SOL    HW215717   6.798   1.814   4.354
 4940SOL     OW15718   0.810   1.048   5.004
 4940SOL    HW115719   0.890   1.087   5.051
 4940SOL    HW215720   0.828   0.953   4.981
 4941SOL     OW15721   4.741   3.189   5.623
 4941SOL    HW115722   4.765   3.286   5.620
 4941SOL    HW215723   4.810   3.140   5.677
 4942SOL     OW15724   5.559   2.836   6.043
 4942SOL    HW115725   5.506   2.895   6.103
 4942SOL    HW215726   5.520   2.744   6.043
 4943SOL     OW15727   4.486   3.743   6.061
 4943SOL    HW115728   4.481   3.828   6.114
 4943SOL    HW215729   4.466   3.764   5.965
 4944SOL     OW15730   2.398   4.418   1.724
 4944SOL    HW115731   2.444   4.500   1.759
 4944SOL    HW215732   2.421   4.406   1.628
 4945SOL     OW15733   1.137   0.029   4.180
 4945SOL    HW115734   1.137   6.970   4.239
 4945SOL    HW215735   1.194   0.100   4.220
 4946SOL     OW15736   1.140   5.138   7.007
 4946SOL    HW115737   1.113   5.219   6.956
 4946SOL    HW215738   1.111   5.148   0.081
 4947SOL     OW15739   2.356   0.711   0.458
 4947SOL    HW115740   2.343   0.795   0.404
 4947SOL    HW215741   2.321   0.633   0.406
 4948SOL     OW15742   1.948   2.955   2.884
 4948SOL    HW115743   1.859   2.923   2.854
 4948SOL    HW215744   1.940   2.997   2.974
 4949SOL     OW15745   6.072   4.361   5.826
 4949SOL    HW115746   6.098   4.455   5.804
 4949SOL    HW215747   6.099   4.340   5.920
 4950SOL     OW15748   1.876   4.867   4.813
 4950SOL    HW115749   1.836   4.842   4.725
 4950SOL    HW215750   1.915   4.959   4.807
 4951SOL     OW15751   5.580   0.779   4.812
 4951SOL    HW115752   5.598   0.736   4.901
 4951SOL    HW215753   5.499   0.837   4.818
 4952SOL     OW15754   7.020   0.429   5.979
 4952SOL    HW115755   0.008   0.365   6.055
 4952SOL    HW215756   0.011   0.381   5.893
 4953SOL     OW15757   1.790   0.004   3.348
 4953SOL    HW115758   1.821   0.097   3.370
 4953SOL    HW215759   1.709   0.008   3.289
 4954SOL     OW15760   3.353   3.056   0.269
 4954SOL    HW115761   3.403   3.016   0.192
 4954SOL    HW215762   3.261   3.079   0.240
 4955SOL     OW15763   3.069   6.482   6.637
 4955SOL    HW115764   3.051   6.386   6.612
 4955SOL    HW215765   3.080   6.489   6.736
 4956SOL     OW15766   2.252   6.575   4.984
 4956SOL    HW115767   2.156   6.573   5.009
 4956SOL    HW215768   2.280   6.485   4.949
 4957SOL     OW15769   5.446   2.668   1.747
 4957SOL    HW115770   5.357   2.712   1.739
 4957SOL    HW215771   5.452   2.619   1.833
 4958SOL     OW15772   0.288   5.385   5.692
 4958SOL    HW115773   0.271   5.428   5.604
 4958SOL    HW215774   0.271   5.287   5.685
 4959SOL     OW15775   6.129   1.786   0.245
 4959SOL    HW115776   6.178   1.841   0.177
 4959SOL    HW215777   6.108   1.843   0.324
 4960SOL     OW15778   3.689   4.899   3.374
 4960SOL    HW115779   3.759   4.877   3.307
 4960SOL    HW215780   3.603   4.920   3.327
 4961SOL     OW15781   3.948   1.110   5.927
 4961SOL    HW115782   3.850   1.099   5.909
 4961SOL    HW215783   3.999   1.043   5.872
 4962SOL     OW15784   5.648   2.443   0.105
 4962SOL    HW115785   5.662   2.454   0.007
 4962SOL    HW215786   5.702   2.511   0.154
 4963SOL     OW15787   6.949   6.267   0.826
 4963SOL    HW115788   6.878   6.266   0.756
 4963SOL    HW215789   6.944   6.353   0.877
 4964SOL     OW15790   2.870   0.888   4.154
 4964SOL    HW115791   2.891   0.791   4.163
 4964SOL    HW215792   2.947   0.934   4.109
 4965SOL     OW15793   0.347   1.191   2.166
 4965SOL    HW115794   0.248   1.205   2.159
 4965SOL    HW215795   0.365   1.109   2.219
 4966SOL     OW15796   2.915   6.217   5.068
 4966SOL    HW115797   2.937   6.296   5.125
 4966SOL    HW215798   2.996   6.188   5.017
 4967SOL     OW15799   3.764   5.080   5.018
 4967SOL    HW115800   3.679   5.130   5.003
 4967SOL    HW215801   3.833   5.143   5.054
 4968SOL     OW15802   6.911   1.970   4.084
 4968SOL    HW115803   7.004   2.007   4.090
 4968SOL    HW215804   6.846   2.043   4.104
 4969SOL     OW15805   2.477   5.482   3.025
 4969SOL    HW115806   2.565   5.452   2.987
 4969SOL    HW215807   2.424   5.527   2.953
 4970SOL     OW15808   2.462   2.606   2.548
 4970SOL    HW115809   2.539   2.547   2.521
 4970SOL    HW215810   2.455   2.607   2.648
 4971SOL     OW15811   5.781   5.866   3.231
 4971SOL    HW115812   5.775   5.850   3.329
 4971SOL    HW215813   5.862   5.922   3.211
 4972SOL     OW15814   0.706   3.906   0.977
 4972SOL    HW115815   0.677   3.881   0.885
 4972SOL    HW215816   0.796   3.867   0.996
 4973SOL     OW15817   1.456   6.945   2.404
 4973SOL    HW115818   1.388   7.005   2.362
 4973SOL    HW215819   1.496   6.886   2.335
 4974SOL     OW15820   6.597   4.254   0.782
 4974SOL    HW115821   6.673   4.194   0.809
 4974SOL    HW215822   6.511   4.216   0.815
 4975SOL     OW15823   6.189   3.539   5.692
 4975SOL    HW115824   6.189   3.521   5.790
 4975SOL    HW215825   6.179   3.638   5.676
 4976SOL     OW15826   1.991   1.432   3.654
 4976SOL    HW115827   2.021   1.498   3.585
 4976SOL    HW215828   2.028   1.342   3.632
 4977SOL     OW15829   4.173   4.756   6.977
 4977SOL    HW115830   4.074   4.758   6.972
 4977SOL    HW215831   4.212   4.767   6.886
 4978SOL     OW15832   7.021   4.507   4.986
 4978SOL    HW115833   0.030   4.412   4.992
 4978SOL    HW215834   6.961   4.517   4.906
 4979SOL     OW15835   0.123   6.746   6.652
 4979SOL    HW115836   0.096   6.756   6.748
 4979SOL    HW215837   0.096   6.656   6.619
 4980SOL     OW15838   5.247   6.309   3.245
 4980SOL    HW115839   5.234   6.222   3.292
 4980SOL    HW215840   5.222   6.300   3.149
 4981SOL     OW15841   4.565   5.363   0.243
 4981SOL    HW115842   4.475   5.378   0.283
 4981SOL    HW215843   4.634   5.358   0.316
 4982SOL     OW15844   3.072   0.918   5.366
 4982SOL    HW115845   2.997   0.888   5.307
 4982SOL    HW215846   3.116   0.998   5.325
 4983SOL     OW15847   5.844   3.844   5.541
 4983SOL    HW115848   5.779   3.769   5.547
 4983SOL    HW215849   5.913   3.823   5.472
 4984SOL     OW15850   5.176   4.074   3.397
 4984SOL    HW115851   5.213   3.981   3.405
 4984SOL    HW215852   5.215   4.119   3.317
 4985SOL     OW15853   5.996   0.014   3.464
 4985SOL    HW115854   6.092   0.025   3.492
 4985SOL    HW215855   5.957   0.104   3.446
 4986SOL     OW15856   6.898   4.174   1.750
 4986SOL    HW115857   6.899   4.086   1.704
 4986SOL    HW215858   6.822   4.177   1.815
 4987SOL     OW15859   1.447   0.540   2.412
 4987SOL    HW115860   1.477   0.450   2.442
 4987SOL    HW215861   1.414   0.592   2.491
 4988SOL     OW15862   5.361   0.890   2.347
 4988SOL    HW115863   5.295   0.938   2.405
 4988SOL    HW215864   5.445   0.874   2.399
 4989SOL     OW15865   5.014   0.076   1.676
 4989SOL    HW115866   5.113   0.082   1.664
 4989SOL    HW215867   4.993   0.023   1.758
 4990SOL     OW15868   2.732   2.314   5.480
 4990SOL    HW115869   2.721   2.216   5.461
 4990SOL    HW215870   2.723   2.366   5.395
 4991SOL     OW15871   6.046   5.285   3.736
 4991SOL    HW115872   6.010   5.194   3.716
 4991SOL    HW215873   5.974   5.353   3.720
 4992SOL     OW15874   4.892   0.864   3.211
 4992SOL    HW115875   4.837   0.784   3.187
 4992SOL    HW215876   4.989   0.843   3.200
 4993SOL     OW15877   2.762   5.731   4.095
 4993SOL    HW115878   2.678   5.724   4.043
 4993SOL    HW215879   2.757   5.673   4.176
 4994SOL     OW15880   2.140   0.913   3.761
 4994SOL    HW115881   2.063   0.933   3.822
 4994SOL    HW215882   2.152   0.814   3.753
 4995SOL     OW15883   0.366   2.501   5.701
 4995SOL    HW115884   0.273   2.525   5.727
 4995SOL    HW215885   0.400   2.427   5.758
 4996SOL     OW15886   0.727   1.479   2.789
 4996SOL    HW115887   0.736   1.379   2.793
 4996SOL    HW215888   0.748   1.511   2.696
 4997SOL     OW15889   5.256   2.807   2.698
 4997SOL    HW115890   5.204   2.893   2.698
 4997SOL    HW215891   5.343   2.822   2.745
 4998SOL     OW15892   2.229   4.267   4.934
 4998SOL    HW115893   2.253   4.172   4.956
 4998SOL    HW215894   2.143   4.291   4.979
 4999SOL     OW15895   6.130   3.972   0.236
 4999SOL    HW115896   6.206   3.911   0.212
 4999SOL    HW215897   6.064   3.922   0.292
 5000SOL     OW15898   3.334   6.998   3.510
 5000SOL    HW115899   3.305   6.915   3.557
 5000SOL    HW215900   3.350   6.978   3.414
 5001SOL     OW15901   6.846   3.705   1.051
 5001SOL    HW115902   6.932   3.659   1.075
 5001SOL    HW215903   6.853   3.742   0.958
 5002SOL     OW15904   0.408   3.215   2.922
 5002SOL    HW115905   0.350   3.295   2.934
 5002SOL    HW215906   0.381   3.144   2.986
 5003SOL     OW15907   2.921   6.183   2.616
 5003SOL    HW115908   2.864   6.114   2.570
 5003SOL    HW215909   3.014   6.148   2.626
 5004SOL     OW15910   2.910   5.417   5.551
 5004SOL    HW115911   2.933   5.380   5.641
 5004SOL    HW215912   2.991   5.461   5.512
 5005SOL     OW15913   3.127   2.861   0.830
 5005SOL    HW115914   3.102   2.948   0.872
 5005SOL    HW215915   3.090   2.857   0.737
 5006SOL     OW15916   5.259   0.410   0.325
 5006SOL    HW115917   5.172   0.446   0.360
 5006SOL    HW215918   5.309   0.484   0.280
 5007SOL     OW15919   1.318   0.191   0.822
 5007SOL    HW115920   1.320   0.238   0.733
 5007SOL    HW215921   1.297   0.257   0.894
 5008SOL     OW15922   6.037   0.402   2.166
 5008SOL    HW115923   5.979   0.321   2.178
 5008SOL    HW215924   6.039   0.428   2.070
 5009SOL     OW15925   1.002   0.501   1.062
 5009SOL    HW115926   0.974   0.549   1.145
 5009SOL    HW215927   0.922   0.462   1.017
 5010SOL     OW15928   4.142   3.553   2.542
 5010SOL    HW115929   4.085   3.486   2.589
 5010SOL    HW215930   4.238   3.533   2.560
 5011SOL     OW15931   1.906   3.986   2.084
 5011SOL    HW115932   1.983   3.925   2.063
 5011SOL    HW215933   1.910   4.066   2.025
 5012SOL     OW15934   5.938   3.992   5.882
 5012SOL    HW115935   5.983   4.065   5.933
 5012SOL    HW215936   5.941   3.907   5.934
 5013SOL     OW15937   5.130   1.266   6.499
 5013SOL    HW115938   5.115   1.335   6.570
 5013SOL    HW215939   5.042   1.236   6.462
 5014SOL     OW15940   6.009   4.434   0.778
 5014SOL    HW115941   6.017   4.345   0.733
 5014SOL    HW215942   5.969   4.500   0.714
 5015SOL     OW15943   5.049   1.982   4.678
 5015SOL    HW115944   5.055   1.894   4.726
 5015SOL    HW215945   5.071   2.056   4.742
 5016SOL     OW15946   2.034   2.649   0.084
 5016SOL    HW115947   2.034   2.685   7.013
 5016SOL    HW215948   2.009   2.722   0.148
 5017SOL     OW15949   1.677   2.832   0.220
 5017SOL    HW115950   1.634   2.911   0.265
 5017SOL    HW215951   1.756   2.803   0.273
 5018SOL     OW15952   0.022   3.807   2.426
 5018SOL    HW115953   6.998   3.832   2.341
 5018SOL    HW215954   6.982   3.824   2.503
 5019SOL     OW15955   1.367   4.570   6.348
 5019SOL    HW115956   1.346   4.546   6.443
 5019SOL    HW215957   1.367   4.487   6.292
 5020SOL     OW15958   4.924   0.335   6.332
 5020SOL    HW115959   4.955   0.310   6.424
 5020SOL    HW215960   4.949   0.263   6.268
 5021SOL     OW15961   0.611   1.493   6.025
 5021SOL    HW115962   0.587   1.441   5.943
 5021SOL    HW215963   0.662   1.435   6.088
 5022SOL     OW15964   0.779   1.663   6.528
 5022SOL    HW115965   0.733   1.737   6.577
 5022SOL    HW215966   0.711   1.604   6.485
 5023SOL     OW15967   6.767   2.767   1.296
 5023SOL    HW115968   6.756   2.861   1.328
 5023SOL    HW215969   6.689   2.712   1.327
 5024SOL     OW15970   5.905   5.350   1.713
 5024SOL    HW115971   5.995   5.312   1.732
 5024SOL    HW215972   5.913   5.428   1.652
 5025SOL     OW15973   3.114   1.585   2.346
 5025SOL    HW115974   3.150   1.597   2.439
 5025SOL    HW215975   3.118   1.671   2.296
 5026SOL     OW15976   6.297   5.888   5.915
 5026SOL    HW115977   6.291   5.789   5.912
 5026SOL    HW215978   6.293   5.925   5.822
 5027SOL     OW15979   0.001   6.644   2.181
 5027SOL    HW115980   0.091   6.602   2.194
 5027SOL    HW215981   6.966   6.626   2.262
 5028SOL     OW15982   0.196   1.664   2.732
 5028SOL    HW115983   0.154   1.671   2.822
 5028SOL    HW215984   0.281   1.716   2.730
 5029SOL     OW15985   6.433   2.530   2.746
 5029SOL    HW115986   6.505   2.573   2.693
 5029SOL    HW215987   6.349   2.526   2.693
 5030SOL     OW15988   6.765   0.101   0.380
 5030SOL    HW115989   6.782   0.200   0.386
 5030SOL    HW215990   6.848   0.055   0.348
 5031SOL     OW15991   5.653   0.112   4.930
 5031SOL    HW115992   5.670   0.018   4.958
 5031SOL    HW215993   5.648   0.118   4.830
 5032SOL     OW15994   2.048   2.740   1.136
 5032SOL    HW115995   2.095   2.660   1.101
 5032SOL    HW215996   1.982   2.712   1.206
 5033SOL     OW15997   2.702   6.419   5.572
 5033SOL    HW115998   2.624   6.471   5.607
 5033SOL    HW215999   2.671   6.358   5.499
 5034SOL     OW16000   5.088   0.573   2.989
 5034SOL    HW116001   5.152   0.568   2.913
 5034SOL    HW216002   4.996   0.551   2.957
 5035SOL     OW16003   0.347   4.150   0.243
 5035SOL    HW116004   0.391   4.060   0.237
 5035SOL    HW216005   0.397   4.214   0.184
 5036SOL     OW16006   0.524   4.960   0.359
 5036SOL    HW116007   0.526   4.876   0.412
 5036SOL    HW216008   0.441   5.011   0.381
 5037SOL     OW16009   4.936   3.023   3.014
 5037SOL    HW116010   4.902   3.003   3.106
 5037SOL    HW216011   5.004   3.096   3.019
 5038SOL     OW16012   2.761   4.137   6.390
 5038SOL    HW116013   2.768   4.051   6.441
 5038SOL    HW216014   2.671   4.142   6.346
 5039SOL     OW16015   3.174   4.439   5.309
 5039SOL    HW116016   3.195   4.527   5.353
 5039SOL    HW216017   3.110   4.454   5.234
 5040SOL     OW16018   1.673   5.795   6.213
 5040SOL    HW116019   1.772   5.800   6.197
 5040SOL    HW216020   1.643   5.878   6.260
 5041SOL     OW16021   1.575   1.398   2.346
 5041SOL    HW116022   1.625   1.434   2.268
 5041SOL    HW216023   1.536   1.474   2.399
 5042SOL     OW16024   6.627   2.847   0.583
 5042SOL    HW116025   6.674   2.771   0.540
 5042SOL    HW216026   6.657   2.933   0.541
 5043SOL     OW16027   3.473   0.153   6.197
 5043SOL    HW116028   3.524   0.067   6.206
 5043SOL    HW216029   3.528   0.219   6.146
 5044SOL     OW16030   0.690   6.653   0.450
 5044SOL    HW116031   0.781   6.649   0.409
 5044SOL    HW216032   0.660   6.748   0.454
 5045SOL     OW16033   5.447   1.305   6.550
 5045SOL    HW116034   5.376   1.234   6.542
 5045SOL    HW216035   5.428   1.378   6.483
 5046SOL     OW16036   3.581   4.052   2.547
 5046SOL    HW116037   3.663   4.003   2.575
 5046SOL    HW216038   3.521   4.065   2.625
 5047SOL     OW16039   6.826   3.374   2.527
 5047SOL    HW116040   6.766   3.344   2.452
 5047SOL    HW216041   6.771   3.418   2.598
 5048SOL     OW16042   0.599   1.359   2.208
 5048SOL    HW116043   0.653   1.283   2.246
 5048SOL    HW216044   0.509   1.326   2.182
 5049SOL     OW16045   6.341   2.180   5.735
 5049SOL    HW116046   6.307   2.090   5.764
 5049SOL    HW216047   6.433   2.169   5.697
 5050SOL     OW16048   1.462   0.664   0.805
 5050SOL    HW116049   1.522   0.586   0.819
 5050SOL    HW216050   1.388   0.662   0.872
 5051SOL     OW16051   4.741   4.813   1.260
 5051SOL    HW116052   4.821   4.774   1.213
 5051SOL    HW216053   4.664   4.749   1.254
 5052SOL     OW16054   2.322   0.084   6.342
 5052SOL    HW116055   2.246   0.032   6.302
 5052SOL    HW216056   2.383   0.021   6.390
 5053SOL     OW16057   2.250   4.056   2.869
 5053SOL    HW116058   2.153   4.034   2.881
 5053SOL    HW216059   2.306   3.978   2.896
 5054SOL     OW16060   3.536   6.178   4.730
 5054SOL    HW116061   3.446   6.201   4.694
 5054SOL    HW216062   3.571   6.096   4.683
 5055SOL     OW16063   1.978   0.736   5.493
 5055SOL    HW116064   2.016   0.825   5.470
 5055SOL    HW216065   1.903   0.714   5.432
 5056SOL     OW16066   6.683   4.824   0.360
 5056SOL    HW116067   6.646   4.768   0.434
 5056SOL    HW216068   6.611   4.840   0.292
 5057SOL     OW16069   0.128   5.955   4.783
 5057SOL    HW116070   0.119   5.958   4.883
 5057SOL    HW216071   0.133   6.048   4.748
 5058SOL     OW16072   2.738   3.309   5.589
 5058SOL    HW116073   2.728   3.218   5.549
 5058SOL    HW216074   2.792   3.303   5.673
 5059SOL     OW16075   5.818   1.730   3.443
 5059SOL    HW116076   5.796   1.822   3.411
 5059SOL    HW216077   5.737   1.690   3.486
 5060SOL     OW16078   1.445   1.834   5.246
 5060SOL    HW116079   1.532   1.867   5.210
 5060SOL    HW216080   1.406   1.767   5.183
 5061SOL     OW16081   4.138   3.525   2.264
 5061SOL    HW116082   4.159   3.551   2.358
 5061SOL    HW216083   4.104   3.431   2.261
 5062SOL     OW16084   5.509   1.044   3.397
 5062SOL    HW116085   5.428   0.994   3.428
 5062SOL    HW216086   5.577   0.978   3.362
 5063SOL     OW16087   1.246   0.209   2.647
 5063SOL    HW116088   1.276   0.115   2.665
 5063SOL    HW216089   1.154   0.222   2.684
 5064SOL     OW16090   4.857   3.979   1.548
 5064SOL    HW116091   4.776   4.011   1.597
 5064SOL    HW216092   4.861   4.024   1.458
 5065SOL     OW16093   1.459   1.735   3.865
 5065SOL    HW116094   1.438   1.823   3.908
 5065SOL    HW216095   1.378   1.676   3.869
 5066SOL     OW16096   4.216   4.774   1.209
 5066SOL    HW116097   4.210   4.860   1.260
 5066SOL    HW216098   4.193   4.790   1.113
 5067SOL     OW16099   3.646   0.934   2.023
 5067SOL    HW116100   3.615   0.839   2.012
 5067SOL    HW216101   3.745   0.936   2.034
 5068SOL     OW16102   2.466   5.164   6.381
 5068SOL    HW116103   2.414   5.091   6.425
 5068SOL    HW216104   2.546   5.187   6.437
 5069SOL     OW16105   2.377   3.276   5.912
 5069SOL    HW116106   2.360   3.191   5.862
 5069SOL    HW216107   2.438   3.334   5.859
 5070SOL     OW16108   4.442   4.641   3.991
 5070SOL    HW116109   4.456   4.732   4.029
 5070SOL    HW216110   4.407   4.649   3.897
 5071SOL     OW16111   4.392   1.540   3.141
 5071SOL    HW116112   4.380   1.497   3.231
 5071SOL    HW216113   4.305   1.578   3.110
 5072SOL     OW16114   1.098   0.945   1.532
 5072SOL    HW116115   1.084   0.989   1.620
 5072SOL    HW216116   1.186   0.973   1.494
 5073SOL     OW16117   0.472   5.672   1.925
 5073SOL    HW116118   0.524   5.666   2.011
 5073SOL    HW216119   0.409   5.750   1.929
 5074SOL     OW16120   3.501   2.285   1.075
 5074SOL    HW116121   3.440   2.306   0.998
 5074SOL    HW216122   3.518   2.368   1.128
 5075SOL     OW16123   0.953   2.680   6.881
 5075SOL    HW116124   0.899   2.597   6.866
 5075SOL    HW216125   0.966   2.694   6.979
 5076SOL     OW16126   5.090   0.451   0.547
 5076SOL    HW116127   5.069   0.511   0.624
 5076SOL    HW216128   5.134   0.368   0.581
 5077SOL     OW16129   2.099   4.040   5.518
 5077SOL    HW116130   2.164   3.976   5.478
 5077SOL    HW216131   2.047   4.085   5.446
 5078SOL     OW16132   0.391   1.453   3.942
 5078SOL    HW116133   0.431   1.433   4.031
 5078SOL    HW216134   0.347   1.371   3.906
 5079SOL     OW16135   2.189   3.459   5.132
 5079SOL    HW116136   2.109   3.412   5.094
 5079SOL    HW216137   2.234   3.401   5.199
 5080SOL     OW16138   6.029   6.513   6.368
 5080SOL    HW116139   5.950   6.490   6.425
 5080SOL    HW216140   6.032   6.613   6.355
 5081SOL     OW16141   3.391   3.354   5.129
 5081SOL    HW116142   3.427   3.372   5.221
 5081SOL    HW216143   3.425   3.424   5.066
 5082SOL     OW16144   5.267   5.507   1.297
 5082SOL    HW116145   5.337   5.575   1.323
 5082SOL    HW216146   5.192   5.553   1.250
 5083SOL     OW16147   2.926   6.994   2.689
 5083SOL    HW116148   2.844   7.007   2.634
 5083SOL    HW216149   2.902   6.990   2.786
 5084SOL     OW16150   0.244   4.569   3.596
 5084SOL    HW116151   0.166   4.625   3.626
 5084SOL    HW216152   0.324   4.627   3.584
 5085SOL     OW16153   5.977   2.678   6.472
 5085SOL    HW116154   5.955   2.633   6.385
 5085SOL    HW216155   5.903   2.741   6.497
 5086SOL     OW16156   1.220   5.757   3.380
 5086SOL    HW116157   1.180   5.747   3.472
 5086SOL    HW216158   1.276   5.677   3.359
 5087SOL     OW16159   1.837   5.673   2.852
 5087SOL    HW116160   1.771   5.730   2.901
 5087SOL    HW216161   1.803   5.656   2.759
 5088SOL     OW16162   6.155   0.470   4.362
 5088SOL    HW116163   6.199   0.533   4.427
 5088SOL    HW216164   6.163   0.376   4.397
 5089SOL     OW16165   5.433   4.036   4.175
 5089SOL    HW116166   5.521   4.043   4.130
 5089SOL    HW216167   5.420   3.944   4.211
 5090SOL     OW16168   2.160   3.955   2.391
 5090SOL    HW116169   2.215   3.994   2.317
 5090SOL    HW216170   2.175   4.006   2.475
 5091SOL     OW16171   0.787   0.834   1.850
 5091SOL    HW116172   0.808   0.931   1.835
 5091SOL    HW216173   0.722   0.825   1.925
 5092SOL     OW16174   3.677   3.786   2.713
 5092SOL    HW116175   3.621   3.726   2.655
 5092SOL    HW216176   3.618   3.842   2.770
 5093SOL     OW16177   3.205   1.418   0.899
 5093SOL    HW116178   3.181   1.364   0.819
 5093SOL    HW216179   3.258   1.499   0.870
 5094SOL     OW16180   2.476   5.534   5.750
 5094SOL    HW116181   2.410   5.594   5.796
 5094SOL    HW216182   2.426   5.462   5.701
 5095SOL     OW16183   6.356   2.019   3.964
 5095SOL    HW116184   6.312   2.105   3.990
 5095SOL    HW216185   6.409   1.984   4.041
 5096SOL     OW16186   4.221   5.055   0.302
 5096SOL    HW116187   4.126   5.032   0.323
 5096SOL    HW216188   4.282   4.994   0.352
 5097SOL     OW16189   1.405   0.405   6.484
 5097SOL    HW116190   1.410   0.431   6.581
 5097SOL    HW216191   1.482   0.446   6.435
 5098SOL     OW16192   2.518   0.113   2.070
 5098SOL    HW116193   2.539   0.151   1.980
 5098SOL    HW216194   2.504   0.188   2.135
 5099SOL     OW16195   1.044   6.924   0.233
 5099SOL    HW116196   1.072   6.955   0.142
 5099SOL    HW216197   1.125   6.920   0.293
 5100SOL     OW16198   3.365   5.731   4.749
 5100SOL    HW116199   3.298   5.656   4.750
 5100SOL    HW216200   3.396   5.749   4.842
 5101SOL     OW16201   5.308   0.117   0.433
 5101SOL    HW116202   5.331   0.107   0.530
 5101SOL    HW216203   5.297   0.214   0.411
 5102SOL     OW16204   5.530   6.529   4.371
 5102SOL    HW116205   5.468   6.452   4.351
 5102SOL    HW216206   5.624   6.499   4.358
 5103SOL     OW16207   0.227   0.692   3.425
 5103SOL    HW116208   0.207   0.596   3.445
 5103SOL    HW216209   0.300   0.724   3.485
 5104SOL     OW16210   2.001   6.552   2.707
 5104SOL    HW116211   2.063   6.533   2.631
 5104SOL    HW216212   1.998   6.650   2.724
 5105SOL     OW16213   3.092   3.096   0.953
 5105SOL    HW116214   3.009   3.141   0.921
 5105SOL    HW216215   3.077   3.059   1.044
 5106SOL     OW16216   4.527   1.712   0.128
 5106SOL    HW116217   4.482   1.743   0.044
 5106SOL    HW216218   4.590   1.637   0.106
 5107SOL     OW16219   3.306   1.451   0.484
 5107SOL    HW116220   3.389   1.473   0.535
 5107SOL    HW216221   3.289   1.522   0.416
 5108SOL     OW16222   3.553   3.729   4.737
 5108SOL    HW116223   3.496   3.656   4.700
 5108SOL    HW216224   3.645   3.694   4.755
 5109SOL     OW16225   1.013   1.480   0.490
 5109SOL    HW116226   1.093   1.467   0.433
 5109SOL    HW216227   1.005   1.577   0.515
 5110SOL     OW16228   0.394   0.734   6.025
 5110SOL    HW116229   0.375   0.718   6.121
 5110SOL    HW216230   0.398   0.647   5.976
 5111SOL     OW16231   1.862   1.110   4.921
 5111SOL    HW116232   1.783   1.088   4.864
 5111SOL    HW216233   1.939   1.138   4.863
 5112SOL     OW16234   2.238   1.086   2.998
 5112SOL    HW116235   2.200   0.998   3.029
 5112SOL    HW216236   2.220   1.156   3.067
 5113SOL     OW16237   2.049   0.148   0.886
 5113SOL    HW116238   2.069   0.240   0.853
 5113SOL    HW216239   1.962   0.117   0.846
 5114SOL     OW16240   3.277   1.057   6.678
 5114SOL    HW116241   3.199   1.036   6.618
 5114SOL    HW216242   3.360   1.017   6.639
 5115SOL     OW16243   1.908   4.920   4.103
 5115SOL    HW116244   1.978   4.990   4.102
 5115SOL    HW216245   1.916   4.866   4.186
 5116SOL     OW16246   7.011   0.333   5.729
 5116SOL    HW116247   6.988   0.236   5.719
 5116SOL    HW216248   7.019   0.374   5.638
 5117SOL     OW16249   2.300   4.284   4.657
 5117SOL    HW116250   2.280   4.191   4.626
 5117SOL    HW216251   2.276   4.293   4.754
 5118SOL     OW16252   5.014   0.126   6.792
 5118SOL    HW116253   4.975   0.098   6.879
 5118SOL    HW216254   5.109   0.093   6.786
 5119SOL     OW16255   5.173   0.676   2.225
 5119SOL    HW116256   5.209   0.604   2.284
 5119SOL    HW216257   5.227   0.759   2.237
 5120SOL     OW16258   3.459   0.900   3.642
 5120SOL    HW116259   3.445   0.944   3.730
 5120SOL    HW216260   3.493   0.808   3.655
 5121SOL     OW16261   2.525   2.263   6.308
 5121SOL    HW116262   2.501   2.172   6.274
 5121SOL    HW216263   2.517   2.265   6.407
 5122SOL     OW16264   3.783   6.808   2.709
 5122SOL    HW116265   3.852   6.736   2.711
 5122SOL    HW216266   3.692   6.767   2.713
 5123SOL     OW16267   4.881   2.135   4.930
 5123SOL    HW116268   4.841   2.219   4.967
 5123SOL    HW216269   4.816   2.092   4.867
 5124SOL     OW16270   2.230   5.397   5.297
 5124SOL    HW116271   2.321   5.423   5.329
 5124SOL    HW216272   2.238   5.352   5.208
 5125SOL     OW16273   6.110   3.313   4.715
 5125SOL    HW116274   6.133   3.321   4.617
 5125SOL    HW216275   6.192   3.287   4.766
 5126SOL     OW16276   6.317   4.693   5.158
 5126SOL    HW116277   6.330   4.741   5.072
 5126SOL    HW216278   6.350   4.599   5.150
 5127SOL     OW16279   0.991   3.765   0.172
 5127SOL    HW116280   1.034   3.683   0.209
 5127SOL    HW216281   1.050   3.844   0.189
 5128SOL     OW16282   6.568   0.149   6.339
 5128SOL    HW116283   6.544   0.195   6.253
 5128SOL    HW216284   6.560   0.214   6.415
 5129SOL     OW16285   5.712   0.058   2.569
 5129SOL    HW116286   5.810   0.078   2.564
 5129SOL    HW216287   5.688   0.033   2.663
 5130SOL     OW16288   0.892   5.843   3.386
 5130SOL    HW116289   0.935   5.908   3.324
 5130SOL    HW216290   0.953   5.825   3.464
 5131SOL     OW16291   2.737   4.971   3.631
 5131SOL    HW116292   2.690   5.052   3.665
 5131SOL    HW216293   2.701   4.946   3.541
 5132SOL     OW16294   3.324   2.420   5.859
 5132SOL    HW116295   3.361   2.440   5.768
 5132SOL    HW216296   3.292   2.505   5.902
 5133SOL     OW16297   1.449   5.500   6.811
 5133SOL    HW116298   1.418   5.545   6.727
 5133SOL    HW216299   1.451   5.401   6.798
 5134SOL     OW16300   6.895   1.933   2.140
 5134SOL    HW116301   6.986   1.970   2.158
 5134SOL    HW216302   6.889   1.840   2.177
 5135SOL     OW16303   5.572   3.538   4.227
 5135SOL    HW116304   5.614   3.456   4.189
 5135SOL    HW216305   5.608   3.555   4.318
 5136SOL     OW16306   5.200   0.430   6.594
 5136SOL    HW116307   5.247   0.388   6.516
 5136SOL    HW216308   5.109   0.392   6.603
 5137SOL     OW16309   4.280   4.055   5.582
 5137SOL    HW116310   4.366   4.093   5.548
 5137SOL    HW216311   4.267   4.081   5.677
 5138SOL     OW16312   3.901   2.839   5.589
 5138SOL    HW116313   3.826   2.904   5.596
 5138SOL    HW216314   3.868   2.747   5.611
 5139SOL     OW16315   1.243   1.412   3.573
 5139SOL    HW116316   1.321   1.463   3.535
 5139SOL    HW216317   1.266   1.315   3.579
 5140SOL     OW16318   4.021   2.414   5.738
 5140SOL    HW116319   3.956   2.374   5.803
 5140SOL    HW216320   4.063   2.341   5.684
 5141SOL     OW16321   5.898   3.566   0.806
 5141SOL    HW116322   5.843   3.545   0.725
 5141SOL    HW216323   5.855   3.640   0.857
 5142SOL     OW16324   5.737   6.625   2.761
 5142SOL    HW116325   5.784   6.683   2.828
 5142SOL    HW216326   5.661   6.578   2.806
 5143SOL     OW16327   6.391   4.321   4.281
 5143SOL    HW116328   6.471   4.316   4.222
 5143SOL    HW216329   6.415   4.288   4.373
 5144SOL     OW16330   0.826   4.808   5.392
 5144SOL    HW116331   0.798   4.748   5.467
 5144SOL    HW216332   0.862   4.893   5.429
 5145SOL     OW16333   3.788   5.565   6.155
 5145SOL    HW116334   3.847   5.563   6.235
 5145SOL    HW216335   3.734   5.481   6.151
 5146SOL     OW16336   2.961   3.862   5.544
 5146SOL    HW116337   2.885   3.798   5.556
 5146SOL    HW216338   3.047   3.812   5.550
 5147SOL     OW16339   6.488   5.646   3.215
 5147SOL    HW116340   6.457   5.574   3.153
 5147SOL    HW216341   6.498   5.732   3.164
 5148SOL     OW16342   6.431   0.967   1.673
 5148SOL    HW116343   6.497   1.003   1.738
 5148SOL    HW216344   6.425   0.868   1.683
 5149SOL     OW16345   6.348   5.979   3.392
 5149SOL    HW116346   6.310   5.892   3.359
 5149SOL    HW216347   6.397   5.963   3.479
 5150SOL     OW16348   2.363   5.563   3.253
 5150SOL    HW116349   2.426   5.534   3.182
 5150SOL    HW216350   2.294   5.624   3.214
 5151SOL     OW16351   6.636   3.596   2.463
 5151SOL    HW116352   6.632   3.690   2.496
 5151SOL    HW216353   6.704   3.588   2.390
 5152SOL     OW16354   1.732   4.871   0.187
 5152SOL    HW116355   1.745   4.960   0.230
 5152SOL    HW216356   1.754   4.877   0.089
 5153SOL     OW16357   1.413   1.408   0.674
 5153SOL    HW116358   1.392   1.312   0.657
 5153SOL    HW216359   1.488   1.437   0.615
 5154SOL     OW16360   1.224   2.775   5.968
 5154SOL    HW116361   1.150   2.764   5.901
 5154SOL    HW216362   1.215   2.865   6.011
 5155SOL     OW16363   4.469   0.132   2.134
 5155SOL    HW116364   4.399   0.075   2.177
 5155SOL    HW216365   4.547   0.141   2.196
 5156SOL     OW16366   5.180   3.953   5.550
 5156SOL    HW116367   5.095   3.912   5.585
 5156SOL    HW216368   5.205   4.031   5.606
 5157SOL     OW16369   3.594   1.744   3.511
 5157SOL    HW116370   3.530   1.810   3.471
 5157SOL    HW216371   3.622   1.775   3.602
 5158SOL     OW16372   4.031   2.158   1.276
 5158SOL    HW116373   3.977   2.092   1.224
 5158SOL    HW216374   4.038   2.128   1.371
 5159SOL     OW16375   6.086   3.313   5.591
 5159SOL    HW116376   6.136   3.397   5.613
 5159SOL    HW216377   6.028   3.288   5.668
 5160SOL     OW16378   0.571   4.882   2.995
 5160SOL    HW116379   0.529   4.859   2.908
 5160SOL    HW216380   0.623   4.803   3.028
 5161SOL     OW16381   2.211   3.728   6.367
 5161SOL    HW116382   2.250   3.726   6.459
 5161SOL    HW216383   2.217   3.637   6.327
 5162SOL     OW16384   0.674   5.716   2.490
 5162SOL    HW116385   0.751   5.778   2.504
 5162SOL    HW216386   0.594   5.751   2.539
 5163SOL     OW16387   3.055   6.568   0.142
 5163SOL    HW116388   3.040   6.652   0.193
 5163SOL    HW216389   3.074   6.493   0.205
 5164SOL     OW16390   4.250   1.921   6.706
 5164SOL    HW116391   4.226   2.000   6.649
 5164SOL    HW216392   4.168   1.891   6.755
 5165SOL     OW16393   0.327   4.069   5.390
 5165SOL    HW116394   0.263   4.145   5.403
 5165SOL    HW216395   0.420   4.099   5.410
 5166SOL     OW16396   0.688   5.481   2.372
 5166SOL    HW116397   0.736   5.406   2.417
 5166SOL    HW216398   0.688   5.561   2.431
 5167SOL     OW16399   6.629   5.043   5.809
 5167SOL    HW116400   6.584   5.121   5.853
 5167SOL    HW216401   6.563   4.970   5.795
 5168SOL     OW16402   4.924   3.524   1.482
 5168SOL    HW116403   4.859   3.597   1.502
 5168SOL    HW216404   4.915   3.451   1.550
 5169SOL     OW16405   4.126   2.303   4.245
 5169SOL    HW116406   4.175   2.232   4.293
 5169SOL    HW216407   4.036   2.268   4.216
 5170SOL     OW16408   1.059   4.061   5.284
 5170SOL    HW116409   0.970   4.075   5.242
 5170SOL    HW216410   1.079   3.963   5.288
 5171SOL     OW16411   0.702   4.605   5.206
 5171SOL    HW116412   0.766   4.675   5.238
 5171SOL    HW216413   0.668   4.630   5.115
 5172SOL     OW16414   1.478   3.072   2.764
 5172SOL    HW116415   1.404   3.014   2.729
 5172SOL    HW216416   1.446   3.123   2.844
 5173SOL     OW16417   4.805   5.249   4.802
 5173SOL    HW116418   4.872   5.205   4.861
 5173SOL    HW216419   4.767   5.329   4.847
 5174SOL     OW16420   2.475   5.122   3.010
 5174SOL    HW116421   2.394   5.178   3.031
 5174SOL    HW216422   2.449   5.025   3.010
 5175SOL     OW16423   2.280   4.038   7.005
 5175SOL    HW116424   2.376   4.020   0.002
 5175SOL    HW216425   2.265   4.136   6.998
 5176SOL     OW16426   5.076   3.109   6.988
 5176SOL    HW116427   5.084   3.010   6.999
 5176SOL    HW216428   5.102   3.154   0.052
 5177SOL     OW16429   5.778   0.168   0.209
 5177SOL    HW116430   5.812   0.076   0.186
 5177SOL    HW216431   5.787   0.227   0.130
 5178SOL     OW16432   0.742   3.496   2.320
 5178SOL    HW116433   0.752   3.490   2.221
 5178SOL    HW216434   0.825   3.533   2.360
 5179SOL     OW16435   4.491   4.894   4.113
 5179SOL    HW116436   4.472   4.990   4.131
 5179SOL    HW216437   4.590   4.880   4.111
 5180SOL     OW16438   2.827   2.271   0.860
 5180SOL    HW116439   2.744   2.321   0.832
 5180SOL    HW216440   2.908   2.321   0.829
 5181SOL     OW16441   5.249   0.986   3.035
 5181SOL    HW116442   5.193   0.956   3.112
 5181SOL    HW216443   5.202   0.964   2.949
 5182SOL     OW16444   3.961   4.185   1.571
 5182SOL    HW116445   4.059   4.188   1.588
 5182SOL    HW216446   3.924   4.097   1.602
 5183SOL     OW16447   3.798   2.150   2.744
 5183SOL    HW116448   3.864   2.213   2.785
 5183SOL    HW216449   3.837   2.110   2.661
 5184SOL     OW16450   0.561   1.606   4.299
 5184SOL    HW116451   0.497   1.617   4.375
 5184SOL    HW216452   0.533   1.528   4.243
 5185SOL     OW16453   5.762   0.704   2.742
 5185SOL    HW116454   5.747   0.802   2.756
 5185SOL    HW216455   5.843   0.676   2.794
 5186SOL     OW16456   6.733   2.670   0.336
 5186SOL    HW116457   6.662   2.639   0.273
 5186SOL    HW216458   6.813   2.610   0.330
 5187SOL     OW16459   1.256   6.430   4.363
 5187SOL    HW116460   1.283   6.339   4.332
 5187SOL    HW216461   1.241   6.489   4.283
 5188SOL     OW16462   0.032   6.000   1.336
 5188SOL    HW116463   0.016   6.097   1.317
 5188SOL    HW216464   0.126   5.975   1.310
 5189SOL     OW16465   4.093   5.350   0.979
 5189SOL    HW116466   4.052   5.349   0.888
 5189SOL    HW216467   4.129   5.441   0.998
 5190SOL     OW16468   0.564   2.330   4.848
 5190SOL    HW116469   0.635   2.400   4.847
 5190SOL    HW216470   0.558   2.288   4.757
 5191SOL     OW16471   4.102   7.013   1.942
 5191SOL    HW116472   4.049   0.054   1.885
 5191SOL    HW216473   4.199   0.000   1.919
 5192SOL     OW16474   2.089   5.246   1.600
 5192SOL    HW116475   2.063   5.269   1.693
 5192SOL    HW216476   2.063   5.151   1.580
 5193SOL     OW16477   4.781   5.167   4.555
 5193SOL    HW116478   4.703   5.208   4.507
 5193SOL    HW216479   4.791   5.210   4.644
 5194SOL     OW16480   4.177   2.053   6.487
 5194SOL    HW116481   4.115   2.001   6.427
 5194SOL    HW216482   4.205   2.137   6.441
 5195SOL     OW16483   6.653   6.229   4.047
 5195SOL    HW116484   6.631   6.131   4.049
 5195SOL    HW216485   6.568   6.282   4.050
 5196SOL     OW16486   3.926   6.468   1.180
 5196SOL    HW116487   3.921   6.500   1.275
 5196SOL    HW216488   3.897   6.541   1.119
 5197SOL     OW16489   2.420   4.311   6.014
 5197SOL    HW116490   2.370   4.378   6.069
 5197SOL    HW216491   2.357   4.238   5.985
 5198SOL     OW16492   4.607   6.183   3.241
 5198SOL    HW116493   4.601   6.179   3.341
 5198SOL    HW216494   4.519   6.160   3.201
 5199SOL     OW16495   1.408   5.876   0.555
 5199SOL    HW116496   1.353   5.797   0.527
 5199SOL    HW216497   1.436   5.927   0.474
 5200SOL     OW16498   1.185   3.534   5.392
 5200SOL    HW116499   1.136   3.524   5.305
 5200SOL    HW216500   1.179   3.629   5.423
 5201SOL     OW16501   0.200   0.382   2.755
 5201SOL    HW116502   0.214   0.384   2.854
 5201SOL    HW216503   0.132   0.312   2.732
 5202SOL     OW16504   6.364   3.266   6.592
 5202SOL    HW116505   6.443   3.280   6.532
 5202SOL    HW216506   6.309   3.190   6.558
 5203SOL     OW16507   2.278   2.426   0.156
 5203SOL    HW116508   2.273   2.359   0.082
 5203SOL    HW216509   2.212   2.402   0.227
 5204SOL     OW16510   3.988   5.269   6.978
 5204SOL    HW116511   4.043   5.188   6.959
 5204SOL    HW216512   3.899   5.261   6.932
 5205SOL     OW16513   0.979   6.072   0.743
 5205SOL    HW116514   0.973   6.114   0.652
 5205SOL    HW216515   0.900   6.012   0.756
 5206SOL     OW16516   0.735   4.693   5.978
 5206SOL    HW116517   0.727   4.722   6.073
 5206SOL    HW216518   0.801   4.751   5.930
 5207SOL     OW16519   1.198   5.904   3.759
 5207SOL    HW116520   1.232   5.992   3.727
 5207SOL    HW216521   1.159   5.853   3.682
 5208SOL     OW16522   4.041   2.509   6.066
 5208SOL    HW116523   4.043   2.561   5.981
 5208SOL    HW216524   4.042   2.411   6.046
 5209SOL     OW16525   5.908   6.380   2.870
 5209SOL    HW116526   5.861   6.320   2.806
 5209SOL    HW216527   5.846   6.404   2.945
 5210SOL     OW16528   4.574   2.815   6.294
 5210SOL    HW116529   4.495   2.854   6.246
 5210SOL    HW216530   4.639   2.779   6.226
 5211SOL     OW16531   3.502   2.634   5.377
 5211SOL    HW116532   3.565   2.684   5.318
 5211SOL    HW216533   3.433   2.589   5.321
 5212SOL     OW16534   7.010   2.760   0.849
 5212SOL    HW116535   6.967   2.840   0.805
 5212SOL    HW216536   6.999   2.680   0.790
 5213SOL     OW16537   4.694   3.656   6.311
 5213SOL    HW116538   4.770   3.627   6.253
 5213SOL    HW216539   4.617   3.593   6.300
 5214SOL     OW16540   5.070   1.267   5.820
 5214SOL    HW116541   4.989   1.323   5.808
 5214SOL    HW216542   5.149   1.311   5.776
 5215SOL     OW16543   6.841   4.666   4.297
 5215SOL    HW116544   6.917   4.632   4.353
 5215SOL    HW216545   6.864   4.655   4.200
 5216SOL     OW16546   5.086   5.133   2.056
 5216SOL    HW116547   5.105   5.184   2.140
 5216SOL    HW216548   5.047   5.044   2.079
 5217SOL     OW16549   4.160   5.439   4.475
 5217SOL    HW116550   4.166   5.455   4.377
 5217SOL    HW216551   4.143   5.343   4.493
 5218SOL     OW16552   0.848   0.837   3.767
 5218SOL    HW116553   0.851   0.792   3.678
 5218SOL    HW216554   0.789   0.918   3.762
 5219SOL     OW16555   4.485   1.279   4.987
 5219SOL    HW116556   4.447   1.186   4.995
 5219SOL    HW216557   4.578   1.280   5.025
 5220SOL     OW16558   0.629   6.171   2.950
 5220SOL    HW116559   0.575   6.153   2.868
 5220SOL    HW216560   0.684   6.090   2.971
 5221SOL     OW16561   5.739   2.428   4.155
 5221SOL    HW116562   5.829   2.391   4.176
 5221SOL    HW216563   5.683   2.431   4.238
 5222SOL     OW16564   3.627   5.974   3.050
 5222SOL    HW116565   3.584   5.917   3.120
 5222SOL    HW216566   3.693   5.919   2.998
 5223SOL     OW16567   6.431   2.322   0.771
 5223SOL    HW116568   6.529   2.311   0.755
 5223SOL    HW216569   6.405   2.274   0.855
 5224SOL     OW16570   7.001   2.226   5.053
 5224SOL    HW116571   6.929   2.264   4.996
 5224SOL    HW216572   6.985   2.128   5.068
 5225SOL     OW16573   0.980   0.399   3.302
 5225SOL    HW116574   0.930   0.472   3.348
 5225SOL    HW216575   1.014   0.334   3.369
 5226SOL     OW16576   0.113   5.695   5.017
 5226SOL    HW116577   0.147   5.674   4.925
 5226SOL    HW216578   0.119   5.793   5.034
 5227SOL     OW16579   0.682   3.433   4.453
 5227SOL    HW116580   0.744   3.441   4.531
 5227SOL    HW216581   0.680   3.520   4.403
 5228SOL     OW16582   6.175   2.594   1.440
 5228SOL    HW116583   6.171   2.507   1.393
 5228SOL    HW216584   6.109   2.595   1.515
 5229SOL     OW16585   1.875   5.873   6.944
 5229SOL    HW116586   1.869   5.853   0.020
 5229SOL    HW216587   1.783   5.881   6.906
 5230SOL     OW16588   0.565   5.977   1.613
 5230SOL    HW116589   0.595   5.993   1.518
 5230SOL    HW216590   0.467   5.994   1.621
 5231SOL     OW16591   4.616   3.139   5.314
 5231SOL    HW116592   4.694   3.090   5.353
 5231SOL    HW216593   4.636   3.236   5.309
 5232SOL     OW16594   3.152   2.708   5.967
 5232SOL    HW116595   3.206   2.780   5.924
 5232SOL    HW216596   3.056   2.734   5.966
 5233SOL     OW16597   4.811   1.054   2.366
 5233SOL    HW116598   4.859   1.106   2.437
 5233SOL    HW216599   4.872   1.039   2.288
 5234SOL     OW16600   2.354   1.158   6.286
 5234SOL    HW116601   2.363   1.096   6.364
 5234SOL    HW216602   2.317   1.108   6.208
 5235SOL     OW16603   1.855   2.480   0.353
 5235SOL    HW116604   1.914   2.538   0.409
 5235SOL    HW216605   1.767   2.524   0.340
 5236SOL     OW16606   5.602   4.619   2.787
 5236SOL    HW116607   5.529   4.625   2.718
 5236SOL    HW216608   5.661   4.541   2.766
 5237SOL     OW16609   1.922   1.131   5.189
 5237SOL    HW116610   1.855   1.199   5.219
 5237SOL    HW216611   1.923   1.128   5.089
 5238SOL     OW16612   0.897   4.391   0.242
 5238SOL    HW116613   0.950   4.321   0.192
 5238SOL    HW216614   0.844   4.347   0.315
 5239SOL     OW16615   3.685   2.967   3.977
 5239SOL    HW116616   3.592   3.003   3.987
 5239SOL    HW216617   3.715   2.928   4.064
 5240SOL     OW16618   2.829   1.448   6.178
 5240SOL    HW116619   2.881   1.493   6.250
 5240SOL    HW216620   2.790   1.517   6.117
 5241SOL     OW16621   0.637   4.966   5.210
 5241SOL    HW116622   0.712   4.976   5.145
 5241SOL    HW216623   0.663   4.900   5.281
 5242SOL     OW16624   0.813   6.442   6.370
 5242SOL    HW116625   0.894   6.443   6.427
 5242SOL    HW216626   0.806   6.528   6.319
 5243SOL     OW16627   0.962   5.166   1.780
 5243SOL    HW116628   0.888   5.233   1.773
 5243SOL    HW216629   0.959   5.104   1.702
 5244SOL     OW16630   3.551   5.502   0.192
 5244SOL    HW116631   3.461   5.539   0.168
 5244SOL    HW216632   3.622   5.565   0.162
 5245SOL     OW16633   3.979   4.399   0.241
 5245SOL    HW116634   4.006   4.355   0.155
 5245SOL    HW216635   3.946   4.331   0.305
 5246SOL     OW16636   5.875   3.877   2.385
 5246SOL    HW116637   5.857   3.860   2.288
 5246SOL    HW216638   5.793   3.914   2.428
 5247SOL     OW16639   1.112   0.926   0.706
 5247SOL    HW116640   1.120   1.025   0.703
 5247SOL    HW216641   1.203   0.885   0.714
 5248SOL     OW16642   5.344   1.003   4.004
 5248SOL    HW116643   5.305   0.944   3.934
 5248SOL    HW216644   5.389   0.947   4.074
 5249SOL     OW16645   6.802   4.839   5.476
 5249SOL    HW116646   6.879   4.818   5.416
 5249SOL    HW216647   6.744   4.758   5.485
 5250SOL     OW16648   1.667   6.340   5.643
 5250SOL    HW116649   1.741   6.336   5.711
 5250SOL    HW216650   1.689   6.409   5.574
 5251SOL     OW16651   0.533   3.683   0.607
 5251SOL    HW116652   0.582   3.662   0.523
 5251SOL    HW216653   0.484   3.602   0.639
 5252SOL     OW16654   2.128   6.217   0.669
 5252SOL    HW116655   2.163   6.163   0.592
 5252SOL    HW216656   2.202   6.270   0.708
 5253SOL     OW16657   5.374   4.828   4.345
 5253SOL    HW116658   5.335   4.853   4.434
 5253SOL    HW216659   5.351   4.733   4.324
 5254SOL     OW16660   4.959   1.163   3.163
 5254SOL    HW116661   4.874   1.212   3.183
 5254SOL    HW216662   4.946   1.105   3.083
 5255SOL     OW16663   5.532   1.229   5.953
 5255SOL    HW116664   5.528   1.225   6.052
 5255SOL    HW216665   5.584   1.309   5.925
 5256SOL     OW16666   4.215   0.970   3.245
 5256SOL    HW116667   4.198   0.932   3.155
 5256SOL    HW216668   4.129   0.976   3.296
 5257SOL     OW16669   5.033   6.612   2.152
 5257SOL    HW116670   4.985   6.524   2.145
 5257SOL    HW216671   4.981   6.673   2.212
 5258SOL     OW16672   6.044   4.104   1.954
 5258SOL    HW116673   6.069   4.201   1.954
 5258SOL    HW216674   6.122   4.050   1.923
 5259SOL     OW16675   5.165   6.069   0.403
 5259SOL    HW116676   5.153   6.158   0.447
 5259SOL    HW216677   5.140   5.997   0.468
 5260SOL     OW16678   5.315   3.775   1.026
 5260SOL    HW116679   5.295   3.802   0.932
 5260SOL    HW216680   5.398   3.719   1.028
 5261SOL     OW16681   1.200   3.718   0.735
 5261SOL    HW116682   1.119   3.740   0.788
 5261SOL    HW216683   1.262   3.797   0.733
 5262SOL     OW16684   2.802   0.921   2.820
 5262SOL    HW116685   2.809   1.016   2.850
 5262SOL    HW216686   2.888   0.892   2.778
 5263SOL     OW16687   2.094   1.592   4.785
 5263SOL    HW116688   2.180   1.630   4.819
 5263SOL    HW216689   2.046   1.661   4.730
 5264SOL     OW16690   5.679   1.874   2.215
 5264SOL    HW116691   5.702   1.825   2.131
 5264SOL    HW216692   5.605   1.826   2.262
 5265SOL     OW16693   6.083   3.893   4.318
 5265SOL    HW116694   6.099   3.805   4.363
 5265SOL    HW216695   6.106   3.967   4.381
 5266SOL     OW16696   2.212   6.022   1.134
 5266SOL    HW116697   2.281   5.950   1.141
 5266SOL    HW216698   2.125   5.983   1.104
 5267SOL     OW16699   4.911   3.818   4.932
 5267SOL    HW116700   4.932   3.794   4.837
 5267SOL    HW216701   4.878   3.736   4.980
 5268SOL     OW16702   5.991   0.020   6.534
 5268SOL    HW116703   5.909   0.075   6.517
 5268SOL    HW216704   6.026   0.041   6.625
 5269SOL     OW16705   1.398   6.519   3.446
 5269SOL    HW116706   1.467   6.464   3.399
 5269SOL    HW216707   1.426   6.615   3.446
 5270SOL     OW16708   6.031   1.364   1.342
 5270SOL    HW116709   6.105   1.330   1.400
 5270SOL    HW216710   5.957   1.398   1.399
 5271SOL     OW16711   6.311   5.745   4.889
 5271SOL    HW116712   6.374   5.743   4.812
 5271SOL    HW216713   6.272   5.653   4.902
 5272SOL     OW16714   2.655   5.288   1.681
 5272SOL    HW116715   2.724   5.215   1.681
 5272SOL    HW216716   2.654   5.333   1.592
 5273SOL     OW16717   6.635   2.927   3.310
 5273SOL    HW116718   6.645   2.858   3.238
 5273SOL    HW216719   6.721   2.936   3.360
 5274SOL     OW16720   6.261   0.043   2.102
 5274SOL    HW116721   6.354   0.012   2.081
 5274SOL    HW216722   6.256   0.142   2.092
 5275SOL     OW16723   3.508   2.163   6.941
 5275SOL    HW116724   3.501   2.139   6.844
 5275SOL    HW216725   3.594   2.129   6.978
 5276SOL     OW16726   1.723   6.995   0.698
 5276SOL    HW116727   1.773   0.060   0.704
 5276SOL    HW216728   1.692   6.981   0.604
 5277SOL     OW16729   1.313   2.029   3.168
 5277SOL    HW116730   1.230   2.079   3.144
 5277SOL    HW216731   1.290   1.935   3.191
 5278SOL     OW16732   5.585   0.462   3.165
 5278SOL    HW116733   5.512   0.394   3.173
 5278SOL    HW216734   5.552   0.541   3.115
 5279SOL     OW16735   1.502   5.214   6.786
 5279SOL    HW116736   1.418   5.164   6.806
 5279SOL    HW216737   1.571   5.192   6.855
 5280SOL     OW16738   2.985   6.643   5.020
 5280SOL    HW116739   2.967   6.586   4.940
 5280SOL    HW216740   3.028   6.588   5.091
 5281SOL     OW16741   0.401   1.575   2.297
 5281SOL    HW116742   0.451   1.488   2.289
 5281SOL    HW216743   0.425   1.619   2.383
 5282SOL     OW16744   2.412   1.781   3.203
 5282SOL    HW116745   2.369   1.691   3.209
 5282SOL    HW216746   2.378   1.830   3.122
 5283SOL     OW16747   4.413   6.339   1.666
 5283SOL    HW116748   4.443   6.433   1.652
 5283SOL    HW216749   4.417   6.316   1.763
 5284SOL     OW16750   5.335   3.836   3.342
 5284SOL    HW116751   5.269   3.774   3.300
 5284SOL    HW216752   5.370   3.899   3.272
 5285SOL     OW16753   2.355   4.707   3.867
 5285SOL    HW116754   2.291   4.781   3.846
 5285SOL    HW216755   2.363   4.647   3.787
 5286SOL     OW16756   1.480   3.388   1.275
 5286SOL    HW116757   1.383   3.407   1.261
 5286SOL    HW216758   1.513   3.326   1.203
 5287SOL     OW16759   2.021   6.427   1.180
 5287SOL    HW116760   2.072   6.513   1.172
 5287SOL    HW216761   2.048   6.381   1.265
 5288SOL     OW16762   4.016   0.154   1.684
 5288SOL    HW116763   4.032   0.155   1.586
 5288SOL    HW216764   3.993   0.246   1.715
 5289SOL     OW16765   1.471   5.160   5.995
 5289SOL    HW116766   1.505   5.197   5.909
 5289SOL    HW216767   1.503   5.066   6.006
 5290SOL     OW16768   1.934   4.495   5.249
 5290SOL    HW116769   1.850   4.519   5.201
 5290SOL    HW216770   1.963   4.573   5.306
 5291SOL     OW16771   2.183   5.594   5.542
 5291SOL    HW116772   2.166   5.665   5.611
 5291SOL    HW216773   2.224   5.637   5.460
 5292SOL     OW16774   6.748   4.017   0.073
 5292SOL    HW116775   6.813   4.091   0.053
 5292SOL    HW216776   6.790   3.929   0.051
 5293SOL     OW16777   1.319   0.919   3.934
 5293SOL    HW116778   1.291   0.825   3.956
 5293SOL    HW216779   1.411   0.935   3.970
 5294SOL     OW16780   4.615   3.464   5.736
 5294SOL    HW116781   4.544   3.485   5.669
 5294SOL    HW216782   4.573   3.453   5.826
 5295SOL     OW16783   5.126   0.200   2.220
 5295SOL    HW116784   5.100   0.269   2.152
 5295SOL    HW216785   5.049   0.140   2.237
 5296SOL     OW16786   1.349   5.105   0.415
 5296SOL    HW116787   1.399   5.071   0.336
 5296SOL    HW216788   1.338   5.031   0.481
 5297SOL     OW16789   3.358   1.919   1.499
 5297SOL    HW116790   3.420   1.843   1.477
 5297SOL    HW216791   3.355   1.932   1.598
 5298SOL     OW16792   1.235   6.007   6.323
 5298SOL    HW116793   1.135   6.012   6.321
 5298SOL    HW216794   1.266   5.929   6.269
 5299SOL     OW16795   2.654   2.507   1.204
 5299SOL    HW116796   2.740   2.470   1.171
 5299SOL    HW216797   2.584   2.435   1.205
 5300SOL     OW16798   7.018   6.260   2.160
 5300SOL    HW116799   6.977   6.335   2.109
 5300SOL    HW216800   7.022   6.178   2.103
 5301SOL     OW16801   4.310   2.972   0.701
 5301SOL    HW116802   4.264   2.920   0.630
 5301SOL    HW216803   4.318   2.916   0.783
 5302SOL     OW16804   6.391   4.616   2.505
 5302SOL    HW116805   6.298   4.583   2.488
 5302SOL    HW216806   6.444   4.545   2.552
 5303SOL     OW16807   6.742   5.959   3.001
 5303SOL    HW116808   6.752   5.860   2.991
 5303SOL    HW216809   6.726   5.981   3.098
 5304SOL     OW16810   6.494   1.587   6.375
 5304SOL    HW116811   6.419   1.521   6.374
 5304SOL    HW216812   6.555   1.568   6.297
 5305SOL     OW16813   1.285   5.781   4.290
 5305SOL    HW116814   1.286   5.770   4.191
 5305SOL    HW216815   1.221   5.854   4.315
 5306SOL     OW16816   0.672   5.366   5.015
 5306SOL    HW116817   0.700   5.462   5.017
 5306SOL    HW216818   0.628   5.342   5.102
 5307SOL     OW16819   4.352   0.100   6.944
 5307SOL    HW116820   4.329   0.193   6.917
 5307SOL    HW216821   4.306   0.035   6.882
 5308SOL     OW16822   1.024   5.943   3.984
 5308SOL    HW116823   1.087   5.939   3.907
 5308SOL    HW216824   0.934   5.972   3.951
 5309SOL     OW16825   3.544   4.172   1.876
 5309SOL    HW116826   3.608   4.189   1.800
 5309SOL    HW216827   3.473   4.243   1.876
 5310SOL     OW16828   5.980   2.623   1.633
 5310SOL    HW116829   5.894   2.667   1.607
 5310SOL    HW216830   6.043   2.692   1.669
 5311SOL     OW16831   7.019   6.292   1.245
 5311SOL    HW116832   6.948   6.291   1.175
 5311SOL    HW216833   6.996   6.359   1.315
 5312SOL     OW16834   0.325   3.622   2.064
 5312SOL    HW116835   0.419   3.590   2.055
 5312SOL    HW216836   0.307   3.646   2.160
 5313SOL     OW16837   1.333   3.566   6.805
 5313SOL    HW116838   1.249   3.521   6.772
 5313SOL    HW216839   1.385   3.501   6.860
 5314SOL     OW16840   3.315   5.759   0.311
 5314SOL    HW116841   3.255   5.679   0.319
 5314SOL    HW216842   3.385   5.755   0.383
 5315SOL     OW16843   3.749   3.309   1.302
 5315SOL    HW116844   3.764   3.288   1.205
 5315SOL    HW216845   3.655   3.286   1.326
 5316SOL     OW16846   0.060   4.607   4.398
 5316SOL    HW116847   0.080   4.661   4.479
 5316SOL    HW216848   0.141   4.605   4.339
 5317SOL     OW16849   6.925   0.625   4.772
 5317SOL    HW116850   6.851   0.690   4.786
 5317SOL    HW216851   6.999   0.644   4.835
 5318SOL     OW16852   0.348   1.650   5.723
 5318SOL    HW116853   0.279   1.705   5.676
 5318SOL    HW216854   0.349   1.675   5.820
 5319SOL     OW16855   4.570   6.768   6.501
 5319SOL    HW116856   4.535   6.723   6.419
 5319SOL    HW216857   4.593   6.699   6.569
 5320SOL     OW16858   5.878   4.760   6.556
 5320SOL    HW116859   5.977   4.764   6.537
 5320SOL    HW216860   5.863   4.717   6.645
 5321SOL     OW16861   0.823   4.071   2.872
 5321SOL    HW116862   0.825   3.974   2.851
 5321SOL    HW216863   0.904   4.115   2.833
 5322SOL     OW16864   3.606   5.689   5.990
 5322SOL    HW116865   3.533   5.678   6.058
 5322SOL    HW216866   3.693   5.662   6.029
 5323SOL     OW16867   4.402   3.193   0.040
 5323SOL    HW116868   4.494   3.155   0.041
 5323SOL    HW216869   4.406   3.292   0.051
 5324SOL     OW16870   3.940   2.356   1.694
 5324SOL    HW116871   3.868   2.339   1.762
 5324SOL    HW216872   4.025   2.379   1.741
 5325SOL     OW16873   5.927   6.672   3.917
 5325SOL    HW116874   5.968   6.762   3.933
 5325SOL    HW216875   5.974   6.604   3.972
 5326SOL     OW16876   0.061   5.991   3.335
 5326SOL    HW116877   0.001   5.913   3.355
 5326SOL    HW216878   0.082   6.039   3.420
 5327SOL     OW16879   6.484   4.536   4.822
 5327SOL    HW116880   6.413   4.512   4.757
 5327SOL    HW216881   6.459   4.503   4.913
 5328SOL     OW16882   4.633   2.764   5.786
 5328SOL    HW116883   4.560   2.698   5.807
 5328SOL    HW216884   4.614   2.807   5.698
 5329SOL     OW16885   0.705   3.755   0.219
 5329SOL    HW116886   0.795   3.762   0.176
 5329SOL    HW216887   0.706   3.680   0.286
 5330SOL     OW16888   3.900   4.090   6.736
 5330SOL    HW116889   3.969   4.160   6.752
 5330SOL    HW216890   3.922   4.040   6.652
 5331SOL     OW16891   5.564   0.489   1.499
 5331SOL    HW116892   5.654   0.516   1.466
 5331SOL    HW216893   5.497   0.500   1.426
 5332SOL     OW16894   0.367   4.460   0.462
 5332SOL    HW116895   0.313   4.505   0.533
 5332SOL    HW216896   0.366   4.361   0.477
 5333SOL     OW16897   0.856   0.628   3.948
 5333SOL    HW116898   0.796   0.563   3.901
 5333SOL    HW216899   0.856   0.715   3.898
 5334SOL     OW16900   3.074   5.980   5.237
 5334SOL    HW116901   3.072   5.982   5.137
 5334SOL    HW216902   3.033   5.895   5.269
 5335SOL     OW16903   6.985   4.792   2.179
 5335SOL    HW116904   0.056   4.755   2.178
 5335SOL    HW216905   6.921   4.722   2.148
 5336SOL     OW16906   2.353   1.833   3.529
 5336SOL    HW116907   2.452   1.824   3.524
 5336SOL    HW216908   2.329   1.908   3.591
 5337SOL     OW16909   4.985   4.895   2.161
 5337SOL    HW116910   4.949   4.811   2.121
 5337SOL    HW216911   4.927   4.922   2.239
 5338SOL     OW16912   6.043   0.949   6.053
 5338SOL    HW116913   6.087   0.882   6.113
 5338SOL    HW216914   5.944   0.932   6.052
 5339SOL     OW16915   6.009   1.242   3.041
 5339SOL    HW116916   6.090   1.264   2.987
 5339SOL    HW216917   5.958   1.326   3.060
 5340SOL     OW16918   5.899   3.977   1.246
 5340SOL    HW116919   5.828   4.024   1.192
 5340SOL    HW216920   5.987   3.986   1.200
 5341SOL     OW16921   2.819   5.167   5.098
 5341SOL    HW116922   2.786   5.254   5.136
 5341SOL    HW216923   2.790   5.092   5.157
 5342SOL     OW16924   5.439   6.351   4.952
 5342SOL    HW116925   5.479   6.310   5.034
 5342SOL    HW216926   5.459   6.293   4.873
 5343SOL     OW16927   4.138   3.468   5.172
 5343SOL    HW116928   4.213   3.433   5.227
 5343SOL    HW216929   4.121   3.564   5.195
 5344SOL     OW16930   1.666   1.609   0.974
 5344SOL    HW116931   1.726   1.690   0.980
 5344SOL    HW216932   1.591   1.629   0.910
 5345SOL     OW16933   5.395   6.748   7.015
 5345SOL    HW116934   5.341   6.723   6.934
 5345SOL    HW216935   5.410   6.846   7.016
 5346SOL     OW16936   2.899   5.651   3.712
 5346SOL    HW116937   2.874   5.566   3.665
 5346SOL    HW216938   2.892   5.638   3.811
 5347SOL     OW16939   0.356   3.173   2.582
 5347SOL    HW116940   0.422   3.153   2.656
 5347SOL    HW216941   0.404   3.215   2.505
 5348SOL     OW16942   6.557   1.212   6.826
 5348SOL    HW116943   6.582   1.298   6.870
 5348SOL    HW216944   6.459   1.196   6.835
 5349SOL     OW16945   2.272   3.662   0.753
 5349SOL    HW116946   2.307   3.744   0.708
 5349SOL    HW216947   2.215   3.610   0.689
 5350SOL     OW16948   1.743   0.171   4.704
 5350SOL    HW116949   1.839   0.201   4.702
 5350SOL    HW216950   1.739   0.072   4.690
 5351SOL     OW16951   0.148   5.520   2.247
 5351SOL    HW116952   0.157   5.617   2.224
 5351SOL    HW216953   0.235   5.485   2.282
 5352SOL     OW16954   2.348   4.824   2.756
 5352SOL    HW116955   2.392   4.825   2.846
 5352SOL    HW216956   2.410   4.864   2.689
 5353SOL     OW16957   3.808   5.536   4.496
 5353SOL    HW116958   3.855   5.616   4.532
 5353SOL    HW216959   3.715   5.532   4.534
 5354SOL     OW16960   2.046   4.320   1.063
 5354SOL    HW116961   2.040   4.409   1.020
 5354SOL    HW216962   2.139   4.284   1.054
 5355SOL     OW16963   5.726   5.039   3.923
 5355SOL    HW116964   5.737   4.940   3.932
 5355SOL    HW216965   5.635   5.066   3.956
 5356SOL     OW16966   6.627   3.657   3.049
 5356SOL    HW116967   6.655   3.690   3.139
 5356SOL    HW216968   6.693   3.588   3.017
 5357SOL     OW16969   3.012   5.701   0.607
 5357SOL    HW116970   3.045   5.681   0.699
 5357SOL    HW216971   3.029   5.797   0.586
 5358SOL     OW16972   4.466   2.000   0.747
 5358SOL    HW116973   4.464   2.066   0.822
 5358SOL    HW216974   4.494   2.046   0.663
 5359SOL     OW16975   2.727   2.020   6.274
 5359SOL    HW116976   2.674   2.053   6.196
 5359SOL    HW216977   2.672   2.028   6.358
 5360SOL     OW16978   4.031   6.413   3.560
 5360SOL    HW116979   4.013   6.511   3.562
 5360SOL    HW216980   3.950   6.364   3.593
 5361SOL     OW16981   2.667   6.891   4.686
 5361SOL    HW116982   2.703   6.856   4.599
 5361SOL    HW216983   2.572   6.860   4.697
 5362SOL     OW16984   6.674   5.979   2.685
 5362SOL    HW116985   6.750   6.042   2.667
 5362SOL    HW216986   6.708   5.885   2.684
 5363SOL     OW16987   6.351   6.144   6.015
 5363SOL    HW116988   6.349   6.053   5.975
 5363SOL    HW216989   6.440   6.186   5.999
 5364SOL     OW16990   6.159   0.590   1.284
 5364SOL    HW116991   6.177   0.565   1.379
 5364SOL    HW216992   6.061   0.596   1.269
 5365SOL     OW16993   3.461   3.012   2.167
 5365SOL    HW116994   3.410   2.956   2.102
 5365SOL    HW216995   3.548   2.969   2.187
 5366SOL     OW16996   5.960   6.379   1.726
 5366SOL    HW116997   5.933   6.298   1.674
 5366SOL    HW216998   5.925   6.461   1.680
 5367SOL     OW16999   0.241   6.970   1.817
 5367SOL    HW117000   0.252   0.027   1.757
 5367SOL    HW217001   0.146   6.964   1.847
 5368SOL     OW17002   5.980   0.100   2.623
 5368SOL    HW117003   6.036   0.109   2.541
 5368SOL    HW217004   5.989   0.007   2.660
 5369SOL     OW17005   2.562   6.846   0.812
 5369SOL    HW117006   2.515   6.884   0.733
 5369SOL    HW217007   2.559   6.746   0.808
 5370SOL     OW17008   4.637   3.789   0.676
 5370SOL    HW117009   4.676   3.742   0.754
 5370SOL    HW217010   4.572   3.858   0.708
 5371SOL     OW17011   1.232   4.628   5.603
 5371SOL    HW117012   1.275   4.539   5.585
 5371SOL    HW217013   1.296   4.701   5.582
 5372SOL     OW17014   1.001   6.214   2.869
 5372SOL    HW117015   0.962   6.271   2.797
 5372SOL    HW217016   1.043   6.273   2.939
 5373SOL     OW17017   3.881   6.266   5.045
 5373SOL    HW117018   3.969   6.314   5.049
 5373SOL    HW217019   3.823   6.298   5.120
 5374SOL     OW17020   2.313   4.736   0.919
 5374SOL    HW117021   2.380   4.661   0.926
 5374SOL    HW217022   2.277   4.738   0.826
 5375SOL     OW17023   0.339   5.937   5.408
 5375SOL    HW117024   0.249   5.907   5.441
 5375SOL    HW217025   0.330   6.024   5.360
 5376SOL     OW17026   1.255   2.597   1.446
 5376SOL    HW117027   1.324   2.557   1.507
 5376SOL    HW217028   1.265   2.696   1.445
 5377SOL     OW17029   0.994   0.215   2.764
 5377SOL    HW117030   1.007   0.228   2.862
 5377SOL    HW217031   0.913   0.159   2.748
 5378SOL     OW17032   6.629   6.659   2.470
 5378SOL    HW117033   6.609   6.568   2.507
 5378SOL    HW217034   6.709   6.697   2.517
 5379SOL     OW17035   1.207   3.587   4.879
 5379SOL    HW117036   1.209   3.489   4.898
 5379SOL    HW217037   1.115   3.613   4.847
 5380SOL     OW17038   3.112   7.001   1.858
 5380SOL    HW117039   3.130   0.012   1.951
 5380SOL    HW217040   3.197   7.000   1.805
 5381SOL     OW17041   6.735   5.964   1.974
 5381SOL    HW117042   6.717   6.062   1.978
 5381SOL    HW217043   6.770   5.940   1.883
 5382SOL     OW17044   3.066   2.022   2.099
 5382SOL    HW117045   3.029   2.115   2.095
 5382SOL    HW217046   2.992   1.958   2.117
 5383SOL     OW17047   1.416   3.358   4.613
 5383SOL    HW117048   1.489   3.290   4.599
 5383SOL    HW217049   1.438   3.441   4.561
 5384SOL     OW17050   4.977   6.874   4.819
 5384SOL    HW117051   4.896   6.920   4.855
 5384SOL    HW217052   4.972   6.872   4.719
 5385SOL     OW17053   3.617   3.524   5.035
 5385SOL    HW117054   3.636   3.622   5.030
 5385SOL    HW217055   3.683   3.474   4.979
 5386SOL     OW17056   5.016   1.761   3.861
 5386SOL    HW117057   4.954   1.752   3.783
 5386SOL    HW217058   4.985   1.701   3.935
 5387SOL     OW17059   2.199   6.563   2.503
 5387SOL    HW117060   2.235   6.473   2.526
 5387SOL    HW217061   2.232   6.630   2.569
 5388SOL     OW17062   0.800   0.793   3.247
 5388SOL    HW117063   0.774   0.697   3.246
 5388SOL    HW217064   0.744   0.843   3.180
 5389SOL     OW17065   4.010   1.030   3.907
 5389SOL    HW117066   4.028   1.123   3.938
 5389SOL    HW217067   3.987   1.030   3.810
 5390SOL     OW17068   5.692   3.790   3.261
 5390SOL    HW117069   5.607   3.841   3.250
 5390SOL    HW217070   5.711   3.776   3.358
 5391SOL     OW17071   2.087   1.983   0.519
 5391SOL    HW117072   2.170   1.941   0.555
 5391SOL    HW217073   2.068   2.068   0.569
 5392SOL     OW17074   6.050   3.822   0.896
 5392SOL    HW117075   5.955   3.794   0.881
 5392SOL    HW217076   6.099   3.823   0.809
 5393SOL     OW17077   4.179   0.299   4.924
 5393SOL    HW117078   4.121   0.293   4.843
 5393SOL    HW217079   4.125   0.328   5.003
 5394SOL     OW17080   0.835   5.988   1.130
 5394SOL    HW117081   0.886   5.904   1.149
 5394SOL    HW217082   0.830   6.044   1.213
 5395SOL     OW17083   4.966   0.433   1.171
 5395SOL    HW117084   4.902   0.377   1.223
 5395SOL    HW217085   4.966   0.404   1.075
 5396SOL     OW17086   5.331   5.079   1.193
 5396SOL    HW117087   5.338   5.174   1.163
 5396SOL    HW217088   5.283   5.025   1.124
 5397SOL     OW17089   0.547   2.106   1.388
 5397SOL    HW117090   0.471   2.055   1.347
 5397SOL    HW217091   0.513   2.195   1.419
 5398SOL     OW17092   3.553   1.971   4.178
 5398SOL    HW117093   3.458   2.001   4.167
 5398SOL    HW217094   3.606   2.000   4.099
 5399SOL     OW17095   2.359   6.722   6.145
 5399SOL    HW117096   2.365   6.771   6.232
 5399SOL    HW217097   2.269   6.738   6.104
 5400SOL     OW17098   2.743   4.153   7.003
 5400SOL    HW117099   2.772   4.199   6.919
 5400SOL    HW217100   2.710   4.221   0.046
 5401SOL     OW17101   5.654   4.321   2.319
 5401SOL    HW117102   5.672   4.301   2.222
 5401SOL    HW217103   5.732   4.294   2.374
 5402SOL     OW17104   3.221   6.273   0.856
 5402SOL    HW117105   3.179   6.185   0.834
 5402SOL    HW217106   3.189   6.304   0.945
 5403SOL     OW17107   4.887   3.408   6.100
 5403SOL    HW117108   4.847   3.385   6.189
 5403SOL    HW217109   4.843   3.490   6.064
 5404SOL     OW17110   1.093   0.807   1.940
 5404SOL    HW117111   1.190   0.784   1.950
 5404SOL    HW217112   1.041   0.765   2.014
 5405SOL     OW17113   5.712   4.738   0.064
 5405SOL    HW117114   5.715   4.838   0.069
 5405SOL    HW217115   5.669   4.702   0.147
 5406SOL     OW17116   1.955   0.472   5.102
 5406SOL    HW117117   1.933   0.395   5.161
 5406SOL    HW217118   1.875   0.496   5.047
 5407SOL     OW17119   3.343   2.038   1.264
 5407SOL    HW117120   3.353   1.975   1.341
 5407SOL    HW217121   3.433   2.062   1.228
 5408SOL     OW17122   3.988   0.508   4.799
 5408SOL    HW117123   3.933   0.467   4.726
 5408SOL    HW217124   3.955   0.477   4.888
 5409SOL     OW17125   6.881   1.788   3.239
 5409SOL    HW117126   6.843   1.787   3.146
 5409SOL    HW217127   6.968   1.839   3.238
 5410SOL     OW17128   0.697   2.346   6.081
 5410SOL    HW117129   0.708   2.392   5.993
 5410SOL    HW217130   0.773   2.370   6.142
 5411SOL     OW17131   5.551   5.182   6.173
 5411SOL    HW117132   5.588   5.167   6.081
 5411SOL    HW217133   5.613   5.241   6.225
 5412SOL     OW17134   3.053   1.389   6.701
 5412SOL    HW117135   3.124   1.454   6.679
 5412SOL    HW217136   3.062   1.360   6.797
 5413SOL     OW17137   0.215   0.390   6.597
 5413SOL    HW117138   0.159   0.441   6.662
 5413SOL    HW217139   0.265   0.318   6.646
 5414SOL     OW17140   6.161   4.125   4.844
 5414SOL    HW117141   6.220   4.044   4.846
 5414SOL    HW217142   6.209   4.200   4.798
 5415SOL     OW17143   2.155   6.789   1.429
 5415SOL    HW117144   2.156   6.884   1.396
 5415SOL    HW217145   2.114   6.785   1.519
 5416SOL     OW17146   2.730   5.002   5.304
 5416SOL    HW117147   2.720   4.904   5.288
 5416SOL    HW217148   2.639   5.045   5.303
 5417SOL     OW17149   4.347   6.581   4.478
 5417SOL    HW117150   4.371   6.675   4.503
 5417SOL    HW217151   4.253   6.562   4.506
 5418SOL     OW17152   5.555   6.600   4.977
 5418SOL    HW117153   5.568   6.611   5.075
 5418SOL    HW217154   5.513   6.511   4.958
 5419SOL     OW17155   3.495   5.823   0.843
 5419SOL    HW117156   3.567   5.755   0.832
 5419SOL    HW217157   3.535   5.909   0.874
 5420SOL     OW17158   1.890   2.463   1.819
 5420SOL    HW117159   1.954   2.532   1.787
 5420SOL    HW217160   1.917   2.373   1.785
 5421SOL     OW17161   3.028   5.140   1.800
 5421SOL    HW117162   2.930   5.127   1.812
 5421SOL    HW217163   3.061   5.078   1.728
 5422SOL     OW17164   0.626   4.773   4.102
 5422SOL    HW117165   0.616   4.870   4.079
 5422SOL    HW217166   0.599   4.718   4.023
 5423SOL     OW17167   5.061   4.854   0.507
 5423SOL    HW117168   5.161   4.858   0.501
 5423SOL    HW217169   5.029   4.762   0.484
 5424SOL     OW17170   5.529   4.449   4.438
 5424SOL    HW117171   5.580   4.363   4.440
 5424SOL    HW217172   5.504   4.471   4.344
 5425SOL     OW17173   5.455   2.158   5.236
 5425SOL    HW117174   5.522   2.230   5.257
 5425SOL    HW217175   5.490   2.100   5.163
 5426SOL     OW17176   6.078   5.645   2.763
 5426SOL    HW117177   6.100   5.598   2.678
 5426SOL    HW217178   6.024   5.727   2.743
 5427SOL     OW17179   4.895   3.810   0.508
 5427SOL    HW117180   4.884   3.896   0.458
 5427SOL    HW217181   4.825   3.804   0.579
 5428SOL     OW17182   5.692   0.077   2.001
 5428SOL    HW117183   5.596   0.066   2.026
 5428SOL    HW217184   5.703   0.162   1.948
 5429SOL     OW17185   2.416   0.833   6.100
 5429SOL    HW117186   2.330   0.833   6.151
 5429SOL    HW217187   2.433   0.925   6.064
 5430SOL     OW17188   2.011   2.745   5.701
 5430SOL    HW117189   1.981   2.841   5.698
 5430SOL    HW217190   2.058   2.722   5.616
 5431SOL     OW17191   2.980   4.300   6.420
 5431SOL    HW117192   2.886   4.264   6.415
 5431SOL    HW217193   2.978   4.399   6.409
 5432SOL     OW17194   3.762   5.226   6.832
 5432SOL    HW117195   3.699   5.149   6.820
 5432SOL    HW217196   3.729   5.305   6.780
 5433SOL     OW17197   0.778   1.212   2.796
 5433SOL    HW117198   0.808   1.119   2.814
 5433SOL    HW217199   0.748   1.220   2.701
 5434SOL     OW17200   3.911   0.716   4.479
 5434SOL    HW117201   3.997   0.679   4.444
 5434SOL    HW217202   3.921   0.735   4.577
 5435SOL     OW17203   6.668   2.556   0.701
 5435SOL    HW117204   6.658   2.538   0.799
 5435SOL    HW217205   6.584   2.530   0.653
 5436SOL     OW17206   5.556   4.677   3.279
 5436SOL    HW117207   5.649   4.650   3.306
 5436SOL    HW217208   5.561   4.750   3.212
 5437SOL     OW17209   2.854   5.175   4.830
 5437SOL    HW117210   2.788   5.113   4.788
 5437SOL    HW217211   2.834   5.182   4.928
 5438SOL     OW17212   5.854   3.959   1.790
 5438SOL    HW117213   5.894   3.868   1.802
 5438SOL    HW217214   5.912   4.027   1.834
 5439SOL     OW17215   0.458   2.801   0.270
 5439SOL    HW117216   0.497   2.889   0.244
 5439SOL    HW217217   0.362   2.812   0.294
 5440SOL     OW17218   6.808   6.729   3.654
 5440SOL    HW117219   6.876   6.657   3.664
 5440SOL    HW217220   6.719   6.687   3.633
 5441SOL     OW17221   4.871   3.295   3.685
 5441SOL    HW117222   4.910   3.239   3.758
 5441SOL    HW217223   4.833   3.236   3.614
 5442SOL     OW17224   4.022   0.118   2.944
 5442SOL    HW117225   3.968   0.120   2.860
 5442SOL    HW217226   3.967   0.078   3.018
 5443SOL     OW17227   4.036   5.558   3.749
 5443SOL    HW117228   3.976   5.571   3.829
 5443SOL    HW217229   4.024   5.634   3.686
 5444SOL     OW17230   0.345   0.576   3.199
 5444SOL    HW117231   0.279   0.621   3.259
 5444SOL    HW217232   0.434   0.575   3.244
 5445SOL     OW17233   6.222   4.469   4.052
 5445SOL    HW117234   6.299   4.418   4.014
 5445SOL    HW217235   6.245   4.567   4.054
 5446SOL     OW17236   5.780   5.383   4.586
 5446SOL    HW117237   5.788   5.320   4.509
 5446SOL    HW217238   5.758   5.331   4.669
 5447SOL     OW17239   1.643   1.420   0.517
 5447SOL    HW117240   1.651   1.334   0.567
 5447SOL    HW217241   1.733   1.464   0.512
 5448SOL     OW17242   4.744   4.838   4.091
 5448SOL    HW117243   4.815   4.864   4.157
 5448SOL    HW217244   4.781   4.843   3.999
 5449SOL     OW17245   2.334   1.656   0.400
 5449SOL    HW117246   2.310   1.745   0.438
 5449SOL    HW217247   2.423   1.627   0.433
 5450SOL     OW17248   3.645   0.548   1.248
 5450SOL    HW117249   3.600   0.564   1.161
 5450SOL    HW217250   3.736   0.510   1.232
 5451SOL     OW17251   1.919   6.362   3.422
 5451SOL    HW117252   1.895   6.455   3.450
 5451SOL    HW217253   1.925   6.358   3.322
 5452SOL     OW17254   2.614   4.127   0.755
 5452SOL    HW117255   2.576   4.078   0.833
 5452SOL    HW217256   2.544   4.137   0.684
 5453SOL     OW17257   5.268   4.479   2.410
 5453SOL    HW117258   5.301   4.395   2.367
 5453SOL    HW217259   5.169   4.484   2.401
 5454SOL     OW17260   5.220   5.809   6.726
 5454SOL    HW117261   5.188   5.845   6.638
 5454SOL    HW217262   5.244   5.885   6.787
 5455SOL     OW17263   0.174   2.471   3.428
 5455SOL    HW117264   0.180   2.565   3.395
 5455SOL    HW217265   0.083   2.453   3.463
 5456SOL     OW17266   3.371   1.137   6.915
 5456SOL    HW117267   3.400   1.232   6.905
 5456SOL    HW217268   3.348   1.099   6.825
 5457SOL     OW17269   6.507   2.046   1.195
 5457SOL    HW117270   6.468   2.067   1.285
 5457SOL    HW217271   6.575   1.973   1.205
 5458SOL     OW17272   0.266   5.587   0.281
 5458SOL    HW117273   0.268   5.687   0.279
 5458SOL    HW217274   0.340   5.550   0.226
 5459SOL     OW17275   2.718   4.018   6.067
 5459SOL    HW117276   2.666   4.071   6.000
 5459SOL    HW217277   2.793   4.075   6.102
 5460SOL     OW17278   3.097   0.352   2.844
 5460SOL    HW117279   3.128   0.368   2.750
 5460SOL    HW217280   3.024   0.417   2.866
 5461SOL     OW17281   0.295   6.943   4.769
 5461SOL    HW117282   0.337   6.853   4.762
 5461SOL    HW217283   0.307   6.993   4.683
 5462SOL     OW17284   5.655   6.294   6.963
 5462SOL    HW117285   5.656   6.194   6.953
 5462SOL    HW217286   5.623   6.336   6.878
 5463SOL     OW17287   0.372   1.834   0.120
 5463SOL    HW117288   0.444   1.815   0.053
 5463SOL    HW217289   0.381   1.772   0.197
 5464SOL     OW17290   5.852   6.572   4.922
 5464SOL    HW117291   5.775   6.509   4.926
 5464SOL    HW217292   5.841   6.635   4.845
 5465SOL     OW17293   5.750   0.494   3.944
 5465SOL    HW117294   5.765   0.397   3.961
 5465SOL    HW217295   5.698   0.533   4.020
 5466SOL     OW17296   5.182   2.478   5.991
 5466SOL    HW117297   5.122   2.558   5.983
 5466SOL    HW217298   5.157   2.411   5.922
 5467SOL     OW17299   5.809   3.561   3.176
 5467SOL    HW117300   5.872   3.593   3.106
 5467SOL    HW217301   5.765   3.640   3.219
 5468SOL     OW17302   6.255   1.955   5.104
 5468SOL    HW117303   6.300   1.957   5.193
 5468SOL    HW217304   6.156   1.949   5.117
 5469SOL     OW17305   3.450   6.384   5.366
 5469SOL    HW117306   3.387   6.461   5.353
 5469SOL    HW217307   3.415   6.324   5.438
 5470SOL     OW17308   3.371   5.402   3.815
 5470SOL    HW117309   3.355   5.367   3.723
 5470SOL    HW217310   3.348   5.331   3.882
 5471SOL     OW17311   6.862   1.106   3.391
 5471SOL    HW117312   6.836   1.102   3.295
 5471SOL    HW217313   6.915   1.024   3.415
 5472SOL     OW17314   2.752   3.868   6.531
 5472SOL    HW117315   2.693   3.800   6.487
 5472SOL    HW217316   2.786   3.832   6.618
 5473SOL     OW17317   2.087   3.047   1.476
 5473SOL    HW117318   2.146   2.968   1.469
 5473SOL    HW217319   2.134   3.128   1.440
 5474SOL     OW17320   1.199   4.791   4.733
 5474SOL    HW117321   1.283   4.836   4.701
 5474SOL    HW217322   1.220   4.697   4.760
 5475SOL     OW17323   1.796   2.556   0.965
 5475SOL    HW117324   1.823   2.483   1.028
 5475SOL    HW217325   1.750   2.518   0.886
 5476SOL     OW17326   2.381   4.774   4.910
 5476SOL    HW117327   2.434   4.690   4.918
 5476SOL    HW217328   2.284   4.751   4.903
 5477SOL     OW17329   2.028   4.239   2.647
 5477SOL    HW117330   1.963   4.204   2.716
 5477SOL    HW217331   1.999   4.329   2.616
 5478SOL     OW17332   3.672   6.999   5.472
 5478SOL    HW117333   3.719   6.911   5.470
 5478SOL    HW217334   3.732   0.048   5.434
 5479SOL     OW17335   5.591   2.199   5.543
 5479SOL    HW117336   5.580   2.166   5.637
 5479SOL    HW217337   5.517   2.263   5.521
 5480SOL     OW17338   5.622   5.513   4.376
 5480SOL    HW117339   5.526   5.505   4.401
 5480SOL    HW217340   5.679   5.474   4.448
 5481SOL     OW17341   4.295   1.344   4.244
 5481SOL    HW117342   4.336   1.393   4.168
 5481SOL    HW217343   4.258   1.410   4.311
 5482SOL     OW17344   3.752   3.399   1.907
 5482SOL    HW117345   3.739   3.373   1.811
 5482SOL    HW217346   3.718   3.493   1.920
 5483SOL     OW17347   0.572   2.162   5.350
 5483SOL    HW117348   0.671   2.179   5.343
 5483SOL    HW217349   0.554   2.064   5.343
 5484SOL     OW17350   5.394   0.703   3.259
 5484SOL    HW117351   5.444   0.774   3.308
 5484SOL    HW217352   5.362   0.634   3.324
 5485SOL     OW17353   3.440   0.104   5.431
 5485SOL    HW117354   3.376   0.061   5.495
 5485SOL    HW217355   3.524   0.050   5.428
 5486SOL     OW17356   1.468   5.306   5.475
 5486SOL    HW117357   1.545   5.269   5.422
 5486SOL    HW217358   1.383   5.265   5.443
 5487SOL     OW17359   4.536   3.318   6.490
 5487SOL    HW117360   4.478   3.378   6.435
 5487SOL    HW217361   4.602   3.272   6.430
 5488SOL     OW17362   6.302   0.800   0.870
 5488SOL    HW117363   6.287   0.702   0.885
 5488SOL    HW217364   6.357   0.812   0.787
 5489SOL     OW17365   1.239   4.368   1.224
 5489SOL    HW117366   1.140   4.362   1.239
 5489SOL    HW217367   1.257   4.406   1.133
 5490SOL     OW17368   3.314   6.920   0.269
 5490SOL    HW117369   3.384   6.924   0.198
 5490SOL    HW217370   3.247   6.992   0.254
 5491SOL     OW17371   1.863   4.122   1.079
 5491SOL    HW117372   1.946   4.177   1.066
 5491SOL    HW217373   1.887   4.036   1.122
 5492SOL     OW17374   0.208   2.211   5.976
 5492SOL    HW117375   0.110   2.210   5.994
 5492SOL    HW217376   0.237   2.122   5.942
 5493SOL     OW17377   3.938   3.799   4.500
 5493SOL    HW117378   3.891   3.887   4.499
 5493SOL    HW217379   3.914   3.747   4.418
 5494SOL     OW17380   6.257   2.588   6.031
 5494SOL    HW117381   6.215   2.662   6.083
 5494SOL    HW217382   6.243   2.501   6.079
 5495SOL     OW17383   3.702   1.593   0.754
 5495SOL    HW117384   3.644   1.673   0.739
 5495SOL    HW217385   3.651   1.524   0.806
 5496SOL     OW17386   3.121   0.256   3.338
 5496SOL    HW117387   3.022   0.271   3.338
 5496SOL    HW217388   3.150   0.228   3.429
 5497SOL     OW17389   0.653   2.175   4.063
 5497SOL    HW117390   0.641   2.079   4.085
 5497SOL    HW217391   0.729   2.212   4.116
 5498SOL     OW17392   6.051   6.402   0.819
 5498SOL    HW117393   6.124   6.438   0.762
 5498SOL    HW217394   5.968   6.456   0.805
 5499SOL     OW17395   0.200   0.628   4.841
 5499SOL    HW117396   0.182   0.690   4.917
 5499SOL    HW217397   0.222   0.681   4.759
 5500SOL     OW17398   1.110   1.102   0.409
 5500SOL    HW117399   1.178   1.107   0.336
 5500SOL    HW217400   1.032   1.048   0.378
 5501SOL     OW17401   4.046   6.388   0.163
 5501SOL    HW117402   4.020   6.416   0.071
 5501SOL    HW217403   3.978   6.422   0.228
 5502SOL     OW17404   5.153   3.789   0.215
 5502SOL    HW117405   5.062   3.765   0.184
 5502SOL    HW217406   5.179   3.731   0.292
 5503SOL     OW17407   0.622   4.942   2.695
 5503SOL    HW117408   0.693   4.873   2.689
 5503SOL    HW217409   0.664   5.033   2.697
 5504SOL     OW17410   4.075   0.975   5.389
 5504SOL    HW117411   4.119   1.063   5.369
 5504SOL    HW217412   3.980   0.978   5.360
 5505SOL     OW17413   1.629   5.236   4.106
 5505SOL    HW117414   1.586   5.146   4.109
 5505SOL    HW217415   1.612   5.278   4.017
 5506SOL     OW17416   0.971   2.334   6.252
 5506SOL    HW117417   1.031   2.412   6.243
 5506SOL    HW217418   1.025   2.250   6.259
 5507SOL     OW17419   2.812   0.370   3.748
 5507SOL    HW117420   2.871   0.442   3.784
 5507SOL    HW217421   2.861   0.283   3.747
 5508SOL     OW17422   1.002   0.703   5.995
 5508SOL    HW117423   1.003   0.745   6.085
 5508SOL    HW217424   0.909   0.675   5.972
 5509SOL     OW17425   0.567   6.468   0.026
 5509SOL    HW117426   0.662   6.493   0.044
 5509SOL    HW217427   0.507   6.537   0.068
 5510SOL     OW17428   5.589   5.525   0.723
 5510SOL    HW117429   5.519   5.458   0.749
 5510SOL    HW217430   5.626   5.568   0.805
 5511SOL     OW17431   1.758   1.515   3.834
 5511SOL    HW117432   1.850   1.479   3.815
 5511SOL    HW217433   1.700   1.440   3.865
 5512SOL     OW17434   5.710   1.796   1.751
 5512SOL    HW117435   5.802   1.773   1.783
 5512SOL    HW217436   5.685   1.734   1.676
 5513SOL     OW17437   4.555   5.007   0.071
 5513SOL    HW117438   4.498   5.086   0.045
 5513SOL    HW217439   4.618   5.034   0.144
 5514SOL     OW17440   4.137   6.815   4.022
 5514SOL    HW117441   4.230   6.851   4.026
 5514SOL    HW217442   4.139   6.715   4.016
 5515SOL     OW17443   0.551   5.511   1.736
 5515SOL    HW117444   0.516   5.527   1.644
 5515SOL    HW217445   0.515   5.580   1.798
 5516SOL     OW17446   1.960   4.415   6.663
 5516SOL    HW117447   1.901   4.337   6.685
 5516SOL    HW217448   1.962   4.428   6.564
 5517SOL     OW17449   1.785   3.451   2.128
 5517SOL    HW117450   1.766   3.432   2.031
 5517SOL    HW217451   1.883   3.446   2.144
 5518SOL     OW17452   6.564   5.998   6.300
 5518SOL    HW117453   6.653   5.956   6.314
 5518SOL    HW217454   6.539   5.992   6.204
 5519SOL     OW17455   5.602   3.448   2.869
 5519SOL    HW117456   5.516   3.485   2.904
 5519SOL    HW217457   5.663   3.523   2.845
 5520SOL     OW17458   5.653   6.110   2.040
 5520SOL    HW117459   5.642   6.163   2.124
 5520SOL    HW217460   5.710   6.030   2.059
 5521SOL     OW17461   5.284   0.070   1.646
 5521SOL    HW117462   5.345   0.141   1.611
 5521SOL    HW217463   5.333   0.014   1.713
 5522SOL     OW17464   0.275   5.325   0.391
 5522SOL    HW117465   0.238   5.402   0.340
 5522SOL    HW217466   0.358   5.354   0.440
 5523SOL     OW17467   3.194   0.440   1.888
 5523SOL    HW117468   3.217   0.506   1.960
 5523SOL    HW217469   3.258   0.451   1.811
 5524SOL     OW17470   5.448   6.019   5.712
 5524SOL    HW117471   5.375   6.055   5.770
 5524SOL    HW217472   5.410   5.949   5.651
 5525SOL     OW17473   0.401   2.521   0.807
 5525SOL    HW117474   0.466   2.471   0.865
 5525SOL    HW217475   0.312   2.524   0.852
 5526SOL     OW17476   4.951   5.152   3.974
 5526SOL    HW117477   4.919   5.090   4.045
 5526SOL    HW217478   4.943   5.107   3.885
 5527SOL     OW17479   5.290   4.029   3.942
 5527SOL    HW117480   5.354   4.039   3.866
 5527SOL    HW217481   5.340   4.036   4.028
 5528SOL     OW17482   0.944   0.993   6.690
 5528SOL    HW117483   1.032   1.027   6.655
 5528SOL    HW217484   0.935   0.896   6.670
 5529SOL     OW17485   2.632   0.156   2.999
 5529SOL    HW117486   2.709   0.106   2.961
 5529SOL    HW217487   2.665   0.227   3.061
 5530SOL     OW17488   5.758   2.179   1.935
 5530SOL    HW117489   5.789   2.273   1.925
 5530SOL    HW217490   5.704   2.170   2.018
 5531SOL     OW17491   3.168   3.062   2.568
 5531SOL    HW117492   3.154   3.012   2.483
 5531SOL    HW217493   3.239   3.016   2.622
 5532SOL     OW17494   1.252   2.944   0.266
 5532SOL    HW117495   1.245   2.859   0.213
 5532SOL    HW217496   1.214   2.929   0.357
 5533SOL     OW17497   3.751   1.454   3.141
 5533SOL    HW117498   3.706   1.400   3.212
 5533SOL    HW217499   3.687   1.472   3.066
 5534SOL     OW17500   0.812   1.667   6.181
 5534SOL    HW117501   0.732   1.607   6.172
 5534SOL    HW217502   0.804   1.742   6.115
 5535SOL     OW17503   6.910   2.975   3.396
 5535SOL    HW117504   6.982   2.917   3.434
 5535SOL    HW217505   6.934   3.002   3.302
 5536SOL     OW17506   2.999   1.249   4.241
 5536SOL    HW117507   3.084   1.260   4.293
 5536SOL    HW217508   2.927   1.214   4.301
 5537SOL     OW17509   2.810   0.735   2.514
 5537SOL    HW117510   2.755   0.652   2.502
 5537SOL    HW217511   2.836   0.745   2.610
 5538SOL     OW17512   2.254   6.362   5.424
 5538SOL    HW117513   2.314   6.355   5.345
 5538SOL    HW217514   2.297   6.316   5.502
 5539SOL     OW17515   1.584   3.099   1.142
 5539SOL    HW117516   1.527   3.138   1.069
 5539SOL    HW217517   1.678   3.130   1.130
 5540SOL     OW17518   5.445   4.114   3.742
 5540SOL    HW117519   5.377   4.172   3.696
 5540SOL    HW217520   5.495   4.168   3.810
 5541SOL     OW17521   6.102   6.984   6.108
 5541SOL    HW117522   6.080   6.938   6.194
 5541SOL    HW217523   6.155   0.044   6.127
 5542SOL     OW17524   5.436   3.855   5.906
 5542SOL    HW117525   5.490   3.927   5.861
 5542SOL    HW217526   5.373   3.897   5.971
 5543SOL     OW17527   3.649   4.993   5.749
 5543SOL    HW117528   3.625   4.997   5.652
 5543SOL    HW217529   3.748   4.998   5.759
 5544SOL     OW17530   5.700   6.213   6.373
 5544SOL    HW117531   5.761   6.205   6.451
 5544SOL    HW217532   5.748   6.254   6.296
 5545SOL     OW17533   3.672   1.535   1.795
 5545SOL    HW117534   3.686   1.587   1.711
 5545SOL    HW217535   3.751   1.477   1.812
 5546SOL     OW17536   1.223   5.133   4.537
 5546SOL    HW117537   1.301   5.146   4.476
 5546SOL    HW217538   1.254   5.094   4.624
 5547SOL     OW17539   2.602   0.153   4.740
 5547SOL    HW117540   2.549   0.109   4.812
 5547SOL    HW217541   2.672   0.090   4.707
 5548SOL     OW17542   5.419   3.205   5.888
 5548SOL    HW117543   5.375   3.273   5.830
 5548SOL    HW217544   5.427   3.119   5.838
 5549SOL     OW17545   4.365   3.581   6.658
 5549SOL    HW117546   4.364   3.569   6.559
 5549SOL    HW217547   4.313   3.507   6.701
 5550SOL     OW17548   2.405   4.353   2.001
 5550SOL    HW117549   2.417   4.374   1.904
 5550SOL    HW217550   2.390   4.254   2.012
 5551SOL     OW17551   2.179   0.075   3.288
 5551SOL    HW117552   2.226   0.022   3.218
 5551SOL    HW217553   2.103   0.125   3.247
 5552SOL     OW17554   0.014   0.550   6.858
 5552SOL    HW117555   7.010   0.608   6.935
 5552SOL    HW217556   0.034   0.607   6.778
 5553SOL     OW17557   4.784   6.748   7.015
 5553SOL    HW117558   4.797   6.712   6.923
 5553SOL    HW217559   4.698   6.798   7.020
 5554SOL     OW17560   4.179   2.020   5.877
 5554SOL    HW117561   4.134   2.003   5.965
 5554SOL    HW217562   4.169   1.939   5.819
 5555SOL     OW17563   1.862   4.436   4.143
 5555SOL    HW117564   1.771   4.460   4.111
 5555SOL    HW217565   1.880   4.340   4.120
 5556SOL     OW17566   6.525   1.714   3.912
 5556SOL    HW117567   6.517   1.724   4.011
 5556SOL    HW217568   6.445   1.753   3.867
 5557SOL     OW17569   3.964   6.531   2.616
 5557SOL    HW117570   3.988   6.578   2.701
 5557SOL    HW217571   3.965   6.596   2.541
 5558SOL     OW17572   4.451   3.421   5.958
 5558SOL    HW117573   4.352   3.424   5.941
 5558SOL    HW217574   4.488   3.337   5.917
 5559SOL     OW17575   2.975   0.709   2.286
 5559SOL    HW117576   2.944   0.722   2.192
 5559SOL    HW217577   2.916   0.761   2.348
 5560SOL     OW17578   1.457   6.950   3.692
 5560SOL    HW117579   1.410   6.908   3.770
 5560SOL    HW217580   1.423   0.022   3.680
 5561SOL     OW17581   1.724   2.552   4.153
 5561SOL    HW117582   1.720   2.485   4.078
 5561SOL    HW217583   1.751   2.506   4.237
 5562SOL     OW17584   2.969   1.776   6.946
 5562SOL    HW117585   2.890   1.734   6.901
 5562SOL    HW217586   2.948   1.793   0.020
 5563SOL     OW17587   4.111   5.421   2.611
 5563SOL    HW117588   4.056   5.387   2.688
 5563SOL    HW217589   4.207   5.429   2.639
 5564SOL     OW17590   4.774   0.892   1.962
 5564SOL    HW117591   4.759   0.964   1.895
 5564SOL    HW217592   4.690   0.878   2.015
 5565SOL     OW17593   4.685   1.965   6.748
 5565SOL    HW117594   4.650   1.885   6.699
 5565SOL    HW217595   4.752   1.936   6.816
 5566SOL     OW17596   1.807   5.845   0.183
 5566SOL    HW117597   1.764   5.935   0.188
 5566SOL    HW217598   1.812   5.805   0.275
 5567SOL     OW17599   0.158   4.213   1.764
 5567SOL    HW117600   0.061   4.194   1.752
 5567SOL    HW217601   0.211   4.151   1.705
 5568SOL     OW17602   4.304   2.274   3.287
 5568SOL    HW117603   4.336   2.266   3.193
 5568SOL    HW217604   4.210   2.241   3.294
 5569SOL     OW17605   2.304   1.565   2.579
 5569SOL    HW117606   2.296   1.596   2.484
 5569SOL    HW217607   2.225   1.597   2.631
 5570SOL     OW17608   5.824   4.712   5.134
 5570SOL    HW117609   5.752   4.689   5.199
 5570SOL    HW217610   5.811   4.662   5.049
 5571SOL     OW17611   0.443   5.925   0.837
 5571SOL    HW117612   0.357   5.903   0.882
 5571SOL    HW217613   0.426   5.955   0.743
 5572SOL     OW17614   1.674   2.417   4.717
 5572SOL    HW117615   1.605   2.399   4.647
 5572SOL    HW217616   1.679   2.340   4.780
 5573SOL     OW17617   1.705   3.579   6.710
 5573SOL    HW117618   1.778   3.584   6.641
 5573SOL    HW217619   1.659   3.490   6.704
 5574SOL     OW17620   6.080   1.957   3.813
 5574SOL    HW117621   6.022   1.886   3.853
 5574SOL    HW217622   6.176   1.929   3.818
 5575SOL     OW17623   0.116   1.458   1.430
 5575SOL    HW117624   0.152   1.389   1.493
 5575SOL    HW217625   0.159   1.547   1.451
 5576SOL     OW17626   1.068   6.510   2.125
 5576SOL    HW117627   1.102   6.431   2.073
 5576SOL    HW217628   0.969   6.504   2.133
 5577SOL     OW17629   2.841   2.677   5.617
 5577SOL    HW117630   2.766   2.613   5.636
 5577SOL    HW217631   2.842   2.699   5.520
 5578SOL     OW17632   3.819   4.483   0.624
 5578SOL    HW117633   3.728   4.524   0.621
 5578SOL    HW217634   3.819   4.406   0.688
 5579SOL     OW17635   0.134   3.515   6.198
 5579SOL    HW117636   0.063   3.570   6.242
 5579SOL    HW217637   0.119   3.418   6.220
 5580SOL     OW17638   4.321   2.775   5.654
 5580SOL    HW117639   4.265   2.726   5.720
 5580SOL    HW217640   4.279   2.863   5.632
 5581SOL     OW17641   2.578   6.530   1.778
 5581SOL    HW117642   2.488   6.572   1.777
 5581SOL    HW217643   2.625   6.555   1.863
 5582SOL     OW17644   3.879   3.430   3.569
 5582SOL    HW117645   3.837   3.448   3.480
 5582SOL    HW217646   3.951   3.498   3.586
 5583SOL     OW17647   4.667   0.138   2.856
 5583SOL    HW117648   4.730   0.070   2.892
 5583SOL    HW217649   4.573   0.112   2.878
 5584SOL     OW17650   5.846   4.146   4.211
 5584SOL    HW117651   5.901   4.226   4.188
 5584SOL    HW217652   5.879   4.067   4.159
 5585SOL     OW17653   4.408   6.654   4.213
 5585SOL    HW117654   4.338   6.599   4.168
 5585SOL    HW217655   4.393   6.654   4.312
 5586SOL     OW17656   0.666   2.305   6.646
 5586SOL    HW117657   0.581   2.272   6.605
 5586SOL    HW217658   0.743   2.274   6.591
 5587SOL     OW17659   4.282   6.143   2.905
 5587SOL    HW117660   4.368   6.186   2.879
 5587SOL    HW217661   4.208   6.179   2.849
 5588SOL     OW17662   1.537   6.923   2.893
 5588SOL    HW117663   1.468   6.943   2.823
 5588SOL    HW217664   1.537   6.825   2.913
 5589SOL     OW17665   5.721   2.278   6.549
 5589SOL    HW117666   5.703   2.197   6.494
 5589SOL    HW217667   5.818   2.300   6.546
 5590SOL     OW17668   6.670   5.989   3.292
 5590SOL    HW117669   6.736   6.056   3.326
 5590SOL    HW217670   6.585   6.035   3.268
 5591SOL     OW17671   6.034   1.289   6.377
 5591SOL    HW117672   6.005   1.251   6.289
 5591SOL    HW217673   5.977   1.368   6.398
 5592SOL     OW17674   0.980   4.315   2.679
 5592SOL    HW117675   0.922   4.319   2.597
 5592SOL    HW217676   1.038   4.234   2.675
 5593SOL     OW17677   6.538   2.479   5.979
 5593SOL    HW117678   6.460   2.477   6.042
 5593SOL    HW217679   6.608   2.541   6.015
 5594SOL     OW17680   2.500   1.075   6.878
 5594SOL    HW117681   2.511   1.098   6.781
 5594SOL    HW217682   2.413   1.113   6.911
 5595SOL     OW17683   6.267   0.767   5.155
 5595SOL    HW117684   6.320   0.852   5.155
 5595SOL    HW217685   6.265   0.729   5.063
 5596SOL     OW17686   5.063   0.604   2.632
 5596SOL    HW117687   5.022   0.669   2.567
 5596SOL    HW217688   4.991   0.569   2.693
 5597SOL     OW17689   6.000   1.661   5.736
 5597SOL    HW117690   6.078   1.599   5.731
 5597SOL    HW217691   5.917   1.611   5.711
 5598SOL     OW17692   5.529   2.245   4.031
 5598SOL    HW117693   5.552   2.188   3.952
 5598SOL    HW217694   5.580   2.331   4.026
 5599SOL     OW17695   6.474   3.068   2.180
 5599SOL    HW117696   6.533   3.042   2.103
 5599SOL    HW217697   6.492   3.007   2.258
 5600SOL     OW17698   2.016   0.500   2.214
 5600SOL    HW117699   1.995   0.590   2.178
 5600SOL    HW217700   1.931   0.451   2.235
 5601SOL     OW17701   3.712   1.457   6.356
 5601SOL    HW117702   3.720   1.479   6.259
 5601SOL    HW217703   3.663   1.370   6.366
 5602SOL     OW17704   0.663   0.273   2.607
 5602SOL    HW117705   0.690   0.200   2.545
 5602SOL    HW217706   0.567   0.296   2.593
 5603SOL     OW17707   5.424   2.088   5.765
 5603SOL    HW117708   5.331   2.055   5.751
 5603SOL    HW217709   5.487   2.011   5.762
 5604SOL     OW17710   0.225   2.008   5.411
 5604SOL    HW117711   0.146   2.060   5.378
 5604SOL    HW217712   0.293   2.071   5.447
 5605SOL     OW17713   1.984   0.009   4.312
 5605SOL    HW117714   2.020   6.940   4.288
 5605SOL    HW217715   1.912   7.020   4.381
 5606SOL     OW17716   5.163   0.735   0.460
 5606SOL    HW117717   5.155   0.835   0.465
 5606SOL    HW217718   5.080   0.694   0.498
 5607SOL     OW17719   5.281   1.811   3.765
 5607SOL    HW117720   5.196   1.772   3.799
 5607SOL    HW217721   5.296   1.901   3.808
 5608SOL     OW17722   6.003   1.665   2.785
 5608SOL    HW117723   5.982   1.672   2.882
 5608SOL    HW217724   5.947   1.731   2.734
 5609SOL     OW17725   4.840   5.632   0.963
 5609SOL    HW117726   4.748   5.593   0.964
 5609SOL    HW217727   4.847   5.701   1.035
 5610SOL     OW17728   5.616   4.295   1.583
 5610SOL    HW117729   5.690   4.240   1.545
 5610SOL    HW217730   5.563   4.335   1.509
 5611SOL     OW17731   0.708   4.882   2.077
 5611SOL    HW117732   0.676   4.936   2.156
 5611SOL    HW217733   0.649   4.802   2.066
 5612SOL     OW17734   3.849   3.101   0.481
 5612SOL    HW117735   3.755   3.068   0.472
 5612SOL    HW217736   3.897   3.089   0.394
 5613SOL     OW17737   5.919   4.971   5.184
 5613SOL    HW117738   6.018   4.962   5.177
 5613SOL    HW217739   5.876   4.883   5.164
 5614SOL     OW17740   5.954   3.487   5.010
 5614SOL    HW117741   5.929   3.407   5.065
 5614SOL    HW217742   5.948   3.464   4.913
 5615SOL     OW17743   6.585   1.413   3.657
 5615SOL    HW117744   6.659   1.355   3.691
 5615SOL    HW217745   6.509   1.412   3.722
 5616SOL     OW17746   2.135   3.140   4.910
 5616SOL    HW117747   2.166   3.215   4.851
 5616SOL    HW217748   2.214   3.092   4.948
 5617SOL     OW17749   1.411   3.924   5.290
 5617SOL    HW117750   1.434   3.968   5.377
 5617SOL    HW217751   1.367   3.836   5.307
 5618SOL     OW17752   6.782   4.579   3.370
 5618SOL    HW117753   6.857   4.526   3.409
 5618SOL    HW217754   6.721   4.518   3.319
 5619SOL     OW17755   3.237   3.834   3.172
 5619SOL    HW117756   3.282   3.783   3.245
 5619SOL    HW217757   3.146   3.795   3.154
 5620SOL     OW17758   4.508   3.957   6.580
 5620SOL    HW117759   4.462   3.897   6.514
 5620SOL    HW217760   4.441   4.019   6.620
 5621SOL     OW17761   1.269   3.508   6.157
 5621SOL    HW117762   1.171   3.518   6.171
 5621SOL    HW217763   1.316   3.509   6.245
 5622SOL     OW17764   4.842   6.442   5.762
 5622SOL    HW117765   4.910   6.414   5.829
 5622SOL    HW217766   4.858   6.395   5.676
 5623SOL     OW17767   4.782   6.215   5.027
 5623SOL    HW117768   4.867   6.163   5.013
 5623SOL    HW217769   4.802   6.312   5.022
 5624SOL     OW17770   0.719   4.923   3.820
 5624SOL    HW117771   0.668   4.878   3.746
 5624SOL    HW217772   0.809   4.879   3.829
 5625SOL     OW17773   0.170   5.621   5.280
 5625SOL    HW117774   0.182   5.522   5.276
 5625SOL    HW217775   0.160   5.657   5.187
 5626SOL     OW17776   2.654   5.476   3.860
 5626SOL    HW117777   2.716   5.428   3.923
 5626SOL    HW217778   2.603   5.546   3.910
 5627SOL     OW17779   0.003   4.810   5.925
 5627SOL    HW117780   6.964   4.829   6.002
 5627SOL    HW217781   6.981   4.838   5.840
 5628SOL     OW17782   2.467   2.309   1.182
 5628SOL    HW117783   2.449   2.265   1.094
 5628SOL    HW217784   2.517   2.246   1.241
 5629SOL     OW17785   5.120   2.957   2.055
 5629SOL    HW117786   5.080   3.048   2.065
 5629SOL    HW217787   5.075   2.909   1.979
 5630SOL     OW17788   1.847   4.129   6.572
 5630SOL    HW117789   1.924   4.078   6.533
 5630SOL    HW217790   1.827   4.094   6.664
 5631SOL     OW17791   5.454   1.181   1.134
 5631SOL    HW117792   5.535   1.229   1.167
 5631SOL    HW217793   5.470   1.083   1.133
 5632SOL     OW17794   3.949   1.914   5.181
 5632SOL    HW117795   3.899   1.831   5.203
 5632SOL    HW217796   3.915   1.989   5.237
 5633SOL     OW17797   5.993   4.407   4.872
 5633SOL    HW117798   5.982   4.353   4.789
 5633SOL    HW217799   5.903   4.422   4.915
 5634SOL     OW17800   2.241   4.885   4.201
 5634SOL    HW117801   2.189   4.895   4.285
 5634SOL    HW217802   2.322   4.829   4.218
 5635SOL     OW17803   1.971   6.027   6.347
 5635SOL    HW117804   1.908   5.949   6.343
 5635SOL    HW217805   1.977   6.068   6.256
 5636SOL     OW17806   5.858   6.968   5.251
 5636SOL    HW117807   5.956   6.985   5.260
 5636SOL    HW217808   5.834   6.960   5.154
 5637SOL     OW17809   3.256   6.778   3.675
 5637SOL    HW117810   3.161   6.795   3.702
 5637SOL    HW217811   3.283   6.686   3.702
 5638SOL     OW17812   6.223   4.426   0.965
 5638SOL    HW117813   6.310   4.470   0.942
 5638SOL    HW217814   6.161   4.431   0.887
 5639SOL     OW17815   2.451   0.467   1.856
 5639SOL    HW117816   2.443   0.528   1.778
 5639SOL    HW217817   2.374   0.482   1.918
 5640SOL     OW17818   3.076   0.812   2.792
 5640SOL    HW117819   3.157   0.753   2.783
 5640SOL    HW217820   3.094   0.901   2.750
 5641SOL     OW17821   0.297   4.791   5.910
 5641SOL    HW117822   0.210   4.832   5.936
 5641SOL    HW217823   0.356   4.784   5.989
 5642SOL     OW17824   0.873   5.215   4.921
 5642SOL    HW117825   0.928   5.248   4.844
 5642SOL    HW217826   0.786   5.264   4.923
 5643SOL     OW17827   3.684   1.323   4.304
 5643SOL    HW117828   3.754   1.252   4.294
 5643SOL    HW217829   3.645   1.319   4.396
 5644SOL     OW17830   3.568   0.449   4.092
 5644SOL    HW117831   3.585   0.545   4.069
 5644SOL    HW217832   3.471   0.437   4.112
 5645SOL     OW17833   5.957   4.529   3.072
 5645SOL    HW117834   5.978   4.579   3.156
 5645SOL    HW217835   6.037   4.529   3.011
 5646SOL     OW17836   0.799   5.936   3.042
 5646SOL    HW117837   0.847   6.017   3.075
 5646SOL    HW217838   0.725   5.912   3.105
 5647SOL     OW17839   5.803   6.492   0.745
 5647SOL    HW117840   5.796   6.452   0.653
 5647SOL    HW217841   5.774   6.587   0.742
 5648SOL     OW17842   1.804   1.630   3.337
 5648SOL    HW117843   1.755   1.717   3.332
 5648SOL    HW217844   1.899   1.647   3.363
 5649SOL     OW17845   6.622   6.702   5.187
 5649SOL    HW117846   6.636   6.618   5.240
 5649SOL    HW217847   6.541   6.750   5.221
 5650SOL     OW17848   0.936   5.515   1.070
 5650SOL    HW117849   1.005   5.455   1.110
 5650SOL    HW217850   0.936   5.603   1.119
 5651SOL     OW17851   0.319   1.227   1.457
 5651SOL    HW117852   0.276   1.141   1.429
 5651SOL    HW217853   0.295   1.247   1.552
 5652SOL     OW17854   5.969   6.990   1.783
 5652SOL    HW117855   5.932   6.919   1.844
 5652SOL    HW217856   5.903   0.042   1.774
 5653SOL     OW17857   0.633   5.778   6.557
 5653SOL    HW117858   0.539   5.779   6.522
 5653SOL    HW217859   0.690   5.721   6.499
 5654SOL     OW17860   6.469   6.429   5.576
 5654SOL    HW117861   6.378   6.454   5.608
 5654SOL    HW217862   6.537   6.462   5.642
 5655SOL     OW17863   1.904   3.838   5.257
 5655SOL    HW117864   1.985   3.782   5.238
 5655SOL    HW217865   1.910   3.924   5.206
 5656SOL     OW17866   0.680   3.077   0.717
 5656SOL    HW117867   0.699   2.990   0.673
 5656SOL    HW217868   0.766   3.128   0.728
 5657SOL     OW17869   5.734   0.877   0.160
 5657SOL    HW117870   5.691   0.967   0.175
 5657SOL    HW217871   5.799   0.859   0.234
 5658SOL     OW17872   3.594   5.331   5.796
 5658SOL    HW117873   3.505   5.377   5.790
 5658SOL    HW217874   3.597   5.256   5.730
 5659SOL     OW17875   4.106   3.585   3.520
 5659SOL    HW117876   4.118   3.600   3.422
 5659SOL    HW217877   4.098   3.673   3.566
 5660SOL     OW17878   5.669   0.021   5.477
 5660SOL    HW117879   5.633   6.958   5.515
 5660SOL    HW217880   5.738   0.000   5.408
 5661SOL     OW17881   1.219   4.516   4.797
 5661SOL    HW117882   1.232   4.556   4.887
 5661SOL    HW217883   1.205   4.417   4.806
 5662SOL     OW17884   3.104   5.339   3.587
 5662SOL    HW117885   3.191   5.293   3.570
 5662SOL    HW217886   3.120   5.437   3.598
 5663SOL     OW17887   2.348   2.955   6.845
 5663SOL    HW117888   2.363   2.875   6.902
 5663SOL    HW217889   2.417   3.024   6.866
 5664SOL     OW17890   6.672   4.104   4.592
 5664SOL    HW117891   6.761   4.061   4.578
 5664SOL    HW217892   6.664   4.185   4.534
 5665SOL     OW17893   1.407   2.587   6.820
 5665SOL    HW117894   1.482   2.622   6.875
 5665SOL    HW217895   1.443   2.527   6.748
 5666SOL     OW17896   6.028   5.703   1.323
 5666SOL    HW117897   6.015   5.799   1.299
 5666SOL    HW217898   6.116   5.671   1.287
 5667SOL     OW17899   1.036   4.542   3.400
 5667SOL    HW117900   1.101   4.566   3.329
 5667SOL    HW217901   1.080   4.483   3.468
 5668SOL     OW17902   5.082   2.254   5.410
 5668SOL    HW117903   4.998   2.202   5.422
 5668SOL    HW217904   5.067   2.328   5.344
 5669SOL     OW17905   0.716   2.789   0.108
 5669SOL    HW117906   0.739   2.830   0.020
 5669SOL    HW217907   0.617   2.795   0.123
 5670SOL     OW17908   6.501   2.493   3.847
 5670SOL    HW117909   6.520   2.589   3.828
 5670SOL    HW217910   6.449   2.454   3.771
 5671SOL     OW17911   0.566   5.578   6.897
 5671SOL    HW117912   0.604   5.669   6.908
 5671SOL    HW217913   0.511   5.575   6.814
 5672SOL     OW17914   4.180   5.054   6.481
 5672SOL    HW117915   4.274   5.086   6.478
 5672SOL    HW217916   4.131   5.100   6.555
 5673SOL     OW17917   0.978   6.699   1.913
 5673SOL    HW117918   0.880   6.691   1.930
 5673SOL    HW217919   1.027   6.634   1.970
 5674SOL     OW17920   0.138   4.792   4.591
 5674SOL    HW117921   0.148   4.885   4.556
 5674SOL    HW217922   0.069   4.790   4.663
 5675SOL     OW17923   4.508   1.925   5.478
 5675SOL    HW117924   4.413   1.897   5.487
 5675SOL    HW217925   4.520   1.973   5.391
 5676SOL     OW17926   2.223   2.749   2.530
 5676SOL    HW117927   2.164   2.669   2.542
 5676SOL    HW217928   2.318   2.725   2.552
 5677SOL     OW17929   0.409   1.280   2.696
 5677SOL    HW117930   0.337   1.340   2.661
 5677SOL    HW217931   0.499   1.320   2.675
 5678SOL     OW17932   3.489   6.440   2.848
 5678SOL    HW117933   3.524   6.346   2.855
 5678SOL    HW217934   3.474   6.477   2.939
 5679SOL     OW17935   0.816   1.077   4.114
 5679SOL    HW117936   0.752   1.009   4.150
 5679SOL    HW217937   0.841   1.052   4.020
 5680SOL     OW17938   1.403   5.305   0.031
 5680SOL    HW117939   1.471   5.239   7.020
 5680SOL    HW217940   1.313   5.280   7.017
 5681SOL     OW17941   0.451   4.318   0.059
 5681SOL    HW117942   0.372   4.332   7.022
 5681SOL    HW217943   0.534   4.314   0.004
 5682SOL     OW17944   2.180   4.376   6.156
 5682SOL    HW117945   2.216   4.359   6.248
 5682SOL    HW217946   2.114   4.304   6.133
 5683SOL     OW17947   3.879   0.691   0.189
 5683SOL    HW117948   3.827   0.759   0.137
 5683SOL    HW217949   3.929   0.632   0.125
 5684SOL     OW17950   3.155   3.020   4.594
 5684SOL    HW117951   3.150   3.026   4.694
 5684SOL    HW217952   3.112   2.935   4.563
 5685SOL     OW17953   1.726   3.185   2.610
 5685SOL    HW117954   1.813   3.146   2.581
 5685SOL    HW217955   1.671   3.115   2.655
 5686SOL     OW17956   2.661   0.203   6.374
 5686SOL    HW117957   2.646   0.164   6.284
 5686SOL    HW217958   2.723   0.281   6.367
 5687SOL     OW17959   0.514   4.234   6.052
 5687SOL    HW117960   0.613   4.243   6.064
 5687SOL    HW217961   0.493   4.218   5.955
 5688SOL     OW17962   0.483   2.094   0.216
 5688SOL    HW117963   0.406   2.149   0.246
 5688SOL    HW217964   0.450   2.012   0.169
 5689SOL     OW17965   4.572   0.852   0.665
 5689SOL    HW117966   4.562   0.801   0.751
 5689SOL    HW217967   4.613   0.793   0.596
 5690SOL     OW17968   2.683   6.277   1.098
 5690SOL    HW117969   2.713   6.222   1.020
 5690SOL    HW217970   2.614   6.343   1.067
 5691SOL     OW17971   2.698   6.638   2.038
 5691SOL    HW117972   2.784   6.605   2.075
 5691SOL    HW217973   2.696   6.738   2.040
 5692SOL     OW17974   6.605   2.920   6.976
 5692SOL    HW117975   6.689   2.965   6.944
 5692SOL    HW217976   6.624   2.823   6.995
 5693SOL     OW17977   5.593   2.325   2.822
 5693SOL    HW117978   5.682   2.314   2.777
 5693SOL    HW217979   5.557   2.416   2.804
 5694SOL     OW17980   1.053   2.260   3.849
 5694SOL    HW117981   1.042   2.163   3.872
 5694SOL    HW217982   1.148   2.277   3.823
 5695SOL     OW17983   0.970   2.415   2.968
 5695SOL    HW117984   1.034   2.377   2.901
 5695SOL    HW217985   0.965   2.514   2.957
 5696SOL     OW17986   1.453   0.974   2.913
 5696SOL    HW117987   1.536   1.030   2.912
 5696SOL    HW217988   1.475   0.880   2.886
 5697SOL     OW17989   5.940   2.166   1.519
 5697SOL    HW117990   5.974   2.078   1.553
 5697SOL    HW217991   5.840   2.165   1.518
 5698SOL     OW17992   0.296   3.467   3.064
 5698SOL    HW117993   0.289   3.567   3.061
 5698SOL    HW217994   0.360   3.441   3.137
 5699SOL     OW17995   6.544   2.455   2.985
 5699SOL    HW117996   6.493   2.457   2.899
 5699SOL    HW217997   6.641   2.444   2.966
 5700SOL     OW17998   6.602   6.087   4.474
 5700SOL    HW117999   6.607   6.186   4.486
 5700SOL    HW218000   6.563   6.046   4.556
 5701SOL     OW18001   1.599   0.281   3.093
 5701SOL    HW118002   1.623   0.351   3.027
 5701SOL    HW218003   1.508   0.245   3.072
 5702SOL     OW18004   2.422   6.240   5.611
 5702SOL    HW118005   2.467   6.199   5.690
 5702SOL    HW218006   2.476   6.220   5.529
 5703SOL     OW18007   6.051   4.677   1.748
 5703SOL    HW118008   6.105   4.633   1.677
 5703SOL    HW218009   6.111   4.719   1.815
 5704SOL     OW18010   4.044   5.069   2.300
 5704SOL    HW118011   4.039   4.970   2.306
 5704SOL    HW218012   3.965   5.104   2.251
 5705SOL     OW18013   4.893   0.702   1.375
 5705SOL    HW118014   4.988   0.690   1.401
 5705SOL    HW218015   4.835   0.641   1.429
 5706SOL     OW18016   6.742   3.087   0.506
 5706SOL    HW118017   6.827   3.140   0.504
 5706SOL    HW218018   6.671   3.137   0.456
 5707SOL     OW18019   6.887   6.837   0.538
 5707SOL    HW118020   6.891   6.787   0.625
 5707SOL    HW218021   6.945   6.792   0.471
 5708SOL     OW18022   4.867   6.049   1.176
 5708SOL    HW118023   4.967   6.056   1.170
 5708SOL    HW218024   4.827   6.140   1.176
 5709SOL     OW18025   1.584   0.496   2.870
 5709SOL    HW118026   1.615   0.553   2.794
 5709SOL    HW218027   1.498   0.452   2.846
 5710SOL     OW18028   2.624   3.142   6.637
 5710SOL    HW118029   2.633   3.044   6.655
 5710SOL    HW218030   2.583   3.187   6.716
 5711SOL     OW18031   4.902   1.528   2.973
 5711SOL    HW118032   4.882   1.494   3.064
 5711SOL    HW218033   4.878   1.458   2.905
 5712SOL     OW18034   0.959   5.920   6.017
 5712SOL    HW118035   0.983   5.867   6.099
 5712SOL    HW218036   1.006   5.881   5.938
 5713SOL     OW18037   2.623   2.989   1.658
 5713SOL    HW118038   2.701   3.021   1.710
 5713SOL    HW218039   2.641   2.896   1.624
 5714SOL     OW18040   0.855   5.646   6.664
 5714SOL    HW118041   0.777   5.590   6.689
 5714SOL    HW218042   0.829   5.743   6.668
 5715SOL     OW18043   0.781   6.673   3.415
 5715SOL    HW118044   0.687   6.649   3.393
 5715SOL    HW218045   0.834   6.590   3.431
 5716SOL     OW18046   1.441   4.312   6.962
 5716SOL    HW118047   1.537   4.294   6.942
 5716SOL    HW218048   1.387   4.301   6.878
 5717SOL     OW18049   1.688   6.045   1.087
 5717SOL    HW118050   1.597   6.080   1.065
 5717SOL    HW218051   1.754   6.120   1.085
 5718SOL     OW18052   1.243   2.830   5.656
 5718SOL    HW118053   1.248   2.927   5.680
 5718SOL    HW218054   1.224   2.821   5.558
 5719SOL     OW18055   3.148   1.275   6.131
 5719SOL    HW118056   3.097   1.198   6.169
 5719SOL    HW218057   3.196   1.323   6.205
 5720SOL     OW18058   1.532   5.406   3.900
 5720SOL    HW118059   1.511   5.476   3.968
 5720SOL    HW218060   1.471   5.414   3.822
 5721SOL     OW18061   0.229   4.009   1.579
 5721SOL    HW118062   0.288   3.983   1.503
 5721SOL    HW218063   0.135   4.016   1.547
 5722SOL     OW18064   6.333   1.410   5.692
 5722SOL    HW118065   6.423   1.369   5.683
 5722SOL    HW218066   6.270   1.345   5.735
 5723SOL     OW18067   4.510   3.606   6.924
 5723SOL    HW118068   4.559   3.554   6.854
 5723SOL    HW218069   4.465   3.543   6.987
 5724SOL     OW18070   4.620   2.522   5.191
 5724SOL    HW118071   4.565   2.439   5.199
 5724SOL    HW218072   4.599   2.568   5.105
 5725SOL     OW18073   5.672   5.506   3.421
 5725SOL    HW118074   5.696   5.448   3.498
 5725SOL    HW218075   5.750   5.565   3.399
 5726SOL     OW18076   0.104   4.750   5.011
 5726SOL    HW118077   0.063   4.808   4.940
 5726SOL    HW218078   0.067   4.658   5.004
 5727SOL     OW18079   0.208   2.262   3.848
 5727SOL    HW118080   0.211   2.170   3.888
 5727SOL    HW218081   0.276   2.269   3.776
 5728SOL     OW18082   4.133   1.283   6.346
 5728SOL    HW118083   4.221   1.288   6.300
 5728SOL    HW218084   4.060   1.303   6.280
 5729SOL     OW18085   0.837   1.456   0.264
 5729SOL    HW118086   0.877   1.452   0.356
 5729SOL    HW218087   0.771   1.382   0.254
 5730SOL     OW18088   4.590   5.080   5.852
 5730SOL    HW118089   4.499   5.039   5.849
 5730SOL    HW218090   4.634   5.057   5.939
 5731SOL     OW18091   0.972   6.433   4.166
 5731SOL    HW118092   1.050   6.471   4.116
 5731SOL    HW218093   0.980   6.333   4.168
 5732SOL     OW18094   6.746   4.867   5.004
 5732SOL    HW118095   6.751   4.783   5.057
 5732SOL    HW218096   6.651   4.898   4.999
 5733SOL     OW18097   3.361   0.339   5.276
 5733SOL    HW118098   3.357   0.239   5.286
 5733SOL    HW218099   3.291   0.381   5.333
 5734SOL     OW18100   1.066   6.274   6.067
 5734SOL    HW118101   0.995   6.228   6.120
 5734SOL    HW218102   1.120   6.206   6.017
 5735SOL     OW18103   3.969   2.201   2.065
 5735SOL    HW118104   3.896   2.242   2.011
 5735SOL    HW218105   3.937   2.187   2.159
 5736SOL     OW18106   5.889   3.839   0.396
 5736SOL    HW118107   5.796   3.822   0.364
 5736SOL    HW218108   5.894   3.927   0.443
 5737SOL     OW18109   4.608   5.691   0.281
 5737SOL    HW118110   4.659   5.647   0.207
 5737SOL    HW218111   4.657   5.772   0.311
 5738SOL     OW18112   3.026   2.622   6.457
 5738SOL    HW118113   3.091   2.672   6.514
 5738SOL    HW218114   2.975   2.687   6.400
 5739SOL     OW18115   0.963   0.035   5.380
 5739SOL    HW118116   0.921   7.007   5.456
 5739SOL    HW218117   0.907   0.024   5.298
 5740SOL     OW18118   4.147   3.472   0.705
 5740SOL    HW118119   4.061   3.437   0.741
 5740SOL    HW218120   4.219   3.404   0.717
 5741SOL     OW18121   6.351   4.249   4.657
 5741SOL    HW118122   6.303   4.325   4.613
 5741SOL    HW218123   6.380   4.183   4.589
 5742SOL     OW18124   4.939   6.635   2.805
 5742SOL    HW118125   4.872   6.675   2.868
 5742SOL    HW218126   4.936   6.536   2.812
 5743SOL     OW18127   2.629   5.594   5.121
 5743SOL    HW118128   2.545   5.614   5.071
 5743SOL    HW218129   2.697   5.664   5.101
 5744SOL     OW18130   4.759   1.146   1.564
 5744SOL    HW118131   4.702   1.202   1.505
 5744SOL    HW218132   4.850   1.136   1.524
 5745SOL     OW18133   1.901   1.408   4.098
 5745SOL    HW118134   1.974   1.394   4.032
 5745SOL    HW218135   1.872   1.504   4.097
 5746SOL     OW18136   5.427   0.199   0.960
 5746SOL    HW118137   5.443   0.121   0.901
 5746SOL    HW218138   5.332   0.199   0.992
 5747SOL     OW18139   0.759   4.395   2.483
 5747SOL    HW118140   0.791   4.313   2.435
 5747SOL    HW218141   0.691   4.368   2.551
 5748SOL     OW18142   1.683   6.619   0.414
 5748SOL    HW118143   1.669   6.604   0.316
 5748SOL    HW218144   1.741   6.700   0.427
 5749SOL     OW18145   1.302   6.147   4.350
 5749SOL    HW118146   1.315   6.135   4.252
 5749SOL    HW218147   1.211   6.113   4.376
 5750SOL     OW18148   6.793   5.733   4.798
 5750SOL    HW118149   6.840   5.698   4.717
 5750SOL    HW218150   6.803   5.833   4.801
 5751SOL     OW18151   2.321   2.820   4.749
 5751SOL    HW118152   2.399   2.878   4.774
 5751SOL    HW218153   2.262   2.870   4.685
 5752SOL     OW18154   6.536   0.528   0.269
 5752SOL    HW118155   6.595   0.468   0.214
 5752SOL    HW218156   6.499   0.475   0.345
 5753SOL     OW18157   3.771   3.317   4.262
 5753SOL    HW118158   3.781   3.287   4.168
 5753SOL    HW218159   3.847   3.283   4.317
 5754SOL     OW18160   6.789   4.688   1.758
 5754SOL    HW118161   6.847   4.607   1.750
 5754SOL    HW218162   6.846   4.768   1.777
 5755SOL     OW18163   2.510   2.942   6.013
 5755SOL    HW118164   2.455   2.934   5.930
 5755SOL    HW218165   2.572   2.864   6.019
 5756SOL     OW18166   6.398   0.329   3.287
 5756SOL    HW118167   6.426   0.243   3.246
 5756SOL    HW218168   6.449   0.345   3.371
 5757SOL     OW18169   6.856   6.772   3.371
 5757SOL    HW118170   6.858   6.737   3.464
 5757SOL    HW218171   6.878   6.870   3.371
 5758SOL     OW18172   2.542   0.615   4.576
 5758SOL    HW118173   2.583   0.699   4.540
 5758SOL    HW218174   2.613   0.560   4.620
 5759SOL     OW18175   4.861   1.866   6.922
 5759SOL    HW118176   4.947   1.916   6.939
 5759SOL    HW218177   4.864   1.779   6.970
 5760SOL     OW18178   6.855   3.849   0.812
 5760SOL    HW118179   6.844   3.944   0.842
 5760SOL    HW218180   6.851   3.846   0.712
 5761SOL     OW18181   5.887   5.509   6.641
 5761SOL    HW118182   5.902   5.608   6.637
 5761SOL    HW218183   5.908   5.468   6.553
 5762SOL     OW18184   4.302   4.257   0.266
 5762SOL    HW118185   4.312   4.214   0.177
 5762SOL    HW218186   4.212   4.236   0.304
 5763SOL     OW18187   0.003   0.017   0.258
 5763SOL    HW118188   0.103   0.021   0.261
 5763SOL    HW218189   6.996   6.952   0.218
 5764SOL     OW18190   5.249   4.952   5.580
 5764SOL    HW118191   5.276   5.045   5.605
 5764SOL    HW218192   5.223   4.949   5.484
 5765SOL     OW18193   5.838   2.956   0.053
 5765SOL    HW118194   5.925   2.942   0.101
 5765SOL    HW218195   5.773   3.002   0.113
 5766SOL     OW18196   2.531   2.096   6.953
 5766SOL    HW118197   2.578   2.152   7.021
 5766SOL    HW218198   2.477   2.154   6.893
 5767SOL     OW18199   2.058   1.706   0.120
 5767SOL    HW118200   2.086   1.796   0.153
 5767SOL    HW218201   2.114   1.635   0.164
 5768SOL     OW18202   1.186   6.178   3.711
 5768SOL    HW118203   1.250   6.222   3.773
 5768SOL    HW218204   1.204   6.208   3.617
 5769SOL     OW18205   2.344   5.730   4.502
 5769SOL    HW118206   2.276   5.669   4.462
 5769SOL    HW218207   2.370   5.800   4.435
 5770SOL     OW18208   6.268   6.297   0.211
 5770SOL    HW118209   6.362   6.330   0.224
 5770SOL    HW218210   6.205   6.357   0.260
 5771SOL     OW18211   1.541   0.183   3.587
 5771SOL    HW118212   1.620   0.125   3.607
 5771SOL    HW218213   1.519   0.239   3.667
 5772SOL     OW18214   6.159   2.104   1.377
 5772SOL    HW118215   6.080   2.136   1.429
 5772SOL    HW218216   6.131   2.084   1.283
 5773SOL     OW18217   4.939   0.638   3.410
 5773SOL    HW118218   4.997   0.714   3.379
 5773SOL    HW218219   4.866   0.623   3.343
 5774SOL     OW18220   2.775   5.865   3.384
 5774SOL    HW118221   2.774   5.962   3.359
 5774SOL    HW218222   2.847   5.849   3.452
 5775SOL     OW18223   1.446   1.068   2.038
 5775SOL    HW118224   1.448   0.985   1.983
 5775SOL    HW218225   1.396   1.139   1.989
 5776SOL     OW18226   6.835   0.354   4.751
 5776SOL    HW118227   6.867   0.447   4.770
 5776SOL    HW218228   6.738   0.356   4.727
 5777SOL     OW18229   6.424   0.200   5.754
 5777SOL    HW118230   6.426   0.101   5.746
 5777SOL    HW218231   6.508   0.231   5.800
 5778SOL     OW18232   1.602   0.956   1.458
 5778SOL    HW118233   1.613   0.902   1.541
 5778SOL    HW218234   1.637   1.049   1.473
 5779SOL     OW18235   5.003   2.391   0.496
 5779SOL    HW118236   5.035   2.416   0.588
 5779SOL    HW218237   4.905   2.410   0.489
 5780SOL     OW18238   6.149   5.432   3.519
 5780SOL    HW118239   6.088   5.390   3.587
 5780SOL    HW218240   6.244   5.424   3.550
 5781SOL     OW18241   0.425   4.389   4.090
 5781SOL    HW118242   0.360   4.440   4.146
 5781SOL    HW218243   0.405   4.291   4.097
 5782SOL     OW18244   0.845   1.472   0.710
 5782SOL    HW118245   0.915   1.490   0.641
 5782SOL    HW218246   0.889   1.458   0.799
 5783SOL     OW18247   1.919   0.626   1.594
 5783SOL    HW118248   1.968   0.693   1.538
 5783SOL    HW218249   1.985   0.567   1.641
 5784SOL     OW18250   0.110   6.054   0.677
 5784SOL    HW118251   0.084   5.967   0.634
 5784SOL    HW218252   0.128   6.039   0.774
 5785SOL     OW18253   1.780   2.282   0.532
 5785SOL    HW118254   1.745   2.205   0.479
 5785SOL    HW218255   1.794   2.360   0.472
 5786SOL     OW18256   0.495   4.628   1.187
 5786SOL    HW118257   0.457   4.640   1.279
 5786SOL    HW218258   0.498   4.717   1.141
 5787SOL     OW18259   4.071   1.599   5.340
 5787SOL    HW118260   4.021   1.575   5.423
 5787SOL    HW218261   4.007   1.639   5.273
 5788SOL     OW18262   3.484   1.680   1.446
 5788SOL    HW118263   3.423   1.646   1.518
 5788SOL    HW218264   3.504   1.607   1.381
 5789SOL     OW18265   3.048   4.472   0.607
 5789SOL    HW118266   2.955   4.499   0.583
 5789SOL    HW218267   3.046   4.412   0.688
 5790SOL     OW18268   0.403   4.677   4.621
 5790SOL    HW118269   0.454   4.663   4.537
 5790SOL    HW218270   0.308   4.701   4.600
 5791SOL     OW18271   3.186   1.725   2.580
 5791SOL    HW118272   3.261   1.735   2.646
 5791SOL    HW218273   3.170   1.812   2.535
 5792SOL     OW18274   5.655   2.766   2.151
 5792SOL    HW118275   5.619   2.739   2.241
 5792SOL    HW218276   5.621   2.857   2.128
 5793SOL     OW18277   5.285   0.607   3.993
 5793SOL    HW118278   5.236   0.541   4.050
 5793SOL    HW218279   5.366   0.564   3.953
 5794SOL     OW18280   2.239   1.148   6.952
 5794SOL    HW118281   2.181   1.132   6.872
 5794SOL    HW218282   2.231   1.243   6.981
 5795SOL     OW18283   0.005   6.536   0.108
 5795SOL    HW118284   0.014   6.548   0.009
 5795SOL    HW218285   0.031   6.443   0.133
 5796SOL     OW18286   4.791   0.691   5.880
 5796SOL    HW118287   4.785   0.751   5.960
 5796SOL    HW218288   4.854   0.616   5.899
 5797SOL     OW18289   4.396   2.349   0.139
 5797SOL    HW118290   4.300   2.374   0.140
 5797SOL    HW218291   4.405   2.249   0.145
 5798SOL     OW18292   6.432   5.014   4.311
 5798SOL    HW118293   6.494   5.082   4.350
 5798SOL    HW218294   6.345   5.058   4.289
 5799SOL     OW18295   0.155   0.796   4.143
 5799SOL    HW118296   0.132   0.716   4.087
 5799SOL    HW218297   0.195   0.765   4.230
 5800SOL     OW18298   6.216   0.083   1.632
 5800SOL    HW118299   6.190   0.077   1.536
 5800SOL    HW218300   6.155   0.027   1.687
 5801SOL     OW18301   1.846   2.901   3.218
 5801SOL    HW118302   1.786   2.866   3.290
 5801SOL    HW218303   1.906   2.828   3.187
 5802SOL     OW18304   6.695   3.280   2.278
 5802SOL    HW118305   6.609   3.232   2.262
 5802SOL    HW218306   6.772   3.221   2.256
 5803SOL     OW18307   2.304   5.714   2.434
 5803SOL    HW118308   2.291   5.623   2.394
 5803SOL    HW218309   2.219   5.744   2.477
 5804SOL     OW18310   0.146   5.002   2.952
 5804SOL    HW118311   0.155   5.102   2.953
 5804SOL    HW218312   0.193   4.964   3.032
 5805SOL     OW18313   2.002   3.289   0.713
 5805SOL    HW118314   1.946   3.359   0.758
 5805SOL    HW218315   2.030   3.220   0.780
 5806SOL     OW18316   6.141   5.605   4.649
 5806SOL    HW118317   6.140   5.657   4.564
 5806SOL    HW218318   6.100   5.660   4.722
 5807SOL     OW18319   0.636   4.751   0.718
 5807SOL    HW118320   0.690   4.793   0.791
 5807SOL    HW218321   0.698   4.702   0.656
 5808SOL     OW18322   6.371   5.420   4.064
 5808SOL    HW118323   6.300   5.356   4.033
 5808SOL    HW218324   6.457   5.399   4.018
 5809SOL     OW18325   6.602   1.665   5.093
 5809SOL    HW118326   6.604   1.756   5.133
 5809SOL    HW218327   6.692   1.622   5.103
 5810SOL     OW18328   4.992   1.595   5.267
 5810SOL    HW118329   5.056   1.548   5.206
 5810SOL    HW218330   4.911   1.623   5.216
 5811SOL     OW18331   3.558   0.747   4.851
 5811SOL    HW118332   3.555   0.650   4.876
 5811SOL    HW218333   3.467   0.787   4.860
 5812SOL     OW18334   6.058   3.738   4.969
 5812SOL    HW118335   5.988   3.672   4.997
 5812SOL    HW218336   6.020   3.830   4.973
 5813SOL     OW18337   1.860   1.341   1.214
 5813SOL    HW118338   1.947   1.311   1.176
 5813SOL    HW218339   1.846   1.438   1.192
 5814SOL     OW18340   6.232   3.757   2.104
 5814SOL    HW118341   6.214   3.660   2.092
 5814SOL    HW218342   6.245   3.778   2.201
 5815SOL     OW18343   3.936   1.597   3.973
 5815SOL    HW118344   4.032   1.593   3.944
 5815SOL    HW218345   3.883   1.529   3.923
 5816SOL     OW18346   5.045   4.667   0.843
 5816SOL    HW118347   5.002   4.707   0.762
 5816SOL    HW218348   4.993   4.586   0.872
 5817SOL     OW18349   5.815   4.291   5.757
 5817SOL    HW118350   5.830   4.211   5.698
 5817SOL    HW218351   5.903   4.322   5.793
 5818SOL     OW18352   6.356   4.921   5.362
 5818SOL    HW118353   6.417   4.972   5.301
 5818SOL    HW218354   6.335   4.832   5.321
 5819SOL     OW18355   3.622   0.335   6.856
 5819SOL    HW118356   3.588   0.426   6.881
 5819SOL    HW218357   3.696   0.308   6.919
 5820SOL     OW18358   4.631   4.517   3.623
 5820SOL    HW118359   4.658   4.443   3.562
 5820SOL    HW218360   4.622   4.483   3.716
 5821SOL     OW18361   0.276   1.042   1.810
 5821SOL    HW118362   0.209   1.003   1.873
 5821SOL    HW218363   0.356   1.072   1.862
 5822SOL     OW18364   1.565   2.692   1.357
 5822SOL    HW118365   1.576   2.790   1.375
 5822SOL    HW218366   1.524   2.681   1.266
 5823SOL     OW18367   2.905   0.401   4.433
 5823SOL    HW118368   2.934   0.348   4.354
 5823SOL    HW218369   2.985   0.433   4.484
 5824SOL     OW18370   6.988   5.548   2.476
 5824SOL    HW118371   0.027   5.599   2.537
 5824SOL    HW218372   0.017   5.520   2.395
 5825SOL     OW18373   0.040   6.696   4.481
 5825SOL    HW118374   0.074   6.789   4.468
 5825SOL    HW218375   6.979   6.682   4.428
 5826SOL     OW18376   0.476   5.219   6.058
 5826SOL    HW118377   0.405   5.179   6.001
 5826SOL    HW218378   0.517   5.298   6.011
 5827SOL     OW18379   1.740   3.774   5.468
 5827SOL    HW118380   1.704   3.681   5.478
 5827SOL    HW218381   1.787   3.782   5.381
 5828SOL     OW18382   5.953   1.764   2.042
 5828SOL    HW118383   5.963   1.860   2.015
 5828SOL    HW218384   6.038   1.733   2.084
 5829SOL     OW18385   1.813   0.218   4.078
 5829SOL    HW118386   1.888   0.152   4.074
 5829SOL    HW218387   1.844   0.306   4.042
 5830SOL     OW18388   5.726   6.423   5.733
 5830SOL    HW118389   5.798   6.430   5.801
 5830SOL    HW218390   5.673   6.340   5.749
 5831SOL     OW18391   1.208   0.976   5.838
 5831SOL    HW118392   1.199   0.976   5.938
 5831SOL    HW218393   1.176   0.888   5.802
 5832SOL     OW18394   3.405   5.330   0.010
 5832SOL    HW118395   3.418   5.233   0.032
 5832SOL    HW218396   3.458   5.386   0.074
 5833SOL     OW18397   3.621   4.257   5.079
 5833SOL    HW118398   3.570   4.201   5.014
 5833SOL    HW218399   3.619   4.352   5.049
 5834SOL     OW18400   0.153   2.765   0.218
 5834SOL    HW118401   0.090   2.758   0.140
 5834SOL    HW218402   0.186   2.673   0.241
 5835SOL     OW18403   5.199   3.157   3.439
 5835SOL    HW118404   5.216   3.254   3.421
 5835SOL    HW218405   5.124   3.149   3.504
 5836SOL     OW18406   2.963   0.293   1.874
 5836SOL    HW118407   2.918   0.372   1.832
 5836SOL    HW218408   3.059   0.314   1.892
 5837SOL     OW18409   3.132   4.152   0.025
 5837SOL    HW118410   3.150   4.174   0.121
 5837SOL    HW218411   3.217   4.158   6.995
 5838SOL     OW18412   3.356   1.903   1.022
 5838SOL    HW118413   3.393   1.973   0.961
 5838SOL    HW218414   3.348   1.940   1.115
 5839SOL     OW18415   1.107   2.063   1.936
 5839SOL    HW118416   1.056   1.977   1.933
 5839SOL    HW218417   1.190   2.054   1.880
 5840SOL     OW18418   1.214   4.848   6.601
 5840SOL    HW118419   1.116   4.862   6.582
 5840SOL    HW218420   1.266   4.859   6.517
 5841SOL     OW18421   4.906   1.250   2.510
 5841SOL    HW118422   4.819   1.284   2.545
 5841SOL    HW218423   4.977   1.264   2.578
 5842SOL     OW18424   4.638   2.890   1.528
 5842SOL    HW118425   4.579   2.810   1.519
 5842SOL    HW218426   4.604   2.963   1.469
 5843SOL     OW18427   1.461   4.043   2.425
 5843SOL    HW118428   1.545   4.040   2.370
 5843SOL    HW218429   1.422   3.951   2.430
 5844SOL     OW18430   1.690   5.929   5.941
 5844SOL    HW118431   1.680   5.883   6.030
 5844SOL    HW218432   1.723   5.863   5.874
 5845SOL     OW18433   0.695   0.417   2.319
 5845SOL    HW118434   0.745   0.497   2.354
 5845SOL    HW218435   0.598   0.425   2.344
 5846SOL     OW18436   6.105   3.429   6.262
 5846SOL    HW118437   6.033   3.361   6.274
 5846SOL    HW218438   6.086   3.508   6.321
 5847SOL     OW18439   2.779   2.227   2.254
 5847SOL    HW118440   2.844   2.238   2.179
 5847SOL    HW218441   2.704   2.168   2.225
 5848SOL     OW18442   1.509   5.854   3.263
 5848SOL    HW118443   1.473   5.860   3.356
 5848SOL    HW218444   1.566   5.933   3.244
 5849SOL     OW18445   1.292   0.361   5.622
 5849SOL    HW118446   1.259   0.308   5.544
 5849SOL    HW218447   1.370   0.416   5.594
 5850SOL     OW18448   6.563   2.981   1.772
 5850SOL    HW118449   6.628   2.992   1.847
 5850SOL    HW218450   6.548   3.069   1.728
 5851SOL     OW18451   5.105   3.190   2.503
 5851SOL    HW118452   5.024   3.241   2.474
 5851SOL    HW218453   5.090   3.152   2.594
 5852SOL     OW18454   5.941   6.450   3.314
 5852SOL    HW118455   5.969   6.510   3.389
 5852SOL    HW218456   5.938   6.356   3.346
 5853SOL     OW18457   3.405   5.492   5.212
 5853SOL    HW118458   3.312   5.455   5.216
 5853SOL    HW218459   3.460   5.438   5.149
 5854SOL     OW18460   4.588   4.542   6.366
 5854SOL    HW118461   4.495   4.578   6.363
 5854SOL    HW218462   4.644   4.591   6.299
 5855SOL     OW18463   1.358   1.142   5.259
 5855SOL    HW118464   1.309   1.055   5.261
 5855SOL    HW218465   1.454   1.126   5.233
 5856SOL     OW18466   2.269   6.053   3.515
 5856SOL    HW118467   2.301   5.960   3.532
 5856SOL    HW218468   2.331   6.098   3.450
 5857SOL     OW18469   6.465   2.118   6.094
 5857SOL    HW118470   6.473   2.018   6.086
 5857SOL    HW218471   6.539   2.161   6.042
 5858SOL     OW18472   2.419   2.289   2.791
 5858SOL    HW118473   2.412   2.273   2.889
 5858SOL    HW218474   2.411   2.387   2.773
 5859SOL     OW18475   6.084   5.999   1.646
 5859SOL    HW118476   6.151   5.979   1.574
 5859SOL    HW218477   6.129   5.998   1.735
 5860SOL     OW18478   0.572   3.669   2.751
 5860SOL    HW118479   0.601   3.665   2.656
 5860SOL    HW218480   0.473   3.655   2.757
 5861SOL     OW18481   4.829   1.887   4.545
 5861SOL    HW118482   4.856   1.813   4.484
 5861SOL    HW218483   4.910   1.925   4.590
 5862SOL     OW18484   6.001   5.528   0.905
 5862SOL    HW118485   6.004   5.495   0.999
 5862SOL    HW218486   5.921   5.586   0.892
 5863SOL     OW18487   2.974   2.096   5.120
 5863SOL    HW118488   3.035   2.154   5.066
 5863SOL    HW218489   2.976   2.125   5.216
 5864SOL     OW18490   3.861   3.954   2.370
 5864SOL    HW118491   3.944   3.958   2.314
 5864SOL    HW218492   3.845   4.043   2.413
 5865SOL     OW18493   6.119   6.815   5.208
 5865SOL    HW118494   6.153   6.793   5.300
 5865SOL    HW218495   6.032   6.768   5.193
 5866SOL     OW18496   3.319   4.241   0.486
 5866SOL    HW118497   3.311   4.341   0.475
 5866SOL    HW218498   3.278   4.196   0.406
 5867SOL     OW18499   2.395   3.432   1.225
 5867SOL    HW118500   2.385   3.453   1.128
 5867SOL    HW218501   2.318   3.470   1.276
 5868SOL     OW18502   1.449   1.498   5.502
 5868SOL    HW118503   1.506   1.423   5.535
 5868SOL    HW218504   1.499   1.584   5.510
 5869SOL     OW18505   2.143   6.565   2.976
 5869SOL    HW118506   2.112   6.529   2.888
 5869SOL    HW218507   2.066   6.609   3.022
 5870SOL     OW18508   4.326   6.470   5.008
 5870SOL    HW118509   4.237   6.443   5.042
 5870SOL    HW218510   4.319   6.560   4.965
 5871SOL     OW18511   3.357   3.372   1.327
 5871SOL    HW118512   3.280   3.372   1.390
 5871SOL    HW218513   3.333   3.423   1.245
 5872SOL     OW18514   4.378   6.265   1.240
 5872SOL    HW118515   4.296   6.318   1.262
 5872SOL    HW218516   4.449   6.326   1.205
 5873SOL     OW18517   3.779   1.291   2.118
 5873SOL    HW118518   3.758   1.312   2.213
 5873SOL    HW218519   3.777   1.191   2.105
 5874SOL     OW18520   2.742   4.943   6.548
 5874SOL    HW118521   2.684   4.952   6.467
 5874SOL    HW218522   2.698   4.882   6.614
 5875SOL     OW18523   4.246   1.447   0.138
 5875SOL    HW118524   4.174   1.378   0.133
 5875SOL    HW218525   4.243   1.492   0.227
 5876SOL     OW18526   4.177   3.297   0.348
 5876SOL    HW118527   4.170   3.200   0.324
 5876SOL    HW218528   4.089   3.341   0.333
 5877SOL     OW18529   0.581   6.986   1.498
 5877SOL    HW118530   0.530   0.046   1.525
 5877SOL    HW218531   0.631   6.950   1.576
 5878SOL     OW18532   6.207   5.229   3.943
 5878SOL    HW118533   6.144   5.265   3.874
 5878SOL    HW218534   6.167   5.149   3.985
 5879SOL     OW18535   1.383   4.133   6.695
 5879SOL    HW118536   1.334   4.059   6.741
 5879SOL    HW218537   1.481   4.122   6.709
 5880SOL     OW18538   4.900   4.549   5.672
 5880SOL    HW118539   4.934   4.500   5.592
 5880SOL    HW218540   4.960   4.626   5.693
 5881SOL     OW18541   0.799   0.068   2.423
 5881SOL    HW118542   0.880   0.126   2.417
 5881SOL    HW218543   0.812   7.021   2.495
 5882SOL     OW18544   6.727   5.349   0.783
 5882SOL    HW118545   6.679   5.330   0.697
 5882SOL    HW218546   6.757   5.444   0.786
 5883SOL     OW18547   1.008   1.357   6.323
 5883SOL    HW118548   1.040   1.434   6.267
 5883SOL    HW218549   1.001   1.386   6.419
 5884SOL     OW18550   4.220   1.025   4.512
 5884SOL    HW118551   4.124   1.005   4.493
 5884SOL    HW218552   4.274   1.013   4.428
 5885SOL     OW18553   0.728   6.684   2.648
 5885SOL    HW118554   0.770   6.656   2.562
 5885SOL    HW218555   0.636   6.645   2.655
 5886SOL     OW18556   0.017   2.494   4.590
 5886SOL    HW118557   0.061   2.497   4.680
 5886SOL    HW218558   0.079   2.453   4.524
 5887SOL     OW18559   2.545   1.900   1.988
 5887SOL    HW118560   2.590   1.939   1.908
 5887SOL    HW218561   2.577   1.806   2.001
 5888SOL     OW18562   3.047   0.603   1.342
 5888SOL    HW118563   3.089   0.594   1.432
 5888SOL    HW218564   3.111   0.572   1.272
 5889SOL     OW18565   0.621   0.595   0.586
 5889SOL    HW118566   0.590   0.522   0.646
 5889SOL    HW218567   0.629   0.680   0.638
 5890SOL     OW18568   2.246   1.248   3.228
 5890SOL    HW118569   2.281   1.340   3.208
 5890SOL    HW218570   2.306   1.203   3.295
 5891SOL     OW18571   3.067   2.974   6.772
 5891SOL    HW118572   2.973   2.996   6.795
 5891SOL    HW218573   3.108   2.922   6.847
 5892SOL     OW18574   0.773   5.642   2.034
 5892SOL    HW118575   0.701   5.631   2.103
 5892SOL    HW218576   0.852   5.587   2.060
 5893SOL     OW18577   2.585   4.580   3.960
 5893SOL    HW118578   2.509   4.638   3.932
 5893SOL    HW218579   2.649   4.570   3.884
 5894SOL     OW18580   6.902   5.626   4.160
 5894SOL    HW118581   6.850   5.641   4.076
 5894SOL    HW218582   6.883   5.535   4.196
 5895SOL     OW18583   5.421   3.760   4.199
 5895SOL    HW118584   5.345   3.750   4.134
 5895SOL    HW218585   5.473   3.675   4.204
 5896SOL     OW18586   3.442   0.653   0.432
 5896SOL    HW118587   3.357   0.647   0.483
 5896SOL    HW218588   3.432   0.717   0.356
 5897SOL     OW18589   4.521   7.012   1.227
 5897SOL    HW118590   4.601   6.973   1.273
 5897SOL    HW218591   4.494   6.952   1.152
 5898SOL     OW18592   2.364   7.011   3.633
 5898SOL    HW118593   2.388   6.916   3.653
 5898SOL    HW218594   2.429   0.050   3.677
 5899SOL     OW18595   6.259   5.577   0.168
 5899SOL    HW118596   6.324   5.547   0.098
 5899SOL    HW218597   6.308   5.618   0.244
 5900SOL     OW18598   6.457   5.219   3.814
 5900SOL    HW118599   6.389   5.187   3.879
 5900SOL    HW218600   6.517   5.143   3.788
 5901SOL     OW18601   2.410   1.706   0.051
 5901SOL    HW118602   2.411   1.614   0.089
 5901SOL    HW218603   2.481   1.714   7.003
 5902SOL     OW18604   5.975   1.906   5.121
 5902SOL    HW118605   5.973   1.981   5.187
 5902SOL    HW218606   5.891   1.909   5.065
 5903SOL     OW18607   4.946   4.114   0.152
 5903SOL    HW118608   4.847   4.101   0.140
 5903SOL    HW218609   4.994   4.083   0.070
 5904SOL     OW18610   0.812   4.523   1.577
 5904SOL    HW118611   0.725   4.509   1.529
 5904SOL    HW218612   0.799   4.507   1.675
 5905SOL     OW18613   6.512   6.799   3.722
 5905SOL    HW118614   6.596   6.852   3.729
 5905SOL    HW218615   6.532   6.707   3.687
 5906SOL     OW18616   3.862   2.076   4.038
 5906SOL    HW118617   3.934   2.099   3.973
 5906SOL    HW218618   3.891   1.999   4.095
 5907SOL     OW18619   1.354   4.723   0.673
 5907SOL    HW118620   1.447   4.695   0.649
 5907SOL    HW218621   1.313   4.772   0.596
 5908SOL     OW18622   0.088   3.078   6.638
 5908SOL    HW118623   0.076   3.133   6.555
 5908SOL    HW218624   0.185   3.074   6.662
 5909SOL     OW18625   6.882   5.137   0.865
 5909SOL    HW118626   6.838   5.224   0.842
 5909SOL    HW218627   6.918   5.094   0.782
 5910SOL     OW18628   0.717   4.350   3.510
 5910SOL    HW118629   0.731   4.369   3.412
 5910SOL    HW218630   0.791   4.290   3.542
 5911SOL     OW18631   0.133   5.521   6.261
 5911SOL    HW118632   0.229   5.547   6.254
 5911SOL    HW218633   0.079   5.570   6.192
 5912SOL     OW18634   5.722   1.850   6.415
 5912SOL    HW118635   5.772   1.784   6.359
 5912SOL    HW218636   5.736   1.829   6.512
 5913SOL     OW18637   5.016   2.926   6.300
 5913SOL    HW118638   5.094   2.890   6.249
 5913SOL    HW218639   5.039   3.016   6.336
 5914SOL     OW18640   1.355   5.602   5.871
 5914SOL    HW118641   1.416   5.592   5.949
 5914SOL    HW218642   1.407   5.591   5.786
 5915SOL     OW18643   4.231   5.589   1.319
 5915SOL    HW118644   4.297   5.663   1.332
 5915SOL    HW218645   4.206   5.583   1.222
 5916SOL     OW18646   5.230   6.706   3.779
 5916SOL    HW118647   5.252   6.611   3.802
 5916SOL    HW218648   5.131   6.714   3.763
 5917SOL     OW18649   2.984   3.549   4.067
 5917SOL    HW118650   3.065   3.602   4.041
 5917SOL    HW218651   2.944   3.507   3.986
 5918SOL     OW18652   1.753   3.547   6.327
 5918SOL    HW118653   1.669   3.598   6.346
 5918SOL    HW218654   1.815   3.556   6.405
 5919SOL     OW18655   3.563   3.387   2.591
 5919SOL    HW118656   3.637   3.352   2.648
 5919SOL    HW218657   3.596   3.397   2.497
 5920SOL     OW18658   4.433   0.580   6.643
 5920SOL    HW118659   4.452   0.652   6.577
 5920SOL    HW218660   4.456   0.611   6.735
 5921SOL     OW18661   3.992   5.203   6.619
 5921SOL    HW118662   3.921   5.214   6.549
 5921SOL    HW218663   3.951   5.167   6.703
 5922SOL     OW18664   5.392   5.192   3.070
 5922SOL    HW118665   5.490   5.211   3.075
 5922SOL    HW218666   5.376   5.114   3.009
 5923SOL     OW18667   6.360   1.474   1.377
 5923SOL    HW118668   6.326   1.497   1.286
 5923SOL    HW218669   6.416   1.391   1.371
 5924SOL     OW18670   6.467   0.801   2.979
 5924SOL    HW118671   6.536   0.872   2.985
 5924SOL    HW218672   6.377   0.843   2.970
 5925SOL     OW18673   3.792   6.839   2.042
 5925SOL    HW118674   3.787   6.831   2.142
 5925SOL    HW218675   3.865   6.780   2.008
 5926SOL     OW18676   3.821   5.781   1.351
 5926SOL    HW118677   3.764   5.784   1.270
 5926SOL    HW218678   3.763   5.786   1.433
 5927SOL     OW18679   1.253   4.350   2.542
 5927SOL    HW118680   1.239   4.318   2.449
 5927SOL    HW218681   1.237   4.275   2.606
 5928SOL     OW18682   4.043   0.380   1.006
 5928SOL    HW118683   3.971   0.350   1.068
 5928SOL    HW218684   4.129   0.387   1.056
 5929SOL     OW18685   0.254   6.950   6.910
 5929SOL    HW118686   0.266   6.854   6.884
 5929SOL    HW218687   0.300   7.008   6.843
 5930SOL     OW18688   6.522   3.464   3.805
 5930SOL    HW118689   6.575   3.384   3.779
 5930SOL    HW218690   6.521   3.529   3.729
 5931SOL     OW18691   6.865   5.202   2.841
 5931SOL    HW118692   6.881   5.103   2.841
 5931SOL    HW218693   6.854   5.233   2.746
 5932SOL     OW18694   3.112   0.330   0.637
 5932SOL    HW118695   3.164   0.249   0.610
 5932SOL    HW218696   3.016   0.317   0.615
 5933SOL     OW18697   6.572   6.261   3.124
 5933SOL    HW118698   6.477   6.282   3.145
 5933SOL    HW218699   6.628   6.343   3.139
 5934SOL     OW18700   3.833   2.988   4.526
 5934SOL    HW118701   3.880   2.951   4.606
 5934SOL    HW218702   3.885   3.066   4.491
 5935SOL     OW18703   5.288   5.123   6.437
 5935SOL    HW118704   5.309   5.127   6.339
 5935SOL    HW218705   5.194   5.154   6.452
 5936SOL     OW18706   3.860   2.678   1.183
 5936SOL    HW118707   3.806   2.760   1.204
 5936SOL    HW218708   3.832   2.604   1.246
 5937SOL     OW18709   0.051   4.328   2.504
 5937SOL    HW118710   0.131   4.291   2.457
 5937SOL    HW218711   6.991   4.277   2.475
 5938SOL     OW18712   0.227   5.762   2.863
 5938SOL    HW118713   0.168   5.828   2.908
 5938SOL    HW218714   0.323   5.792   2.871
 5939SOL     OW18715   3.287   6.872   3.050
 5939SOL    HW118716   3.267   6.886   2.953
 5939SOL    HW218717   3.221   6.807   3.089
 5940SOL     OW18718   5.114   5.716   1.177
 5940SOL    HW118719   5.026   5.734   1.221
 5940SOL    HW218720   5.119   5.764   1.090
 5941SOL     OW18721   5.918   2.779   2.135
 5941SOL    HW118722   5.819   2.793   2.140
 5941SOL    HW218723   5.953   2.819   2.050
 5942SOL     OW18724   4.822   3.651   6.903
 5942SOL    HW118725   4.765   3.673   6.983
 5942SOL    HW218726   4.781   3.575   6.853
 5943SOL     OW18727   3.193   4.877   6.651
 5943SOL    HW118728   3.152   4.930   6.576
 5943SOL    HW218729   3.121   4.849   6.714
 5944SOL     OW18730   6.273   2.949   1.468
 5944SOL    HW118731   6.343   2.982   1.405
 5944SOL    HW218732   6.192   2.921   1.417
 5945SOL     OW18733   6.232   5.230   4.786
 5945SOL    HW118734   6.158   5.163   4.774
 5945SOL    HW218735   6.197   5.309   4.837
 5946SOL     OW18736   3.731   3.520   6.438
 5946SOL    HW118737   3.707   3.498   6.343
 5946SOL    HW218738   3.649   3.519   6.494
 5947SOL     OW18739   3.655   3.513   2.158
 5947SOL    HW118740   3.620   3.443   2.220
 5947SOL    HW218741   3.710   3.471   2.086
 5948SOL     OW18742   4.455   5.222   3.791
 5948SOL    HW118743   4.439   5.311   3.748
 5948SOL    HW218744   4.371   5.168   3.786
 5949SOL     OW18745   5.044   3.787   1.723
 5949SOL    HW118746   5.013   3.876   1.689
 5949SOL    HW218747   4.964   3.733   1.752
 5950SOL     OW18748   4.932   1.298   5.491
 5950SOL    HW118749   4.910   1.385   5.446
 5950SOL    HW218750   4.851   1.265   5.541
 5951SOL     OW18751   1.447   6.088   4.046
 5951SOL    HW118752   1.423   5.998   4.010
 5951SOL    HW218753   1.388   6.158   4.007
 5952SOL     OW18754   5.348   5.000   3.301
 5952SOL    HW118755   5.337   5.065   3.225
 5952SOL    HW218756   5.443   5.001   3.331
 5953SOL     OW18757   6.357   2.649   5.520
 5953SOL    HW118758   6.346   2.687   5.612
 5953SOL    HW218759   6.279   2.590   5.499
 5954SOL     OW18760   0.073   4.085   5.823
 5954SOL    HW118761   0.063   4.130   5.912
 5954SOL    HW218762   0.162   4.042   5.817
 5955SOL     OW18763   4.630   6.032   2.673
 5955SOL    HW118764   4.542   5.987   2.686
 5955SOL    HW218765   4.698   5.964   2.645
 5956SOL     OW18766   4.233   1.400   4.986
 5956SOL    HW118767   4.312   1.349   4.954
 5956SOL    HW218768   4.211   1.373   5.080
 5957SOL     OW18769   4.399   0.570   5.154
 5957SOL    HW118770   4.380   0.664   5.127
 5957SOL    HW218771   4.407   0.513   5.072
 5958SOL     OW18772   6.047   6.880   2.729
 5958SOL    HW118773   6.089   6.802   2.683
 5958SOL    HW218774   5.982   6.846   2.797
 5959SOL     OW18775   4.004   2.803   5.314
 5959SOL    HW118776   3.954   2.792   5.400
 5959SOL    HW218777   4.038   2.714   5.284
 5960SOL     OW18778   3.317   5.188   4.922
 5960SOL    HW118779   3.240   5.128   4.945
 5960SOL    HW218780   3.372   5.145   4.850
 5961SOL     OW18781   5.144   1.331   2.645
 5961SOL    HW118782   5.238   1.296   2.653
 5961SOL    HW218783   5.131   1.404   2.712
 5962SOL     OW18784   5.825   6.099   0.372
 5962SOL    HW118785   5.916   6.082   0.410
 5962SOL    HW218786   5.770   6.016   0.381
 5963SOL     OW18787   3.853   3.931   5.289
 5963SOL    HW118788   3.847   3.963   5.194
 5963SOL    HW218789   3.809   3.998   5.349
 5964SOL     OW18790   0.410   5.600   5.439
 5964SOL    HW118791   0.328   5.599   5.382
 5964SOL    HW218792   0.399   5.666   5.513
 5965SOL     OW18793   1.703   2.287   6.543
 5965SOL    HW118794   1.782   2.275   6.604
 5965SOL    HW218795   1.708   2.221   6.468
 5966SOL     OW18796   2.804   5.920   5.579
 5966SOL    HW118797   2.753   5.889   5.499
 5966SOL    HW218798   2.822   5.842   5.639
 5967SOL     OW18799   4.129   6.733   6.535
 5967SOL    HW118800   4.158   6.734   6.631
 5967SOL    HW218801   4.187   6.794   6.482
 5968SOL     OW18802   5.236   1.742   1.174
 5968SOL    HW118803   5.254   1.755   1.272
 5968SOL    HW218804   5.168   1.809   1.143
 5969SOL     OW18805   6.916   6.674   6.332
 5969SOL    HW118806   6.833   6.693   6.386
 5969SOL    HW218807   6.971   6.757   6.327
 5970SOL     OW18808   0.332   4.270   2.994
 5970SOL    HW118809   0.351   4.229   2.904
 5970SOL    HW218810   0.243   4.315   2.992
 5971SOL     OW18811   0.640   1.270   2.547
 5971SOL    HW118812   0.711   1.237   2.485
 5971SOL    HW218813   0.575   1.196   2.566
 5972SOL     OW18814   5.952   5.073   6.212
 5972SOL    HW118815   6.010   5.145   6.174
 5972SOL    HW218816   5.869   5.114   6.251
 5973SOL     OW18817   1.617   3.596   2.776
 5973SOL    HW118818   1.611   3.690   2.742
 5973SOL    HW218819   1.692   3.549   2.729
 5974SOL     OW18820   5.274   5.207   6.163
 5974SOL    HW118821   5.223   5.131   6.123
 5974SOL    HW218822   5.371   5.182   6.170
 5975SOL     OW18823   4.330   0.655   0.382
 5975SOL    HW118824   4.419   0.695   0.363
 5975SOL    HW218825   4.341   0.557   0.402
 5976SOL     OW18826   3.437   2.522   5.626
 5976SOL    HW118827   3.455   2.585   5.550
 5976SOL    HW218828   3.481   2.556   5.709
 5977SOL     OW18829   1.736   5.500   6.887
 5977SOL    HW118830   1.664   5.530   6.950
 5977SOL    HW218831   1.696   5.483   6.797
 5978SOL     OW18832   4.580   5.665   2.146
 5978SOL    HW118833   4.548   5.573   2.122
 5978SOL    HW218834   4.581   5.674   2.246
 5979SOL     OW18835   5.810   1.019   2.764
 5979SOL    HW118836   5.742   1.079   2.722
 5979SOL    HW218837   5.902   1.050   2.740
 5980SOL     OW18838   4.037   3.971   1.072
 5980SOL    HW118839   4.115   3.957   1.134
 5980SOL    HW218840   4.060   4.042   1.006
 5981SOL     OW18841   5.265   2.350   1.429
 5981SOL    HW118842   5.190   2.313   1.374
 5981SOL    HW218843   5.252   2.448   1.441
 5982SOL     OW18844   6.395   3.470   2.376
 5982SOL    HW118845   6.350   3.437   2.460
 5982SOL    HW218846   6.485   3.507   2.399
 5983SOL     OW18847   1.249   1.747   4.293
 5983SOL    HW118848   1.297   1.659   4.298
 5983SOL    HW218849   1.284   1.801   4.217
 5984SOL     OW18850   6.942   5.736   3.376
 5984SOL    HW118851   6.992   5.714   3.459
 5984SOL    HW218852   6.844   5.742   3.397
 5985SOL     OW18853   6.969   2.910   4.370
 5985SOL    HW118854   6.939   2.823   4.409
 5985SOL    HW218855   6.928   2.985   4.421
 5986SOL     OW18856   2.917   3.649   4.306
 5986SOL    HW118857   2.970   3.597   4.373
 5986SOL    HW218858   2.922   3.603   4.217
 5987SOL     OW18859   5.454   0.210   3.724
 5987SOL    HW118860   5.438   0.148   3.647
 5987SOL    HW218861   5.491   0.158   3.801
 5988SOL     OW18862   4.743   6.816   5.447
 5988SOL    HW118863   4.702   6.775   5.528
 5988SOL    HW218864   4.776   6.908   5.469
 5989SOL     OW18865   2.088   6.448   6.210
 5989SOL    HW118866   1.993   6.429   6.186
 5989SOL    HW218867   2.091   6.486   6.303
 5990SOL     OW18868   3.720   4.282   6.981
 5990SOL    HW118869   3.720   4.291   6.882
 5990SOL    HW218870   3.661   4.353   7.021
 5991SOL     OW18871   2.747   5.556   0.168
 5991SOL    HW118872   2.704   5.590   0.252
 5991SOL    HW218873   2.836   5.517   0.189
 5992SOL     OW18874   3.542   0.521   2.557
 5992SOL    HW118875   3.485   0.439   2.549
 5992SOL    HW218876   3.554   0.544   2.653
 5993SOL     OW18877   3.065   5.799   6.699
 5993SOL    HW118878   3.088   5.815   6.795
 5993SOL    HW218879   3.011   5.876   6.665
 5994SOL     OW18880   5.772   2.922   2.489
 5994SOL    HW118881   5.709   2.999   2.478
 5994SOL    HW218882   5.729   2.839   2.455
 5995SOL     OW18883   4.904   3.652   2.386
 5995SOL    HW118884   4.971   3.717   2.422
 5995SOL    HW218885   4.862   3.690   2.304
 5996SOL     OW18886   1.130   6.559   0.454
 5996SOL    HW118887   1.123   6.551   0.553
 5996SOL    HW218888   1.221   6.595   0.430
 5997SOL     OW18889   0.131   5.733   2.591
 5997SOL    HW118890   0.131   5.739   2.691
 5997SOL    HW218891   0.141   5.825   2.553
 5998SOL     OW18892   6.047   0.951   3.404
 5998SOL    HW118893   5.956   0.971   3.441
 5998SOL    HW218894   6.116   0.966   3.474
 5999SOL     OW18895   1.330   1.452   2.594
 5999SOL    HW118896   1.398   1.455   2.668
 5999SOL    HW218897   1.270   1.531   2.602
 6000SOL     OW18898   4.181   6.846   0.721
 6000SOL    HW118899   4.218   6.898   0.798
 6000SOL    HW218900   4.168   6.751   0.749
 6001SOL     OW18901   0.830   4.069   0.281
 6001SOL    HW118902   0.803   4.047   0.187
 6001SOL    HW218903   0.751   4.060   0.342
 6002SOL     OW18904   5.643   0.087   0.438
 6002SOL    HW118905   5.698   0.112   0.358
 6002SOL    HW218906   5.607   0.169   0.480
 6003SOL     OW18907   5.876   2.540   5.121
 6003SOL    HW118908   5.948   2.476   5.147
 6003SOL    HW218909   5.852   2.527   5.025
 6004SOL     OW18910   7.001   3.821   2.850
 6004SOL    HW118911   6.938   3.816   2.773
 6004SOL    HW218912   0.000   3.917   2.869
 6005SOL     OW18913   4.688   5.847   4.302
 6005SOL    HW118914   4.639   5.762   4.282
 6005SOL    HW218915   4.628   5.925   4.285
 6006SOL     OW18916   2.622   0.930   5.443
 6006SOL    HW118917   2.639   0.905   5.348
 6006SOL    HW218918   2.682   1.007   5.469
 6007SOL     OW18919   4.546   3.896   5.777
 6007SOL    HW118920   4.545   3.852   5.687
 6007SOL    HW218921   4.458   3.939   5.794
 6008SOL     OW18922   2.391   4.277   5.578
 6008SOL    HW118923   2.435   4.361   5.609
 6008SOL    HW218924   2.332   4.241   5.650
 6009SOL     OW18925   2.752   0.373   3.144
 6009SOL    HW118926   2.791   0.398   3.056
 6009SOL    HW218927   2.694   0.448   3.177
 6010SOL     OW18928   1.143   4.180   4.101
 6010SOL    HW118929   1.221   4.117   4.100
 6010SOL    HW218930   1.176   4.273   4.116
 6011SOL     OW18931   4.753   2.466   2.829
 6011SOL    HW118932   4.729   2.417   2.913
 6011SOL    HW218933   4.774   2.561   2.851
 6012SOL     OW18934   5.431   1.111   0.025
 6012SOL    HW118935   5.350   1.058   0.003
 6012SOL    HW218936   5.445   1.181   6.976
 6013SOL     OW18937   4.823   1.904   2.363
 6013SOL    HW118938   4.880   1.976   2.403
 6013SOL    HW218939   4.755   1.946   2.303
 6014SOL     OW18940   3.950   3.231   1.980
 6014SOL    HW118941   4.041   3.223   1.939
 6014SOL    HW218942   3.896   3.297   1.927
 6015SOL     OW18943   5.908   3.876   4.104
 6015SOL    HW118944   5.866   3.785   4.100
 6015SOL    HW218945   5.976   3.878   4.177
 6016SOL     OW18946   6.440   1.854   6.067
 6016SOL    HW118947   6.526   1.885   6.026
 6016SOL    HW218948   6.416   1.764   6.030
 6017SOL     OW18949   6.619   4.069   3.327
 6017SOL    HW118950   6.635   4.150   3.384
 6017SOL    HW218951   6.556   4.092   3.253
 6018SOL     OW18952   3.804   0.437   6.563
 6018SOL    HW118953   3.774   0.501   6.634
 6018SOL    HW218954   3.731   0.425   6.495
 6019SOL     OW18955   6.984   1.384   4.421
 6019SOL    HW118956   0.022   1.412   4.496
 6019SOL    HW218957   6.917   1.456   4.403
 6020SOL     OW18958   0.692   5.091   0.691
 6020SOL    HW118959   0.766   5.057   0.748
 6020SOL    HW218960   0.696   5.048   0.601
 6021SOL     OW18961   4.867   0.512   2.827
 6021SOL    HW118962   4.781   0.558   2.849
 6021SOL    HW218963   4.848   0.421   2.791
 6022SOL     OW18964   4.870   2.460   4.202
 6022SOL    HW118965   4.876   2.426   4.296
 6022SOL    HW218966   4.913   2.395   4.140
 6023SOL     OW18967   5.872   0.641   2.144
 6023SOL    HW118968   5.961   0.612   2.180
 6023SOL    HW218969   5.835   0.714   2.201
 6024SOL     OW18970   1.225   4.378   3.131
 6024SOL    HW118971   1.265   4.354   3.043
 6024SOL    HW218972   1.262   4.464   3.163
 6025SOL     OW18973   3.758   1.786   2.799
 6025SOL    HW118974   3.845   1.808   2.756
 6025SOL    HW218975   3.685   1.838   2.756
 6026SOL     OW18976   0.322   4.343   5.460
 6026SOL    HW118977   0.257   4.414   5.434
 6026SOL    HW218978   0.416   4.377   5.451
 6027SOL     OW18979   1.108   3.684   6.323
 6027SOL    HW118980   1.193   3.715   6.366
 6027SOL    HW218981   1.079   3.752   6.255
 6028SOL     OW18982   6.871   5.106   6.979
 6028SOL    HW118983   6.952   5.047   6.969
 6028SOL    HW218984   6.891   5.180   0.021
 6029SOL     OW18985   2.525   6.153   4.949
 6029SOL    HW118986   2.549   6.087   5.021
 6029SOL    HW218987   2.580   6.236   4.960
 6030SOL     OW18988   4.166   6.087   2.478
 6030SOL    HW118989   4.209   6.004   2.512
 6030SOL    HW218990   4.075   6.065   2.440
 6031SOL     OW18991   2.835   5.393   3.516
 6031SOL    HW118992   2.804   5.378   3.422
 6031SOL    HW218993   2.925   5.351   3.529
 6032SOL     OW18994   2.181   4.673   2.938
 6032SOL    HW118995   2.246   4.603   2.968
 6032SOL    HW218996   2.211   4.713   2.851
 6033SOL     OW18997   3.100   2.169   3.264
 6033SOL    HW118998   3.016   2.114   3.260
 6033SOL    HW218999   3.106   2.214   3.353
 6034SOL     OW19000   1.368   5.531   4.669
 6034SOL    HW119001   1.337   5.582   4.750
 6034SOL    HW219002   1.461   5.499   4.685
 6035SOL     OW19003   0.321   1.027   2.760
 6035SOL    HW119004   0.369   1.112   2.783
 6035SOL    HW219005   0.235   1.022   2.812
 6036SOL     OW19006   5.074   5.737   3.432
 6036SOL    HW119007   4.980   5.732   3.465
 6036SOL    HW219008   5.135   5.692   3.496
 6037SOL     OW19009   4.291   5.473   0.008
 6037SOL    HW119010   4.334   5.383   7.021
 6037SOL    HW219011   4.205   5.465   0.057
 6038SOL     OW19012   1.432   2.102   5.612
 6038SOL    HW119013   1.367   2.043   5.565
 6038SOL    HW219014   1.512   2.048   5.640
 6039SOL     OW19015   3.004   3.491   2.446
 6039SOL    HW119016   3.049   3.577   2.472
 6039SOL    HW219017   2.992   3.434   2.528
 6040SOL     OW19018   0.797   1.545   6.956
 6040SOL    HW119019   0.720   1.561   6.895
 6040SOL    HW219020   0.854   1.471   6.920
 6041SOL     OW19021   2.972   0.408   4.996
 6041SOL    HW119022   2.914   0.328   5.011
 6041SOL    HW219023   3.067   0.379   4.983
 6042SOL     OW19024   4.960   6.076   2.283
 6042SOL    HW119025   4.986   5.980   2.269
 6042SOL    HW219026   4.863   6.087   2.263
 6043SOL     OW19027   1.059   4.598   5.378
 6043SOL    HW119028   1.008   4.674   5.338
 6043SOL    HW219029   1.106   4.629   5.461
 6044SOL     OW19030   1.232   2.181   1.349
 6044SOL    HW119031   1.164   2.109   1.345
 6044SOL    HW219032   1.252   2.204   1.444
 6045SOL     OW19033   5.767   4.737   2.149
 6045SOL    HW119034   5.739   4.681   2.227
 6045SOL    HW219035   5.705   4.722   2.073
 6046SOL     OW19036   4.022   2.077   0.025
 6046SOL    HW119037   4.047   2.019   0.103
 6046SOL    HW219038   4.025   2.022   6.963
 6047SOL     OW19039   5.028   1.952   1.943
 6047SOL    HW119040   5.099   2.011   1.982
 6047SOL    HW219041   5.054   1.856   1.957
 6048SOL     OW19042   4.500   5.408   5.036
 6048SOL    HW119043   4.505   5.416   5.135
 6048SOL    HW219044   4.587   5.437   4.996
 6049SOL     OW19045   4.873   3.133   6.588
 6049SOL    HW119046   4.951   3.106   6.645
 6049SOL    HW219047   4.826   3.052   6.555
 6050SOL     OW19048   3.721   5.885   5.210
 6050SOL    HW119049   3.703   5.949   5.135
 6050SOL    HW219050   3.636   5.838   5.234
 6051SOL     OW19051   2.745   0.447   4.154
 6051SOL    HW119052   2.813   0.519   4.139
 6051SOL    HW219053   2.668   0.485   4.205
 6052SOL     OW19054   6.484   0.383   0.486
 6052SOL    HW119055   6.574   0.349   0.512
 6052SOL    HW219056   6.418   0.308   0.490
 6053SOL     OW19057   3.652   1.683   6.604
 6053SOL    HW119058   3.685   1.771   6.638
 6053SOL    HW219059   3.725   1.636   6.555
 6054SOL     OW19060   2.185   3.827   0.244
 6054SOL    HW119061   2.282   3.807   0.259
 6054SOL    HW219062   2.168   3.840   0.147
 6055SOL     OW19063   4.275   0.299   5.228
 6055SOL    HW119064   4.301   0.393   5.206
 6055SOL    HW219065   4.345   0.237   5.194
 6056SOL     OW19066   4.880   2.986   4.725
 6056SOL    HW119067   4.839   3.062   4.676
 6056SOL    HW219068   4.978   3.004   4.738
 6057SOL     OW19069   5.441   3.312   4.007
 6057SOL    HW119070   5.446   3.412   4.014
 6057SOL    HW219071   5.385   3.287   3.928
 6058SOL     OW19072   5.215   2.601   1.499
 6058SOL    HW119073   5.148   2.541   1.542
 6058SOL    HW219074   5.217   2.689   1.548
 6059SOL     OW19075   4.940   4.543   4.858
 6059SOL    HW119076   5.033   4.577   4.875
 6059SOL    HW219077   4.879   4.620   4.844
 6060SOL     OW19078   3.297   4.669   0.036
 6060SOL    HW119079   3.340   4.594   0.086
 6060SOL    HW219080   3.209   4.691   0.077
 6061SOL     OW19081   4.088   2.070   0.964
 6061SOL    HW119082   4.168   2.049   0.908
 6061SOL    HW219083   4.070   1.994   1.026
 6062SOL     OW19084   2.678   1.240   5.259
 6062SOL    HW119085   2.723   1.204   5.341
 6062SOL    HW219086   2.669   1.166   5.192
 6063SOL     OW19087   3.687   1.798   5.962
 6063SOL    HW119088   3.634   1.864   6.016
 6063SOL    HW219089   3.625   1.746   5.903
 6064SOL     OW19090   2.008   5.786   0.958
 6064SOL    HW119091   1.916   5.748   0.949
 6064SOL    HW219092   2.009   5.880   0.925
 6065SOL     OW19093   6.507   0.093   1.612
 6065SOL    HW119094   6.522   0.126   1.705
 6065SOL    HW219095   6.409   0.096   1.591
 6066SOL     OW19096   4.653   1.093   5.985
 6066SOL    HW119097   4.750   1.079   5.965
 6066SOL    HW219098   4.608   1.005   5.997
 6067SOL     OW19099   5.653   0.916   5.562
 6067SOL    HW119100   5.695   0.826   5.557
 6067SOL    HW219101   5.717   0.984   5.526
 6068SOL     OW19102   5.366   3.735   4.608
 6068SOL    HW119103   5.454   3.689   4.610
 6068SOL    HW219104   5.310   3.705   4.686
 6069SOL     OW19105   6.786   2.719   5.427
 6069SOL    HW119106   6.784   2.817   5.447
 6069SOL    HW219107   6.767   2.704   5.330
 6070SOL     OW19108   2.854   2.986   0.427
 6070SOL    HW119109   2.771   2.962   0.479
 6070SOL    HW219110   2.865   2.923   0.350
 6071SOL     OW19111   5.325   5.419   4.254
 6071SOL    HW119112   5.289   5.504   4.215
 6071SOL    HW219113   5.277   5.399   4.339
 6072SOL     OW19114   0.270   0.472   1.831
 6072SOL    HW119115   0.337   0.421   1.777
 6072SOL    HW219116   0.186   0.482   1.778
 6073SOL     OW19117   5.530   3.711   0.082
 6073SOL    HW119118   5.545   3.628   0.135
 6073SOL    HW219119   5.528   3.688   7.006
 6074SOL     OW19120   1.415   6.781   4.339
 6074SOL    HW119121   1.475   6.852   4.376
 6074SOL    HW219122   1.426   6.777   4.240
 6075SOL     OW19123   6.642   1.642   6.641
 6075SOL    HW119124   6.628   1.632   6.542
 6075SOL    HW219125   6.718   1.585   6.670
 6076SOL     OW19126   2.686   5.545   4.317
 6076SOL    HW119127   2.655   5.593   4.399
 6076SOL    HW219128   2.608   5.502   4.271
 6077SOL     OW19129   5.766   6.195   1.177
 6077SOL    HW119130   5.811   6.179   1.089
 6077SOL    HW219131   5.722   6.285   1.175
 6078SOL     OW19132   4.148   4.697   0.513
 6078SOL    HW119133   4.162   4.620   0.452
 6078SOL    HW219134   4.063   4.744   0.490
 6079SOL     OW19135   3.855   3.779   6.067
 6079SOL    HW119136   3.916   3.858   6.069
 6079SOL    HW219137   3.893   3.710   6.005
 6080SOL     OW19138   0.176   0.772   1.035
 6080SOL    HW119139   0.079   0.773   1.011
 6080SOL    HW219140   0.228   0.729   0.961
 6081SOL     OW19141   6.757   3.405   6.214
 6081SOL    HW119142   6.837   3.423   6.271
 6081SOL    HW219143   6.779   3.424   6.118
 6082SOL     OW19144   2.098   1.844   4.075
 6082SOL    HW119145   2.063   1.846   3.982
 6082SOL    HW219146   2.082   1.933   4.119
 6083SOL     OW19147   0.072   4.922   6.939
 6083SOL    HW119148   0.116   4.975   7.011
 6083SOL    HW219149   0.113   4.945   6.851
 6084SOL     OW19150   1.003   0.003   3.942
 6084SOL    HW119151   1.091   6.991   3.976
 6084SOL    HW219152   0.941   0.016   4.020
 6085SOL     OW19153   0.727   4.340   0.436
 6085SOL    HW119154   0.744   4.356   0.533
 6085SOL    HW219155   0.673   4.256   0.426
 6086SOL     OW19156   3.787   0.448   6.198
 6086SOL    HW119157   3.884   0.455   6.221
 6086SOL    HW219158   3.739   0.531   6.228
 6087SOL     OW19159   3.669   5.367   0.900
 6087SOL    HW119160   3.705   5.325   0.983
 6087SOL    HW219161   3.702   5.317   0.820
 6088SOL     OW19162   5.778   5.725   3.900
 6088SOL    HW119163   5.841   5.647   3.904
 6088SOL    HW219164   5.685   5.693   3.922
 6089SOL     OW19165   5.557   3.274   0.620
 6089SOL    HW119166   5.582   3.279   0.524
 6089SOL    HW219167   5.471   3.225   0.631
 6090SOL     OW19168   2.289   6.025   6.062
 6090SOL    HW119169   2.330   5.944   6.104
 6090SOL    HW219170   2.328   6.107   6.103
 6091SOL     OW19171   2.015   1.468   0.627
 6091SOL    HW119172   2.107   1.505   0.614
 6091SOL    HW219173   1.979   1.500   0.714
 6092SOL     OW19174   4.175   6.911   2.878
 6092SOL    HW119175   4.146   7.001   2.910
 6092SOL    HW219176   4.101   6.845   2.892
 6093SOL     OW19177   1.755   3.666   2.526
 6093SOL    HW119178   1.849   3.689   2.500
 6093SOL    HW219179   1.697   3.668   2.445
 6094SOL     OW19180   3.114   0.104   1.391
 6094SOL    HW119181   3.057   0.141   1.317
 6094SOL    HW219182   3.075   0.131   1.479
 6095SOL     OW19183   4.562   3.700   0.437
 6095SOL    HW119184   4.588   3.719   0.532
 6095SOL    HW219185   4.584   3.605   0.415
 6096SOL     OW19186   0.171   0.120   3.229
 6096SOL    HW119187   0.241   0.058   3.195
 6096SOL    HW219188   0.192   0.213   3.202
 6097SOL     OW19189   2.698   0.071   2.543
 6097SOL    HW119190   2.606   0.103   2.563
 6097SOL    HW219191   2.693   7.013   2.482
 6098SOL     OW19192   1.580   2.730   5.514
 6098SOL    HW119193   1.594   2.651   5.574
 6098SOL    HW219194   1.639   2.722   5.434
 6099SOL     OW19195   6.530   6.410   0.277
 6099SOL    HW119196   6.518   6.385   0.373
 6099SOL    HW219197   6.621   6.451   0.265
 6100SOL     OW19198   4.720   4.359   0.109
 6100SOL    HW119199   4.634   4.407   0.092
 6100SOL    HW219200   4.703   4.260   0.107
 6101SOL     OW19201   6.299   2.473   4.941
 6101SOL    HW119202   6.276   2.381   4.970
 6101SOL    HW219203   6.319   2.530   5.021
 6102SOL     OW19204   3.601   6.726   3.400
 6102SOL    HW119205   3.640   6.785   3.470
 6102SOL    HW219206   3.643   6.635   3.405
 6103SOL     OW19207   6.740   2.554   2.262
 6103SOL    HW119208   6.736   2.518   2.355
 6103SOL    HW219209   6.792   2.639   2.261
 6104SOL     OW19210   6.220   0.562   5.559
 6104SOL    HW119211   6.259   0.566   5.468
 6104SOL    HW219212   6.139   0.621   5.564
 6105SOL     OW19213   2.979   6.863   5.677
 6105SOL    HW119214   2.996   6.767   5.700
 6105SOL    HW219215   3.048   6.894   5.613
 6106SOL     OW19216   2.746   4.357   6.131
 6106SOL    HW119217   2.730   4.296   6.053
 6106SOL    HW219218   2.844   4.374   6.140
 6107SOL     OW19219   2.582   4.954   4.838
 6107SOL    HW119220   2.497   4.909   4.865
 6107SOL    HW219221   2.660   4.898   4.865
 6108SOL     OW19222   1.179   2.407   1.810
 6108SOL    HW119223   1.167   2.506   1.808
 6108SOL    HW219224   1.090   2.363   1.819
 6109SOL     OW19225   5.471   2.686   5.409
 6109SOL    HW119226   5.417   2.636   5.477
 6109SOL    HW219227   5.417   2.763   5.374
 6110SOL     OW19228   4.216   3.916   0.468
 6110SOL    HW119229   4.191   3.822   0.492
 6110SOL    HW219230   4.158   3.949   0.394
 6111SOL     OW19231   2.332   4.242   2.326
 6111SOL    HW119232   2.346   4.164   2.264
 6111SOL    HW219233   2.299   4.208   2.415
 6112SOL     OW19234   3.778   0.442   2.635
 6112SOL    HW119235   3.857   0.488   2.595
 6112SOL    HW219236   3.694   0.482   2.599
 6113SOL     OW19237   2.031   1.106   6.362
 6113SOL    HW119238   2.076   1.095   6.273
 6113SOL    HW219239   2.049   1.026   6.419
 6114SOL     OW19240   4.836   5.804   1.654
 6114SOL    HW119241   4.755   5.840   1.700
 6114SOL    HW219242   4.889   5.880   1.615
 6115SOL     OW19243   5.581   7.019   3.892
 6115SOL    HW119244   5.522   6.952   3.848
 6115SOL    HW219245   5.631   6.976   3.967
 6116SOL     OW19246   3.380   0.759   6.813
 6116SOL    HW119247   3.291   0.798   6.836
 6116SOL    HW219248   3.420   0.808   6.736
 6117SOL     OW19249   1.315   1.416   5.268
 6117SOL    HW119250   1.377   1.431   5.345
 6117SOL    HW219251   1.331   1.325   5.230
 6118SOL     OW19252   6.560   1.126   2.276
 6118SOL    HW119253   6.554   1.055   2.206
 6118SOL    HW219254   6.468   1.147   2.310
 6119SOL     OW19255   1.795   3.351   5.998
 6119SOL    HW119256   1.772   3.254   6.003
 6119SOL    HW219257   1.891   3.362   5.972
 6120SOL     OW19258   3.643   6.647   4.605
 6120SOL    HW119259   3.641   6.712   4.681
 6120SOL    HW219260   3.580   6.678   4.533
 6121SOL     OW19261   1.494   3.309   5.665
 6121SOL    HW119262   1.584   3.306   5.710
 6121SOL    HW219263   1.456   3.401   5.675
 6122SOL     OW19264   4.331   6.233   0.418
 6122SOL    HW119265   4.410   6.231   0.479
 6122SOL    HW219266   4.348   6.173   0.340
 6123SOL     OW19267   6.352   6.797   6.358
 6123SOL    HW119268   6.349   6.697   6.360
 6123SOL    HW219269   6.379   6.827   6.267
 6124SOL     OW19270   2.336   0.341   5.863
 6124SOL    HW119271   2.360   0.424   5.913
 6124SOL    HW219272   2.301   0.367   5.772
 6125SOL     OW19273   1.013   5.908   0.323
 6125SOL    HW119274   1.059   5.849   0.389
 6125SOL    HW219275   1.038   5.880   0.231
 6126SOL     OW19276   0.782   0.504   4.179
 6126SOL    HW119277   0.823   0.413   4.173
 6126SOL    HW219278   0.830   0.566   4.116
 6127SOL     OW19279   3.919   6.867   1.238
 6127SOL    HW119280   3.878   6.823   1.318
 6127SOL    HW219281   3.912   6.805   1.159
 6128SOL     OW19282   6.288   3.315   7.013
 6128SOL    HW119283   6.198   3.271   7.018
 6128SOL    HW219284   6.339   3.278   6.935
 6129SOL     OW19285   6.276   3.444   3.250
 6129SOL    HW119286   6.359   3.437   3.306
 6129SOL    HW219287   6.253   3.353   3.214
 6130SOL     OW19288   5.916   2.119   3.963
 6130SOL    HW119289   5.932   2.101   4.061
 6130SOL    HW219290   5.968   2.053   3.909
 6131SOL     OW19291   6.686   1.202   5.257
 6131SOL    HW119292   6.705   1.221   5.161
 6131SOL    HW219293   6.676   1.103   5.269
 6132SOL     OW19294   4.803   1.807   0.553
 6132SOL    HW119295   4.819   1.834   0.458
 6132SOL    HW219296   4.838   1.714   0.567
 6133SOL     OW19297   0.965   2.757   2.187
 6133SOL    HW119298   0.927   2.840   2.147
 6133SOL    HW219299   1.026   2.714   2.121
 6134SOL     OW19300   3.708   4.450   6.503
 6134SOL    HW119301   3.667   4.539   6.524
 6134SOL    HW219302   3.653   4.405   6.432
 6135SOL     OW19303   0.565   0.429   2.046
 6135SOL    HW119304   0.649   0.435   1.992
 6135SOL    HW219305   0.586   0.440   2.143
 6136SOL     OW19306   0.682   2.881   2.581
 6136SOL    HW119307   0.609   2.925   2.634
 6136SOL    HW219308   0.648   2.860   2.489
 6137SOL     OW19309   6.702   2.171   4.097
 6137SOL    HW119310   6.649   2.157   4.180
 6137SOL    HW219311   6.696   2.267   4.069
 6138SOL     OW19312   4.424   0.037   2.942
 6138SOL    HW119313   4.333   0.002   2.920
 6138SOL    HW219314   4.458   7.013   3.024
 6139SOL     OW19315   1.159   0.626   6.365
 6139SOL    HW119316   1.238   0.686   6.350
 6139SOL    HW219317   1.189   0.531   6.366
 6140SOL     OW19318   0.627   6.641   1.549
 6140SOL    HW119319   0.622   6.633   1.450
 6140SOL    HW219320   0.717   6.609   1.580
 6141SOL     OW19321   6.739   5.740   6.237
 6141SOL    HW119322   6.702   5.741   6.144
 6141SOL    HW219323   6.768   5.647   6.259
 6142SOL     OW19324   1.354   5.676   0.757
 6142SOL    HW119325   1.383   5.760   0.710
 6142SOL    HW219326   1.266   5.692   0.801
 6143SOL     OW19327   6.898   4.018   1.205
 6143SOL    HW119328   6.869   4.112   1.189
 6143SOL    HW219329   6.832   3.973   1.265
 6144SOL     OW19330   5.348   4.584   3.400
 6144SOL    HW119331   5.281   4.563   3.329
 6144SOL    HW219332   5.433   4.615   3.357
 6145SOL     OW19333   4.778   5.129   3.326
 6145SOL    HW119334   4.776   5.030   3.339
 6145SOL    HW219335   4.851   5.153   3.262
 6146SOL     OW19336   2.489   6.150   3.322
 6146SOL    HW119337   2.503   6.236   3.273
 6146SOL    HW219338   2.576   6.118   3.359
 6147SOL     OW19339   1.535   3.502   4.418
 6147SOL    HW119340   1.515   3.598   4.436
 6147SOL    HW219341   1.621   3.477   4.462
 6148SOL     OW19342   6.256   6.988   3.840
 6148SOL    HW119343   6.291   6.898   3.815
 6148SOL    HW219344   6.178   6.977   3.903
 6149SOL     OW19345   2.880   5.642   1.035
 6149SOL    HW119346   2.864   5.548   1.065
 6149SOL    HW219347   2.920   5.695   1.110
 6150SOL     OW19348   4.482   4.595   0.443
 6150SOL    HW119349   4.508   4.552   0.529
 6150SOL    HW219350   4.392   4.562   0.414
 6151SOL     OW19351   6.041   4.232   6.062
 6151SOL    HW119352   6.115   4.183   6.108
 6151SOL    HW219353   5.968   4.252   6.127
 6152SOL     OW19354   6.013   5.005   4.890
 6152SOL    HW119355   5.922   4.990   4.928
 6152SOL    HW219356   6.007   5.020   4.792
 6153SOL     OW19357   5.644   4.106   1.137
 6153SOL    HW119358   5.575   4.080   1.206
 6153SOL    HW219359   5.632   4.203   1.114
 6154SOL     OW19360   6.492   2.263   2.621
 6154SOL    HW119361   6.492   2.170   2.660
 6154SOL    HW219362   6.459   2.328   2.689
 6155SOL     OW19363   1.846   2.045   4.662
 6155SOL    HW119364   1.766   1.996   4.627
 6155SOL    HW219365   1.880   2.108   4.593
 6156SOL     OW19366   3.982   4.669   1.594
 6156SOL    HW119367   3.988   4.580   1.548
 6156SOL    HW219368   3.894   4.676   1.642
 6157SOL     OW19369   1.312   0.693   4.362
 6157SOL    HW119370   1.292   0.680   4.265
 6157SOL    HW219371   1.324   0.790   4.381
 6158SOL     OW19372   4.052   1.547   6.251
 6158SOL    HW119373   4.029   1.483   6.178
 6158SOL    HW219374   4.088   1.631   6.211
 6159SOL     OW19375   4.861   2.379   1.951
 6159SOL    HW119376   4.896   2.304   2.008
 6159SOL    HW219377   4.904   2.465   1.979
 6160SOL     OW19378   4.578   1.054   6.355
 6160SOL    HW119379   4.615   1.144   6.377
 6160SOL    HW219380   4.486   1.065   6.317
 6161SOL     OW19381   4.760   1.335   5.091
 6161SOL    HW119382   4.790   1.337   4.995
 6161SOL    HW219383   4.776   1.244   5.129
 6162SOL     OW19384   1.070   6.604   3.735
 6162SOL    HW119385   0.982   6.567   3.763
 6162SOL    HW219386   1.140   6.532   3.740
 6163SOL     OW19387   6.368   6.313   0.911
 6163SOL    HW119388   6.367   6.411   0.930
 6163SOL    HW219389   6.327   6.296   0.822
 6164SOL     OW19390   3.348   2.817   2.040
 6164SOL    HW119391   3.311   2.736   2.084
 6164SOL    HW219392   3.324   2.818   1.943
 6165SOL     OW19393   4.840   1.120   6.687
 6165SOL    HW119394   4.862   1.210   6.722
 6165SOL    HW219395   4.827   1.125   6.588
 6166SOL     OW19396   4.913   1.068   5.871
 6166SOL    HW119397   4.907   1.010   5.789
 6166SOL    HW219398   4.980   1.141   5.855
 6167SOL     OW19399   1.013   5.496   3.383
 6167SOL    HW119400   0.921   5.534   3.389
 6167SOL    HW219401   1.058   5.528   3.300
 6168SOL     OW19402   0.863   3.845   1.463
 6168SOL    HW119403   0.782   3.902   1.475
 6168SOL    HW219404   0.937   3.899   1.421
 6169SOL     OW19405   1.670   2.452   0.742
 6169SOL    HW119406   1.595   2.481   0.683
 6169SOL    HW219407   1.725   2.384   0.695
 6170SOL     OW19408   0.980   4.348   5.478
 6170SOL    HW119409   0.997   4.286   5.402
 6170SOL    HW219410   1.012   4.440   5.454
 6171SOL     OW19411   0.547   3.075   0.946
 6171SOL    HW119412   0.608   3.075   0.866
 6171SOL    HW219413   0.464   3.024   0.924
 6172SOL     OW19414   2.174   2.996   2.435
 6172SOL    HW119415   2.205   2.910   2.476
 6172SOL    HW219416   2.216   3.007   2.345
 6173SOL     OW19417   0.179   5.855   1.838
 6173SOL    HW119418   0.109   5.925   1.850
 6173SOL    HW219419   0.170   5.815   1.746
 6174SOL     OW19420   4.968   5.910   3.701
 6174SOL    HW119421   4.942   5.907   3.604
 6174SOL    HW219422   4.888   5.891   3.757
 6175SOL     OW19423   4.764   0.323   3.770
 6175SOL    HW119424   4.861   0.342   3.758
 6175SOL    HW219425   4.713   0.409   3.771
 6176SOL     OW19426   5.075   4.261   5.288
 6176SOL    HW119427   5.061   4.289   5.193
 6176SOL    HW219428   5.167   4.222   5.298
 6177SOL     OW19429   5.905   0.941   1.124
 6177SOL    HW119430   6.005   0.940   1.126
 6177SOL    HW219431   5.874   1.031   1.091
 6178SOL     OW19432   4.568   4.664   2.500
 6178SOL    HW119433   4.492   4.646   2.438
 6178SOL    HW219434   4.634   4.589   2.493
 6179SOL     OW19435   6.063   4.999   4.043
 6179SOL    HW119436   6.084   4.925   3.980
 6179SOL    HW219437   5.978   4.979   4.091
 6180SOL     OW19438   2.817   4.374   1.197
 6180SOL    HW119439   2.791   4.362   1.101
 6180SOL    HW219440   2.744   4.338   1.255
 6181SOL     OW19441   4.849   6.417   6.900
 6181SOL    HW119442   4.934   6.459   6.933
 6181SOL    HW219443   4.871   6.333   6.850
 6182SOL     OW19444   5.283   3.218   5.478
 6182SOL    HW119445   5.300   3.258   5.568
 6182SOL    HW219446   5.184   3.217   5.461
 6183SOL     OW19447   1.182   2.644   3.704
 6183SOL    HW119448   1.085   2.668   3.703
 6183SOL    HW219449   1.217   2.649   3.798
 6184SOL     OW19450   2.325   6.567   6.573
 6184SOL    HW119451   2.322   6.645   6.510
 6184SOL    HW219452   2.411   6.519   6.562
 6185SOL     OW19453   0.388   3.452   6.094
 6185SOL    HW119454   0.297   3.468   6.132
 6185SOL    HW219455   0.400   3.506   6.011
 6186SOL     OW19456   0.294   0.621   0.149
 6186SOL    HW119457   0.381   0.591   0.187
 6186SOL    HW219458   0.254   0.692   0.208
 6187SOL     OW19459   5.343   4.280   4.199
 6187SOL    HW119460   5.390   4.192   4.195
 6187SOL    HW219461   5.246   4.266   4.181
 6188SOL     OW19462   2.488   1.749   6.490
 6188SOL    HW119463   2.577   1.708   6.471
 6188SOL    HW219464   2.416   1.681   6.477
 6189SOL     OW19465   4.513   4.589   2.768
 6189SOL    HW119466   4.424   4.633   2.758
 6189SOL    HW219467   4.557   4.584   2.678
 6190SOL     OW19468   0.862   3.895   5.855
 6190SOL    HW119469   0.785   3.920   5.796
 6190SOL    HW219470   0.948   3.913   5.807
 6191SOL     OW19471   2.876   2.519   6.937
 6191SOL    HW119472   2.972   2.502   6.957
 6191SOL    HW219473   2.835   2.439   6.895
 6192SOL     OW19474   2.896   2.238   5.721
 6192SOL    HW119475   2.837   2.188   5.784
 6192SOL    HW219476   2.847   2.254   5.636
 6193SOL     OW19477   4.454   6.791   1.819
 6193SOL    HW119478   4.507   6.745   1.890
 6193SOL    HW219479   4.361   6.753   1.816
 6194SOL     OW19480   1.032   0.097   0.767
 6194SOL    HW119481   1.111   0.130   0.818
 6194SOL    HW219482   0.981   0.174   0.730
 6195SOL     OW19483   4.428   5.810   4.704
 6195SOL    HW119484   4.403   5.743   4.634
 6195SOL    HW219485   4.415   5.902   4.668
 6196SOL     OW19486   5.700   3.601   1.962
 6196SOL    HW119487   5.685   3.504   1.943
 6196SOL    HW219488   5.794   3.615   1.991
 6197SOL     OW19489   3.791   4.973   1.077
 6197SOL    HW119490   3.826   5.067   1.070
 6197SOL    HW219491   3.704   4.966   1.028
 6198SOL     OW19492   4.119   6.653   1.531
 6198SOL    HW119493   4.031   6.606   1.523
 6198SOL    HW219494   4.166   6.652   1.443
 6199SOL     OW19495   1.240   1.505   0.331
 6199SOL    HW119496   1.275   1.593   0.360
 6199SOL    HW219497   1.313   1.436   0.336
 6200SOL     OW19498   1.295   1.347   5.937
 6200SOL    HW119499   1.220   1.336   6.002
 6200SOL    HW219500   1.259   1.345   5.844
 6201SOL     OW19501   0.785   4.299   6.065
 6201SOL    HW119502   0.842   4.366   6.114
 6201SOL    HW219503   0.765   4.334   5.973
 6202SOL     OW19504   4.465   1.326   1.439
 6202SOL    HW119505   4.522   1.352   1.361
 6202SOL    HW219506   4.438   1.231   1.431
 6203SOL     OW19507   6.457   5.764   1.907
 6203SOL    HW119508   6.460   5.850   1.957
 6203SOL    HW219509   6.368   5.720   1.923
 6204SOL     OW19510   0.100   5.380   4.115
 6204SOL    HW119511   0.101   5.477   4.088
 6204SOL    HW219512   0.115   5.373   4.214
 6205SOL     OW19513   6.616   5.693   1.454
 6205SOL    HW119514   6.711   5.667   1.470
 6205SOL    HW219515   6.590   5.764   1.519
 6206SOL     OW19516   5.702   2.010   3.372
 6206SOL    HW119517   5.675   2.063   3.452
 6206SOL    HW219518   5.749   2.070   3.307
 6207SOL     OW19519   1.639   4.985   5.626
 6207SOL    HW119520   1.635   5.071   5.677
 6207SOL    HW219521   1.734   4.965   5.602
 6208SOL     OW19522   4.864   2.866   5.563
 6208SOL    HW119523   4.765   2.876   5.556
 6208SOL    HW219524   4.897   2.919   5.641
 6209SOL     OW19525   3.434   6.031   6.824
 6209SOL    HW119526   3.423   6.076   6.913
 6209SOL    HW219527   3.375   6.076   6.757
 6210SOL     OW19528   4.973   3.301   4.177
 6210SOL    HW119529   4.912   3.231   4.215
 6210SOL    HW219530   5.067   3.269   4.181
 6211SOL     OW19531   3.115   6.100   5.906
 6211SOL    HW119532   3.215   6.106   5.899
 6211SOL    HW219533   3.081   6.181   5.954
 6212SOL     OW19534   2.555   4.572   4.910
 6212SOL    HW119535   2.654   4.565   4.924
 6212SOL    HW219536   2.508   4.512   4.974
 6213SOL     OW19537   6.024   0.073   6.797
 6213SOL    HW119538   6.050   0.169   6.808
 6213SOL    HW219539   6.063   0.019   6.871
 6214SOL     OW19540   5.179   5.406   4.500
 6214SOL    HW119541   5.177   5.356   4.586
 6214SOL    HW219542   5.128   5.492   4.510
 6215SOL     OW19543   4.258   2.532   6.217
 6215SOL    HW119544   4.326   2.590   6.172
 6215SOL    HW219545   4.175   2.530   6.163
 6216SOL     OW19546   6.539   2.134   2.940
 6216SOL    HW119547   6.468   2.183   2.991
 6216SOL    HW219548   6.621   2.191   2.932
 6217SOL     OW19549   0.584   3.720   2.459
 6217SOL    HW119550   0.639   3.666   2.395
 6217SOL    HW219551   0.600   3.817   2.443
 6218SOL     OW19552   3.837   6.770   6.250
 6218SOL    HW119553   3.744   6.806   6.242
 6218SOL    HW219554   3.850   6.733   6.342
 6219SOL     OW19555   1.206   2.135   4.750
 6219SOL    HW119556   1.202   2.071   4.827
 6219SOL    HW219557   1.241   2.223   4.782
 6220SOL     OW19558   2.755   1.101   4.871
 6220SOL    HW119559   2.701   1.178   4.904
 6220SOL    HW219560   2.848   1.133   4.851
 6221SOL     OW19561   5.714   6.644   7.002
 6221SOL    HW119562   5.686   6.639   0.076
 6221SOL    HW219563   5.632   6.637   6.944
 6222SOL     OW19564   1.915   0.042   1.659
 6222SOL    HW119565   1.816   0.044   1.647
 6222SOL    HW219566   1.959   0.090   1.583
 6223SOL     OW19567   1.265   5.240   3.373
 6223SOL    HW119568   1.235   5.237   3.468
 6223SOL    HW219569   1.193   5.202   3.314
 6224SOL     OW19570   3.664   0.908   6.012
 6224SOL    HW119571   3.701   0.973   6.078
 6224SOL    HW219572   3.576   0.941   5.977
 6225SOL     OW19573   3.844   3.270   6.732
 6225SOL    HW119574   3.782   3.340   6.696
 6225SOL    HW219575   3.925   3.266   6.673
 6226SOL     OW19576   0.855   1.749   4.861
 6226SOL    HW119577   0.783   1.788   4.918
 6226SOL    HW219578   0.942   1.753   4.910
 6227SOL     OW19579   2.965   4.834   5.072
 6227SOL    HW119580   2.955   4.741   5.108
 6227SOL    HW219581   2.882   4.859   5.021
 6228SOL     OW19582   0.468   3.337   2.321
 6228SOL    HW119583   0.482   3.260   2.259
 6228SOL    HW219584   0.552   3.391   2.327
 6229SOL     OW19585   0.881   2.064   4.806
 6229SOL    HW119586   0.826   2.095   4.883
 6229SOL    HW219587   0.928   1.980   4.830
 6230SOL     OW19588   0.779   2.331   4.429
 6230SOL    HW119589   0.838   2.264   4.383
 6230SOL    HW219590   0.723   2.377   4.361
 6231SOL     OW19591   6.409   5.593   0.412
 6231SOL    HW119592   6.417   5.507   0.362
 6231SOL    HW219593   6.500   5.628   0.433
 6232SOL     OW19594   6.676   1.113   0.876
 6232SOL    HW119595   6.664   1.159   0.964
 6232SOL    HW219596   6.625   1.027   0.875
 6233SOL     OW19597   6.771   2.361   1.585
 6233SOL    HW119598   6.767   2.278   1.641
 6233SOL    HW219599   6.849   2.356   1.523
 6234SOL     OW19600   6.883   0.096   5.357
 6234SOL    HW119601   6.952   0.149   5.307
 6234SOL    HW219602   6.792   0.123   5.325
 6235SOL     OW19603   6.867   0.157   1.310
 6235SOL    HW119604   6.805   0.083   1.337
 6235SOL    HW219605   6.823   0.245   1.329
 6236SOL     OW19606   0.153   4.827   1.230
 6236SOL    HW119607   0.212   4.908   1.238
 6236SOL    HW219608   0.155   4.795   1.135
 6237SOL     OW19609   3.533   0.003   6.781
 6237SOL    HW119610   3.587   0.087   6.780
 6237SOL    HW219611   3.446   0.019   6.829
 6238SOL     OW19612   4.988   5.375   2.587
 6238SOL    HW119613   5.054   5.302   2.607
 6238SOL    HW219614   5.030   5.464   2.604
 6239SOL     OW19615   4.039   1.582   1.470
 6239SOL    HW119616   4.123   1.585   1.526
 6239SOL    HW219617   3.965   1.625   1.521
 6240SOL     OW19618   2.265   3.707   5.578
 6240SOL    HW119619   2.236   3.769   5.505
 6240SOL    HW219620   2.362   3.687   5.569
 6241SOL     OW19621   3.208   0.837   2.198
 6241SOL    HW119622   3.165   0.882   2.120
 6241SOL    HW219623   3.142   0.778   2.244
 6242SOL     OW19624   3.885   0.034   3.568
 6242SOL    HW119625   3.907   6.971   3.616
 6242SOL    HW219626   3.804   0.019   3.510
 6243SOL     OW19627   0.125   6.471   5.167
 6243SOL    HW119628   0.036   6.487   5.209
 6243SOL    HW219629   0.196   6.521   5.217
 6244SOL     OW19630   5.647   3.361   3.247
 6244SOL    HW119631   5.694   3.435   3.199
 6244SOL    HW219632   5.558   3.345   3.204
 6245SOL     OW19633   1.418   3.470   0.970
 6245SOL    HW119634   1.407   3.469   0.870
 6245SOL    HW219635   1.403   3.379   1.007
 6246SOL     OW19636   0.999   2.071   5.494
 6246SOL    HW119637   1.006   2.114   5.584
 6246SOL    HW219638   1.086   2.028   5.471
 6247SOL     OW19639   0.132   6.089   3.806
 6247SOL    HW119640   0.163   6.130   3.891
 6247SOL    HW219641   0.211   6.071   3.747
 6248SOL     OW19642   3.855   3.936   6.949
 6248SOL    HW119643   3.847   3.971   6.855
 6248SOL    HW219644   3.951   3.914   6.968
 6249SOL     OW19645   6.868   3.281   0.940
 6249SOL    HW119646   6.822   3.199   0.975
 6249SOL    HW219647   6.914   3.328   1.015
 6250SOL     OW19648   6.558   0.067   1.057
 6250SOL    HW119649   6.603   0.155   1.045
 6250SOL    HW219650   6.467   0.081   1.096
 6251SOL     OW19651   4.403   5.913   4.969
 6251SOL    HW119652   4.476   5.982   4.965
 6251SOL    HW219653   4.388   5.875   4.877
 6252SOL     OW19654   2.735   6.158   6.499
 6252SOL    HW119655   2.673   6.090   6.537
 6252SOL    HW219656   2.829   6.137   6.528
 6253SOL     OW19657   2.783   5.071   4.307
 6253SOL    HW119658   2.727   5.033   4.233
 6253SOL    HW219659   2.757   5.027   4.394
 6254SOL     OW19660   6.091   1.550   1.161
 6254SOL    HW119661   6.016   1.616   1.162
 6254SOL    HW219662   6.070   1.473   1.221
 6255SOL     OW19663   2.903   0.560   0.559
 6255SOL    HW119664   2.924   0.530   0.652
 6255SOL    HW219665   2.905   0.660   0.555
 6256SOL     OW19666   3.445   5.171   2.692
 6256SOL    HW119667   3.502   5.222   2.628
 6256SOL    HW219668   3.364   5.225   2.716
 6257SOL     OW19669   4.556   2.997   0.314
 6257SOL    HW119670   4.648   2.978   0.277
 6257SOL    HW219671   4.563   3.017   0.412
 6258SOL     OW19672   2.843   0.231   3.362
 6258SOL    HW119673   2.792   0.248   3.447
 6258SOL    HW219674   2.799   0.279   3.286
 6259SOL     OW19675   1.288   1.487   6.963
 6259SOL    HW119676   1.331   1.497   6.874
 6259SOL    HW219677   1.188   1.480   6.951
 6260SOL     OW19678   3.195   6.140   0.005
 6260SOL    HW119679   3.160   6.126   0.098
 6260SOL    HW219680   3.278   6.195   0.008
 6261SOL     OW19681   4.793   0.590   6.594
 6261SOL    HW119682   4.756   0.498   6.588
 6261SOL    HW219683   4.828   0.607   6.686
 6262SOL     OW19684   1.935   6.564   1.489
 6262SOL    HW119685   1.961   6.640   1.549
 6262SOL    HW219686   1.913   6.600   1.398
 6263SOL     OW19687   0.771   0.027   4.426
 6263SOL    HW119688   0.815   6.969   4.468
 6263SOL    HW219689   0.703   0.065   4.489
 6264SOL     OW19690   1.772   0.703   1.799
 6264SOL    HW119691   1.716   0.623   1.778
 6264SOL    HW219692   1.867   0.685   1.773
 6265SOL     OW19693   3.897   3.678   0.176
 6265SOL    HW119694   3.839   3.703   0.098
 6265SOL    HW219695   3.904   3.756   0.238
 6266SOL     OW19696   5.183   0.167   3.344
 6266SOL    HW119697   5.139   0.245   3.389
 6266SOL    HW219698   5.166   0.084   3.398
 6267SOL     OW19699   2.445   0.034   4.927
 6267SOL    HW119700   2.397   6.972   4.954
 6267SOL    HW219701   2.387   0.113   4.949
 6268SOL     OW19702   3.096   1.043   2.417
 6268SOL    HW119703   3.123   1.119   2.357
 6268SOL    HW219704   3.144   0.960   2.389
 6269SOL     OW19705   6.627   6.784   2.189
 6269SOL    HW119706   6.613   6.731   2.272
 6269SOL    HW219707   6.722   6.816   2.185
 6270SOL     OW19708   0.279   0.477   5.924
 6270SOL    HW119709   0.288   0.448   5.829
 6270SOL    HW219710   0.182   0.481   5.949
 6271SOL     OW19711   5.804   2.445   5.685
 6271SOL    HW119712   5.767   2.367   5.736
 6271SOL    HW219713   5.798   2.527   5.741
 6272SOL     OW19714   0.761   2.089   0.263
 6272SOL    HW119715   0.787   2.165   0.204
 6272SOL    HW219716   0.662   2.079   0.264
 6273SOL     OW19717   0.547   6.487   2.786
 6273SOL    HW119718   0.563   6.416   2.718
 6273SOL    HW219719   0.610   6.475   2.863
 6274SOL     OW19720   3.122   6.711   5.382
 6274SOL    HW119721   3.036   6.694   5.429
 6274SOL    HW219722   3.133   6.646   5.307
 6275SOL     OW19723   1.936   6.333   0.115
 6275SOL    HW119724   1.963   6.373   0.027
 6275SOL    HW219725   1.950   6.401   0.187
 6276SOL     OW19726   2.372   5.416   3.788
 6276SOL    HW119727   2.467   5.441   3.807
 6276SOL    HW219728   2.312   5.486   3.825
 6277SOL     OW19729   4.693   2.805   0.947
 6277SOL    HW119730   4.650   2.847   1.027
 6277SOL    HW219731   4.742   2.874   0.895
 6278SOL     OW19732   4.664   0.280   4.490
 6278SOL    HW119733   4.750   0.294   4.538
 6278SOL    HW219734   4.589   0.315   4.545
 6279SOL     OW19735   3.093   6.311   0.305
 6279SOL    HW119736   3.159   6.329   0.378
 6279SOL    HW219737   3.113   6.222   0.263
 6280SOL     OW19738   0.135   1.235   6.206
 6280SOL    HW119739   0.040   1.249   6.236
 6280SOL    HW219740   0.174   1.158   6.256
 6281SOL     OW19741   6.969   4.999   4.201
 6281SOL    HW119742   6.870   5.008   4.196
 6281SOL    HW219743   7.011   5.059   4.132
 6282SOL     OW19744   6.264   5.023   5.845
 6282SOL    HW119745   6.218   4.940   5.876
 6282SOL    HW219746   6.265   5.024   5.745
 6283SOL     OW19747   0.062   4.158   4.272
 6283SOL    HW119748   0.093   4.064   4.287
 6283SOL    HW219749   0.129   4.222   4.311
 6284SOL     OW19750   1.949   4.789   5.124
 6284SOL    HW119751   1.986   4.780   5.217
 6284SOL    HW219752   1.885   4.714   5.107
 6285SOL     OW19753   0.346   3.254   3.866
 6285SOL    HW119754   0.274   3.278   3.801
 6285SOL    HW219755   0.416   3.326   3.866
 6286SOL     OW19756   6.790   2.353   4.518
 6286SOL    HW119757   6.878   2.389   4.547
 6286SOL    HW219758   6.720   2.424   4.526
 6287SOL     OW19759   3.353   4.908   5.086
 6287SOL    HW119760   3.254   4.899   5.089
 6287SOL    HW219761   3.379   4.972   5.013
 6288SOL     OW19762   4.794   4.600   2.240
 6288SOL    HW119763   4.704   4.558   2.245
 6288SOL    HW219764   4.810   4.635   2.148
 6289SOL     OW19765   1.621   5.138   7.015
 6289SOL    HW119766   1.666   5.055   6.980
 6289SOL    HW219767   1.671   5.172   0.073
 6290SOL     OW19768   6.004   4.548   6.147
 6290SOL    HW119769   6.029   4.574   6.240
 6290SOL    HW219770   6.081   4.500   6.104
 6291SOL     OW19771   3.964   3.766   3.698
 6291SOL    HW119772   3.960   3.852   3.748
 6291SOL    HW219773   3.989   3.692   3.761
 6292SOL     OW19774   2.040   2.437   5.220
 6292SOL    HW119775   2.013   2.527   5.255
 6292SOL    HW219776   1.988   2.417   5.137
 6293SOL     OW19777   4.398   1.894   1.325
 6293SOL    HW119778   4.362   1.933   1.410
 6293SOL    HW219779   4.358   1.804   1.309
 6294SOL     OW19780   3.885   0.341   3.529
 6294SOL    HW119781   3.839   0.252   3.526
 6294SOL    HW219782   3.858   0.389   3.613
 6295SOL     OW19783   4.625   4.736   4.481
 6295SOL    HW119784   4.715   4.758   4.518
 6295SOL    HW219785   4.555   4.792   4.526
 6296SOL     OW19786   6.874   5.093   6.133
 6296SOL    HW119787   6.912   5.141   6.054
 6296SOL    HW219788   6.900   4.997   6.128
 6297SOL     OW19789   5.387   0.290   5.166
 6297SOL    HW119790   5.440   0.350   5.106
 6297SOL    HW219791   5.381   0.199   5.125
 6298SOL     OW19792   1.423   3.406   6.369
 6298SOL    HW119793   1.476   3.322   6.362
 6298SOL    HW219794   1.475   3.475   6.419
 6299SOL     OW19795   6.004   2.366   2.007
 6299SOL    HW119796   6.096   2.384   2.041
 6299SOL    HW219797   6.008   2.347   1.909
 6300SOL     OW19798   6.314   1.021   6.457
 6300SOL    HW119799   6.240   1.057   6.514
 6300SOL    HW219800   6.402   1.050   6.493
 6301SOL     OW19801   3.073   7.018   6.982
 6301SOL    HW119802   2.999   6.951   6.974
 6301SOL    HW219803   3.079   0.028   0.054
 6302SOL     OW19804   1.748   2.205   5.314
 6302SOL    HW119805   1.751   2.166   5.222
 6302SOL    HW219806   1.826   2.266   5.327
 6303SOL     OW19807   1.143   0.631   5.187
 6303SOL    HW119808   1.111   0.660   5.278
 6303SOL    HW219809   1.234   0.668   5.171
 6304SOL     OW19810   3.447   1.127   1.597
 6304SOL    HW119811   3.369   1.180   1.629
 6304SOL    HW219812   3.508   1.109   1.674
 6305SOL     OW19813   5.534   6.248   0.419
 6305SOL    HW119814   5.517   6.293   0.331
 6305SOL    HW219815   5.613   6.290   0.463
 6306SOL     OW19816   6.850   4.342   4.232
 6306SOL    HW119817   6.879   4.402   4.157
 6306SOL    HW219818   6.928   4.288   4.263
 6307SOL     OW19819   3.400   3.881   3.759
 6307SOL    HW119820   3.384   3.783   3.769
 6307SOL    HW219821   3.397   3.925   3.848
 6308SOL     OW19822   1.564   3.085   4.510
 6308SOL    HW119823   1.567   2.985   4.503
 6308SOL    HW219824   1.657   3.121   4.504
 6309SOL     OW19825   6.952   5.991   4.417
 6309SOL    HW119826   6.865   6.005   4.369
 6309SOL    HW219827   0.000   6.050   4.376
 6310SOL     OW19828   1.768   6.421   2.542
 6310SOL    HW119829   1.787   6.512   2.578
 6310SOL    HW219830   1.813   6.352   2.599
 6311SOL     OW19831   4.768   1.518   6.091
 6311SOL    HW119832   4.851   1.541   6.142
 6311SOL    HW219833   4.714   1.601   6.078
 6312SOL     OW19834   0.146   6.579   4.927
 6312SOL    HW119835   0.086   6.649   4.888
 6312SOL    HW219836   0.108   6.548   5.014
 6313SOL     OW19837   6.434   5.968   3.669
 6313SOL    HW119838   6.517   6.017   3.641
 6313SOL    HW219839   6.454   5.870   3.675
 6314SOL     OW19840   3.664   6.610   1.705
 6314SOL    HW119841   3.622   6.533   1.657
 6314SOL    HW219842   3.742   6.578   1.758
 6315SOL     OW19843   3.187   2.160   5.876
 6315SOL    HW119844   3.107   2.208   5.911
 6315SOL    HW219845   3.261   2.226   5.860
 6316SOL     OW19846   4.633   2.136   6.223
 6316SOL    HW119847   4.651   2.115   6.320
 6316SOL    HW219848   4.590   2.057   6.180
 6317SOL     OW19849   5.272   4.831   1.892
 6317SOL    HW119850   5.227   4.865   1.810
 6317SOL    HW219851   5.317   4.906   1.939
 6318SOL     OW19852   4.415   0.030   5.780
 6318SOL    HW119853   4.359   0.107   5.750
 6318SOL    HW219854   4.412   0.024   5.879
 6319SOL     OW19855   6.605   2.157   5.613
 6319SOL    HW119856   6.630   2.196   5.524
 6319SOL    HW219857   6.661   2.198   5.685
 6320SOL     OW19858   6.911   6.242   4.986
 6320SOL    HW119859   6.886   6.328   4.943
 6320SOL    HW219860   7.005   6.248   5.022
 6321SOL     OW19861   4.583   3.160   0.930
 6321SOL    HW119862   4.536   3.236   0.885
 6321SOL    HW219863   4.664   3.134   0.877
 6322SOL     OW19864   2.192   2.512   1.137
 6322SOL    HW119865   2.137   2.510   1.220
 6322SOL    HW219866   2.286   2.488   1.159
 6323SOL     OW19867   1.722   2.810   1.851
 6323SOL    HW119868   1.731   2.725   1.902
 6323SOL    HW219869   1.625   2.835   1.845
 6324SOL     OW19870   4.773   1.259   0.592
 6324SOL    HW119871   4.765   1.166   0.557
 6324SOL    HW219872   4.775   1.257   0.692
 6325SOL     OW19873   1.861   3.448   2.683
 6325SOL    HW119874   1.831   3.530   2.633
 6325SOL    HW219875   1.814   3.368   2.646
 6326SOL     OW19876   5.370   5.116   0.697
 6326SOL    HW119877   5.441   5.093   0.631
 6326SOL    HW219878   5.408   5.114   0.789
 6327SOL     OW19879   0.052   1.918   5.056
 6327SOL    HW119880   7.020   1.835   5.042
 6327SOL    HW219881   0.077   1.957   4.967
 6328SOL     OW19882   4.297   3.656   0.279
 6328SOL    HW119883   4.232   3.625   0.349
 6328SOL    HW219884   4.358   3.724   0.320
 6329SOL     OW19885   1.412   3.246   3.807
 6329SOL    HW119886   1.473   3.240   3.886
 6329SOL    HW219887   1.318   3.226   3.835
 6330SOL     OW19888   5.796   0.142   1.654
 6330SOL    HW119889   5.745   0.191   1.725
 6330SOL    HW219890   5.752   0.157   1.565
 6331SOL     OW19891   6.856   3.555   5.159
 6331SOL    HW119892   6.772   3.573   5.108
 6331SOL    HW219893   6.884   3.460   5.143
 6332SOL     OW19894   0.718   2.671   1.240
 6332SOL    HW119895   0.751   2.583   1.273
 6332SOL    HW219896   0.711   2.735   1.317
 6333SOL     OW19897   4.225   6.856   5.276
 6333SOL    HW119898   4.181   6.854   5.187
 6333SOL    HW219899   4.291   6.781   5.282
 6334SOL     OW19900   3.438   1.389   2.525
 6334SOL    HW119901   3.487   1.476   2.530
 6334SOL    HW219902   3.443   1.343   2.614
 6335SOL     OW19903   4.176   0.463   0.625
 6335SOL    HW119904   4.184   0.560   0.648
 6335SOL    HW219905   4.082   0.433   0.636
 6336SOL     OW19906   1.255   2.197   6.682
 6336SOL    HW119907   1.202   2.127   6.633
 6336SOL    HW219908   1.268   2.276   6.623
 6337SOL     OW19909   4.536   5.202   5.509
 6337SOL    HW119910   4.565   5.284   5.558
 6337SOL    HW219911   4.472   5.150   5.566
 6338SOL     OW19912   3.035   2.109   4.055
 6338SOL    HW119913   3.020   2.167   3.976
 6338SOL    HW219914   3.012   2.159   4.139
 6339SOL     OW19915   0.854   3.707   3.670
 6339SOL    HW119916   0.872   3.613   3.641
 6339SOL    HW219917   0.934   3.742   3.719
 6340SOL     OW19918   1.680   4.976   1.454
 6340SOL    HW119919   1.687   5.049   1.523
 6340SOL    HW219920   1.585   4.948   1.446
 6341SOL     OW19921   6.424   4.060   4.448
 6341SOL    HW119922   6.429   4.002   4.367
 6341SOL    HW219923   6.507   4.049   4.502
 6342SOL     OW19924   2.679   1.628   1.211
 6342SOL    HW119925   2.770   1.663   1.188
 6342SOL    HW219926   2.689   1.537   1.251
 6343SOL     OW19927   4.529   0.819   6.067
 6343SOL    HW119928   4.620   0.846   6.096
 6343SOL    HW219929   4.501   0.737   6.118
 6344SOL     OW19930   5.320   2.344   4.680
 6344SOL    HW119931   5.299   2.327   4.583
 6344SOL    HW219932   5.243   2.312   4.736
 6345SOL     OW19933   5.447   2.409   2.215
 6345SOL    HW119934   5.381   2.377   2.284
 6345SOL    HW219935   5.520   2.341   2.205
 6346SOL     OW19936   6.344   5.624   4.237
 6346SOL    HW119937   6.389   5.621   4.327
 6346SOL    HW219938   6.379   5.550   4.181
 6347SOL     OW19939   2.424   1.423   0.075
 6347SOL    HW119940   2.475   1.353   0.125
 6347SOL    HW219941   2.339   1.444   0.123
 6348SOL     OW19942   1.982   2.734   6.111
 6348SOL    HW119943   1.947   2.807   6.052
 6348SOL    HW219944   1.990   2.650   6.058
 6349SOL     OW19945   1.824   0.951   0.730
 6349SOL    HW119946   1.780   0.907   0.651
 6349SOL    HW219947   1.793   0.906   0.814
 6350SOL     OW19948   0.300   5.082   4.143
 6350SOL    HW119949   0.373   5.050   4.082
 6350SOL    HW219950   0.338   5.098   4.234
 6351SOL     OW19951   6.118   3.525   3.674
 6351SOL    HW119952   6.056   3.596   3.706
 6351SOL    HW219953   6.126   3.530   3.574
 6352SOL     OW19954   2.757   6.835   5.030
 6352SOL    HW119955   2.783   6.906   4.965
 6352SOL    HW219956   2.831   6.768   5.037
 6353SOL     OW19957   0.820   6.052   5.808
 6353SOL    HW119958   0.867   6.027   5.892
 6353SOL    HW219959   0.848   5.989   5.735
 6354SOL     OW19960   3.723   5.492   3.128
 6354SOL    HW119961   3.757   5.511   3.036
 6354SOL    HW219962   3.753   5.400   3.155
 6355SOL     OW19963   1.929   5.598   0.053
 6355SOL    HW119964   1.904   5.560   6.986
 6355SOL    HW219965   1.878   5.682   0.070
 6356SOL     OW19966   4.629   5.495   1.097
 6356SOL    HW119967   4.602   5.472   1.190
 6356SOL    HW219968   4.554   5.475   1.034
 6357SOL     OW19969   5.950   3.304   2.727
 6357SOL    HW119970   5.968   3.392   2.685
 6357SOL    HW219971   5.985   3.304   2.821
 6358SOL     OW19972   0.431   1.632   6.336
 6358SOL    HW119973   0.401   1.564   6.269
 6358SOL    HW219974   0.388   1.612   6.424
 6359SOL     OW19975   6.242   6.952   0.259
 6359SOL    HW119976   6.192   7.020   0.312
 6359SOL    HW219977   6.191   6.866   0.258
 6360SOL     OW19978   1.109   3.880   5.645
 6360SOL    HW119979   1.122   3.979   5.636
 6360SOL    HW219980   1.081   3.842   5.557
 6361SOL     OW19981   1.059   0.533   0.769
 6361SOL    HW119982   0.986   0.524   0.836
 6361SOL    HW219983   1.024   0.581   0.688
 6362SOL     OW19984   0.641   5.452   6.627
 6362SOL    HW119985   0.550   5.489   6.614
 6362SOL    HW219986   0.652   5.370   6.570
 6363SOL     OW19987   2.381   5.825   3.628
 6363SOL    HW119988   2.448   5.876   3.682
 6363SOL    HW219989   2.425   5.743   3.590
 6364SOL     OW19990   2.748   1.859   5.861
 6364SOL    HW119991   2.753   1.946   5.911
 6364SOL    HW219992   2.821   1.856   5.794
 6365SOL     OW19993   4.951   6.733   3.725
 6365SOL    HW119994   4.894   6.814   3.736
 6365SOL    HW219995   4.926   6.665   3.795
 6366SOL     OW19996   0.955   5.269   5.207
 6366SOL    HW119997   0.927   5.237   5.116
 6366SOL    HW219998   0.999   5.359   5.199
 6367SOL     OW19999   4.270   1.310   3.846
 6367SOL    HW120000   4.302   1.287   3.755
 6367SOL    HW220001   4.240   1.406   3.848
 6368SOL     OW20002   3.634   4.972   3.818
 6368SOL    HW120003   3.679   4.991   3.731
 6368SOL    HW220004   3.535   4.974   3.805
 6369SOL     OW20005   2.190   0.429   4.648
 6369SOL    HW120006   2.264   0.454   4.710
 6369SOL    HW220007   2.178   0.501   4.580
 6370SOL     OW20008   6.195   3.189   4.015
 6370SOL    HW120009   6.200   3.112   3.951
 6370SOL    HW220010   6.226   3.272   3.968
 6371SOL     OW20011   5.199   4.721   3.131
 6371SOL    HW120012   5.101   4.736   3.139
 6371SOL    HW220013   5.248   4.793   3.180
 6372SOL     OW20014   1.617   1.415   1.999
 6372SOL    HW120015   1.549   1.368   2.056
 6372SOL    HW220016   1.649   1.353   1.928
 6373SOL     OW20017   4.733   4.159   2.749
 6373SOL    HW120018   4.673   4.181   2.825
 6373SOL    HW220019   4.703   4.074   2.705
 6374SOL     OW20020   4.114   3.585   1.979
 6374SOL    HW120021   4.163   3.539   1.905
 6374SOL    HW220022   4.141   3.547   2.067
 6375SOL     OW20023   0.134   1.994   2.354
 6375SOL    HW120024   0.127   2.004   2.453
 6375SOL    HW220025   0.161   1.901   2.331
 6376SOL     OW20026   4.944   2.097   6.122
 6376SOL    HW120027   4.872   2.095   6.190
 6376SOL    HW220028   5.006   2.173   6.141
 6377SOL     OW20029   7.007   1.071   5.546
 6377SOL    HW120030   7.012   1.056   5.644
 6377SOL    HW220031   0.075   1.099   5.511
 6378SOL     OW20032   4.609   4.434   3.889
 6378SOL    HW120033   4.545   4.496   3.935
 6378SOL    HW220034   4.626   4.354   3.947
 6379SOL     OW20035   0.752   4.195   5.560
 6379SOL    HW120036   0.786   4.123   5.621
 6379SOL    HW220037   0.829   4.244   5.520
 6380SOL     OW20038   0.299   1.581   5.046
 6380SOL    HW120039   0.398   1.563   5.046
 6380SOL    HW220040   0.281   1.671   5.085
 6381SOL     OW20041   4.148   2.848   1.086
 6381SOL    HW120042   4.172   2.912   1.160
 6381SOL    HW220043   4.204   2.868   1.006
 6382SOL     OW20044   3.520   2.062   0.829
 6382SOL    HW120045   3.473   2.125   0.766
 6382SOL    HW220046   3.616   2.089   0.837
 6383SOL     OW20047   2.439   2.663   3.183
 6383SOL    HW120048   2.403   2.736   3.243
 6383SOL    HW220049   2.374   2.587   3.182
 6384SOL     OW20050   6.342   3.662   3.086
 6384SOL    HW120051   6.441   3.657   3.069
 6384SOL    HW220052   6.317   3.591   3.153
 6385SOL     OW20053   6.851   3.225   3.488
 6385SOL    HW120054   6.942   3.259   3.508
 6385SOL    HW220055   6.857   3.132   3.452
 6386SOL     OW20056   2.885   3.377   6.769
 6386SOL    HW120057   2.796   3.409   6.801
 6386SOL    HW220058   2.955   3.405   6.835
 6387SOL     OW20059   6.761   1.981   6.955
 6387SOL    HW120060   6.696   2.021   7.020
 6387SOL    HW220061   6.838   1.942   7.006
 6388SOL     OW20062   4.431   6.249   1.951
 6388SOL    HW120063   4.426   6.151   1.973
 6388SOL    HW220064   4.523   6.271   1.920
 6389SOL     OW20065   0.700   6.725   0.712
 6389SOL    HW120066   0.625   6.690   0.768
 6389SOL    HW220067   0.688   6.696   0.617
 6390SOL     OW20068   0.223   0.757   5.456
 6390SOL    HW120069   0.158   0.765   5.531
 6390SOL    HW220070   0.181   0.707   5.381
 6391SOL     OW20071   1.239   0.265   6.317
 6391SOL    HW120072   1.246   0.344   6.257
 6391SOL    HW220073   1.303   0.275   6.393
 6392SOL     OW20074   2.666   5.734   2.768
 6392SOL    HW120075   2.572   5.744   2.801
 6392SOL    HW220076   2.698   5.821   2.731
 6393SOL     OW20077   0.363   6.122   1.949
 6393SOL    HW120078   0.462   6.126   1.935
 6393SOL    HW220079   0.317   6.125   1.860
 6394SOL     OW20080   1.528   5.577   0.570
 6394SOL    HW120081   1.512   5.489   0.525
 6394SOL    HW220082   1.459   5.592   0.640
 6395SOL     OW20083   0.405   3.037   1.612
 6395SOL    HW120084   0.382   2.943   1.590
 6395SOL    HW220085   0.442   3.042   1.705
 6396SOL     OW20086   6.072   3.115   6.933
 6396SOL    HW120087   6.011   3.111   6.854
 6396SOL    HW220088   6.032   3.063   7.008
 6397SOL     OW20089   5.684   1.302   1.838
 6397SOL    HW120090   5.648   1.212   1.815
 6397SOL    HW220091   5.609   1.369   1.836
 6398SOL     OW20092   2.808   0.134   2.015
 6398SOL    HW120093   2.725   0.123   1.960
 6398SOL    HW220094   2.878   0.180   1.960
 6399SOL     OW20095   1.566   0.358   6.752
 6399SOL    HW120096   1.486   0.312   6.790
 6399SOL    HW220097   1.646   0.299   6.761
 6400SOL     OW20098   1.984   4.872   2.310
 6400SOL    HW120099   2.046   4.874   2.231
 6400SOL    HW220100   2.030   4.828   2.387
 6401SOL     OW20101   5.706   6.211   3.330
 6401SOL    HW120102   5.629   6.200   3.393
 6401SOL    HW220103   5.700   6.301   3.286
 6402SOL     OW20104   2.166   3.068   3.429
 6402SOL    HW120105   2.071   3.043   3.408
 6402SOL    HW220106   2.197   3.138   3.365
 6403SOL     OW20107   6.675   5.091   6.317
 6403SOL    HW120108   6.750   5.096   6.252
 6403SOL    HW220109   6.600   5.149   6.286
 6404SOL     OW20110   3.955   1.051   2.261
 6404SOL    HW120111   4.046   1.044   2.220
 6404SOL    HW220112   3.953   1.128   2.325
 6405SOL     OW20113   3.917   0.530   3.739
 6405SOL    HW120114   3.842   0.580   3.783
 6405SOL    HW220115   3.995   0.592   3.728
 6406SOL     OW20116   0.388   2.771   2.791
 6406SOL    HW120117   0.424   2.717   2.867
 6406SOL    HW220118   0.437   2.858   2.787
 6407SOL     OW20119   2.428   0.055   4.081
 6407SOL    HW120120   2.403   7.002   4.143
 6407SOL    HW220121   2.512   0.099   4.115
 6408SOL     OW20122   5.770   0.939   0.434
 6408SOL    HW120123   5.860   0.983   0.430
 6408SOL    HW220124   5.699   1.006   0.412
 6409SOL     OW20125   6.267   4.635   4.624
 6409SOL    HW120126   6.274   4.614   4.527
 6409SOL    HW220127   6.299   4.729   4.640
 6410SOL     OW20128   2.017   1.089   5.853
 6410SOL    HW120129   1.926   1.060   5.883
 6410SOL    HW220130   2.039   1.178   5.893
 6411SOL     OW20131   0.353   3.026   3.112
 6411SOL    HW120132   0.408   2.983   3.183
 6411SOL    HW220133   0.257   3.000   3.123
 6412SOL     OW20134   1.970   1.474   5.236
 6412SOL    HW120135   1.893   1.411   5.246
 6412SOL    HW220136   1.949   1.542   5.166
 6413SOL     OW20137   3.992   4.881   3.522
 6413SOL    HW120138   3.984   4.849   3.617
 6413SOL    HW220139   3.916   4.943   3.502
 6414SOL     OW20140   5.658   1.152   0.165
 6414SOL    HW120141   5.563   1.125   0.147
 6414SOL    HW220142   5.664   1.251   0.168
 6415SOL     OW20143   1.419   3.484   3.716
 6415SOL    HW120144   1.335   3.504   3.666
 6415SOL    HW220145   1.423   3.386   3.735
 6416SOL     OW20146   1.626   7.000   6.758
 6416SOL    HW120147   1.699   0.044   6.777
 6416SOL    HW220148   1.557   0.022   6.701
 6417SOL     OW20149   5.331   4.812   0.484
 6417SOL    HW120150   5.411   4.872   0.490
 6417SOL    HW220151   5.358   4.719   0.509
 6418SOL     OW20152   4.893   3.361   2.439
 6418SOL    HW120153   4.843   3.315   2.366
 6418SOL    HW220154   4.875   3.459   2.435
 6419SOL     OW20155   0.856   5.036   2.944
 6419SOL    HW120156   0.772   5.042   2.998
 6419SOL    HW220157   0.846   5.090   2.860
 6420SOL     OW20158   2.477   6.596   4.095
 6420SOL    HW120159   2.510   6.642   4.013
 6420SOL    HW220160   2.378   6.584   4.088
 6421SOL     OW20161   4.756   0.441   2.042
 6421SOL    HW120162   4.792   0.506   1.975
 6421SOL    HW220163   4.656   0.441   2.038
 6422SOL     OW20164   6.781   6.888   4.828
 6422SOL    HW120165   6.691   6.926   4.852
 6422SOL    HW220166   6.850   6.959   4.834
 6423SOL     OW20167   4.757   5.674   3.444
 6423SOL    HW120168   4.669   5.664   3.397
 6423SOL    HW220169   4.759   5.616   3.526
 6424SOL     OW20170   0.379   4.209   4.632
 6424SOL    HW120171   0.308   4.253   4.687
 6424SOL    HW220172   0.433   4.148   4.690
 6425SOL     OW20173   6.632   6.648   2.945
 6425SOL    HW120174   6.626   6.704   2.862
 6425SOL    HW220175   6.572   6.569   2.936
 6426SOL     OW20176   0.729   5.177   2.737
 6426SOL    HW120177   0.668   5.251   2.767
 6426SOL    HW220178   0.802   5.214   2.680
 6427SOL     OW20179   3.925   3.942   3.900
 6427SOL    HW120180   3.869   4.007   3.953
 6427SOL    HW220181   3.998   3.906   3.958
 6428SOL     OW20182   5.393   3.359   6.618
 6428SOL    HW120183   5.384   3.281   6.681
 6428SOL    HW220184   5.348   3.439   6.657
 6429SOL     OW20185   0.047   1.529   5.809
 6429SOL    HW120186   7.020   1.550   5.724
 6429SOL    HW220187   0.005   1.579   5.885
 6430SOL     OW20188   6.123   0.845   4.033
 6430SOL    HW120189   6.127   0.777   3.960
 6430SOL    HW220190   6.165   0.809   4.116
 6431SOL     OW20191   3.831   6.115   3.480
 6431SOL    HW120192   3.733   6.117   3.460
 6431SOL    HW220193   3.851   6.178   3.555
 6432SOL     OW20194   4.622   4.412   6.072
 6432SOL    HW120195   4.689   4.485   6.054
 6432SOL    HW220196   4.660   4.350   6.141
 6433SOL     OW20197   1.580   5.232   5.733
 6433SOL    HW120198   1.645   5.283   5.790
 6433SOL    HW220199   1.525   5.296   5.679
 6434SOL     OW20200   2.692   6.657   5.801
 6434SOL    HW120201   2.768   6.625   5.745
 6434SOL    HW220202   2.726   6.687   5.890
 6435SOL     OW20203   5.283   6.810   0.597
 6435SOL    HW120204   5.240   6.827   0.508
 6435SOL    HW220205   5.235   6.736   0.643
 6436SOL     OW20206   1.308   2.897   2.676
 6436SOL    HW120207   1.210   2.919   2.672
 6436SOL    HW220208   1.321   2.815   2.731
 6437SOL     OW20209   1.651   2.376   0.113
 6437SOL    HW120210   1.717   2.375   0.038
 6437SOL    HW220211   1.566   2.331   0.083
 6438SOL     OW20212   0.630   3.904   5.710
 6438SOL    HW120213   0.565   3.855   5.653
 6438SOL    HW220214   0.585   3.981   5.754
 6439SOL     OW20215   5.254   0.928   2.094
 6439SOL    HW120216   5.292   0.859   2.033
 6439SOL    HW220217   5.309   0.931   2.178
 6440SOL     OW20218   2.787   1.382   5.880
 6440SOL    HW120219   2.845   1.396   5.800
 6440SOL    HW220220   2.799   1.457   5.944
 6441SOL     OW20221   0.237   0.071   1.378
 6441SOL    HW120222   0.194   7.004   1.362
 6441SOL    HW220223   0.176   0.143   1.345
 6442SOL     OW20224   2.356   1.596   5.121
 6442SOL    HW120225   2.415   1.526   5.161
 6442SOL    HW220226   2.379   1.685   5.160
 6443SOL     OW20227   3.681   2.456   5.438
 6443SOL    HW120228   3.601   2.513   5.420
 6443SOL    HW220229   3.657   2.385   5.505
 6444SOL     OW20230   5.564   3.472   4.759
 6444SOL    HW120231   5.637   3.415   4.797
 6444SOL    HW220232   5.477   3.444   4.800
 6445SOL     OW20233   4.096   3.426   4.698
 6445SOL    HW120234   4.135   3.511   4.663
 6445SOL    HW220235   4.003   3.415   4.663
 6446SOL     OW20236   1.284   1.150   6.778
 6446SOL    HW120237   1.212   1.204   6.820
 6446SOL    HW220238   1.262   1.133   6.682
 6447SOL     OW20239   6.159   4.908   2.978
 6447SOL    HW120240   6.150   4.850   3.060
 6447SOL    HW220241   6.214   4.860   2.910
 6448SOL     OW20242   5.118   5.448   1.584
 6448SOL    HW120243   5.184   5.460   1.510
 6448SOL    HW220244   5.100   5.536   1.627
 6449SOL     OW20245   3.891   6.036   1.657
 6449SOL    HW120246   3.810   5.995   1.698
 6449SOL    HW220247   3.916   6.118   1.708
 6450SOL     OW20248   1.446   3.139   0.708
 6450SOL    HW120249   1.419   3.112   0.616
 6450SOL    HW220250   1.544   3.125   0.721
 6451SOL     OW20251   2.476   0.600   5.346
 6451SOL    HW120252   2.388   0.645   5.333
 6451SOL    HW220253   2.530   0.608   5.262
 6452SOL     OW20254   4.383   4.543   3.019
 6452SOL    HW120255   4.386   4.607   2.942
 6452SOL    HW220256   4.333   4.460   2.992
 6453SOL     OW20257   2.222   0.131   2.048
 6453SOL    HW120258   2.312   0.087   2.056
 6453SOL    HW220259   2.233   0.229   2.062
 6454SOL     OW20260   0.635   2.003   3.305
 6454SOL    HW120261   0.601   1.910   3.310
 6454SOL    HW220262   0.572   2.059   3.252
 6455SOL     OW20263   0.233   3.278   4.328
 6455SOL    HW120264   0.143   3.257   4.289
 6455SOL    HW220265   0.235   3.253   4.425
 6456SOL     OW20266   1.566   1.188   3.232
 6456SOL    HW120267   1.497   1.140   3.287
 6456SOL    HW220268   1.599   1.268   3.281
 6457SOL     OW20269   5.025   0.822   1.844
 6457SOL    HW120270   5.015   0.909   1.795
 6457SOL    HW220271   4.946   0.809   1.904
 6458SOL     OW20272   0.973   5.799   4.231
 6458SOL    HW120273   1.021   5.841   4.154
 6458SOL    HW220274   0.889   5.756   4.199
 6459SOL     OW20275   6.182   3.345   1.460
 6459SOL    HW120276   6.125   3.286   1.517
 6459SOL    HW220277   6.126   3.388   1.390
 6460SOL     OW20278   6.272   5.920   6.404
 6460SOL    HW120279   6.349   5.861   6.381
 6460SOL    HW220280   6.301   5.991   6.468
 6461SOL     OW20281   2.605   4.514   6.813
 6461SOL    HW120282   2.623   4.534   6.909
 6461SOL    HW220283   2.679   4.457   6.776
 6462SOL     OW20284   1.813   3.181   4.516
 6462SOL    HW120285   1.851   3.116   4.582
 6462SOL    HW220286   1.868   3.265   4.517
 6463SOL     OW20287   5.697   1.664   0.575
 6463SOL    HW120288   5.645   1.705   0.650
 6463SOL    HW220289   5.762   1.730   0.540
 6464SOL     OW20290   1.644   4.831   4.960
 6464SOL    HW120291   1.648   4.896   5.036
 6464SOL    HW220292   1.728   4.837   4.906
 6465SOL     OW20293   6.755   3.027   2.680
 6465SOL    HW120294   6.840   2.977   2.664
 6465SOL    HW220295   6.775   3.112   2.728
 6466SOL     OW20296   6.105   1.248   5.815
 6466SOL    HW120297   6.052   1.163   5.818
 6466SOL    HW220298   6.195   1.231   5.856
 6467SOL     OW20299   3.865   0.323   6.995
 6467SOL    HW120300   3.921   0.254   6.949
 6467SOL    HW220301   3.910   0.412   6.989
 6468SOL     OW20302   2.790   6.499   1.398
 6468SOL    HW120303   2.748   6.463   1.315
 6468SOL    HW220304   2.817   6.594   1.383
 6469SOL     OW20305   4.514   2.368   3.988
 6469SOL    HW120306   4.595   2.311   3.972
 6469SOL    HW220307   4.514   2.445   3.924
 6470SOL     OW20308   5.546   2.779   0.880
 6470SOL    HW120309   5.640   2.813   0.879
 6470SOL    HW220310   5.538   2.701   0.818
 6471SOL     OW20311   0.257   6.290   5.879
 6471SOL    HW120312   0.253   6.259   5.784
 6471SOL    HW220313   0.262   6.390   5.881
 6472SOL     OW20314   6.832   5.924   1.706
 6472SOL    HW120315   6.788   5.957   1.622
 6472SOL    HW220316   6.838   5.825   1.704
 6473SOL     OW20317   2.929   1.736   4.600
 6473SOL    HW120318   2.875   1.798   4.656
 6473SOL    HW220319   2.911   1.754   4.503
 6474SOL     OW20320   3.610   5.340   6.516
 6474SOL    HW120321   3.651   5.415   6.568
 6474SOL    HW220322   3.510   5.352   6.515
 6475SOL     OW20323   5.934   5.026   3.732
 6475SOL    HW120324   5.895   5.033   3.824
 6475SOL    HW220325   6.018   4.972   3.735
 6476SOL     OW20326   4.777   3.513   0.776
 6476SOL    HW120327   4.822   3.487   0.862
 6476SOL    HW220328   4.846   3.521   0.704
 6477SOL     OW20329   5.696   4.998   0.109
 6477SOL    HW120330   5.776   5.056   0.118
 6477SOL    HW220331   5.641   5.004   0.192
 6478SOL     OW20332   3.635   0.179   2.199
 6478SOL    HW120333   3.554   0.224   2.161
 6478SOL    HW220334   3.609   0.124   2.278
 6479SOL     OW20335   4.206   5.445   3.960
 6479SOL    HW120336   4.147   5.373   3.995
 6479SOL    HW220337   4.180   5.468   3.867
 6480SOL     OW20338   2.819   0.987   6.885
 6480SOL    HW120339   2.776   1.076   6.872
 6480SOL    HW220340   2.763   0.916   6.842
 6481SOL     OW20341   3.255   2.100   2.305
 6481SOL    HW120342   3.177   2.076   2.246
 6481SOL    HW220343   3.231   2.180   2.359
 6482SOL     OW20344   6.572   1.892   5.678
 6482SOL    HW120345   6.480   1.853   5.667
 6482SOL    HW220346   6.572   1.986   5.645
 6483SOL     OW20347   0.653   0.282   3.360
 6483SOL    HW120348   0.753   0.276   3.349
 6483SOL    HW220349   0.608   0.225   3.291
 6484SOL     OW20350   3.384   0.127   1.345
 6484SOL    HW120351   3.289   0.112   1.372
 6484SOL    HW220352   3.410   0.061   1.275
 6485SOL     OW20353   2.312   5.133   3.847
 6485SOL    HW120354   2.302   5.226   3.811
 6485SOL    HW220355   2.316   5.068   3.772
 6486SOL     OW20356   0.385   4.115   3.196
 6486SOL    HW120357   0.358   4.170   3.117
 6486SOL    HW220358   0.484   4.099   3.194
 6487SOL     OW20359   0.806   6.792   5.164
 6487SOL    HW120360   0.771   6.837   5.246
 6487SOL    HW220361   0.843   6.861   5.101
 6488SOL     OW20362   3.956   6.226   4.484
 6488SOL    HW120363   3.925   6.193   4.573
 6488SOL    HW220364   3.896   6.300   4.453
 6489SOL     OW20365   3.094   3.604   6.295
 6489SOL    HW120366   3.078   3.699   6.322
 6489SOL    HW220367   3.152   3.601   6.215
 6490SOL     OW20368   3.849   1.223   6.477
 6490SOL    HW120369   3.882   1.302   6.425
 6490SOL    HW220370   3.758   1.242   6.513
 6491SOL     OW20371   3.730   0.928   1.413
 6491SOL    HW120372   3.769   0.987   1.485
 6491SOL    HW220373   3.773   0.950   1.326
 6492SOL     OW20374   3.884   4.817   6.127
 6492SOL    HW120375   3.915   4.849   6.037
 6492SOL    HW220376   3.960   4.820   6.192
 6493SOL     OW20377   1.996   4.707   6.452
 6493SOL    HW120378   2.025   4.622   6.408
 6493SOL    HW220379   1.898   4.702   6.473
 6494SOL     OW20380   6.920   0.672   3.516
 6494SOL    HW120381   6.933   0.601   3.447
 6494SOL    HW220382   6.969   0.755   3.488
 6495SOL     OW20383   6.558   0.352   4.702
 6495SOL    HW120384   6.476   0.295   4.701
 6495SOL    HW220385   6.573   0.391   4.611
 6496SOL     OW20386   6.168   1.121   3.237
 6496SOL    HW120387   6.116   1.174   3.170
 6496SOL    HW220388   6.139   1.025   3.234
 6497SOL     OW20389   1.014   1.132   1.275
 6497SOL    HW120390   1.079   1.098   1.207
 6497SOL    HW220391   0.920   1.117   1.242
 6498SOL     OW20392   1.582   3.251   4.007
 6498SOL    HW120393   1.613   3.159   3.980
 6498SOL    HW220394   1.598   3.263   4.105
 6499SOL     OW20395   5.559   4.204   5.471
 6499SOL    HW120396   5.477   4.165   5.428
 6499SOL    HW220397   5.636   4.141   5.457
 6500SOL     OW20398   6.404   3.804   5.026
 6500SOL    HW120399   6.438   3.894   5.053
 6500SOL    HW220400   6.386   3.803   4.928
 6501SOL     OW20401   6.747   0.943   6.351
 6501SOL    HW120402   6.740   0.893   6.264
 6501SOL    HW220403   6.680   0.906   6.416
 6502SOL     OW20404   6.479   2.941   2.728
 6502SOL    HW120405   6.571   2.958   2.692
 6502SOL    HW220406   6.438   2.865   2.679
 6503SOL     OW20407   5.620   1.551   3.532
 6503SOL    HW120408   5.643   1.489   3.607
 6503SOL    HW220409   5.586   1.498   3.454
 6504SOL     OW20410   4.440   6.161   5.265
 6504SOL    HW120411   4.363   6.098   5.254
 6504SOL    HW220412   4.461   6.203   5.177
 6505SOL     OW20413   5.479   5.825   6.303
 6505SOL    HW120414   5.441   5.744   6.349
 6505SOL    HW220415   5.572   5.841   6.335
 6506SOL     OW20416   6.906   2.612   2.838
 6506SOL    HW120417   6.895   2.657   2.927
 6506SOL    HW220418   6.902   2.513   2.850
 6507SOL     OW20419   1.652   5.638   6.571
 6507SOL    HW120420   1.552   5.630   6.566
 6507SOL    HW220421   1.677   5.735   6.573
 6508SOL     OW20422   1.632   1.208   2.725
 6508SOL    HW120423   1.730   1.188   2.729
 6508SOL    HW220424   1.619   1.301   2.690
 6509SOL     OW20425   4.382   1.963   4.625
 6509SOL    HW120426   4.441   1.913   4.689
 6509SOL    HW220427   4.434   1.985   4.542
 6510SOL     OW20428   0.006   5.325   0.102
 6510SOL    HW120429   7.020   5.407   0.046
 6510SOL    HW220430   7.015   5.347   0.198
 6511SOL     OW20431   3.963   0.768   4.749
 6511SOL    HW120432   3.985   0.671   4.764
 6511SOL    HW220433   4.001   0.822   4.824
 6512SOL     OW20434   3.955   6.477   2.143
 6512SOL    HW120435   3.996   6.387   2.129
 6512SOL    HW220436   4.022   6.537   2.187
 6513SOL     OW20437   2.681   4.950   3.213
 6513SOL    HW120438   2.728   4.977   3.129
 6513SOL    HW220439   2.670   5.029   3.273
 6514SOL     OW20440   5.905   1.627   4.101
 6514SOL    HW120441   5.897   1.527   4.104
 6514SOL    HW220442   5.899   1.663   4.194
 6515SOL     OW20443   0.892   4.677   3.572
 6515SOL    HW120444   0.954   4.740   3.618
 6515SOL    HW220445   0.940   4.632   3.496
 6516SOL     OW20446   0.163   3.391   1.657
 6516SOL    HW120447   0.122   3.477   1.689
 6516SOL    HW220448   0.141   3.318   1.721
 6517SOL     OW20449   6.827   1.448   1.867
 6517SOL    HW120450   6.744   1.498   1.889
 6517SOL    HW220451   6.883   1.501   1.804
 6518SOL     OW20452   0.084   0.444   0.209
 6518SOL    HW120453   0.002   0.501   0.210
 6518SOL    HW220454   0.164   0.502   0.195
 6519SOL     OW20455   0.756   2.200   3.058
 6519SOL    HW120456   0.845   2.243   3.057
 6519SOL    HW220457   0.758   2.117   3.001
 6520SOL     OW20458   6.408   5.148   1.249
 6520SOL    HW120459   6.376   5.220   1.310
 6520SOL    HW220460   6.332   5.088   1.224
 6521SOL     OW20461   2.136   2.725   4.513
 6521SOL    HW120462   2.145   2.807   4.457
 6521SOL    HW220463   2.149   2.644   4.457
 6522SOL     OW20464   2.907   4.963   5.552
 6522SOL    HW120465   2.923   4.869   5.522
 6522SOL    HW220466   2.870   5.017   5.476
 6523SOL     OW20467   3.445   1.389   6.864
 6523SOL    HW120468   3.534   1.414   6.902
 6523SOL    HW220469   3.416   1.460   6.800
 6524SOL     OW20470   3.012   3.418   1.751
 6524SOL    HW120471   3.061   3.373   1.826
 6524SOL    HW220472   3.076   3.475   1.699
 6525SOL     OW20473   2.207   5.241   3.146
 6525SOL    HW120474   2.271   5.309   3.182
 6525SOL    HW220475   2.123   5.287   3.118
 6526SOL     OW20476   2.631   0.486   0.464
 6526SOL    HW120477   2.725   0.496   0.498
 6526SOL    HW220478   2.570   0.545   0.516
 6527SOL     OW20479   0.234   1.505   5.429
 6527SOL    HW120480   0.140   1.481   5.407
 6527SOL    HW220481   0.235   1.584   5.491
 6528SOL     OW20482   6.090   1.097   4.774
 6528SOL    HW120483   6.036   1.105   4.858
 6528SOL    HW220484   6.047   1.029   4.714
 6529SOL     OW20485   2.114   0.852   3.053
 6529SOL    HW120486   2.022   0.831   3.020
 6529SOL    HW220487   2.181   0.829   2.983
 6530SOL     OW20488   0.222   2.218   0.266
 6530SOL    HW120489   0.230   2.212   0.366
 6530SOL    HW220490   0.145   2.162   0.236
 6531SOL     OW20491   5.007   3.229   5.373
 6531SOL    HW120492   4.944   3.303   5.350
 6531SOL    HW220493   4.967   3.142   5.345
 6532SOL     OW20494   0.065   1.264   1.102
 6532SOL    HW120495   7.002   1.237   1.147
 6532SOL    HW220496   0.091   1.193   1.036
 6533SOL     OW20497   4.782   7.011   0.808
 6533SOL    HW120498   4.688   6.989   0.783
 6533SOL    HW220499   4.814   6.945   0.876
 6534SOL     OW20500   4.532   4.355   1.396
 6534SOL    HW120501   4.434   4.376   1.394
 6534SOL    HW220502   4.571   4.373   1.305
 6535SOL     OW20503   6.354   4.703   3.848
 6535SOL    HW120504   6.344   4.728   3.944
 6535SOL    HW220505   6.451   4.696   3.825
 6536SOL     OW20506   0.673   1.301   5.579
 6536SOL    HW120507   0.615   1.275   5.502
 6536SOL    HW220508   0.768   1.309   5.549
 6537SOL     OW20509   6.948   5.073   6.586
 6537SOL    HW120510   6.859   5.099   6.624
 6537SOL    HW220511   6.968   5.130   6.506
 6538SOL     OW20512   2.628   3.672   6.429
 6538SOL    HW120513   2.605   3.701   6.336
 6538SOL    HW220514   2.702   3.605   6.425
 6539SOL     OW20515   5.096   0.855   6.677
 6539SOL    HW120516   5.046   0.850   6.590
 6539SOL    HW220517   5.031   0.868   6.752
 6540SOL     OW20518   4.581   1.802   5.992
 6540SOL    HW120519   4.536   1.881   5.950
 6540SOL    HW220520   4.676   1.797   5.959
 6541SOL     OW20521   4.778   1.773   4.904
 6541SOL    HW120522   4.852   1.757   4.838
 6541SOL    HW220523   4.704   1.824   4.859
 6542SOL     OW20524   6.446   2.860   4.297
 6542SOL    HW120525   6.357   2.822   4.323
 6542SOL    HW220526   6.436   2.913   4.213
 6543SOL     OW20527   4.913   3.114   6.036
 6543SOL    HW120528   4.976   3.079   6.105
 6543SOL    HW220529   4.902   3.213   6.049
 6544SOL     OW20530   0.962   6.527   3.092
 6544SOL    HW120531   0.994   6.554   3.183
 6544SOL    HW220532   1.032   6.549   3.024
 6545SOL     OW20533   3.973   0.617   0.944
 6545SOL    HW120534   4.000   0.662   0.859
 6545SOL    HW220535   4.009   0.524   0.947
 6546SOL     OW20536   2.900   4.070   0.191
 6546SOL    HW120537   2.994   4.082   0.159
 6546SOL    HW220538   2.898   4.004   0.266
 6547SOL     OW20539   4.675   1.284   6.215
 6547SOL    HW120540   4.656   1.219   6.142
 6547SOL    HW220541   4.711   1.369   6.176
 6548SOL     OW20542   0.340   3.973   0.987
 6548SOL    HW120543   0.403   3.907   1.028
 6548SOL    HW220544   0.384   4.063   0.983
 6549SOL     OW20545   4.005   0.430   1.720
 6549SOL    HW120546   4.036   0.491   1.647
 6549SOL    HW220547   3.999   0.481   1.805
 6550SOL     OW20548   6.975   7.018   3.361
 6550SOL    HW120549   6.903   0.057   3.394
 6550SOL    HW220550   0.034   0.050   3.338
 6551SOL     OW20551   1.593   4.603   1.954
 6551SOL    HW120552   1.626   4.573   2.044
 6551SOL    HW220553   1.642   4.685   1.926
 6552SOL     OW20554   1.785   6.962   0.194
 6552SOL    HW120555   1.843   0.021   0.206
 6552SOL    HW220556   1.801   6.898   0.269
 6553SOL     OW20557   6.869   2.489   3.382
 6553SOL    HW120558   6.873   2.402   3.333
 6553SOL    HW220559   6.779   2.531   3.370
 6554SOL     OW20560   0.639   0.328   4.942
 6554SOL    HW120561   0.591   0.288   4.864
 6554SOL    HW220562   0.712   0.388   4.909
 6555SOL     OW20563   5.703   1.312   3.209
 6555SOL    HW120564   5.657   1.289   3.123
 6555SOL    HW220565   5.636   1.343   3.276
 6556SOL     OW20566   5.054   4.226   4.190
 6556SOL    HW120567   5.022   4.308   4.238
 6556SOL    HW220568   5.014   4.145   4.233
 6557SOL     OW20569   3.314   0.001   2.544
 6557SOL    HW120570   3.229   0.039   2.507
 6557SOL    HW220571   3.297   6.992   2.638
 6558SOL     OW20572   6.952   5.283   0.418
 6558SOL    HW120573   6.937   5.184   0.421
 6558SOL    HW220574   7.013   5.310   0.492
 6559SOL     OW20575   0.455   3.861   0.212
 6559SOL    HW120576   0.542   3.810   0.214
 6559SOL    HW220577   0.385   3.808   0.261
 6560SOL     OW20578   4.525   4.973   1.547
 6560SOL    HW120579   4.533   4.987   1.645
 6560SOL    HW220580   4.617   4.960   1.508
 6561SOL     OW20581   2.851   3.925   1.772
 6561SOL    HW120582   2.788   3.850   1.792
 6561SOL    HW220583   2.916   3.934   1.847
 6562SOL     OW20584   6.259   3.070   0.617
 6562SOL    HW120585   6.237   2.987   0.566
 6562SOL    HW220586   6.178   3.128   0.624
 6563SOL     OW20587   5.380   5.595   6.384
 6563SOL    HW120588   5.409   5.511   6.431
 6563SOL    HW220589   5.300   5.576   6.328
 6564SOL     OW20590   6.688   3.804   3.295
 6564SOL    HW120591   6.706   3.774   3.389
 6564SOL    HW220592   6.655   3.898   3.295
 6565SOL     OW20593   5.406   1.995   2.928
 6565SOL    HW120594   5.466   1.932   2.879
 6565SOL    HW220595   5.454   2.081   2.946
 6566SOL     OW20596   4.067   6.264   2.069
 6566SOL    HW120597   4.095   6.298   1.979
 6566SOL    HW220598   4.147   6.255   2.128
 6567SOL     OW20599   4.843   1.012   2.946
 6567SOL    HW120600   4.851   0.951   3.024
 6567SOL    HW220601   4.754   1.000   2.902
 6568SOL     OW20602   2.657   1.031   3.757
 6568SOL    HW120603   2.716   1.106   3.786
 6568SOL    HW220604   2.673   1.013   3.660
 6569SOL     OW20605   2.864   3.401   0.633
 6569SOL    HW120606   2.881   3.357   0.545
 6569SOL    HW220607   2.787   3.464   0.625
 6570SOL     OW20608   3.524   0.945   2.423
 6570SOL    HW120609   3.487   0.989   2.342
 6570SOL    HW220610   3.475   0.859   2.440
 6571SOL     OW20611   3.099   5.290   1.526
 6571SOL    HW120612   3.057   5.281   1.435
 6571SOL    HW220613   3.035   5.257   1.596
 6572SOL     OW20614   0.200   5.096   4.927
 6572SOL    HW120615   0.252   5.033   4.869
 6572SOL    HW220616   0.175   5.177   4.874
 6573SOL     OW20617   1.062   2.054   2.245
 6573SOL    HW120618   1.046   2.051   2.147
 6573SOL    HW220619   1.160   2.069   2.262
 6574SOL     OW20620   2.518   5.232   2.121
 6574SOL    HW120621   2.527   5.211   2.218
 6574SOL    HW220622   2.524   5.331   2.107
 6575SOL     OW20623   0.517   0.110   3.184
 6575SOL    HW120624   0.490   0.147   3.096
 6575SOL    HW220625   0.515   0.010   3.180
 6576SOL     OW20626   2.083   6.392   6.924
 6576SOL    HW120627   2.042   6.314   6.878
 6576SOL    HW220628   2.056   6.476   6.877
 6577SOL     OW20629   0.805   1.932   4.506
 6577SOL    HW120630   0.876   1.874   4.546
 6577SOL    HW220631   0.836   2.027   4.507
 6578SOL     OW20632   0.609   5.977   3.223
 6578SOL    HW120633   0.513   5.964   3.202
 6578SOL    HW220634   0.622   5.976   3.323
 6579SOL     OW20635   0.114   3.624   4.229
 6579SOL    HW120636   0.133   3.585   4.319
 6579SOL    HW220637   0.079   3.553   4.169
 6580SOL     OW20638   0.878   2.199   1.017
 6580SOL    HW120639   0.885   2.298   1.011
 6580SOL    HW220640   0.832   2.173   1.102
 6581SOL     OW20641   2.948   0.813   0.445
 6581SOL    HW120642   2.991   0.889   0.397
 6581SOL    HW220643   2.852   0.834   0.462
 6582SOL     OW20644   0.417   1.284   3.631
 6582SOL    HW120645   0.354   1.240   3.695
 6582SOL    HW220646   0.507   1.239   3.637
 6583SOL     OW20647   4.687   0.131   5.563
 6583SOL    HW120648   4.609   0.179   5.524
 6583SOL    HW220649   4.661   0.088   5.649
 6584SOL     OW20650   4.554   2.483   0.937
 6584SOL    HW120651   4.571   2.538   0.855
 6584SOL    HW220652   4.625   2.500   1.005
 6585SOL     OW20653   6.803   6.152   0.166
 6585SOL    HW120654   6.887   6.204   0.153
 6585SOL    HW220655   6.741   6.170   0.089
 6586SOL     OW20656   5.480   0.521   5.302
 6586SOL    HW120657   5.469   0.422   5.311
 6586SOL    HW220658   5.477   0.547   5.206
 6587SOL     OW20659   1.834   5.540   5.454
 6587SOL    HW120660   1.897   5.464   5.472
 6587SOL    HW220661   1.805   5.580   5.541
 6588SOL     OW20662   0.777   3.228   2.049
 6588SOL    HW120663   0.806   3.324   2.046
 6588SOL    HW220664   0.754   3.203   2.143
 6589SOL     OW20665   4.894   0.885   0.677
 6589SOL    HW120666   4.879   0.787   0.690
 6589SOL    HW220667   4.926   0.926   0.762
 6590SOL     OW20668   0.274   1.413   5.911
 6590SOL    HW120669   0.198   1.454   5.861
 6590SOL    HW220670   0.353   1.405   5.850
 6591SOL     OW20671   6.192   5.242   2.357
 6591SOL    HW120672   6.289   5.261   2.369
 6591SOL    HW220673   6.147   5.238   2.446
 6592SOL     OW20674   5.503   6.901   3.231
 6592SOL    HW120675   5.595   6.933   3.254
 6592SOL    HW220676   5.504   6.860   3.140
 6593SOL     OW20677   1.856   2.347   2.874
 6593SOL    HW120678   1.864   2.261   2.822
 6593SOL    HW220679   1.765   2.354   2.913
 6594SOL     OW20680   3.567   1.688   6.914
 6594SOL    HW120681   3.599   1.684   6.819
 6594SOL    HW220682   3.501   1.763   6.925
 6595SOL     OW20683   1.258   4.377   6.751
 6595SOL    HW120684   1.176   4.343   6.798
 6595SOL    HW220685   1.310   4.299   6.715
 6596SOL     OW20686   3.293   6.512   4.491
 6596SOL    HW120687   3.381   6.534   4.448
 6596SOL    HW220688   3.300   6.528   4.589
 6597SOL     OW20689   1.297   5.611   1.470
 6597SOL    HW120690   1.372   5.618   1.535
 6597SOL    HW220691   1.273   5.514   1.457
 6598SOL     OW20692   1.306   5.798   4.559
 6598SOL    HW120693   1.329   5.705   4.586
 6598SOL    HW220694   1.281   5.799   4.462
 6599SOL     OW20695   4.276   6.246   6.309
 6599SOL    HW120696   4.222   6.320   6.347
 6599SOL    HW220697   4.233   6.212   6.225
 6600SOL     OW20698   4.379   5.569   5.376
 6600SOL    HW120699   4.284   5.552   5.400
 6600SOL    HW220700   4.391   5.665   5.350
 6601SOL     OW20701   1.645   2.189   4.854
 6601SOL    HW120702   1.563   2.136   4.874
 6601SOL    HW220703   1.726   2.131   4.860
 6602SOL     OW20704   1.514   1.115   2.313
 6602SOL    HW120705   1.507   1.116   2.213
 6602SOL    HW220706   1.531   1.208   2.346
 6603SOL     OW20707   6.939   2.514   3.670
 6603SOL    HW120708   6.867   2.523   3.600
 6603SOL    HW220709   6.961   2.418   3.683
 6604SOL     OW20710   1.604   0.268   0.515
 6604SOL    HW120711   1.514   0.228   0.494
 6604SOL    HW220712   1.628   0.248   0.610
 6605SOL     OW20713   5.277   5.136   1.438
 6605SOL    HW120714   5.350   5.192   1.479
 6605SOL    HW220715   5.298   5.120   1.342
 6606SOL     OW20716   0.544   5.620   2.189
 6606SOL    HW120717   0.475   5.673   2.238
 6606SOL    HW220718   0.591   5.559   2.253
 6607SOL     OW20719   2.007   3.702   2.454
 6607SOL    HW120720   2.015   3.637   2.378
 6607SOL    HW220721   2.065   3.781   2.437
 6608SOL     OW20722   6.264   6.113   1.053
 6608SOL    HW120723   6.334   6.045   1.076
 6608SOL    HW220724   6.303   6.181   0.991
 6609SOL     OW20725   5.030   0.992   6.128
 6609SOL    HW120726   5.104   1.051   6.161
 6609SOL    HW220727   5.004   1.020   6.036
 6610SOL     OW20728   2.525   6.346   6.860
 6610SOL    HW120729   2.486   6.258   6.833
 6610SOL    HW220730   2.564   6.391   6.779
 6611SOL     OW20731   4.821   2.581   3.880
 6611SOL    HW120732   4.833   2.613   3.786
 6611SOL    HW220733   4.789   2.657   3.937
 6612SOL     OW20734   6.199   2.013   6.003
 6612SOL    HW120735   6.276   1.999   6.066
 6612SOL    HW220736   6.211   1.955   5.923
 6613SOL     OW20737   6.133   6.567   4.850
 6613SOL    HW120738   6.176   6.620   4.923
 6613SOL    HW220739   6.041   6.539   4.878
 6614SOL     OW20740   4.327   5.616   0.233
 6614SOL    HW120741   4.417   5.641   0.266
 6614SOL    HW220742   4.335   5.557   0.153
 6615SOL     OW20743   1.778   5.909   1.311
 6615SOL    HW120744   1.797   5.975   1.383
 6615SOL    HW220745   1.731   5.954   1.235
 6616SOL     OW20746   5.238   0.702   6.172
 6616SOL    HW120747   5.212   0.753   6.090
 6616SOL    HW220748   5.209   0.607   6.163
 6617SOL     OW20749   4.655   5.210   3.969
 6617SOL    HW120750   4.590   5.222   3.895
 6617SOL    HW220751   4.660   5.113   3.994
 6618SOL     OW20752   1.172   2.666   2.042
 6618SOL    HW120753   1.188   2.683   1.945
 6618SOL    HW220754   1.235   2.595   2.074
 6619SOL     OW20755   5.675   0.637   4.186
 6619SOL    HW120756   5.748   0.642   4.253
 6619SOL    HW220757   5.599   0.584   4.223
 6620SOL     OW20758   1.814   2.535   5.635
 6620SOL    HW120759   1.838   2.629   5.661
 6620SOL    HW220760   1.894   2.491   5.594
 6621SOL     OW20761   3.553   3.259   5.888
 6621SOL    HW120762   3.545   3.160   5.898
 6621SOL    HW220763   3.498   3.305   5.957
 6622SOL     OW20764   5.780   6.389   1.939
 6622SOL    HW120765   5.706   6.454   1.926
 6622SOL    HW220766   5.837   6.388   1.856
 6623SOL     OW20767   3.535   2.874   4.915
 6623SOL    HW120768   3.492   2.861   5.005
 6623SOL    HW220769   3.610   2.808   4.905
 6624SOL     OW20770   0.368   4.528   6.103
 6624SOL    HW120771   0.393   4.604   6.162
 6624SOL    HW220772   0.449   4.473   6.083
 6625SOL     OW20773   5.164   1.429   5.102
 6625SOL    HW120774   5.177   1.337   5.138
 6625SOL    HW220775   5.251   1.478   5.104
 6626SOL     OW20776   3.806   5.467   5.160
 6626SOL    HW120777   3.887   5.507   5.202
 6626SOL    HW220778   3.818   5.369   5.149
 6627SOL     OW20779   1.991   6.601   5.173
 6627SOL    HW120780   1.993   6.552   5.260
 6627SOL    HW220781   1.909   6.575   5.122
 6628SOL     OW20782   5.255   4.914   4.587
 6628SOL    HW120783   5.338   4.934   4.639
 6628SOL    HW220784   5.182   4.975   4.616
 6629SOL     OW20785   4.596   5.981   6.790
 6629SOL    HW120786   4.499   5.974   6.811
 6629SOL    HW220787   4.650   5.952   6.869
 6630SOL     OW20788   3.974   1.895   1.127
 6630SOL    HW120789   3.877   1.875   1.141
 6630SOL    HW220790   4.028   1.812   1.142
 6631SOL     OW20791   2.429   5.177   3.580
 6631SOL    HW120792   2.360   5.249   3.569
 6631SOL    HW220793   2.501   5.209   3.641
 6632SOL     OW20794   0.133   0.433   1.086
 6632SOL    HW120795   0.062   0.493   1.122
 6632SOL    HW220796   0.120   0.340   1.121
 6633SOL     OW20797   1.662   4.437   6.739
 6633SOL    HW120798   1.709   4.406   6.822
 6633SOL    HW220799   1.632   4.532   6.752
 6634SOL     OW20800   5.330   2.269   5.028
 6634SOL    HW120801   5.362   2.231   5.114
 6634SOL    HW220802   5.405   2.321   4.984
 6635SOL     OW20803   4.921   4.856   3.139
 6635SOL    HW120804   4.917   4.812   3.229
 6635SOL    HW220805   4.840   4.831   3.086
 6636SOL     OW20806   4.369   1.810   6.201
 6636SOL    HW120807   4.407   1.843   6.287
 6636SOL    HW220808   4.427   1.841   6.125
 6637SOL     OW20809   1.186   6.981   6.622
 6637SOL    HW120810   1.233   6.952   6.705
 6637SOL    HW220811   1.099   0.001   6.645
 6638SOL     OW20812   2.985   3.831   3.050
 6638SOL    HW120813   3.020   3.894   2.981
 6638SOL    HW220814   2.974   3.740   3.010
 6639SOL     OW20815   4.970   5.129   6.451
 6639SOL    HW120816   4.975   5.057   6.519
 6639SOL    HW220817   4.960   5.089   6.360
 6640SOL     OW20818   0.727   1.867   5.102
 6640SOL    HW120819   0.738   1.965   5.087
 6640SOL    HW220820   0.786   1.837   5.176
 6641SOL     OW20821   2.708   1.122   5.917
 6641SOL    HW120822   2.756   1.059   5.856
 6641SOL    HW220823   2.743   1.215   5.902
 6642SOL     OW20824   1.929   5.725   6.711
 6642SOL    HW120825   1.846   5.694   6.665
 6642SOL    HW220826   1.905   5.770   6.797
 6643SOL     OW20827   6.097   5.377   0.500
 6643SOL    HW120828   6.157   5.450   0.535
 6643SOL    HW220829   6.036   5.347   0.573
 6644SOL     OW20830   2.606   5.814   1.267
 6644SOL    HW120831   2.507   5.802   1.257
 6644SOL    HW220832   2.638   5.763   1.347
 6645SOL     OW20833   6.163   4.484   0.349
 6645SOL    HW120834   6.164   4.574   0.305
 6645SOL    HW220835   6.217   4.488   0.434
 6646SOL     OW20836   3.679   0.468   4.779
 6646SOL    HW120837   3.669   0.500   4.873
 6646SOL    HW220838   3.671   0.368   4.776
 6647SOL     OW20839   4.968   1.006   0.902
 6647SOL    HW120840   5.061   0.980   0.931
 6647SOL    HW220841   4.931   1.072   0.967
 6648SOL     OW20842   3.577   6.246   3.783
 6648SOL    HW120843   3.526   6.269   3.866
 6648SOL    HW220844   3.584   6.147   3.775
 6649SOL     OW20845   5.495   1.284   6.817
 6649SOL    HW120846   5.434   1.346   6.867
 6649SOL    HW220847   5.476   1.290   6.719
 6650SOL     OW20848   3.487   1.191   5.724
 6650SOL    HW120849   3.553   1.138   5.670
 6650SOL    HW220850   3.429   1.244   5.662
 6651SOL     OW20851   2.747   0.870   5.781
 6651SOL    HW120852   2.779   0.793   5.836
 6651SOL    HW220853   2.657   0.849   5.743
 6652SOL     OW20854   0.686   4.158   0.738
 6652SOL    HW120855   0.623   4.084   0.760
 6652SOL    HW220856   0.635   4.244   0.729
 6653SOL     OW20857   3.785   3.665   1.852
 6653SOL    HW120858   3.861   3.632   1.796
 6653SOL    HW220859   3.723   3.718   1.795
 6654SOL     OW20860   1.084   4.988   1.278
 6654SOL    HW120861   1.006   5.033   1.233
 6654SOL    HW220862   1.159   5.053   1.285
 6655SOL     OW20863   1.151   0.292   3.976
 6655SOL    HW120864   1.073   0.296   4.039
 6655SOL    HW220865   1.196   0.203   3.985
 6656SOL     OW20866   4.990   2.093   4.000
 6656SOL    HW120867   5.045   2.075   4.081
 6656SOL    HW220868   4.991   2.012   3.941
 6657SOL     OW20869   6.445   4.660   6.475
 6657SOL    HW120870   6.416   4.573   6.435
 6657SOL    HW220871   6.450   4.651   6.574
 6658SOL     OW20872   6.420   0.849   4.519
 6658SOL    HW120873   6.390   0.893   4.604
 6658SOL    HW220874   6.507   0.803   4.535
 6659SOL     OW20875   1.916   3.442   0.310
 6659SOL    HW120876   1.905   3.534   0.273
 6659SOL    HW220877   1.853   3.380   0.263
 6660SOL     OW20878   1.123   5.363   1.381
 6660SOL    HW120879   1.034   5.320   1.391
 6660SOL    HW220880   1.153   5.356   1.285
 6661SOL     OW20881   1.071   6.753   4.984
 6661SOL    HW120882   1.097   6.823   5.050
 6661SOL    HW220883   1.036   6.673   5.033
 6662SOL     OW20884   1.341   0.044   0.095
 6662SOL    HW120885   1.275   0.001   0.033
 6662SOL    HW220886   1.434   0.029   0.060
 6663SOL     OW20887   6.150   5.373   4.416
 6663SOL    HW120888   6.185   5.282   4.392
 6663SOL    HW220889   6.204   5.411   4.491
 6664SOL     OW20890   2.311   6.982   0.404
 6664SOL    HW120891   2.279   0.040   0.353
 6664SOL    HW220892   2.410   6.976   0.398
 6665SOL     OW20893   1.858   5.706   4.685
 6665SOL    HW120894   1.839   5.667   4.775
 6665SOL    HW220895   1.943   5.759   4.688
 6666SOL     OW20896   6.625   6.582   5.949
 6666SOL    HW120897   6.681   6.664   5.960
 6666SOL    HW220898   6.547   6.602   5.890
 6667SOL     OW20899   6.902   6.210   6.659
 6667SOL    HW120900   6.827   6.206   6.592
 6667SOL    HW220901   6.876   6.269   6.735
 6668SOL     OW20902   6.515   5.226   0.587
 6668SOL    HW120903   6.538   5.145   0.642
 6668SOL    HW220904   6.579   5.234   0.511
 6669SOL     OW20905   1.625   2.330   3.002
 6669SOL    HW120906   1.612   2.260   3.072
 6669SOL    HW220907   1.614   2.421   3.044
 6670SOL     OW20908   3.690   1.165   5.525
 6670SOL    HW120909   3.637   1.081   5.521
 6670SOL    HW220910   3.643   1.238   5.474
 6671SOL     OW20911   4.935   6.563   0.761
 6671SOL    HW120912   4.904   6.589   0.669
 6671SOL    HW220913   4.973   6.471   0.758
 6672SOL     OW20914   6.444   2.547   6.907
 6672SOL    HW120915   6.378   2.482   6.944
 6672SOL    HW220916   6.396   2.628   6.874
 6673SOL     OW20917   4.896   4.423   4.616
 6673SOL    HW120918   4.910   4.473   4.701
 6673SOL    HW220919   4.803   4.438   4.582
 6674SOL     OW20920   0.544   3.691   6.619
 6674SOL    HW120921   0.474   3.666   6.686
 6674SOL    HW220922   0.504   3.688   6.527
 6675SOL     OW20923   5.369   3.625   0.712
 6675SOL    HW120924   5.400   3.693   0.645
 6675SOL    HW220925   5.270   3.615   0.705
 6676SOL     OW20926   1.066   4.314   5.760
 6676SOL    HW120927   1.029   4.343   5.672
 6676SOL    HW220928   1.056   4.388   5.827
 6677SOL     OW20929   1.607   1.876   5.927
 6677SOL    HW120930   1.635   1.923   5.844
 6677SOL    HW220931   1.606   1.941   6.003
 6678SOL     OW20932   3.442   3.269   6.389
 6678SOL    HW120933   3.371   3.309   6.446
 6678SOL    HW220934   3.406   3.187   6.345
 6679SOL     OW20935   3.306   1.172   3.954
 6679SOL    HW120936   3.313   1.271   3.946
 6679SOL    HW220937   3.397   1.132   3.960
 6680SOL     OW20938   5.254   6.961   6.809
 6680SOL    HW120939   5.250   6.963   6.709
 6680SOL    HW220940   5.348   6.977   6.838
 6681SOL     OW20941   3.606   5.719   1.609
 6681SOL    HW120942   3.624   5.703   1.706
 6681SOL    HW220943   3.576   5.813   1.595
 6682SOL     OW20944   1.090   4.433   2.162
 6682SOL    HW120945   1.176   4.484   2.158
 6682SOL    HW220946   1.018   4.486   2.118
 6683SOL     OW20947   6.092   3.523   5.277
 6683SOL    HW120948   6.190   3.537   5.293
 6683SOL    HW220949   6.075   3.517   5.179
 6684SOL     OW20950   2.861   0.162   1.235
 6684SOL    HW120951   2.817   0.245   1.269
 6684SOL    HW220952   2.799   0.084   1.249
 6685SOL     OW20953   6.423   2.893   5.418
 6685SOL    HW120954   6.434   2.797   5.441
 6685SOL    HW220955   6.364   2.938   5.485
 6686SOL     OW20956   4.992   6.242   4.340
 6686SOL    HW120957   5.035   6.320   4.294
 6686SOL    HW220958   4.998   6.256   4.439
 6687SOL     OW20959   1.159   3.303   0.824
 6687SOL    HW120960   1.205   3.238   0.885
 6687SOL    HW220961   1.075   3.335   0.867
 6688SOL     OW20962   5.879   4.612   2.541
 6688SOL    HW120963   5.820   4.693   2.545
 6688SOL    HW220964   5.863   4.555   2.621
 6689SOL     OW20965   4.136   3.054   7.011
 6689SOL    HW120966   4.213   3.114   6.989
 6689SOL    HW220967   4.137   2.975   6.950
 6690SOL     OW20968   0.841   1.114   0.583
 6690SOL    HW120969   0.921   1.159   0.543
 6690SOL    HW220970   0.819   1.156   0.670
 6691SOL     OW20971   2.606   6.399   2.250
 6691SOL    HW120972   2.679   6.353   2.200
 6691SOL    HW220973   2.554   6.458   2.188
 6692SOL     OW20974   3.374   3.006   4.448
 6692SOL    HW120975   3.434   2.961   4.514
 6692SOL    HW220976   3.284   3.022   4.490
 6693SOL     OW20977   4.120   3.270   5.576
 6693SOL    HW120978   4.105   3.359   5.533
 6693SOL    HW220979   4.217   3.246   5.571
 6694SOL     OW20980   4.010   5.775   1.138
 6694SOL    HW120981   3.961   5.797   1.222
 6694SOL    HW220982   3.971   5.827   1.062
 6695SOL     OW20983   2.880   1.819   0.258
 6695SOL    HW120984   2.790   1.845   0.292
 6695SOL    HW220985   2.934   1.901   0.239
 6696SOL     OW20986   2.943   2.936   5.700
 6696SOL    HW120987   2.986   2.989   5.627
 6696SOL    HW220988   2.900   2.854   5.660
 6697SOL     OW20989   4.984   1.952   2.950
 6697SOL    HW120990   5.063   1.991   2.902
 6697SOL    HW220991   4.934   1.892   2.888
 6698SOL     OW20992   2.883   2.347   1.112
 6698SOL    HW120993   2.982   2.344   1.127
 6698SOL    HW220994   2.863   2.313   1.020
 6699SOL     OW20995   2.401   5.800   5.372
 6699SOL    HW120996   2.392   5.794   5.273
 6699SOL    HW220997   2.341   5.873   5.406
 6700SOL     OW20998   1.120   0.404   1.464
 6700SOL    HW120999   1.137   0.503   1.457
 6700SOL    HW221000   1.023   0.386   1.452
 6701SOL     OW21001   5.668   4.586   2.341
 6701SOL    HW121002   5.707   4.588   2.433
 6701SOL    HW221003   5.657   4.492   2.311
 6702SOL     OW21004   3.269   2.349   1.677
 6702SOL    HW121005   3.270   2.308   1.768
 6702SOL    HW221006   3.285   2.279   1.608
 6703SOL     OW21007   6.677   1.715   0.129
 6703SOL    HW121008   6.696   1.635   0.186
 6703SOL    HW221009   6.711   1.797   0.175
 6704SOL     OW21010   3.373   1.522   3.402
 6704SOL    HW121011   3.439   1.460   3.359
 6704SOL    HW221012   3.339   1.481   3.486
 6705SOL     OW21013   6.571   3.609   1.821
 6705SOL    HW121014   6.498   3.623   1.754
 6705SOL    HW221015   6.546   3.536   1.884
 6706SOL     OW21016   1.794   4.683   2.400
 6706SOL    HW121017   1.755   4.602   2.357
 6706SOL    HW221018   1.848   4.734   2.333
 6707SOL     OW21019   6.612   6.342   3.716
 6707SOL    HW121020   6.695   6.330   3.772
 6707SOL    HW221021   6.590   6.255   3.670
 6708SOL     OW21022   6.746   5.020   1.052
 6708SOL    HW121023   6.802   5.058   0.978
 6708SOL    HW221024   6.787   5.042   1.140
 6709SOL     OW21025   2.741   6.387   2.971
 6709SOL    HW121026   2.689   6.470   2.952
 6709SOL    HW221027   2.721   6.318   2.902
 6710SOL     OW21028   3.565   0.385   6.426
 6710SOL    HW121029   3.548   0.314   6.358
 6710SOL    HW221030   3.493   0.454   6.421
 6711SOL     OW21031   4.491   5.546   5.979
 6711SOL    HW121032   4.410   5.512   5.930
 6711SOL    HW221033   4.573   5.504   5.942
 6712SOL     OW21034   5.155   4.158   0.531
 6712SOL    HW121035   5.179   4.073   0.578
 6712SOL    HW221036   5.076   4.142   0.472
 6713SOL     OW21037   2.178   0.457   2.431
 6713SOL    HW121038   2.123   0.459   2.347
 6713SOL    HW221039   2.147   0.529   2.493
 6714SOL     OW21040   6.606   0.499   5.858
 6714SOL    HW121041   6.624   0.401   5.855
 6714SOL    HW221042   6.665   0.546   5.792
 6715SOL     OW21043   0.721   0.303   6.970
 6715SOL    HW121044   0.671   0.363   6.908
 6715SOL    HW221045   0.816   0.296   6.940
 6716SOL     OW21046   0.304   5.878   2.064
 6716SOL    HW121047   0.258   5.853   1.979
 6716SOL    HW221048   0.365   5.956   2.048
 6717SOL     OW21049   3.818   3.061   6.279
 6717SOL    HW121050   3.903   3.065   6.332
 6717SOL    HW221051   3.755   3.131   6.312
 6718SOL     OW21052   5.838   0.674   0.460
 6718SOL    HW121053   5.822   0.770   0.481
 6718SOL    HW221054   5.752   0.631   0.432
 6719SOL     OW21055   2.322   6.819   6.484
 6719SOL    HW121056   2.273   6.896   6.525
 6719SOL    HW221057   2.409   6.851   6.448
 6720SOL     OW21058   1.327   0.206   4.243
 6720SOL    HW121059   1.409   0.251   4.207
 6720SOL    HW221060   1.332   0.203   4.343
 6721SOL     OW21061   6.797   0.367   0.453
 6721SOL    HW121062   6.859   0.348   0.529
 6721SOL    HW221063   6.836   0.439   0.396
 6722SOL     OW21064   6.395   2.737   2.178
 6722SOL    HW121065   6.387   2.812   2.243
 6722SOL    HW221066   6.477   2.750   2.122
 6723SOL     OW21067   2.355   6.287   2.902
 6723SOL    HW121068   2.314   6.290   2.993
 6723SOL    HW221069   2.454   6.292   2.910
 6724SOL     OW21070   2.186   3.463   6.353
 6724SOL    HW121071   2.135   3.377   6.362
 6724SOL    HW221072   2.283   3.444   6.343
 6725SOL     OW21073   6.840   3.254   1.631
 6725SOL    HW121074   6.849   3.317   1.554
 6725SOL    HW221075   6.743   3.239   1.650
 6726SOL     OW21076   0.431   2.271   5.802
 6726SOL    HW121077   0.505   2.206   5.819
 6726SOL    HW221078   0.348   2.240   5.848
 6727SOL     OW21079   0.085   4.234   5.018
 6727SOL    HW121080   0.019   4.194   5.081
 6727SOL    HW221081   0.171   4.182   5.022
 6728SOL     OW21082   3.594   2.093   3.018
 6728SOL    HW121083   3.636   2.132   2.937
 6728SOL    HW221084   3.639   2.006   3.041
 6729SOL     OW21085   0.166   1.245   3.114
 6729SOL    HW121086   0.208   1.296   3.190
 6729SOL    HW221087   0.071   1.275   3.103
 6730SOL     OW21088   1.930   6.849   1.088
 6730SOL    HW121089   1.863   6.830   1.016
 6730SOL    HW221090   1.884   6.883   1.169
 6731SOL     OW21091   0.820   6.274   0.995
 6731SOL    HW121092   0.877   6.318   0.925
 6731SOL    HW221093   0.868   6.195   1.034
 6732SOL     OW21094   5.483   4.657   4.735
 6732SOL    HW121095   5.495   4.639   4.832
 6732SOL    HW221096   5.414   4.595   4.697
 6733SOL     OW21097   4.009   5.774   6.997
 6733SOL    HW121098   3.919   5.796   6.961
 6733SOL    HW221099   4.033   5.680   6.972
 6734SOL     OW21100   6.257   2.585   4.238
 6734SOL    HW121101   6.229   2.531   4.159
 6734SOL    HW221102   6.204   2.670   4.241
 6735SOL     OW21103   6.658   4.452   5.258
 6735SOL    HW121104   6.616   4.361   5.268
 6735SOL    HW221105   6.620   4.514   5.327
 6736SOL     OW21106   2.920   3.921   0.443
 6736SOL    HW121107   2.861   3.864   0.500
 6736SOL    HW221108   3.015   3.911   0.473
 6737SOL     OW21109   1.533   2.631   0.578
 6737SOL    HW121110   1.513   2.599   0.485
 6737SOL    HW221111   1.447   2.654   0.624
 6738SOL     OW21112   1.948   6.025   3.177
 6738SOL    HW121113   1.985   5.945   3.224
 6738SOL    HW221114   1.869   5.998   3.122
 6739SOL     OW21115   3.482   5.744   5.288
 6739SOL    HW121116   3.418   5.803   5.338
 6739SOL    HW221117   3.442   5.653   5.278
 6740SOL     OW21118   1.304   0.187   4.518
 6740SOL    HW121119   1.353   0.152   4.599
 6740SOL    HW221120   1.227   0.243   4.548
 6741SOL     OW21121   3.909   1.525   5.531
 6741SOL    HW121122   3.930   1.451   5.595
 6741SOL    HW221123   3.815   1.556   5.546
 6742SOL     OW21124   5.891   6.173   2.558
 6742SOL    HW121125   5.887   6.270   2.534
 6742SOL    HW221126   5.837   6.156   2.639
 6743SOL     OW21127   3.493   5.889   0.168
 6743SOL    HW121128   3.413   5.849   0.212
 6743SOL    HW221129   3.571   5.826   0.177
 6744SOL     OW21130   5.686   3.965   5.755
 6744SOL    HW121131   5.778   3.975   5.793
 6744SOL    HW221132   5.693   3.924   5.663
 6745SOL     OW21133   6.828   0.077   2.986
 6745SOL    HW121134   6.915   0.033   2.962
 6745SOL    HW221135   6.752   0.019   2.957
 6746SOL     OW21136   0.799   1.638   4.166
 6746SOL    HW121137   0.710   1.656   4.209
 6746SOL    HW221138   0.802   1.544   4.132
 6747SOL     OW21139   5.603   1.287   5.035
 6747SOL    HW121140   5.515   1.246   5.058
 6747SOL    HW221141   5.653   1.309   5.118
 6748SOL     OW21142   2.366   1.087   3.683
 6748SOL    HW121143   2.459   1.080   3.718
 6748SOL    HW221144   2.322   0.998   3.687
 6749SOL     OW21145   2.737   5.641   0.627
 6749SOL    HW121146   2.837   5.642   0.625
 6749SOL    HW221147   2.706   5.594   0.709
 6750SOL     OW21148   3.968   2.109   4.832
 6750SOL    HW121149   3.966   2.089   4.734
 6750SOL    HW221150   4.057   2.148   4.856
 6751SOL     OW21151   4.255   0.034   3.508
 6751SOL    HW121152   4.349   0.069   3.503
 6751SOL    HW221153   4.200   0.075   3.436
 6752SOL     OW21154   0.793   1.622   3.091
 6752SOL    HW121155   0.707   1.664   3.119
 6752SOL    HW221156   0.782   1.578   3.002
 6753SOL     OW21157   3.136   0.367   6.501
 6753SOL    HW121158   3.219   0.417   6.474
 6753SOL    HW221159   3.153   0.317   6.586
 6754SOL     OW21160   0.523   1.820   0.383
 6754SOL    HW121161   0.530   1.915   0.415
 6754SOL    HW221162   0.605   1.797   0.330
 6755SOL     OW21163   4.383   0.595   3.233
 6755SOL    HW121164   4.367   0.642   3.320
 6755SOL    HW221165   4.421   0.660   3.167
 6756SOL     OW21166   3.925   4.760   5.272
 6756SOL    HW121167   3.838   4.775   5.225
 6756SOL    HW221168   3.910   4.759   5.370
 6757SOL     OW21169   4.667   1.926   1.239
 6757SOL    HW121170   4.579   1.910   1.285
 6757SOL    HW221171   4.652   1.938   1.141
 6758SOL     OW21172   6.498   2.141   1.919
 6758SOL    HW121173   6.538   2.050   1.932
 6758SOL    HW221174   6.416   2.133   1.862
 6759SOL     OW21175   0.908   4.406   4.682
 6759SOL    HW121176   0.850   4.328   4.661
 6759SOL    HW221177   1.002   4.374   4.699
 6760SOL     OW21178   6.449   4.092   2.494
 6760SOL    HW121179   6.358   4.092   2.452
 6760SOL    HW221180   6.502   4.170   2.460
 6761SOL     OW21181   6.318   2.343   6.137
 6761SOL    HW121182   6.370   2.259   6.125
 6761SOL    HW221183   6.335   2.380   6.229
 6762SOL     OW21184   0.770   5.672   4.065
 6762SOL    HW121185   0.714   5.707   3.990
 6762SOL    HW221186   0.716   5.670   4.149
 6763SOL     OW21187   1.123   5.115   2.662
 6763SOL    HW121188   1.091   5.202   2.699
 6763SOL    HW221189   1.168   5.131   2.574
 6764SOL     OW21190   1.940   4.905   0.399
 6764SOL    HW121191   1.869   4.943   0.460
 6764SOL    HW221192   1.993   4.980   0.360
 6765SOL     OW21193   5.636   4.087   3.559
 6765SOL    HW121194   5.562   4.097   3.626
 6765SOL    HW221195   5.612   4.139   3.476
 6766SOL     OW21196   5.030   6.724   6.300
 6766SOL    HW121197   5.033   6.819   6.332
 6766SOL    HW221198   5.036   6.662   6.379
 6767SOL     OW21199   1.462   2.623   1.108
 6767SOL    HW121200   1.439   2.527   1.126
 6767SOL    HW221201   1.517   2.629   1.025
 6768SOL     OW21202   1.354   6.554   3.926
 6768SOL    HW121203   1.390   6.522   3.838
 6768SOL    HW221204   1.420   6.614   3.969
 6769SOL     OW21205   2.652   0.493   5.097
 6769SOL    HW121206   2.708   0.560   5.048
 6769SOL    HW221207   2.696   0.403   5.091
 6770SOL     OW21208   4.904   2.106   3.597
 6770SOL    HW121209   4.994   2.149   3.608
 6770SOL    HW221210   4.916   2.009   3.578
 6771SOL     OW21211   4.080   1.255   2.408
 6771SOL    HW121212   4.105   1.312   2.330
 6771SOL    HW221213   4.048   1.313   2.483
 6772SOL     OW21214   4.590   2.580   2.442
 6772SOL    HW121215   4.590   2.679   2.428
 6772SOL    HW221216   4.547   2.559   2.530
 6773SOL     OW21217   0.797   6.464   2.103
 6773SOL    HW121218   0.752   6.385   2.145
 6773SOL    HW221219   0.801   6.452   2.004
 6774SOL     OW21220   2.120   3.494   4.848
 6774SOL    HW121221   2.196   3.470   4.909
 6774SOL    HW221222   2.134   3.586   4.811
 6775SOL     OW21223   1.378   2.543   3.259
 6775SOL    HW121224   1.393   2.543   3.358
 6775SOL    HW221225   1.290   2.501   3.239
 6776SOL     OW21226   4.438   3.346   0.475
 6776SOL    HW121227   4.496   3.400   0.415
 6776SOL    HW221228   4.345   3.341   0.436
 6777SOL     OW21229   4.914   5.054   1.050
 6777SOL    HW121230   5.011   5.046   1.029
 6777SOL    HW221231   4.880   5.142   1.016
 6778SOL     OW21232   6.872   5.183   1.800
 6778SOL    HW121233   6.839   5.099   1.756
 6778SOL    HW221234   6.942   5.160   1.867
 6779SOL     OW21235   5.742   4.619   6.169
 6779SOL    HW121236   5.689   4.680   6.110
 6779SOL    HW221237   5.832   4.603   6.128
 6780SOL     OW21238   1.325   2.687   2.840
 6780SOL    HW121239   1.338   2.588   2.828
 6780SOL    HW221240   1.347   2.712   2.934
 6781SOL     OW21241   6.314   1.273   4.921
 6781SOL    HW121242   6.275   1.282   5.013
 6781SOL    HW221243   6.240   1.267   4.854
 6782SOL     OW21244   0.955   1.439   3.225
 6782SOL    HW121245   0.925   1.511   3.163
 6782SOL    HW221246   1.003   1.480   3.303
 6783SOL     OW21247   0.974   1.678   5.896
 6783SOL    HW121248   0.919   1.760   5.915
 6783SOL    HW221249   0.915   1.597   5.900
 6784SOL     OW21250   2.113   3.860   0.917
 6784SOL    HW121251   2.173   3.805   0.860
 6784SOL    HW221252   2.048   3.909   0.860
 6785SOL     OW21253   6.010   5.306   5.193
 6785SOL    HW121254   5.927   5.260   5.224
 6785SOL    HW221255   6.062   5.245   5.133
 6786SOL     OW21256   1.079   2.344   0.486
 6786SOL    HW121257   1.107   2.270   0.546
 6786SOL    HW221258   1.156   2.372   0.428
 6787SOL     OW21259   3.634   3.700   0.389
 6787SOL    HW121260   3.697   3.777   0.377
 6787SOL    HW221261   3.602   3.668   0.300
 6788SOL     OW21262   0.888   4.617   2.034
 6788SOL    HW121263   0.846   4.630   2.124
 6788SOL    HW221264   0.950   4.694   2.015
 6789SOL     OW21265   0.565   4.574   3.909
 6789SOL    HW121266   0.508   4.509   3.959
 6789SOL    HW221267   0.627   4.523   3.849
 6790SOL     OW21268   0.507   3.530   0.077
 6790SOL    HW121269   0.504   3.431   0.062
 6790SOL    HW221270   0.575   3.551   0.147
 6791SOL     OW21271   3.732   2.072   2.306
 6791SOL    HW121272   3.697   2.107   2.219
 6791SOL    HW221273   3.659   2.024   2.354
 6792SOL     OW21274   5.031   6.841   5.144
 6792SOL    HW121275   5.067   6.800   5.060
 6792SOL    HW221276   5.096   6.908   5.179
 6793SOL     OW21277   2.380   1.032   6.521
 6793SOL    HW121278   2.478   1.021   6.502
 6793SOL    HW221279   2.349   0.959   6.582
 6794SOL     OW21280   5.711   1.417   5.308
 6794SOL    HW121281   5.653   1.498   5.313
 6794SOL    HW221282   5.795   1.439   5.258
 6795SOL     OW21283   0.990   6.211   1.442
 6795SOL    HW121284   0.994   6.220   1.342
 6795SOL    HW221285   1.064   6.264   1.483
 6796SOL     OW21286   6.424   1.040   3.143
 6796SOL    HW121287   6.437   0.943   3.163
 6796SOL    HW221288   6.358   1.079   3.208
 6797SOL     OW21289   0.102   2.189   1.827
 6797SOL    HW121290   0.032   2.252   1.860
 6797SOL    HW221291   0.067   2.095   1.828
 6798SOL     OW21292   6.193   6.472   1.594
 6798SOL    HW121293   6.126   6.409   1.634
 6798SOL    HW221294   6.175   6.481   1.496
 6799SOL     OW21295   6.081   0.933   2.079
 6799SOL    HW121296   6.094   0.874   1.999
 6799SOL    HW221297   6.084   0.878   2.162
 6800SOL     OW21298   2.334   2.685   2.224
 6800SOL    HW121299   2.364   2.779   2.240
 6800SOL    HW221300   2.236   2.685   2.202
 6801SOL     OW21301   1.360   0.705   3.418
 6801SOL    HW121302   1.363   0.649   3.500
 6801SOL    HW221303   1.309   0.789   3.437
 6802SOL     OW21304   2.967   5.625   1.520
 6802SOL    HW121305   2.967   5.582   1.610
 6802SOL    HW221306   3.040   5.586   1.464
 6803SOL     OW21307   4.025   4.006   6.494
 6803SOL    HW121308   4.077   3.921   6.496
 6803SOL    HW221309   3.957   4.002   6.421
 6804SOL     OW21310   4.094   5.098   3.403
 6804SOL    HW121311   4.086   5.063   3.310
 6804SOL    HW221312   4.068   5.027   3.468
 6805SOL     OW21313   0.614   4.687   6.386
 6805SOL    HW121314   0.713   4.688   6.368
 6805SOL    HW221315   0.580   4.593   6.378
 6806SOL     OW21316   6.526   1.497   3.410
 6806SOL    HW121317   6.430   1.468   3.406
 6806SOL    HW221318   6.564   1.474   3.499
 6807SOL     OW21319   3.448   3.108   1.662
 6807SOL    HW121320   3.452   3.107   1.762
 6807SOL    HW221321   3.435   3.014   1.628
 6808SOL     OW21322   6.666   1.913   5.937
 6808SOL    HW121323   6.652   1.869   5.849
 6808SOL    HW221324   6.710   2.002   5.923
 6809SOL     OW21325   6.895   3.413   1.376
 6809SOL    HW121326   6.822   3.474   1.346
 6809SOL    HW221327   6.981   3.464   1.383
 6810SOL     OW21328   3.316   1.407   2.283
 6810SOL    HW121329   3.353   1.395   2.375
 6810SOL    HW221330   3.258   1.488   2.281
 6811SOL     OW21331   5.947   3.726   1.944
 6811SOL    HW121332   5.988   3.752   2.031
 6811SOL    HW221333   6.015   3.679   1.888
 6812SOL     OW21334   3.112   4.067   5.134
 6812SOL    HW121335   3.036   4.003   5.142
 6812SOL    HW221336   3.086   4.143   5.074
 6813SOL     OW21337   5.633   3.160   2.489
 6813SOL    HW121338   5.553   3.219   2.499
 6813SOL    HW221339   5.711   3.215   2.458
 6814SOL     OW21340   3.980   2.074   6.084
 6814SOL    HW121341   4.072   2.098   6.115
 6814SOL    HW221342   3.943   2.002   6.144
 6815SOL     OW21343   2.207   6.123   0.067
 6815SOL    HW121344   2.247   6.186   0.000
 6815SOL    HW221345   2.124   6.163   0.106
 6816SOL     OW21346   6.709   0.861   5.741
 6816SOL    HW121347   6.736   0.956   5.759
 6816SOL    HW221348   6.610   0.851   5.758
 6817SOL     OW21349   2.231   2.579   3.720
 6817SOL    HW121350   2.214   2.601   3.816
 6817SOL    HW221351   2.285   2.652   3.679
 6818SOL     OW21352   2.182   6.572   0.599
 6818SOL    HW121353   2.198   6.516   0.681
 6818SOL    HW221354   2.085   6.594   0.592
 6819SOL     OW21355   4.175   1.386   2.894
 6819SOL    HW121356   4.126   1.410   2.978
 6819SOL    HW221357   4.109   1.375   2.820
 6820SOL     OW21358   1.930   6.130   1.573
 6820SOL    HW121359   1.936   6.146   1.671
 6820SOL    HW221360   1.998   6.186   1.526
 6821SOL     OW21361   3.954   2.399   5.321
 6821SOL    HW121362   3.996   2.464   5.258
 6821SOL    HW221363   3.866   2.435   5.353
 6822SOL     OW21364   5.968   2.102   5.607
 6822SOL    HW121365   5.927   2.133   5.692
 6822SOL    HW221366   5.911   2.130   5.529
 6823SOL     OW21367   5.488   3.636   5.750
 6823SOL    HW121368   5.544   3.660   5.670
 6823SOL    HW221369   5.479   3.716   5.809
 6824SOL     OW21370   0.899   1.747   0.525
 6824SOL    HW121371   0.936   1.824   0.472
 6824SOL    HW221372   0.882   1.777   0.619
 6825SOL     OW21373   5.791   0.313   7.019
 6825SOL    HW121374   5.694   0.336   0.003
 6825SOL    HW221375   5.844   0.394   6.995
 6826SOL     OW21376   1.816   3.615   3.674
 6826SOL    HW121377   1.735   3.579   3.626
 6826SOL    HW221378   1.880   3.651   3.606
 6827SOL     OW21379   4.935   5.022   6.188
 6827SOL    HW121380   4.939   5.006   6.090
 6827SOL    HW221381   5.004   4.965   6.234
 6828SOL     OW21382   3.730   1.678   1.581
 6828SOL    HW121383   3.767   1.769   1.601
 6828SOL    HW221384   3.652   1.686   1.519
 6829SOL     OW21385   5.576   6.251   5.887
 6829SOL    HW121386   5.487   6.206   5.897
 6829SOL    HW221387   5.577   6.334   5.943
 6830SOL     OW21388   5.661   0.535   3.444
 6830SOL    HW121389   5.623   0.518   3.352
 6830SOL    HW221390   5.752   0.576   3.435
 6831SOL     OW21391   1.811   1.237   6.253
 6831SOL    HW121392   1.892   1.183   6.278
 6831SOL    HW221393   1.834   1.297   6.176
 6832SOL     OW21394   2.365   4.414   0.754
 6832SOL    HW121395   2.293   4.349   0.728
 6832SOL    HW221396   2.372   4.485   0.684
 6833SOL     OW21397   2.596   4.654   0.121
 6833SOL    HW121398   2.634   4.736   0.079
 6833SOL    HW221399   2.505   4.674   0.158
 6834SOL     OW21400   6.283   0.211   0.545
 6834SOL    HW121401   6.316   0.166   0.628
 6834SOL    HW221402   6.194   0.173   0.519
 6835SOL     OW21403   3.727   1.183   4.572
 6835SOL    HW121404   3.712   1.110   4.638
 6835SOL    HW221405   3.809   1.164   4.519
 6836SOL     OW21406   3.519   4.868   0.001
 6836SOL    HW121407   3.491   4.937   0.068
 6836SOL    HW221408   3.439   4.814   6.996
 6837SOL     OW21409   0.685   2.498   3.108
 6837SOL    HW121410   0.721   2.480   3.200
 6837SOL    HW221411   0.694   2.416   3.052
 6838SOL     OW21412   3.209   6.110   6.361
 6838SOL    HW121413   3.117   6.071   6.355
 6838SOL    HW221414   3.217   6.185   6.296
 6839SOL     OW21415   5.427   0.765   5.417
 6839SOL    HW121416   5.495   0.797   5.484
 6839SOL    HW221417   5.456   0.676   5.381
 6840SOL     OW21418   3.353   6.827   4.747
 6840SOL    HW121419   3.297   6.770   4.686
 6840SOL    HW221420   3.300   6.851   4.828
 6841SOL     OW21421   3.950   4.938   0.326
 6841SOL    HW121422   3.951   4.989   0.240
 6841SOL    HW221423   3.946   4.840   0.306
 6842SOL     OW21424   2.294   3.150   1.010
 6842SOL    HW121425   2.353   3.069   1.014
 6842SOL    HW221426   2.219   3.140   1.075
 6843SOL     OW21427   5.651   0.305   1.834
 6843SOL    HW121428   5.668   0.396   1.871
 6843SOL    HW221429   5.585   0.311   1.759
 6844SOL     OW21430   5.934   6.947   3.736
 6844SOL    HW121431   5.837   6.921   3.737
 6844SOL    HW221432   5.961   6.971   3.643
 6845SOL     OW21433   5.884   5.338   2.942
 6845SOL    HW121434   5.933   5.269   2.889
 6845SOL    HW221435   5.836   5.400   2.879
 6846SOL     OW21436   4.317   3.183   1.006
 6846SOL    HW121437   4.414   3.166   0.988
 6846SOL    HW221438   4.267   3.183   0.919
 6847SOL     OW21439   6.893   5.052   3.132
 6847SOL    HW121440   6.987   5.084   3.122
 6847SOL    HW221441   6.880   5.016   3.224
 6848SOL     OW21442   3.441   6.341   3.983
 6848SOL    HW121443   3.370   6.320   4.050
 6848SOL    HW221444   3.460   6.439   3.985
 6849SOL     OW21445   3.155   5.093   5.589
 6849SOL    HW121446   3.172   5.094   5.490
 6849SOL    HW221447   3.066   5.051   5.607
 6850SOL     OW21448   5.823   3.926   2.096
 6850SOL    HW121449   5.810   3.848   2.034
 6850SOL    HW221450   5.882   3.994   2.052
 6851SOL     OW21451   0.690   2.815   3.465
 6851SOL    HW121452   0.632   2.834   3.386
 6851SOL    HW221453   0.771   2.765   3.436
 6852SOL     OW21454   1.731   4.991   0.543
 6852SOL    HW121455   1.762   4.949   0.628
 6852SOL    HW221456   1.685   5.078   0.564
 6853SOL     OW21457   6.601   3.777   6.943
 6853SOL    HW121458   6.693   3.748   6.968
 6853SOL    HW221459   6.536   3.704   6.965
 6854SOL     OW21460   4.623   1.761   6.566
 6854SOL    HW121461   4.623   1.664   6.540
 6854SOL    HW221462   4.569   1.813   6.500
 6855SOL     OW21463   3.285   5.604   3.585
 6855SOL    HW121464   3.302   5.641   3.676
 6855SOL    HW221465   3.357   5.540   3.560
 6856SOL     OW21466   4.835   3.434   5.582
 6856SOL    HW121467   4.906   3.449   5.651
 6856SOL    HW221468   4.747   3.461   5.619
 6857SOL     OW21469   2.935   2.260   0.130
 6857SOL    HW121470   2.976   2.172   0.154
 6857SOL    HW221471   2.991   2.305   0.060
 6858SOL     OW21472   3.720   3.725   3.887
 6858SOL    HW121473   3.666   3.743   3.970
 6858SOL    HW221474   3.793   3.792   3.881
 6859SOL     OW21475   0.687   0.766   0.856
 6859SOL    HW121476   0.622   0.838   0.884
 6859SOL    HW221477   0.756   0.806   0.795
 6860SOL     OW21478   6.242   5.069   0.855
 6860SOL    HW121479   6.323   5.039   0.905
 6860SOL    HW221480   6.162   5.016   0.885
 6861SOL     OW21481   4.724   4.336   0.599
 6861SOL    HW121482   4.634   4.307   0.569
 6861SOL    HW221483   4.765   4.264   0.655
 6862SOL     OW21484   1.899   4.248   5.374
 6862SOL    HW121485   1.907   4.341   5.337
 6862SOL    HW221486   1.853   4.252   5.463
 6863SOL     OW21487   5.695   0.480   5.710
 6863SOL    HW121488   5.630   0.543   5.752
 6863SOL    HW221489   5.787   0.520   5.714
 6864SOL     OW21490   2.868   5.893   4.346
 6864SOL    HW121491   2.944   5.905   4.282
 6864SOL    HW221492   2.872   5.802   4.387
 6865SOL     OW21493   0.474   5.904   2.883
 6865SOL    HW121494   0.432   5.980   2.933
 6865SOL    HW221495   0.490   5.932   2.789
 6866SOL     OW21496   6.394   4.923   3.195
 6866SOL    HW121497   6.389   4.825   3.212
 6866SOL    HW221498   6.482   4.945   3.154
 6867SOL     OW21499   1.932   4.561   1.450
 6867SOL    HW121500   2.028   4.588   1.444
 6867SOL    HW221501   1.921   4.468   1.415
 6868SOL     OW21502   1.021   5.400   6.328
 6868SOL    HW121503   1.120   5.415   6.324
 6868SOL    HW221504   0.995   5.331   6.260
 6869SOL     OW21505   4.748   0.601   4.781
 6869SOL    HW121506   4.831   0.638   4.823
 6869SOL    HW221507   4.767   0.576   4.686
 6870SOL     OW21508   6.786   4.819   2.389
 6870SOL    HW121509   6.871   4.810   2.338
 6870SOL    HW221510   6.709   4.814   2.327
 6871SOL     OW21511   6.319   4.650   3.209
 6871SOL    HW121512   6.402   4.595   3.196
 6871SOL    HW221513   6.261   4.642   3.128
 6872SOL     OW21514   0.555   3.230   1.478
 6872SOL    HW121515   0.552   3.232   1.378
 6872SOL    HW221516   0.509   3.147   1.510
 6873SOL     OW21517   6.825   3.817   5.059
 6873SOL    HW121518   6.785   3.903   5.089
 6873SOL    HW221519   6.830   3.754   5.136
 6874SOL     OW21520   0.813   5.899   1.959
 6874SOL    HW121521   0.874   5.929   2.031
 6874SOL    HW221522   0.784   5.805   1.976
 6875SOL     OW21523   1.808   2.455   3.422
 6875SOL    HW121524   1.789   2.498   3.511
 6875SOL    HW221525   1.753   2.500   3.352
 6876SOL     OW21526   3.828   6.279   3.702
 6876SOL    HW121527   3.870   6.288   3.793
 6876SOL    HW221528   3.731   6.259   3.712
 6877SOL     OW21529   2.544   3.804   0.740
 6877SOL    HW121530   2.513   3.881   0.796
 6877SOL    HW221531   2.495   3.803   0.653
 6878SOL     OW21532   3.448   1.413   5.531
 6878SOL    HW121533   3.437   1.380   5.437
 6878SOL    HW221534   3.503   1.497   5.530
 6879SOL     OW21535   1.173   1.869   0.158
 6879SOL    HW121536   1.267   1.852   0.129
 6879SOL    HW221537   1.110   1.820   0.099
 6880SOL     OW21538   2.123   4.139   5.179
 6880SOL    HW121539   2.210   4.092   5.161
 6880SOL    HW221540   2.138   4.212   5.246
 6881SOL     OW21541   1.077   3.565   1.760
 6881SOL    HW121542   0.980   3.589   1.753
 6881SOL    HW221543   1.116   3.555   1.669
 6882SOL     OW21544   3.189   0.486   6.862
 6882SOL    HW121545   3.105   0.436   6.885
 6882SOL    HW221546   3.186   0.577   6.903
 6883SOL     OW21547   4.298   1.543   0.389
 6883SOL    HW121548   4.363   1.586   0.452
 6883SOL    HW221549   4.214   1.522   0.438
 6884SOL     OW21550   1.963   4.501   4.396
 6884SOL    HW121551   1.928   4.461   4.311
 6884SOL    HW221552   2.053   4.463   4.416
 6885SOL     OW21553   3.765   5.331   3.982
 6885SOL    HW121554   3.687   5.298   4.035
 6885SOL    HW221555   3.749   5.425   3.953
 6886SOL     OW21556   6.576   0.178   4.292
 6886SOL    HW121557   6.609   0.247   4.227
 6886SOL    HW221558   6.610   0.200   4.383
 6887SOL     OW21559   5.274   6.113   5.900
 6887SOL    HW121560   5.245   6.199   5.857
 6887SOL    HW221561   5.194   6.062   5.930
 6888SOL     OW21562   5.439   6.346   6.506
 6888SOL    HW121563   5.448   6.390   6.417
 6888SOL    HW221564   5.469   6.251   6.500
 6889SOL     OW21565   1.885   1.945   4.937
 6889SOL    HW121566   1.877   1.927   4.839
 6889SOL    HW221567   1.981   1.937   4.965
 6890SOL     OW21568   3.960   6.257   1.781
 6890SOL    HW121569   3.928   6.316   1.855
 6890SOL    HW221570   4.003   6.312   1.710
 6891SOL     OW21571   2.034   4.288   3.684
 6891SOL    HW121572   2.001   4.371   3.639
 6891SOL    HW221573   2.123   4.306   3.726
 6892SOL     OW21574   3.079   2.196   3.537
 6892SOL    HW121575   3.101   2.156   3.626
 6892SOL    HW221576   2.997   2.253   3.545
 6893SOL     OW21577   4.716   4.562   6.668
 6893SOL    HW121578   4.743   4.624   6.595
 6893SOL    HW221579   4.758   4.592   6.754
 6894SOL     OW21580   6.183   4.714   0.212
 6894SOL    HW121581   6.280   4.705   0.190
 6894SOL    HW221582   6.131   4.729   0.128
 6895SOL     OW21583   2.554   5.950   6.951
 6895SOL    HW121584   2.587   6.025   7.009
 6895SOL    HW221585   2.624   5.879   6.947
 6896SOL     OW21586   1.812   0.122   3.625
 6896SOL    HW121587   1.826   0.215   3.659
 6896SOL    HW221588   1.899   0.086   3.590
 6897SOL     OW21589   3.424   3.689   6.371
 6897SOL    HW121590   3.325   3.698   6.360
 6897SOL    HW221591   3.454   3.604   6.329
 6898SOL     OW21592   3.904   1.677   2.021
 6898SOL    HW121593   3.820   1.728   2.006
 6898SOL    HW221594   3.907   1.598   1.959
 6899SOL     OW21595   5.868   6.825   0.773
 6899SOL    HW121596   5.849   6.923   0.785
 6899SOL    HW221597   5.787   6.779   0.738
 6900SOL     OW21598   6.734   6.421   5.721
 6900SOL    HW121599   6.798   6.489   5.685
 6900SOL    HW221600   6.739   6.421   5.821
 6901SOL     OW21601   0.549   6.263   6.095
 6901SOL    HW121602   0.537   6.351   6.142
 6901SOL    HW221603   0.462   6.213   6.098
 6902SOL     OW21604   6.140   6.220   6.978
 6902SOL    HW121605   6.184   6.244   0.043
 6902SOL    HW221606   6.112   6.304   6.931
 6903SOL     OW21607   3.573   5.409   4.730
 6903SOL    HW121608   3.595   5.326   4.680
 6903SOL    HW221609   3.623   5.410   4.817
 6904SOL     OW21610   6.179   1.329   4.633
 6904SOL    HW121611   6.109   1.385   4.589
 6904SOL    HW221612   6.144   1.236   4.647
 6905SOL     OW21613   6.126   6.098   6.220
 6905SOL    HW121614   6.186   6.126   6.145
 6905SOL    HW221615   6.131   5.998   6.231
 6906SOL     OW21616   5.049   1.244   3.928
 6906SOL    HW121617   4.978   1.300   3.969
 6906SOL    HW221618   5.138   1.288   3.939
 6907SOL     OW21619   5.301   2.356   1.093
 6907SOL    HW121620   5.242   2.431   1.120
 6907SOL    HW221621   5.321   2.363   0.995
 6908SOL     OW21622   1.002   5.788   6.250
 6908SOL    HW121623   1.024   5.860   6.316
 6908SOL    HW221624   0.941   5.721   6.294
 6909SOL     OW21625   5.982   4.315   1.277
 6909SOL    HW121626   6.073   4.273   1.282
 6909SOL    HW221627   5.979   4.395   1.336
 6910SOL     OW21628   6.701   2.696   3.525
 6910SOL    HW121629   6.777   2.755   3.551
 6910SOL    HW221630   6.646   2.674   3.605
 6911SOL     OW21631   4.268   5.988   3.646
 6911SOL    HW121632   4.236   6.012   3.738
 6911SOL    HW221633   4.320   6.063   3.608
 6912SOL     OW21634   3.135   5.549   0.424
 6912SOL    HW121635   3.061   5.492   0.387
 6912SOL    HW221636   3.096   5.617   0.487
 6913SOL     OW21637   4.593   5.022   4.926
 6913SOL    HW121638   4.664   5.088   4.901
 6913SOL    HW221639   4.593   5.011   5.026
 6914SOL     OW21640   6.341   3.982   5.834
 6914SOL    HW121641   6.375   3.931   5.914
 6914SOL    HW221642   6.390   4.069   5.828
 6915SOL     OW21643   6.015   3.657   1.521
 6915SOL    HW121644   6.019   3.627   1.425
 6915SOL    HW221645   5.949   3.731   1.530
 6916SOL     OW21646   6.872   3.322   7.016
 6916SOL    HW121647   6.787   3.346   0.042
 6916SOL    HW221648   6.932   3.273   0.057
 6917SOL     OW21649   2.829   6.136   0.899
 6917SOL    HW121650   2.924   6.111   0.919
 6917SOL    HW221651   2.799   6.088   0.817
 6918SOL     OW21652   6.837   3.090   4.518
 6918SOL    HW121653   6.898   3.091   4.597
 6918SOL    HW221654   6.760   3.152   4.534
 6919SOL     OW21655   0.286   6.196   2.202
 6919SOL    HW121656   0.326   6.176   2.112
 6919SOL    HW221657   0.188   6.214   2.192
 6920SOL     OW21658   4.921   5.063   5.448
 6920SOL    HW121659   5.015   5.040   5.424
 6920SOL    HW221660   4.920   5.109   5.537
 6921SOL     OW21661   5.649   6.116   3.074
 6921SOL    HW121662   5.672   6.112   3.172
 6921SOL    HW221663   5.585   6.042   3.052
 6922SOL     OW21664   2.025   6.052   6.056
 6922SOL    HW121665   2.121   6.028   6.043
 6922SOL    HW221666   2.008   6.144   6.020
 6923SOL     OW21667   4.684   5.022   3.666
 6923SOL    HW121668   4.619   5.097   3.671
 6923SOL    HW221669   4.691   4.990   3.572
 6924SOL     OW21670   1.891   3.934   6.775
 6924SOL    HW121671   1.794   3.912   6.772
 6924SOL    HW221672   1.932   3.894   6.857
 6925SOL     OW21673   4.259   6.148   4.914
 6925SOL    HW121674   4.344   6.145   4.967
 6925SOL    HW221675   4.280   6.134   4.817
 6926SOL     OW21676   3.614   2.746   1.368
 6926SOL    HW121677   3.538   2.755   1.432
 6926SOL    HW221678   3.582   2.763   1.275
 6927SOL     OW21679   5.255   2.803   6.155
 6927SOL    HW121680   5.262   2.901   6.139
 6927SOL    HW221681   5.304   2.754   6.083
 6928SOL     OW21682   6.523   5.892   1.024
 6928SOL    HW121683   6.600   5.831   1.036
 6928SOL    HW221684   6.534   5.943   0.938
 6929SOL     OW21685   5.506   4.907   0.891
 6929SOL    HW121686   5.566   4.836   0.854
 6929SOL    HW221687   5.415   4.868   0.907
 6930SOL     OW21688   0.371   6.541   2.012
 6930SOL    HW121689   0.319   6.556   1.928
 6930SOL    HW221690   0.308   6.526   2.088
 6931SOL     OW21691   1.935   0.760   2.108
 6931SOL    HW121692   1.877   0.784   2.031
 6931SOL    HW221693   1.919   0.824   2.183
 6932SOL     OW21694   4.019   6.610   0.775
 6932SOL    HW121695   3.953   6.671   0.730
 6932SOL    HW221696   4.044   6.537   0.713
 6933SOL     OW21697   2.851   6.440   4.409
 6933SOL    HW121698   2.773   6.424   4.469
 6933SOL    HW221699   2.848   6.535   4.375
 6934SOL     OW21700   4.746   3.678   5.988
 6934SOL    HW121701   4.768   3.771   5.958
 6934SOL    HW221702   4.647   3.670   6.001
 6935SOL     OW21703   4.096   4.831   2.975
 6935SOL    HW121704   4.147   4.828   2.889
 6935SOL    HW221705   3.999   4.843   2.957
 6936SOL     OW21706   6.621   2.207   4.349
 6936SOL    HW121707   6.544   2.270   4.338
 6936SOL    HW221708   6.692   2.251   4.403
 6937SOL     OW21709   0.062   6.277   0.188
 6937SOL    HW121710   0.070   6.215   0.266
 6937SOL    HW221711   0.093   6.230   0.105
 6938SOL     OW21712   5.317   3.407   5.738
 6938SOL    HW121713   5.229   3.453   5.740
 6938SOL    HW221714   5.390   3.474   5.731
 6939SOL     OW21715   0.524   4.687   2.136
 6939SOL    HW121716   0.449   4.694   2.202
 6939SOL    HW221717   0.607   4.658   2.184
 6940SOL     OW21718   4.478   0.872   0.327
 6940SOL    HW121719   4.508   0.884   0.421
 6940SOL    HW221720   4.557   0.853   0.268
 6941SOL     OW21721   3.710   3.159   2.130
 6941SOL    HW121722   3.770   3.100   2.183
 6941SOL    HW221723   3.765   3.215   2.068
 6942SOL     OW21724   5.524   1.091   1.758
 6942SOL    HW121725   5.455   1.071   1.828
 6942SOL    HW221726   5.547   1.006   1.709
 6943SOL     OW21727   4.177   5.840   6.633
 6943SOL    HW121728   4.259   5.813   6.583
 6943SOL    HW221729   4.111   5.882   6.569
 6944SOL     OW21730   1.042   3.843   6.924
 6944SOL    HW121731   1.032   3.773   6.854
 6944SOL    HW221732   1.040   3.801   7.015
 6945SOL     OW21733   6.374   2.397   6.394
 6945SOL    HW121734   6.340   2.487   6.422
 6945SOL    HW221735   6.324   2.326   6.444
 6946SOL     OW21736   5.838   6.485   1.186
 6946SOL    HW121737   5.903   6.446   1.121
 6946SOL    HW221738   5.866   6.578   1.209
 6947SOL     OW21739   3.702   6.088   6.221
 6947SOL    HW121740   3.801   6.078   6.212
 6947SOL    HW221741   3.656   6.032   6.152
 6948SOL     OW21742   6.680   0.369   6.704
 6948SOL    HW121743   6.631   0.286   6.729
 6948SOL    HW221744   6.779   0.352   6.711
 6949SOL     OW21745   5.169   6.374   2.956
 6949SOL    HW121746   5.070   6.367   2.943
 6949SOL    HW221747   5.190   6.459   3.005
 6950SOL     OW21748   2.562   1.287   4.738
 6950SOL    HW121749   2.481   1.298   4.797
 6950SOL    HW221750   2.607   1.376   4.727
 6951SOL     OW21751   6.660   5.814   5.314
 6951SOL    HW121752   6.634   5.870   5.236
 6951SOL    HW221753   6.742   5.761   5.292
 6952SOL     OW21754   0.485   6.199   4.012
 6952SOL    HW121755   0.563   6.228   4.068
 6952SOL    HW221756   0.519   6.149   3.932
 6953SOL     OW21757   5.147   6.310   0.529
 6953SOL    HW121758   5.202   6.391   0.549
 6953SOL    HW221759   5.068   6.307   0.591
 6954SOL     OW21760   7.021   3.832   3.997
 6954SOL    HW121761   0.090   3.797   3.974
 6954SOL    HW221762   6.975   3.766   4.058
 6955SOL     OW21763   6.698   0.866   2.153
 6955SOL    HW121764   6.733   0.857   2.060
 6955SOL    HW221765   6.598   0.868   2.150
 6956SOL     OW21766   5.058   5.698   3.156
 6956SOL    HW121767   4.986   5.630   3.171
 6956SOL    HW221768   5.093   5.730   3.245
 6957SOL     OW21769   6.016   4.919   0.944
 6957SOL    HW121770   5.987   4.922   0.848
 6957SOL    HW221771   6.029   4.824   0.972
 6958SOL     OW21772   3.102   3.311   4.187
 6958SOL    HW121773   3.098   3.224   4.138
 6958SOL    HW221774   3.050   3.380   4.136
 6959SOL     OW21775   1.912   1.543   4.489
 6959SOL    HW121776   1.994   1.485   4.492
 6959SOL    HW221777   1.939   1.637   4.469
 6960SOL     OW21778   2.372   5.425   1.556
 6960SOL    HW121779   2.374   5.340   1.610
 6960SOL    HW221780   2.465   5.457   1.541
 6961SOL     OW21781   5.581   2.097   4.268
 6961SOL    HW121782   5.649   2.028   4.243
 6961SOL    HW221783   5.542   2.137   4.185
 6962SOL     OW21784   4.815   6.113   1.930
 6962SOL    HW121785   4.758   6.195   1.934
 6962SOL    HW221786   4.880   6.120   1.855
 6963SOL     OW21787   5.701   5.998   1.366
 6963SOL    HW121788   5.753   6.062   1.309
 6963SOL    HW221789   5.616   6.042   1.396
 6964SOL     OW21790   3.228   0.435   4.889
 6964SOL    HW121791   3.248   0.500   4.815
 6964SOL    HW221792   3.289   0.355   4.880
 6965SOL     OW21793   0.678   3.274   1.071
 6965SOL    HW121794   0.632   3.202   1.018
 6965SOL    HW221795   0.610   3.323   1.125
 6966SOL     OW21796   0.038   2.305   3.046
 6966SOL    HW121797   0.105   2.379   3.040
 6966SOL    HW221798   0.069   2.227   2.992
 6967SOL     OW21799   2.324   6.314   4.871
 6967SOL    HW121800   2.400   6.249   4.871
 6967SOL    HW221801   2.239   6.264   4.888
 6968SOL     OW21802   4.687   6.646   2.578
 6968SOL    HW121803   4.694   6.590   2.496
 6968SOL    HW221804   4.656   6.589   2.654
 6969SOL     OW21805   2.812   2.217   1.340
 6969SOL    HW121806   2.815   2.268   1.255
 6969SOL    HW221807   2.851   2.272   1.414
 6970SOL     OW21808   3.275   4.502   6.515
 6970SOL    HW121809   3.267   4.409   6.551
 6970SOL    HW221810   3.202   4.559   6.554
 6971SOL     OW21811   6.191   4.799   1.928
 6971SOL    HW121812   6.139   4.779   2.011
 6971SOL    HW221813   6.285   4.768   1.939
 6972SOL     OW21814   4.913   3.811   3.334
 6972SOL    HW121815   4.883   3.813   3.239
 6972SOL    HW221816   5.006   3.774   3.339
 6973SOL     OW21817   0.306   3.126   4.550
 6973SOL    HW121818   0.390   3.076   4.570
 6973SOL    HW221819   0.269   3.165   4.635
 6974SOL     OW21820   2.956   3.752   2.147
 6974SOL    HW121821   3.050   3.776   2.121
 6974SOL    HW221822   2.913   3.700   2.073
 6975SOL     OW21823   2.067   6.513   6.486
 6975SOL    HW121824   2.154   6.522   6.535
 6975SOL    HW221825   1.992   6.512   6.552
 6976SOL     OW21826   5.008   6.051   5.003
 6976SOL    HW121827   4.945   5.974   5.012
 6976SOL    HW221828   5.087   6.038   5.062
 6977SOL     OW21829   4.480   2.406   1.625
 6977SOL    HW121830   4.488   2.506   1.619
 6977SOL    HW221831   4.570   2.365   1.617
 6978SOL     OW21832   4.275   1.127   2.799
 6978SOL    HW121833   4.224   1.213   2.806
 6978SOL    HW221834   4.296   1.108   2.704
 6979SOL     OW21835   0.948   4.322   1.181
 6979SOL    HW121836   0.956   4.376   1.265
 6979SOL    HW221837   0.880   4.364   1.121
 6980SOL     OW21838   1.620   1.258   3.695
 6980SOL    HW121839   1.658   1.283   3.606
 6980SOL    HW221840   1.652   1.167   3.721
 6981SOL     OW21841   3.830   2.578   5.627
 6981SOL    HW121842   3.776   2.545   5.549
 6981SOL    HW221843   3.900   2.510   5.650
 6982SOL     OW21844   1.567   0.690   4.457
 6982SOL    HW121845   1.475   0.657   4.437
 6982SOL    HW221846   1.572   0.788   4.436
 6983SOL     OW21847   4.026   2.072   3.813
 6983SOL    HW121848   4.101   2.006   3.804
 6983SOL    HW221849   4.064   2.164   3.823
 6984SOL     OW21850   2.620   1.728   3.582
 6984SOL    HW121851   2.600   1.646   3.636
 6984SOL    HW221852   2.693   1.780   3.627
 6985SOL     OW21853   4.560   5.073   1.817
 6985SOL    HW121854   4.598   5.094   1.907
 6985SOL    HW221855   4.585   5.144   1.752
 6986SOL     OW21856   1.674   6.856   6.267
 6986SOL    HW121857   1.667   6.954   6.250
 6986SOL    HW221858   1.585   6.820   6.295
 6987SOL     OW21859   6.531   1.392   5.954
 6987SOL    HW121860   6.594   1.368   5.879
 6987SOL    HW221861   6.487   1.479   5.933
 6988SOL     OW21862   0.634   0.230   5.332
 6988SOL    HW121863   0.575   0.274   5.400
 6988SOL    HW221864   0.720   0.281   5.325
 6989SOL     OW21865   0.942   4.484   2.897
 6989SOL    HW121866   0.921   4.424   2.974
 6989SOL    HW221867   0.948   4.430   2.813
 6990SOL     OW21868   4.944   2.799   1.116
 6990SOL    HW121869   4.967   2.825   1.210
 6990SOL    HW221870   4.857   2.750   1.115
 6991SOL     OW21871   3.234   4.983   3.495
 6991SOL    HW121872   3.200   5.025   3.411
 6991SOL    HW221873   3.159   4.935   3.541
 6992SOL     OW21874   5.201   6.224   6.264
 6992SOL    HW121875   5.298   6.198   6.269
 6992SOL    HW221876   5.150   6.157   6.211
 6993SOL     OW21877   5.971   0.728   2.924
 6993SOL    HW121878   5.938   0.797   2.988
 6993SOL    HW221879   5.975   0.639   2.969
 6994SOL     OW21880   0.400   2.618   4.515
 6994SOL    HW121881   0.364   2.706   4.485
 6994SOL    HW221882   0.328   2.549   4.512
 6995SOL     OW21883   6.913   4.568   5.998
 6995SOL    HW121884   6.971   4.490   6.021
 6995SOL    HW221885   6.965   4.632   5.941
 6996SOL     OW21886   1.412   0.096   6.596
 6996SOL    HW121887   1.349   0.022   6.574
 6996SOL    HW221888   1.363   0.166   6.649
 6997SOL     OW21889   6.862   5.574   5.043
 6997SOL    HW121890   6.836   5.614   4.955
 6997SOL    HW221891   6.945   5.619   5.077
 6998SOL     OW21892   2.381   0.995   1.939
 6998SOL    HW121893   2.332   1.043   2.012
 6998SOL    HW221894   2.317   0.970   1.866
 6999SOL     OW21895   2.518   2.473   5.924
 6999SOL    HW121896   2.462   2.550   5.953
 6999SOL    HW221897   2.562   2.431   6.003
 7000SOL     OW21898   5.399   6.086   1.310
 7000SOL    HW121899   5.444   6.111   1.225
 7000SOL    HW221900   5.438   6.140   1.385
 7001SOL     OW21901   1.735   2.638   5.286
 7001SOL    HW121902   1.806   2.694   5.330
 7001SOL    HW221903   1.730   2.661   5.189
 7002SOL     OW21904   2.070   5.650   3.642
 7002SOL    HW121905   2.149   5.620   3.589
 7002SOL    HW221906   2.030   5.731   3.600
 7003SOL     OW21907   3.619   5.418   0.511
 7003SOL    HW121908   3.628   5.345   0.578
 7003SOL    HW221909   3.615   5.379   0.419
 7004SOL     OW21910   0.974   4.751   2.423
 7004SOL    HW121911   1.055   4.692   2.423
 7004SOL    HW221912   0.967   4.796   2.512
 7005SOL     OW21913   1.775   0.311   0.045
 7005SOL    HW121914   1.829   0.357   0.116
 7005SOL    HW221915   1.678   0.318   0.067
 7006SOL     OW21916   4.957   4.971   4.181
 7006SOL    HW121917   4.968   5.033   4.259
 7006SOL    HW221918   5.046   4.955   4.138
 7007SOL     OW21919   5.402   0.261   3.205
 7007SOL    HW121920   5.455   0.178   3.188
 7007SOL    HW221921   5.308   0.237   3.228
 7008SOL     OW21922   0.752   3.959   4.635
 7008SOL    HW121923   0.664   3.926   4.600
 7008SOL    HW221924   0.814   3.881   4.645
 7009SOL     OW21925   5.750   6.309   2.206
 7009SOL    HW121926   5.780   6.324   2.111
 7009SOL    HW221927   5.800   6.232   2.245
 7010SOL     OW21928   5.229   4.583   4.292
 7010SOL    HW121929   5.243   4.574   4.194
 7010SOL    HW221930   5.138   4.550   4.316
 7011SOL     OW21931   3.633   6.801   6.860
 7011SOL    HW121932   3.585   6.732   6.806
 7011SOL    HW221933   3.608   6.893   6.828
 7012SOL     OW21934   1.430   2.489   1.642
 7012SOL    HW121935   1.429   2.449   1.734
 7012SOL    HW221936   1.522   2.483   1.604
 7013SOL     OW21937   0.529   0.200   0.346
 7013SOL    HW121938   0.433   0.229   0.346
 7013SOL    HW221939   0.570   0.220   0.435
 7014SOL     OW21940   4.275   3.488   1.006
 7014SOL    HW121941   4.276   3.390   0.991
 7014SOL    HW221942   4.181   3.522   1.004
 7015SOL     OW21943   5.751   4.963   2.326
 7015SOL    HW121944   5.783   4.894   2.261
 7015SOL    HW221945   5.799   5.049   2.309
 7016SOL     OW21946   3.656   4.788   1.342
 7016SOL    HW121947   3.742   4.788   1.291
 7016SOL    HW221948   3.607   4.702   1.325
 7017SOL     OW21949   2.134   4.852   2.092
 7017SOL    HW121950   2.131   4.772   2.033
 7017SOL    HW221951   2.203   4.916   2.059
 7018SOL     OW21952   5.599   3.881   4.420
 7018SOL    HW121953   5.574   3.813   4.351
 7018SOL    HW221954   5.687   3.857   4.461
 7019SOL     OW21955   3.221   4.086   0.289
 7019SOL    HW121956   3.187   4.029   0.364
 7019SOL    HW221957   3.293   4.036   0.240
 7020SOL     OW21958   6.584   5.312   6.994
 7020SOL    HW121959   6.541   5.345   0.056
 7020SOL    HW221960   6.536   5.351   6.915
 7021SOL     OW21961   1.438   1.685   5.843
 7021SOL    HW121962   1.495   1.604   5.826
 7021SOL    HW221963   1.497   1.763   5.865
 7022SOL     OW21964   5.010   6.978   6.412
 7022SOL    HW121965   4.964   6.996   6.499
 7022SOL    HW221966   4.992   0.032   6.349
 7023SOL     OW21967   0.533   1.935   4.561
 7023SOL    HW121968   0.630   1.913   4.549
 7023SOL    HW221969   0.501   1.899   4.648
 7024SOL     OW21970   2.633   3.929   5.364
 7024SOL    HW121971   2.561   3.955   5.300
 7024SOL    HW221972   2.690   4.009   5.384
 7025SOL     OW21973   2.727   1.399   0.359
 7025SOL    HW121974   2.671   1.326   0.320
 7025SOL    HW221975   2.822   1.385   0.332
 7026SOL     OW21976   3.369   1.796   2.055
 7026SOL    HW121977   3.281   1.796   2.007
 7026SOL    HW221978   3.412   1.886   2.046
 7027SOL     OW21979   2.417   5.472   4.280
 7027SOL    HW121980   2.361   5.397   4.245
 7027SOL    HW221981   2.383   5.559   4.242
 7028SOL     OW21982   3.817   0.858   4.010
 7028SOL    HW121983   3.761   0.833   3.931
 7028SOL    HW221984   3.898   0.908   3.979
 7029SOL     OW21985   5.084   4.844   5.072
 7029SOL    HW121986   5.147   4.820   4.998
 7029SOL    HW221987   5.047   4.761   5.113
 7030SOL     OW21988   1.584   0.982   5.219
 7030SOL    HW121989   1.559   0.938   5.306
 7030SOL    HW221990   1.684   0.991   5.214
 7031SOL     OW21991   2.724   5.959   4.774
 7031SOL    HW121992   2.635   5.979   4.815
 7031SOL    HW221993   2.738   6.016   4.694
 7032SOL     OW21994   4.058   0.584   3.188
 7032SOL    HW121995   4.131   0.608   3.124
 7032SOL    HW221996   4.098   0.556   3.276
 7033SOL     OW21997   1.300   2.307   3.781
 7033SOL    HW121998   1.396   2.327   3.799
 7033SOL    HW221999   1.293   2.233   3.715
 7034SOL     OW22000   6.139   0.668   3.838
 7034SOL    HW122001   6.054   0.635   3.797
 7034SOL    HW222002   6.217   0.626   3.791
 7035SOL     OW22003   1.635   6.643   1.509
 7035SOL    HW122004   1.683   6.664   1.424
 7035SOL    HW222005   1.698   6.650   1.586
 7036SOL     OW22006   0.487   0.622   2.730
 7036SOL    HW122007   0.455   0.678   2.806
 7036SOL    HW222008   0.411   0.603   2.668
 7037SOL     OW22009   1.761   1.842   6.607
 7037SOL    HW122010   1.801   1.838   6.699
 7037SOL    HW222011   1.758   1.751   6.567
 7038SOL     OW22012   2.774   3.326   5.913
 7038SOL    HW122013   2.850   3.378   5.953
 7038SOL    HW222014   2.794   3.229   5.919
 7039SOL     OW22015   2.752   5.043   1.623
 7039SOL    HW122016   2.832   5.035   1.563
 7039SOL    HW222017   2.753   4.969   1.690
 7040SOL     OW22018   6.370   1.525   5.201
 7040SOL    HW122019   6.433   1.561   5.132
 7040SOL    HW222020   6.395   1.561   5.291
 7041SOL     OW22021   6.620   1.910   1.961
 7041SOL    HW122022   6.551   1.879   2.027
 7041SOL    HW222023   6.707   1.863   1.979
 7042SOL     OW22024   4.606   5.002   5.190
 7042SOL    HW122025   4.508   5.022   5.192
 7042SOL    HW222026   4.657   5.085   5.212
 7043SOL     OW22027   1.929   3.936   2.867
 7043SOL    HW122028   1.865   3.887   2.928
 7043SOL    HW222029   1.884   3.955   2.780
 7044SOL     OW22030   4.349   4.746   4.304
 7044SOL    HW122031   4.361   4.767   4.401
 7044SOL    HW222032   4.418   4.796   4.250
 7045SOL     OW22033   4.817   5.932   3.472
 7045SOL    HW122034   4.790   5.837   3.454
 7045SOL    HW222035   4.737   5.984   3.503
 7046SOL     OW22036   3.309   0.749   3.236
 7046SOL    HW122037   3.249   0.765   3.158
 7046SOL    HW222038   3.404   0.766   3.209
 7047SOL     OW22039   0.072   1.913   2.639
 7047SOL    HW122040   0.035   1.946   2.726
 7047SOL    HW222041   0.101   1.818   2.650
 7048SOL     OW22042   5.694   6.413   3.040
 7048SOL    HW122043   5.699   6.479   3.115
 7048SOL    HW222044   5.654   6.328   3.074
 7049SOL     OW22045   3.789   1.787   0.545
 7049SOL    HW122046   3.855   1.761   0.616
 7049SOL    HW222047   3.714   1.722   0.543
 7050SOL     OW22048   4.432   3.512   1.367
 7050SOL    HW122049   4.350   3.555   1.330
 7050SOL    HW222050   4.454   3.553   1.455
 7051SOL     OW22051   6.800   0.208   1.765
 7051SOL    HW122052   6.874   0.169   1.709
 7051SOL    HW222053   6.774   0.142   1.836
 7052SOL     OW22054   5.637   2.849   3.516
 7052SOL    HW122055   5.613   2.939   3.479
 7052SOL    HW222056   5.690   2.861   3.600
 7053SOL     OW22057   1.032   3.208   5.436
 7053SOL    HW122058   1.117   3.207   5.488
 7053SOL    HW222059   0.983   3.122   5.450
 7054SOL     OW22060   0.934   6.690   0.323
 7054SOL    HW122061   1.012   6.645   0.367
 7054SOL    HW222062   0.950   6.789   0.321
 7055SOL     OW22063   2.565   6.951   5.245
 7055SOL    HW122064   2.605   6.947   5.153
 7055SOL    HW222065   2.539   0.023   5.266
 7056SOL     OW22066   6.458   4.713   1.940
 7056SOL    HW122067   6.497   4.653   1.870
 7056SOL    HW222068   6.499   4.803   1.935
 7057SOL     OW22069   1.882   5.611   3.836
 7057SOL    HW122070   1.862   5.691   3.893
 7057SOL    HW222071   1.949   5.635   3.766
 7058SOL     OW22072   5.881   4.619   5.686
 7058SOL    HW122073   5.817   4.691   5.659
 7058SOL    HW222074   5.958   4.618   5.623
 7059SOL     OW22075   6.624   1.301   3.908
 7059SOL    HW122076   6.703   1.350   3.944
 7059SOL    HW222077   6.630   1.204   3.934
 7060SOL     OW22078   4.350   0.275   1.528
 7060SOL    HW122079   4.410   0.282   1.448
 7060SOL    HW222080   4.404   0.247   1.607
 7061SOL     OW22081   0.569   2.872   3.240
 7061SOL    HW122082   0.534   2.821   3.161
 7061SOL    HW222083   0.650   2.923   3.213
 7062SOL     OW22084   4.267   0.801   5.459
 7062SOL    HW122085   4.207   0.866   5.414
 7062SOL    HW222086   4.217   0.717   5.479
 7063SOL     OW22087   1.253   0.016   1.897
 7063SOL    HW122088   1.175   0.069   1.929
 7063SOL    HW222089   1.304   0.070   1.829
 7064SOL     OW22090   4.161   2.017   0.664
 7064SOL    HW122091   4.223   1.938   0.659
 7064SOL    HW222092   4.094   2.011   0.591
 7065SOL     OW22093   3.969   4.033   5.908
 7065SOL    HW122094   3.880   3.989   5.891
 7065SOL    HW222095   4.042   3.972   5.880
 7066SOL     OW22096   4.625   0.715   6.887
 7066SOL    HW122097   4.585   0.764   6.809
 7066SOL    HW222098   4.569   0.634   6.908
 7067SOL     OW22099   1.932   2.891   5.170
 7067SOL    HW122100   1.850   2.945   5.191
 7067SOL    HW222101   1.908   2.816   5.109
 7068SOL     OW22102   6.239   4.571   4.352
 7068SOL    HW122103   6.318   4.527   4.311
 7068SOL    HW222104   6.161   4.508   4.350
 7069SOL     OW22105   5.426   1.429   4.545
 7069SOL    HW122106   5.457   1.473   4.460
 7069SOL    HW222107   5.502   1.424   4.610
 7070SOL     OW22108   6.883   6.192   4.671
 7070SOL    HW122109   6.820   6.260   4.635
 7070SOL    HW222110   6.871   6.106   4.622
 7071SOL     OW22111   3.057   5.636   6.139
 7071SOL    HW122112   3.071   5.639   6.238
 7071SOL    HW222113   2.962   5.660   6.118
 7072SOL     OW22114   1.597   6.339   0.245
 7072SOL    HW122115   1.503   6.363   0.268
 7072SOL    HW222116   1.638   6.288   0.320
 7073SOL     OW22117   4.803   6.547   4.463
 7073SOL    HW122118   4.715   6.583   4.496
 7073SOL    HW222119   4.821   6.583   4.371
 7074SOL     OW22120   5.027   2.445   1.602
 7074SOL    HW122121   5.039   2.358   1.650
 7074SOL    HW222122   4.958   2.499   1.650
 7075SOL     OW22123   1.909   3.839   5.686
 7075SOL    HW122124   1.981   3.901   5.656
 7075SOL    HW222125   1.860   3.803   5.606
 7076SOL     OW22126   6.023   2.232   5.956
 7076SOL    HW122127   6.079   2.153   5.979
 7076SOL    HW222128   6.074   2.292   5.894
 7077SOL     OW22129   2.408   5.033   4.069
 7077SOL    HW122130   2.345   4.973   4.120
 7077SOL    HW222131   2.361   5.067   3.987
 7078SOL     OW22132   7.011   6.717   1.661
 7078SOL    HW122133   6.979   6.811   1.663
 7078SOL    HW222134   0.071   6.710   1.603
 7079SOL     OW22135   0.117   5.673   4.054
 7079SOL    HW122136   0.028   5.658   4.099
 7079SOL    HW222137   0.146   5.768   4.070
 7080SOL     OW22138   3.513   1.048   4.899
 7080SOL    HW122139   3.576   0.974   4.876
 7080SOL    HW222140   3.564   1.125   4.937
 7081SOL     OW22141   2.947   6.765   6.873
 7081SOL    HW122142   2.861   6.716   6.884
 7081SOL    HW222143   3.023   6.700   6.872
 7082SOL     OW22144   6.413   4.001   0.039
 7082SOL    HW122145   6.348   3.933   0.071
 7082SOL    HW222146   6.507   3.969   0.057
 7083SOL     OW22147   2.654   0.287   0.750
 7083SOL    HW122148   2.643   0.215   0.819
 7083SOL    HW222149   2.565   0.329   0.731
 7084SOL     OW22150   0.281   5.575   5.916
 7084SOL    HW122151   0.271   5.493   5.859
 7084SOL    HW222152   0.302   5.654   5.857
 7085SOL     OW22153   0.881   1.363   1.933
 7085SOL    HW122154   0.841   1.454   1.920
 7085SOL    HW222155   0.850   1.303   1.859
 7086SOL     OW22156   5.175   0.000   5.283
 7086SOL    HW122157   5.273   0.015   5.278
 7086SOL    HW222158   5.132   0.071   5.339
 7087SOL     OW22159   6.136   4.211   4.331
 7087SOL    HW122160   6.082   4.295   4.318
 7087SOL    HW222161   6.228   4.225   4.295
 7088SOL     OW22162   5.189   2.836   3.711
 7088SOL    HW122163   5.130   2.826   3.791
 7088SOL    HW222164   5.187   2.752   3.657
 7089SOL     OW22165   2.733   1.926   4.696
 7089SOL    HW122166   2.751   1.978   4.779
 7089SOL    HW222167   2.731   1.989   4.618
 7090SOL     OW22168   2.248   0.658   6.915
 7090SOL    HW122169   2.272   0.561   6.924
 7090SOL    HW222170   2.304   0.712   6.977
 7091SOL     OW22171   0.527   2.045   0.561
 7091SOL    HW122172   0.483   2.133   0.542
 7091SOL    HW222173   0.624   2.060   0.583
 7092SOL     OW22174   3.515   3.256   5.613
 7092SOL    HW122175   3.527   3.233   5.709
 7092SOL    HW222176   3.604   3.275   5.572
 7093SOL     OW22177   3.152   4.066   2.617
 7093SOL    HW122178   3.125   4.162   2.626
 7093SOL    HW222179   3.176   4.048   2.521
 7094SOL     OW22180   0.135   5.896   6.097
 7094SOL    HW122181   0.062   5.906   6.029
 7094SOL    HW222182   0.094   5.885   6.188
 7095SOL     OW22183   4.378   4.609   5.555
 7095SOL    HW122184   4.299   4.550   5.571
 7095SOL    HW222185   4.381   4.681   5.624
 7096SOL     OW22186   6.701   0.771   3.885
 7096SOL    HW122187   6.613   0.816   3.896
 7096SOL    HW222188   6.750   0.810   3.807
 7097SOL     OW22189   5.830   1.959   1.254
 7097SOL    HW122190   5.797   2.012   1.332
 7097SOL    HW222191   5.915   1.998   1.219
 7098SOL     OW22192   1.784   5.614   5.950
 7098SOL    HW122193   1.708   5.560   5.988
 7098SOL    HW222194   1.823   5.670   6.023
 7099SOL     OW22195   4.046   1.285   5.338
 7099SOL    HW122196   4.015   1.290   5.432
 7099SOL    HW222197   4.123   1.348   5.325
 7100SOL     OW22198   5.921   3.352   0.400
 7100SOL    HW122199   5.985   3.324   0.472
 7100SOL    HW222200   5.955   3.435   0.356
 7101SOL     OW22201   2.052   1.288   4.814
 7101SOL    HW122202   1.959   1.297   4.779
 7101SOL    HW222203   2.100   1.375   4.803
 7102SOL     OW22204   5.221   6.616   0.791
 7102SOL    HW122205   5.124   6.592   0.786
 7102SOL    HW222206   5.239   6.667   0.876
 7103SOL     OW22207   4.806   4.951   2.355
 7103SOL    HW122208   4.833   4.914   2.444
 7103SOL    HW222209   4.770   5.044   2.367
 7104SOL     OW22210   0.014   3.067   3.665
 7104SOL    HW122211   6.999   2.974   3.667
 7104SOL    HW222212   0.111   3.066   3.687
 7105SOL     OW22213   3.539   3.150   5.232
 7105SOL    HW122214   3.504   3.201   5.154
 7105SOL    HW222215   3.463   3.102   5.277
 7106SOL     OW22216   3.779   3.611   2.477
 7106SOL    HW122217   3.816   3.634   2.566
 7106SOL    HW222218   3.816   3.523   2.447
 7107SOL     OW22219   4.779   1.002   0.449
 7107SOL    HW122220   4.808   0.947   0.528
 7107SOL    HW222221   4.832   0.976   0.369
 7108SOL     OW22222   3.699   6.417   2.652
 7108SOL    HW122223   3.797   6.435   2.664
 7108SOL    HW222224   3.654   6.414   2.741
 7109SOL     OW22225   2.567   0.213   5.833
 7109SOL    HW122226   2.569   0.114   5.822
 7109SOL    HW222227   2.473   0.244   5.844
 7110SOL     OW22228   3.299   5.587   4.236
 7110SOL    HW122229   3.254   5.642   4.165
 7110SOL    HW222230   3.379   5.541   4.196
 7111SOL     OW22231   1.453   2.956   5.093
 7111SOL    HW122232   1.463   2.859   5.070
 7111SOL    HW222233   1.504   3.011   5.027
 7112SOL     OW22234   1.773   4.707   4.602
 7112SOL    HW122235   1.815   4.724   4.513
 7112SOL    HW222236   1.798   4.616   4.634
 7113SOL     OW22237   3.854   3.695   4.747
 7113SOL    HW122238   3.933   3.647   4.785
 7113SOL    HW222239   3.878   3.733   4.658
 7114SOL     OW22240   5.026   6.240   1.411
 7114SOL    HW122241   5.104   6.299   1.391
 7114SOL    HW222242   4.959   6.247   1.337
 7115SOL     OW22243   5.315   3.140   0.686
 7115SOL    HW122244   5.362   3.097   0.763
 7115SOL    HW222245   5.216   3.135   0.700
 7116SOL     OW22246   5.865   3.942   3.085
 7116SOL    HW122247   5.846   3.919   3.181
 7116SOL    HW222248   5.916   4.027   3.081
 7117SOL     OW22249   0.237   6.297   5.606
 7117SOL    HW122250   0.312   6.363   5.614
 7117SOL    HW222251   0.160   6.340   5.559
 7118SOL     OW22252   2.659   4.754   0.809
 7118SOL    HW122253   2.587   4.804   0.859
 7118SOL    HW222254   2.716   4.705   0.874
 7119SOL     OW22255   4.528   2.148   4.237
 7119SOL    HW122256   4.478   2.230   4.264
 7119SOL    HW222257   4.579   2.165   4.153
 7120SOL     OW22258   3.466   1.966   2.391
 7120SOL    HW122259   3.476   1.868   2.377
 7120SOL    HW222260   3.374   1.994   2.364
 7121SOL     OW22261   0.844   0.138   3.740
 7121SOL    HW122262   0.883   0.084   3.815
 7121SOL    HW222263   0.795   0.078   3.678
 7122SOL     OW22264   1.561   0.454   5.948
 7122SOL    HW122265   1.511   0.540   5.962
 7122SOL    HW222266   1.642   0.471   5.893
 7123SOL     OW22267   1.708   4.619   3.024
 7123SOL    HW122268   1.664   4.690   3.078
 7123SOL    HW222269   1.643   4.584   2.956
 7124SOL     OW22270   6.725   2.124   1.723
 7124SOL    HW122271   6.727   2.063   1.644
 7124SOL    HW222272   6.635   2.119   1.767
 7125SOL     OW22273   0.854   6.939   1.147
 7125SOL    HW122274   0.873   6.979   1.237
 7125SOL    HW222275   0.826   7.012   1.084
 7126SOL     OW22276   3.225   4.958   0.486
 7126SOL    HW122277   3.197   4.968   0.582
 7126SOL    HW222278   3.298   5.022   0.465
 7127SOL     OW22279   1.852   4.870   6.012
 7127SOL    HW122280   1.947   4.872   5.980
 7127SOL    HW222281   1.832   4.779   6.048
 7128SOL     OW22282   2.680   5.054   0.144
 7128SOL    HW122283   2.678   5.151   0.116
 7128SOL    HW222284   2.640   4.998   0.072
 7129SOL     OW22285   2.376   1.980   0.110
 7129SOL    HW122286   2.383   1.881   0.102
 7129SOL    HW222287   2.411   2.023   0.027
 7130SOL     OW22288   3.950   5.195   5.147
 7130SOL    HW122289   4.035   5.205   5.096
 7130SOL    HW222290   3.970   5.180   5.243
 7131SOL     OW22291   2.637   0.603   0.984
 7131SOL    HW122292   2.703   0.598   1.060
 7131SOL    HW222293   2.682   0.573   0.900
 7132SOL     OW22294   4.058   4.031   0.255
 7132SOL    HW122295   4.074   4.045   0.157
 7132SOL    HW222296   4.000   4.105   0.290
 7133SOL     OW22297   5.037   5.605   5.981
 7133SOL    HW122298   4.943   5.569   5.978
 7133SOL    HW222299   5.091   5.552   6.046
 7134SOL     OW22300   5.111   6.576   1.849
 7134SOL    HW122301   5.027   6.536   1.886
 7134SOL    HW222302   5.129   6.664   1.893
 7135SOL     OW22303   1.413   2.541   3.526
 7135SOL    HW122304   1.483   2.600   3.567
 7135SOL    HW222305   1.332   2.541   3.584
 7136SOL     OW22306   2.351   1.883   0.607
 7136SOL    HW122307   2.401   1.962   0.642
 7136SOL    HW222308   2.354   1.809   0.674
 7137SOL     OW22309   4.022   0.056   6.581
 7137SOL    HW122310   4.004   7.004   6.646
 7137SOL    HW222311   4.004   0.024   6.488
 7138SOL     OW22312   2.687   2.139   0.475
 7138SOL    HW122313   2.778   2.107   0.502
 7138SOL    HW222314   2.646   2.072   0.414
 7139SOL     OW22315   6.305   4.169   1.657
 7139SOL    HW122316   6.299   4.208   1.565
 7139SOL    HW222317   6.235   4.098   1.667
 7140SOL     OW22318   6.523   3.880   2.909
 7140SOL    HW122319   6.425   3.867   2.893
 7140SOL    HW222320   6.564   3.793   2.936
 7141SOL     OW22321   3.900   6.233   0.675
 7141SOL    HW122322   3.812   6.276   0.656
 7141SOL    HW222323   3.915   6.228   0.773
 7142SOL     OW22324   4.194   0.284   3.083
 7142SOL    HW122325   4.133   0.224   3.031
 7142SOL    HW222326   4.185   0.378   3.050
 7143SOL     OW22327   1.576   2.528   5.795
 7143SOL    HW122328   1.674   2.520   5.780
 7143SOL    HW222329   1.527   2.468   5.731
 7144SOL     OW22330   1.984   1.983   2.408
 7144SOL    HW122331   2.019   2.075   2.392
 7144SOL    HW222332   2.044   1.934   2.471
 7145SOL     OW22333   4.466   0.153   0.314
 7145SOL    HW122334   4.435   0.070   0.361
 7145SOL    HW222335   4.419   0.161   0.226
 7146SOL     OW22336   1.890   6.841   0.413
 7146SOL    HW122337   1.916   6.860   0.507
 7146SOL    HW222338   1.967   6.859   0.352
 7147SOL     OW22339   6.823   6.965   2.296
 7147SOL    HW122340   6.742   6.997   2.344
 7147SOL    HW222341   6.892   6.937   2.363
 7148SOL     OW22342   6.985   6.516   0.957
 7148SOL    HW122343   6.942   6.546   1.042
 7148SOL    HW222344   0.062   6.505   0.972
 7149SOL     OW22345   6.586   6.877   3.314
 7149SOL    HW122346   6.509   6.813   3.306
 7149SOL    HW222347   6.671   6.826   3.320
 7150SOL     OW22348   3.661   2.554   0.923
 7150SOL    HW122349   3.717   2.610   0.985
 7150SOL    HW222350   3.717   2.480   0.885
 7151SOL     OW22351   2.735   6.728   0.463
 7151SOL    HW122352   2.666   6.680   0.518
 7151SOL    HW222353   2.753   6.677   0.379
 7152SOL     OW22354   0.546   0.918   5.713
 7152SOL    HW122355   0.512   0.996   5.766
 7152SOL    HW222356   0.508   0.921   5.621
 7153SOL     OW22357   4.175   5.291   1.655
 7153SOL    HW122358   4.246   5.314   1.722
 7153SOL    HW222359   4.119   5.371   1.636
 7154SOL     OW22360   4.852   6.564   3.307
 7154SOL    HW122361   4.835   6.627   3.383
 7154SOL    HW222362   4.939   6.517   3.322
 7155SOL     OW22363   1.676   3.508   1.024
 7155SOL    HW122364   1.711   3.596   1.056
 7155SOL    HW222365   1.577   3.512   1.017
 7156SOL     OW22366   6.641   3.249   4.286
 7156SOL    HW122367   6.739   3.237   4.271
 7156SOL    HW222368   6.624   3.274   4.381
 7157SOL     OW22369   0.264   3.363   1.403
 7157SOL    HW122370   0.212   3.438   1.363
 7157SOL    HW222371   0.229   3.344   1.495
 7158SOL     OW22372   1.497   0.312   3.839
 7158SOL    HW122373   1.409   0.354   3.859
 7158SOL    HW222374   1.512   0.234   3.899
 7159SOL     OW22375   0.870   4.755   2.822
 7159SOL    HW122376   0.877   4.658   2.847
 7159SOL    HW222377   0.896   4.812   2.899
 7160SOL     OW22378   5.695   0.445   2.837
 7160SOL    HW122379   5.779   0.435   2.890
 7160SOL    HW222380   5.645   0.525   2.869
 7161SOL     OW22381   3.348   4.105   3.347
 7161SOL    HW122382   3.258   4.069   3.323
 7161SOL    HW222383   3.351   4.125   3.445
 7162SOL     OW22384   1.062   5.368   6.894
 7162SOL    HW122385   0.966   5.342   6.905
 7162SOL    HW222386   1.071   5.430   6.816
 7163SOL     OW22387   2.939   6.479   2.586
 7163SOL    HW122388   2.866   6.532   2.543
 7163SOL    HW222389   2.907   6.385   2.601
 7164SOL     OW22390   2.944   0.638   4.145
 7164SOL    HW122391   2.919   0.654   4.240
 7164SOL    HW222392   3.042   0.617   4.139
 7165SOL     OW22393   0.067   1.019   2.870
 7165SOL    HW122394   0.033   1.015   2.776
 7165SOL    HW222395   7.021   0.979   2.932
 7166SOL     OW22396   5.142   2.103   0.842
 7166SOL    HW122397   5.179   2.043   0.913
 7166SOL    HW222398   5.098   2.048   0.771
 7167SOL     OW22399   5.816   3.218   4.689
 7167SOL    HW122400   5.915   3.225   4.704
 7167SOL    HW222401   5.797   3.208   4.591
 7168SOL     OW22402   1.455   2.423   2.805
 7168SOL    HW122403   1.524   2.469   2.750
 7168SOL    HW222404   1.499   2.356   2.865
 7169SOL     OW22405   0.895   2.991   5.529
 7169SOL    HW122406   0.914   2.897   5.501
 7169SOL    HW222407   0.963   3.019   5.597
 7170SOL     OW22408   5.149   6.946   3.523
 7170SOL    HW122409   5.128   6.859   3.569
 7170SOL    HW222410   5.065   6.984   3.484
 7171SOL     OW22411   6.255   3.766   0.092
 7171SOL    HW122412   6.204   3.751   0.008
 7171SOL    HW222413   6.313   3.687   0.110
 7172SOL     OW22414   0.850   0.229   4.664
 7172SOL    HW122415   0.754   0.202   4.665
 7172SOL    HW222416   0.906   0.151   4.637
 7173SOL     OW22417   6.761   4.376   6.619
 7173SOL    HW122418   6.740   4.450   6.683
 7173SOL    HW222419   6.825   4.312   6.662
 7174SOL     OW22420   1.623   3.425   0.693
 7174SOL    HW122421   1.657   3.422   0.599
 7174SOL    HW222422   1.528   3.395   0.695
 7175SOL     OW22423   5.542   3.070   6.535
 7175SOL    HW122424   5.466   3.020   6.577
 7175SOL    HW222425   5.557   3.156   6.585
 7176SOL     OW22426   6.636   0.464   2.977
 7176SOL    HW122427   6.538   0.467   2.958
 7176SOL    HW222428   6.659   0.532   3.047
 7177SOL     OW22429   1.487   4.835   4.680
 7177SOL    HW122430   1.565   4.875   4.631
 7177SOL    HW222431   1.515   4.808   4.772
 7178SOL     OW22432   0.872   1.375   5.828
 7178SOL    HW122433   0.944   1.346   5.891
 7178SOL    HW222434   0.809   1.298   5.813
 7179SOL     OW22435   2.137   3.175   4.261
 7179SOL    HW122436   2.090   3.243   4.317
 7179SOL    HW222437   2.151   3.091   4.315
 7180SOL     OW22438   2.000   5.225   0.260
 7180SOL    HW122439   1.984   5.324   0.261
 7180SOL    HW222440   2.036   5.199   0.170
 7181SOL     OW22441   2.209   0.209   0.264
 7181SOL    HW122442   2.264   0.242   0.341
 7181SOL    HW222443   2.269   0.165   0.197
 7182SOL     OW22444   0.332   3.258   4.923
 7182SOL    HW122445   0.431   3.249   4.918
 7182SOL    HW222446   0.296   3.193   4.990
 7183SOL     OW22447   1.757   5.619   0.959
 7183SOL    HW122448   1.735   5.537   0.907
 7183SOL    HW222449   1.757   5.597   1.057
 7184SOL     OW22450   0.072   1.229   3.539
 7184SOL    HW122451   7.008   1.196   3.500
 7184SOL    HW222452   0.054   1.273   3.627
 7185SOL     OW22453   5.782   0.371   4.508
 7185SOL    HW122454   5.821   0.408   4.424
 7185SOL    HW222455   5.786   0.441   4.579
 7186SOL     OW22456   6.696   1.953   1.506
 7186SOL    HW122457   6.718   1.910   1.418
 7186SOL    HW222458   6.602   1.985   1.505
 7187SOL     OW22459   3.992   4.296   6.286
 7187SOL    HW122460   3.909   4.259   6.327
 7187SOL    HW222461   4.042   4.350   6.354
 7188SOL     OW22462   5.538   0.353   0.033
 7188SOL    HW122463   5.472   0.288   0.071
 7188SOL    HW222464   5.516   0.371   6.959
 7189SOL     OW22465   6.626   0.954   5.344
 7189SOL    HW122466   6.567   0.994   5.414
 7189SOL    HW222467   6.676   0.876   5.381
 7190SOL     OW22468   6.866   3.852   2.198
 7190SOL    HW122469   6.859   3.752   2.204
 7190SOL    HW222470   6.776   3.891   2.177
 7191SOL     OW22471   1.075   5.474   2.453
 7191SOL    HW122472   1.098   5.475   2.550
 7191SOL    HW222473   1.049   5.566   2.424
 7192SOL     OW22474   2.546   4.499   5.628
 7192SOL    HW122475   2.633   4.454   5.607
 7192SOL    HW222476   2.544   4.526   5.724
 7193SOL     OW22477   1.029   2.889   2.687
 7193SOL    HW122478   1.044   2.790   2.690
 7193SOL    HW222479   0.950   2.913   2.743
 7194SOL     OW22480   2.591   2.831   0.846
 7194SOL    HW122481   2.491   2.821   0.851
 7194SOL    HW222482   2.616   2.924   0.874
 7195SOL     OW22483   1.054   4.116   6.910
 7195SOL    HW122484   1.012   4.147   6.825
 7195SOL    HW222485   1.068   4.017   6.905
 7196SOL     OW22486   2.723   3.661   1.301
 7196SOL    HW122487   2.718   3.760   1.314
 7196SOL    HW222488   2.748   3.617   1.387
 7197SOL     OW22489   0.445   2.404   6.258
 7197SOL    HW122490   0.518   2.376   6.195
 7197SOL    HW222491   0.478   2.479   6.315
 7198SOL     OW22492   6.840   0.665   0.709
 7198SOL    HW122493   6.904   0.593   0.683
 7198SOL    HW222494   6.823   0.724   0.630
 7199SOL     OW22495   1.627   0.855   2.312
 7199SOL    HW122496   1.725   0.868   2.327
 7199SOL    HW222497   1.580   0.943   2.320
 7200SOL     OW22498   2.823   2.670   0.126
 7200SOL    HW122499   2.831   2.599   0.056
 7200SOL    HW222500   2.744   2.728   0.105
 7201SOL     OW22501   0.701   5.616   4.405
 7201SOL    HW122502   0.685   5.520   4.383
 7201SOL    HW222503   0.798   5.631   4.422
 7202SOL     OW22504   5.527   6.993   6.961
 7202SOL    HW122505   5.623   7.017   6.943
 7202SOL    HW222506   5.499   0.012   0.026
 7203SOL     OW22507   0.234   1.784   0.884
 7203SOL    HW122508   0.309   1.846   0.861
 7203SOL    HW222509   0.250   1.745   0.975
 7204SOL     OW22510   0.045   0.397   5.460
 7204SOL    HW122511   0.128   0.440   5.423
 7204SOL    HW222512   0.011   0.330   5.394
 7205SOL     OW22513   0.992   4.065   3.896
 7205SOL    HW122514   0.896   4.095   3.892
 7205SOL    HW222515   1.042   4.122   3.961
 7206SOL     OW22516   1.406   0.929   1.771
 7206SOL    HW122517   1.399   0.842   1.820
 7206SOL    HW222518   1.326   0.985   1.794
 7207SOL     OW22519   3.692   0.803   2.762
 7207SOL    HW122520   3.670   0.875   2.696
 7207SOL    HW222521   3.782   0.820   2.801
 7208SOL     OW22522   4.105   6.856   3.668
 7208SOL    HW122523   4.123   6.889   3.761
 7208SOL    HW222524   4.152   6.915   3.602
 7209SOL     OW22525   2.688   3.370   1.757
 7209SOL    HW122526   2.592   3.349   1.778
 7209SOL    HW222527   2.739   3.285   1.746
 7210SOL     OW22528   4.554   1.244   3.638
 7210SOL    HW122529   4.611   1.288   3.568
 7210SOL    HW222530   4.611   1.184   3.694
 7211SOL     OW22531   2.929   0.028   4.361
 7211SOL    HW122532   2.937   0.048   4.263
 7211SOL    HW222533   2.864   6.975   4.375
 7212SOL     OW22534   0.135   6.226   4.728
 7212SOL    HW122535   0.036   6.241   4.724
 7212SOL    HW222536   0.173   6.226   4.635
 7213SOL     OW22537   5.351   5.968   6.969
 7213SOL    HW122538   5.406   5.885   6.974
 7213SOL    HW222539   5.409   6.045   6.944
 7214SOL     OW22540   6.222   6.532   5.669
 7214SOL    HW122541   6.224   6.452   5.730
 7214SOL    HW222542   6.128   6.563   5.658
 7215SOL     OW22543   6.981   3.683   4.602
 7215SOL    HW122544   6.929   3.678   4.687
 7215SOL    HW222545   0.044   3.630   4.611
 7216SOL     OW22546   3.313   0.117   6.925
 7216SOL    HW122547   3.324   0.193   6.989
 7216SOL    HW222548   3.216   0.094   6.916
 7217SOL     OW22549   2.010   3.706   3.452
 7217SOL    HW122550   2.016   3.789   3.397
 7217SOL    HW222551   2.001   3.627   3.393
 7218SOL     OW22552   5.512   3.190   5.346
 7218SOL    HW122553   5.427   3.187   5.399
 7218SOL    HW222554   5.589   3.167   5.405
 7219SOL     OW22555   5.064   0.286   3.020
 7219SOL    HW122556   5.106   0.377   3.009
 7219SOL    HW222557   4.981   0.294   3.074
 7220SOL     OW22558   1.259   4.654   5.032
 7220SOL    HW122559   1.200   4.609   5.099
 7220SOL    HW222560   1.222   4.743   5.009
 7221SOL     OW22561   3.639   6.150   4.258
 7221SOL    HW122562   3.541   6.163   4.270
 7221SOL    HW222563   3.673   6.084   4.325
 7222SOL     OW22564   6.176   6.851   3.198
 7222SOL    HW122565   6.160   6.877   3.294
 7222SOL    HW222566   6.117   6.774   3.174
 7223SOL     OW22567   2.876   1.157   0.561
 7223SOL    HW122568   2.825   1.236   0.595
 7223SOL    HW222569   2.907   1.102   0.638
 7224SOL     OW22570   5.640   1.694   3.978
 7224SOL    HW122571   5.733   1.664   3.996
 7224SOL    HW222572   5.620   1.685   3.881
 7225SOL     OW22573   0.945   5.520   0.786
 7225SOL    HW122574   0.877   5.579   0.744
 7225SOL    HW222575   0.927   5.514   0.884
 7226SOL     OW22576   6.718   1.752   1.698
 7226SOL    HW122577   6.664   1.677   1.658
 7226SOL    HW222578   6.724   1.827   1.632
 7227SOL     OW22579   1.842   2.349   1.118
 7227SOL    HW122580   1.933   2.307   1.116
 7227SOL    HW222581   1.817   2.370   1.213
 7228SOL     OW22582   1.136   1.798   2.951
 7228SOL    HW122583   1.051   1.799   2.899
 7228SOL    HW222584   1.214   1.799   2.889
 7229SOL     OW22585   1.545   6.252   5.370
 7229SOL    HW122586   1.471   6.255   5.437
 7229SOL    HW222587   1.602   6.334   5.381
 7230SOL     OW22588   3.614   5.166   4.581
 7230SOL    HW122589   3.555   5.132   4.508
 7230SOL    HW222590   3.709   5.142   4.560
 7231SOL     OW22591   4.028   1.019   6.508
 7231SOL    HW122592   3.988   1.098   6.462
 7231SOL    HW222593   3.956   0.951   6.525
 7232SOL     OW22594   5.224   5.988   3.382
 7232SOL    HW122595   5.208   5.911   3.321
 7232SOL    HW222596   5.312   5.977   3.428
 7233SOL     OW22597   1.025   1.996   3.948
 7233SOL    HW122598   0.992   1.945   3.868
 7233SOL    HW222599   0.954   1.996   4.019
 7234SOL     OW22600   5.379   3.030   4.405
 7234SOL    HW122601   5.416   3.029   4.498
 7234SOL    HW222602   5.358   2.936   4.376
 7235SOL     OW22603   0.154   4.541   2.196
 7235SOL    HW122604   0.176   4.474   2.124
 7235SOL    HW222605   0.074   4.509   2.248
 7236SOL     OW22606   2.031   2.229   1.747
 7236SOL    HW122607   2.007   2.162   1.677
 7236SOL    HW222608   2.108   2.284   1.716
 7237SOL     OW22609   3.902   0.345   5.025
 7237SOL    HW122610   3.813   0.320   5.064
 7237SOL    HW222611   3.940   0.267   4.976
 7238SOL     OW22612   3.533   1.794   0.688
 7238SOL    HW122613   3.539   1.876   0.744
 7238SOL    HW222614   3.507   1.819   0.595
 7239SOL     OW22615   1.036   2.475   2.640
 7239SOL    HW122616   0.946   2.516   2.656
 7239SOL    HW222617   1.095   2.541   2.594
 7240SOL     OW22618   1.060   6.907   5.965
 7240SOL    HW122619   0.965   6.876   5.967
 7240SOL    HW222620   1.073   6.969   5.887
 7241SOL     OW22621   1.506   0.597   0.524
 7241SOL    HW122622   1.496   0.643   0.612
 7241SOL    HW222623   1.603   0.596   0.499
 7242SOL     OW22624   6.433   6.057   0.511
 7242SOL    HW122625   6.373   6.067   0.431
 7242SOL    HW222626   6.452   6.148   0.550
 7243SOL     OW22627   6.783   4.663   6.410
 7243SOL    HW122628   6.863   4.609   6.434
 7243SOL    HW222629   6.704   4.602   6.397
 7244SOL     OW22630   5.958   1.121   1.817
 7244SOL    HW122631   6.051   1.124   1.780
 7244SOL    HW222632   5.957   1.166   1.907
 7245SOL     OW22633   0.856   2.176   5.288
 7245SOL    HW122634   0.869   2.275   5.286
 7245SOL    HW222635   0.906   2.137   5.366
 7246SOL     OW22636   6.994   0.171   4.108
 7246SOL    HW122637   0.071   0.155   4.102
 7246SOL    HW222638   6.964   0.226   4.030
 7247SOL     OW22639   2.149   0.625   4.475
 7247SOL    HW122640   2.087   0.606   4.400
 7247SOL    HW222641   2.200   0.709   4.456
 7248SOL     OW22642   2.301   1.520   3.558
 7248SOL    HW122643   2.368   1.547   3.627
 7248SOL    HW222644   2.348   1.487   3.477
 7249SOL     OW22645   6.275   4.786   2.728
 7249SOL    HW122646   6.319   4.747   2.648
 7249SOL    HW222647   6.194   4.839   2.700
 7250SOL     OW22648   4.641   6.808   6.138
 7250SOL    HW122649   4.712   6.778   6.074
 7250SOL    HW222650   4.580   6.731   6.159
 7251SOL     OW22651   0.512   6.459   5.670
 7251SOL    HW122652   0.582   6.395   5.700
 7251SOL    HW222653   0.536   6.494   5.579
 7252SOL     OW22654   3.855   3.588   2.740
 7252SOL    HW122655   3.793   3.665   2.757
 7252SOL    HW222656   3.949   3.618   2.753
 7253SOL     OW22657   1.876   6.162   6.841
 7253SOL    HW122658   1.879   6.157   6.741
 7253SOL    HW222659   1.924   6.083   6.879
 7254SOL     OW22660   4.791   5.258   4.226
 7254SOL    HW122661   4.753   5.238   4.136
 7254SOL    HW222662   4.718   5.256   4.294
 7255SOL     OW22663   3.038   3.821   1.141
 7255SOL    HW122664   2.998   3.790   1.227
 7255SOL    HW222665   3.088   3.746   1.098
 7256SOL     OW22666   3.531   4.981   4.341
 7256SOL    HW122667   3.485   4.993   4.253
 7256SOL    HW222668   3.464   4.957   4.411
 7257SOL     OW22669   5.809   2.847   3.797
 7257SOL    HW122670   5.836   2.776   3.731
 7257SOL    HW222671   5.854   2.830   3.884
 7258SOL     OW22672   4.186   1.576   3.878
 7258SOL    HW122673   4.187   1.627   3.792
 7258SOL    HW222674   4.260   1.609   3.937
 7259SOL     OW22675   3.019   3.424   1.342
 7259SOL    HW122676   3.096   3.376   1.383
 7259SOL    HW222677   2.948   3.439   1.411
 7260SOL     OW22678   3.627   1.716   1.998
 7260SOL    HW122679   3.536   1.753   2.017
 7260SOL    HW222680   3.618   1.630   1.947
 7261SOL     OW22681   1.706   2.651   1.572
 7261SOL    HW122682   1.653   2.676   1.492
 7261SOL    HW222683   1.662   2.689   1.654
 7262SOL     OW22684   5.025   1.560   5.571
 7262SOL    HW122685   4.989   1.569   5.478
 7262SOL    HW222686   5.121   1.531   5.567
 7263SOL     OW22687   0.900   0.291   0.672
 7263SOL    HW122688   0.896   0.232   0.591
 7263SOL    HW222689   0.912   0.386   0.643
 7264SOL     OW22690   5.831   1.593   6.324
 7264SOL    HW122691   5.754   1.561   6.268
 7264SOL    HW222692   5.814   1.572   6.420
 7265SOL     OW22693   5.615   5.384   5.828
 7265SOL    HW122694   5.552   5.432   5.889
 7265SOL    HW222695   5.564   5.343   5.753
 7266SOL     OW22696   5.499   0.035   1.217
 7266SOL    HW122697   5.521   7.016   1.128
 7266SOL    HW222698   5.583   0.061   1.263
 7267SOL     OW22699   6.425   5.491   5.033
 7267SOL    HW122700   6.453   5.572   5.085
 7267SOL    HW222701   6.504   5.433   5.016
 7268SOL     OW22702   5.423   5.229   3.917
 7268SOL    HW122703   5.449   5.221   3.820
 7268SOL    HW222704   5.326   5.253   3.923
 7269SOL     OW22705   0.393   6.642   0.124
 7269SOL    HW122706   0.353   6.673   0.037
 7269SOL    HW222707   0.428   6.721   0.174
 7270SOL     OW22708   1.788   3.273   5.718
 7270SOL    HW122709   1.853   3.280   5.794
 7270SOL    HW222710   1.828   3.313   5.636
 7271SOL     OW22711   0.311   6.080   2.982
 7271SOL    HW122712   0.285   6.026   3.062
 7271SOL    HW222713   0.322   6.176   3.009
 7272SOL     OW22714   5.873   5.653   2.123
 7272SOL    HW122715   5.886   5.567   2.073
 7272SOL    HW222716   5.819   5.716   2.068
 7273SOL     OW22717   5.703   5.048   1.946
 7273SOL    HW122718   5.673   4.992   2.023
 7273SOL    HW222719   5.788   5.010   1.909
 7274SOL     OW22720   0.885   5.931   6.737
 7274SOL    HW122721   0.816   5.990   6.695
 7274SOL    HW222722   0.875   5.933   6.837
 7275SOL     OW22723   6.804   0.259   2.643
 7275SOL    HW122724   6.777   0.170   2.681
 7275SOL    HW222725   6.809   0.326   2.717
 7276SOL     OW22726   3.749   1.876   3.078
 7276SOL    HW122727   3.767   1.834   2.989
 7276SOL    HW222728   3.754   1.806   3.149
 7277SOL     OW22729   5.035   0.373   3.468
 7277SOL    HW122730   4.980   0.455   3.447
 7277SOL    HW222731   5.036   0.359   3.567
 7278SOL     OW22732   3.197   2.735   1.485
 7278SOL    HW122733   3.218   2.786   1.402
 7278SOL    HW222734   3.165   2.644   1.462
 7279SOL     OW22735   3.766   4.058   5.701
 7279SOL    HW122736   3.718   3.974   5.673
 7279SOL    HW222737   3.842   4.075   5.640
 7280SOL     OW22738   0.214   1.976   3.910
 7280SOL    HW122739   0.285   1.959   3.843
 7280SOL    HW222740   0.138   1.912   3.896
 7281SOL     OW22741   1.451   1.342   0.324
 7281SOL    HW122742   1.513   1.320   0.400
 7281SOL    HW222743   1.430   1.259   0.273
 7282SOL     OW22744   5.892   6.394   1.433
 7282SOL    HW122745   5.889   6.298   1.460
 7282SOL    HW222746   5.892   6.401   1.333
 7283SOL     OW22747   3.902   0.869   1.924
 7283SOL    HW122748   3.869   0.814   1.847
 7283SOL    HW222749   4.002   0.868   1.926
 7284SOL     OW22750   6.973   2.091   5.721
 7284SOL    HW122751   6.954   2.028   5.647
 7284SOL    HW222752   0.011   2.165   5.688
 7285SOL     OW22753   5.284   3.724   1.726
 7285SOL    HW122754   5.325   3.807   1.764
 7285SOL    HW222755   5.185   3.730   1.730
 7286SOL     OW22756   0.943   0.690   1.283
 7286SOL    HW122757   0.860   0.700   1.337
 7286SOL    HW222758   1.018   0.739   1.328
 7287SOL     OW22759   6.471   2.826   5.149
 7287SOL    HW122760   6.378   2.794   5.129
 7287SOL    HW222761   6.477   2.854   5.245
 7288SOL     OW22762   1.561   1.985   1.425
 7288SOL    HW122763   1.538   2.081   1.441
 7288SOL    HW222764   1.655   1.967   1.456
 7289SOL     OW22765   5.632   2.573   4.547
 7289SOL    HW122766   5.618   2.491   4.491
 7289SOL    HW222767   5.724   2.572   4.585
 7290SOL     OW22768   2.371   1.341   4.916
 7290SOL    HW122769   2.347   1.438   4.913
 7290SOL    HW222770   2.305   1.292   4.973
 7291SOL     OW22771   1.587   6.971   0.445
 7291SOL    HW122772   1.654   6.989   0.373
 7291SOL    HW222773   1.506   0.007   0.431
 7292SOL     OW22774   3.474   0.454   3.120
 7292SOL    HW122775   3.375   0.448   3.107
 7292SOL    HW222776   3.498   0.542   3.161
 7293SOL     OW22777   0.921   1.833   5.316
 7293SOL    HW122778   0.871   1.758   5.360
 7293SOL    HW222779   0.932   1.908   5.380
 7294SOL     OW22780   3.011   4.859   0.364
 7294SOL    HW122781   2.948   4.857   0.441
 7294SOL    HW222782   3.105   4.860   0.398
 7295SOL     OW22783   6.421   3.840   0.873
 7295SOL    HW122784   6.490   3.788   0.822
 7295SOL    HW222785   6.344   3.860   0.812
 7296SOL     OW22786   4.284   5.858   2.025
 7296SOL    HW122787   4.294   5.843   1.927
 7296SOL    HW222788   4.370   5.892   2.063
 7297SOL     OW22789   3.175   6.644   1.132
 7297SOL    HW122790   3.195   6.687   1.044
 7297SOL    HW222791   3.154   6.716   1.199
 7298SOL     OW22792   4.781   5.235   5.743
 7298SOL    HW122793   4.714   5.170   5.778
 7298SOL    HW222794   4.734   5.310   5.696
 7299SOL     OW22795   1.264   2.546   0.770
 7299SOL    HW122796   1.298   2.472   0.711
 7299SOL    HW222797   1.228   2.507   0.854
 7300SOL     OW22798   0.501   6.856   2.343
 7300SOL    HW122799   0.531   6.945   2.309
 7300SOL    HW222800   0.526   6.785   2.277
 7301SOL     OW22801   5.605   2.319   4.952
 7301SOL    HW122802   5.655   2.405   4.959
 7301SOL    HW222803   5.647   2.251   5.012
 7302SOL     OW22804   0.061   2.433   6.290
 7302SOL    HW122805   0.065   2.401   6.384
 7302SOL    HW222806   0.047   2.532   6.289
 7303SOL     OW22807   3.745   0.742   6.918
 7303SOL    HW122808   3.722   0.835   6.945
 7303SOL    HW222809   3.670   0.681   6.943
 7304SOL     OW22810   2.953   5.237   1.273
 7304SOL    HW122811   2.941   5.324   1.225
 7304SOL    HW222812   2.891   5.169   1.236
 7305SOL     OW22813   5.289   1.744   1.540
 7305SOL    HW122814   5.280   1.645   1.530
 7305SOL    HW222815   5.264   1.771   1.634
 7306SOL     OW22816   3.856   1.899   1.653
 7306SOL    HW122817   3.845   1.932   1.746
 7306SOL    HW222818   3.812   1.962   1.589
 7307SOL     OW22819   3.225   6.328   2.547
 7307SOL    HW122820   3.189   6.236   2.567
 7307SOL    HW222821   3.153   6.396   2.563
 7308SOL     OW22822   6.332   1.591   4.439
 7308SOL    HW122823   6.256   1.529   4.416
 7308SOL    HW222824   6.314   1.634   4.528
 7309SOL     OW22825   4.098   5.773   1.562
 7309SOL    HW122826   4.175   5.836   1.575
 7309SOL    HW222827   4.016   5.812   1.604
 7310SOL     OW22828   2.094   3.698   0.490
 7310SOL    HW122829   2.163   3.737   0.429
 7310SOL    HW222830   2.003   3.726   0.459
 7311SOL     OW22831   1.756   1.877   1.054
 7311SOL    HW122832   1.820   1.927   1.112
 7311SOL    HW222833   1.695   1.941   1.008
 7312SOL     OW22834   0.995   2.596   4.746
 7312SOL    HW122835   0.952   2.508   4.725
 7312SOL    HW222836   0.997   2.653   4.663
 7313SOL     OW22837   2.215   1.487   0.225
 7313SOL    HW122838   2.265   1.544   0.290
 7313SOL    HW222839   2.150   1.429   0.275
 7314SOL     OW22840   0.363   3.711   6.347
 7314SOL    HW122841   0.362   3.624   6.298
 7314SOL    HW222842   0.289   3.713   6.414
 7315SOL     OW22843   5.094   5.707   1.740
 7315SOL    HW122844   5.018   5.771   1.732
 7315SOL    HW222845   5.169   5.750   1.791
 7316SOL     OW22846   3.144   3.528   6.788
 7316SOL    HW122847   3.137   3.607   6.728
 7316SOL    HW222848   3.223   3.473   6.761
 7317SOL     OW22849   4.308   1.987   1.582
 7317SOL    HW122850   4.365   2.027   1.654
 7317SOL    HW222851   4.234   2.050   1.559
 7318SOL     OW22852   2.782   0.407   2.152
 7318SOL    HW122853   2.851   0.451   2.094
 7318SOL    HW222854   2.760   0.316   2.116
 7319SOL     OW22855   6.119   3.697   6.891
 7319SOL    HW122856   6.164   3.626   6.838
 7319SOL    HW222857   6.020   3.695   6.871
 7320SOL     OW22858   0.500   3.404   1.221
 7320SOL    HW122859   0.532   3.489   1.262
 7320SOL    HW222860   0.410   3.381   1.256
 7321SOL     OW22861   2.011   6.480   5.421
 7321SOL    HW122862   2.096   6.426   5.421
 7321SOL    HW222863   2.007   6.535   5.505
 7322SOL     OW22864   6.646   2.725   3.086
 7322SOL    HW122865   6.741   2.693   3.084
 7322SOL    HW222866   6.587   2.658   3.041
 7323SOL     OW22867   2.195   2.862   1.722
 7323SOL    HW122868   2.095   2.865   1.723
 7323SOL    HW222869   2.232   2.954   1.711
 7324SOL     OW22870   5.705   5.158   1.698
 7324SOL    HW122871   5.771   5.232   1.709
 7324SOL    HW222872   5.700   5.106   1.783
 7325SOL     OW22873   2.595   0.069   6.120
 7325SOL    HW122874   2.519   0.044   6.060
 7325SOL    HW222875   2.680   0.072   6.068
 7326SOL     OW22876   3.433   5.709   6.238
 7326SOL    HW122877   3.503   5.691   6.308
 7326SOL    HW222878   3.352   5.654   6.257
 7327SOL     OW22879   6.348   2.515   5.242
 7327SOL    HW122880   6.341   2.586   5.312
 7327SOL    HW222881   6.439   2.475   5.244
 7328SOL     OW22882   4.693   0.021   5.832
 7328SOL    HW122883   4.594   0.019   5.843
 7328SOL    HW222884   4.730   6.951   5.841
 7329SOL     OW22885   0.340   4.215   0.570
 7329SOL    HW122886   0.278   4.172   0.505
 7329SOL    HW222887   0.298   4.215   0.661
 7330SOL     OW22888   2.520   3.409   0.263
 7330SOL    HW122889   2.485   3.365   0.346
 7330SOL    HW222890   2.619   3.393   0.257
 7331SOL     OW22891   5.439   6.514   0.685
 7331SOL    HW122892   5.473   6.443   0.747
 7331SOL    HW222893   5.355   6.553   0.722
 7332SOL     OW22894   3.384   5.061   0.132
 7332SOL    HW122895   3.381   5.059   0.232
 7332SOL    HW222896   3.293   5.082   0.096
 7333SOL     OW22897   5.883   2.867   3.357
 7333SOL    HW122898   5.789   2.834   3.341
 7333SOL    HW222899   5.894   2.957   3.316
 7334SOL     OW22900   1.692   6.721   6.025
 7334SOL    HW122901   1.697   6.786   6.101
 7334SOL    HW222902   1.597   6.691   6.014
 7335SOL     OW22903   0.025   3.441   3.190
 7335SOL    HW122904   0.094   3.375   3.218
 7335SOL    HW222905   0.063   3.504   3.123
 7336SOL     OW22906   2.382   6.785   2.310
 7336SOL    HW122907   2.336   6.849   2.372
 7336SOL    HW222908   2.314   6.730   2.262
 7337SOL     OW22909   1.588   3.044   2.326
 7337SOL    HW122910   1.669   3.000   2.364
 7337SOL    HW222911   1.581   3.023   2.228
 7338SOL     OW22912   5.594   1.582   1.624
 7338SOL    HW122913   5.518   1.551   1.566
 7338SOL    HW222914   5.569   1.571   1.720
 7339SOL     OW22915   5.882   0.238   5.000
 7339SOL    HW122916   5.813   0.166   4.994
 7339SOL    HW222917   5.973   0.197   5.008
 7340SOL     OW22918   3.496   1.426   0.240
 7340SOL    HW122919   3.406   1.468   0.237
 7340SOL    HW222920   3.491   1.340   0.291
 7341SOL     OW22921   0.812   4.658   4.610
 7341SOL    HW122922   0.716   4.639   4.588
 7341SOL    HW222923   0.864   4.573   4.605
 7342SOL     OW22924   0.294   6.661   6.303
 7342SOL    HW122925   0.241   6.720   6.364
 7342SOL    HW222926   0.391   6.674   6.321
 7343SOL     OW22927   5.732   4.565   1.446
 7343SOL    HW122928   5.704   4.473   1.418
 7343SOL    HW222929   5.661   4.606   1.502
 7344SOL     OW22930   1.192   0.687   5.795
 7344SOL    HW122931   1.176   0.620   5.722
 7344SOL    HW222932   1.117   0.683   5.861
 7345SOL     OW22933   5.099   5.669   5.298
 7345SOL    HW122934   5.189   5.704   5.273
 7345SOL    HW222935   5.108   5.606   5.376
 7346SOL     OW22936   4.607   4.151   1.630
 7346SOL    HW122937   4.540   4.160   1.704
 7346SOL    HW222938   4.603   4.233   1.572
 7347SOL     OW22939   0.556   3.030   1.229
 7347SOL    HW122940   0.570   3.032   1.130
 7347SOL    HW222941   0.463   3.002   1.250
 7348SOL     OW22942   1.139   3.775   3.472
 7348SOL    HW122943   1.150   3.793   3.374
 7348SOL    HW222944   1.193   3.841   3.524
 7349SOL     OW22945   4.554   2.038   0.452
 7349SOL    HW122946   4.488   1.989   0.395
 7349SOL    HW222947   4.645   2.027   0.414
 7350SOL     OW22948   2.002   3.023   5.685
 7350SOL    HW122949   2.066   3.077   5.631
 7350SOL    HW222950   1.908   3.055   5.669
 7351SOL     OW22951   4.962   5.878   5.432
 7351SOL    HW122952   4.966   5.885   5.532
 7351SOL    HW222953   5.011   5.796   5.403
 7352SOL     OW22954   1.663   2.935   2.887
 7352SOL    HW122955   1.590   2.974   2.831
 7352SOL    HW222956   1.663   2.980   2.977
 7353SOL     OW22957   0.310   6.858   5.978
 7353SOL    HW122958   0.221   6.832   6.018
 7353SOL    HW222959   0.300   6.944   5.928
 7354SOL     OW22960   0.637   1.857   6.651
 7354SOL    HW122961   0.584   1.826   6.730
 7354SOL    HW222962   0.701   1.928   6.680
 7355SOL     OW22963   2.239   1.270   0.463
 7355SOL    HW122964   2.266   1.176   0.444
 7355SOL    HW222965   2.300   1.310   0.531
 7356SOL     OW22966   3.946   3.536   5.906
 7356SOL    HW122967   3.893   3.454   5.885
 7356SOL    HW222968   3.957   3.591   5.823
 7357SOL     OW22969   4.363   0.016   1.898
 7357SOL    HW122970   4.420   6.968   1.856
 7357SOL    HW222971   4.405   0.048   1.983
 7358SOL     OW22972   0.108   2.781   2.919
 7358SOL    HW122973   0.111   2.866   2.866
 7358SOL    HW222974   0.045   2.717   2.875
 7359SOL     OW22975   2.598   2.678   6.297
 7359SOL    HW122976   2.506   2.661   6.262
 7359SOL    HW222977   2.592   2.712   6.391
 7360SOL     OW22978   3.456   4.328   5.879
 7360SOL    HW122979   3.440   4.244   5.932
 7360SOL    HW222980   3.545   4.321   5.833
 7361SOL     OW22981   4.655   0.145   1.699
 7361SOL    HW122982   4.707   0.107   1.776
 7361SOL    HW222983   4.586   0.079   1.670
 7362SOL     OW22984   1.096   5.436   4.216
 7362SOL    HW122985   1.149   5.459   4.134
 7362SOL    HW222986   1.156   5.434   4.296
 7363SOL     OW22987   4.230   1.232   1.178
 7363SOL    HW122988   4.280   1.319   1.185
 7363SOL    HW222989   4.143   1.240   1.228
 7364SOL     OW22990   4.405   0.600   1.274
 7364SOL    HW122991   4.489   0.553   1.250
 7364SOL    HW222992   4.398   0.685   1.221
 7365SOL     OW22993   1.399   0.180   1.734
 7365SOL    HW122994   1.397   0.152   1.638
 7365SOL    HW222995   1.489   0.218   1.755
 7366SOL     OW22996   2.164   5.906   6.945
 7366SOL    HW122997   2.192   5.980   7.006
 7366SOL    HW222998   2.064   5.906   6.936
 7367SOL     OW22999   4.907   3.600   1.207
 7367SOL    HW123000   4.807   3.599   1.212
 7367SOL    HW223001   4.945   3.610   1.299
 7368SOL     OW23002   3.826   3.000   3.189
 7368SOL    HW123003   3.904   3.003   3.251
 7368SOL    HW223004   3.741   2.989   3.241
 7369SOL     OW23005   4.096   2.747   6.887
 7369SOL    HW123006   4.117   2.652   6.906
 7369SOL    HW223007   4.073   2.794   6.972
 7370SOL     OW23008   2.749   0.860   4.737
 7370SOL    HW123009   2.703   0.867   4.648
 7370SOL    HW223010   2.746   0.949   4.783
 7371SOL     OW23011   2.013   6.122   3.555
 7371SOL    HW123012   1.981   6.210   3.520
 7371SOL    HW223013   2.109   6.109   3.531
 7372SOL     OW23014   4.076   1.299   4.762
 7372SOL    HW123015   4.137   1.223   4.738
 7372SOL    HW223016   4.098   1.332   4.853
 7373SOL     OW23017   5.852   1.455   4.398
 7373SOL    HW123018   5.808   1.408   4.321
 7373SOL    HW223019   5.825   1.411   4.483
 7374SOL     OW23020   3.217   1.290   5.588
 7374SOL    HW123021   3.285   1.363   5.580
 7374SOL    HW223022   3.213   1.259   5.683
 7375SOL     OW23023   2.170   3.251   3.202
 7375SOL    HW123024   2.101   3.188   3.166
 7375SOL    HW223025   2.182   3.327   3.138
 7376SOL     OW23026   3.306   1.864   0.217
 7376SOL    HW123027   3.357   1.907   0.291
 7376SOL    HW223028   3.321   1.914   0.132
 7377SOL     OW23029   5.342   4.542   0.508
 7377SOL    HW123030   5.260   4.511   0.556
 7377SOL    HW223031   5.423   4.520   0.561
 7378SOL     OW23032   0.941   1.306   5.456
 7378SOL    HW123033   0.932   1.311   5.357
 7378SOL    HW223034   0.969   1.395   5.492
 7379SOL     OW23035   3.047   2.206   2.959
 7379SOL    HW123036   3.044   2.181   3.055
 7379SOL    HW223037   3.138   2.240   2.936
 7380SOL     OW23038   0.491   3.817   4.875
 7380SOL    HW123039   0.439   3.896   4.909
 7380SOL    HW223040   0.440   3.773   4.800
 7381SOL     OW23041   4.812   3.672   1.794
 7381SOL    HW123042   4.768   3.761   1.803
 7381SOL    HW223043   4.773   3.623   1.715
 7382SOL     OW23044   0.371   5.615   6.159
 7382SOL    HW123045   0.362   5.591   6.062
 7382SOL    HW223046   0.358   5.714   6.170
 7383SOL     OW23047   1.047   6.615   0.920
 7383SOL    HW123048   1.085   6.695   0.966
 7383SOL    HW223049   1.098   6.598   0.836
 7384SOL     OW23050   5.865   0.982   3.621
 7384SOL    HW123051   5.821   0.895   3.645
 7384SOL    HW223052   5.907   1.021   3.703
 7385SOL     OW23053   4.534   5.916   2.107
 7385SOL    HW123054   4.611   5.970   2.141
 7385SOL    HW223055   4.556   5.819   2.113
 7386SOL     OW23056   0.795   2.322   5.647
 7386SOL    HW123057   0.736   2.244   5.668
 7386SOL    HW223058   0.888   2.302   5.676
 7387SOL     OW23059   4.589   6.288   4.217
 7387SOL    HW123060   4.510   6.323   4.166
 7387SOL    HW223061   4.661   6.262   4.153
 7388SOL     OW23062   0.117   4.789   2.530
 7388SOL    HW123063   0.150   4.881   2.547
 7388SOL    HW223064   0.176   4.723   2.577
 7389SOL     OW23065   0.443   3.092   6.383
 7389SOL    HW123066   0.467   3.135   6.470
 7389SOL    HW223067   0.501   3.129   6.311
 7390SOL     OW23068   1.968   2.062   0.080
 7390SOL    HW123069   1.989   2.159   0.074
 7390SOL    HW223070   2.038   2.015   0.134
 7391SOL     OW23071   3.971   3.679   5.280
 7391SOL    HW123072   3.933   3.770   5.297
 7391SOL    HW223073   3.913   3.630   5.215
 7392SOL     OW23074   2.356   6.134   6.829
 7392SOL    HW123075   2.373   6.041   6.864
 7392SOL    HW223076   2.327   6.129   6.733
 7393SOL     OW23077   5.238   5.051   2.473
 7393SOL    HW123078   5.223   5.143   2.509
 7393SOL    HW223079   5.151   5.003   2.467
 7394SOL     OW23080   3.203   1.959   5.688
 7394SOL    HW123081   3.205   2.033   5.755
 7394SOL    HW223082   3.250   1.988   5.605
 7395SOL     OW23083   1.801   2.460   6.885
 7395SOL    HW123084   1.863   2.505   6.821
 7395SOL    HW223085   1.852   2.434   6.967
 7396SOL     OW23086   1.236   6.885   0.404
 7396SOL    HW123087   1.283   6.930   0.479
 7396SOL    HW223088   1.288   6.805   0.375
 7397SOL     OW23089   4.253   5.275   5.010
 7397SOL    HW123090   4.326   5.335   4.976
 7397SOL    HW223091   4.243   5.197   4.949
 7398SOL     OW23092   2.562   4.869   4.283
 7398SOL    HW123093   2.580   4.780   4.323
 7398SOL    HW223094   2.611   4.877   4.196
 7399SOL     OW23095   1.047   2.171   5.737
 7399SOL    HW123096   1.005   2.170   5.828
 7399SOL    HW223097   1.147   2.171   5.747
 7400SOL     OW23098   4.035   2.954   5.940
 7400SOL    HW123099   4.063   2.988   5.850
 7400SOL    HW223100   4.094   2.993   6.011
 7401SOL     OW23101   1.614   0.718   4.740
 7401SOL    HW123102   1.609   0.817   4.748
 7401SOL    HW223103   1.601   0.690   4.645
 7402SOL     OW23104   2.948   6.011   6.290
 7402SOL    HW123105   2.924   6.000   6.193
 7402SOL    HW223106   2.899   5.943   6.344
 7403SOL     OW23107   2.254   4.128   2.598
 7403SOL    HW123108   2.284   4.075   2.677
 7403SOL    HW223109   2.170   4.176   2.620
 7404SOL     OW23110   1.756   4.939   1.175
 7404SOL    HW123111   1.738   5.034   1.149
 7404SOL    HW223112   1.740   4.928   1.273
 7405SOL     OW23113   3.846   4.910   3.970
 7405SOL    HW123114   3.770   4.928   3.907
 7405SOL    HW223115   3.823   4.945   4.060
 7406SOL     OW23116   0.192   3.231   3.306
 7406SOL    HW123117   0.218   3.158   3.368
 7406SOL    HW223118   0.274   3.274   3.268
 7407SOL     OW23119   0.081   6.204   4.283
 7407SOL    HW123120   0.147   6.183   4.211
 7407SOL    HW223121   0.124   6.260   4.353
 7408SOL     OW23122   2.343   4.340   6.670
 7408SOL    HW123123   2.338   4.366   6.767
 7408SOL    HW223124   2.439   4.333   6.643
 7409SOL     OW23125   0.430   1.695   5.981
 7409SOL    HW123126   0.505   1.629   5.986
 7409SOL    HW223127   0.436   1.758   6.059
 7410SOL     OW23128   0.450   6.788   0.933
 7410SOL    HW123129   0.476   6.875   0.975
 7410SOL    HW223130   0.477   6.712   0.992
 7411SOL     OW23131   2.785   0.230   5.054
 7411SOL    HW123132   2.789   0.181   5.141
 7411SOL    HW223133   2.754   0.168   4.982
 7412SOL     OW23134   4.889   0.102   1.984
 7412SOL    HW123135   4.891   0.202   1.988
 7412SOL    HW223136   4.904   0.065   2.075
 7413SOL     OW23137   4.951   5.819   4.323
 7413SOL    HW123138   4.856   5.800   4.301
 7413SOL    HW223139   4.959   5.908   4.366
 7414SOL     OW23140   0.439   0.347   3.755
 7414SOL    HW123141   0.413   0.265   3.704
 7414SOL    HW223142   0.452   0.324   3.851
 7415SOL     OW23143   1.922   4.092   4.496
 7415SOL    HW123144   1.842   4.053   4.449
 7415SOL    HW223145   1.905   4.094   4.595
 7416SOL     OW23146   2.364   2.010   3.748
 7416SOL    HW123147   2.372   1.944   3.823
 7416SOL    HW223148   2.454   2.046   3.726
 7417SOL     OW23149   1.942   0.579   6.873
 7417SOL    HW123150   2.028   0.528   6.869
 7417SOL    HW223151   1.900   0.566   6.962
 7418SOL     OW23152   3.088   6.030   0.897
 7418SOL    HW123153   3.060   5.934   0.892
 7418SOL    HW223154   3.132   6.048   0.985
 7419SOL     OW23155   5.798   3.289   5.153
 7419SOL    HW123156   5.881   3.238   5.176
 7419SOL    HW223157   5.753   3.246   5.075
 7420SOL     OW23158   0.467   6.890   1.943
 7420SOL    HW123159   0.470   6.910   2.041
 7420SOL    HW223160   0.388   6.935   1.901
 7421SOL     OW23161   3.416   4.042   0.863
 7421SOL    HW123162   3.327   3.998   0.851
 7421SOL    HW223163   3.483   4.000   0.801
 7422SOL     OW23164   0.067   3.253   2.919
 7422SOL    HW123165   0.086   3.350   2.935
 7422SOL    HW223166   7.014   3.222   2.978
 7423SOL     OW23167   6.188   3.819   5.682
 7423SOL    HW123168   6.231   3.883   5.747
 7423SOL    HW223169   6.106   3.862   5.644
 7424SOL     OW23170   6.753   6.872   5.371
 7424SOL    HW123171   6.808   6.951   5.345
 7424SOL    HW223172   6.687   6.852   5.299
 7425SOL     OW23173   4.578   5.329   6.494
 7425SOL    HW123174   4.572   5.373   6.584
 7425SOL    HW223175   4.583   5.399   6.423
 7426SOL     OW23176   2.285   1.049   5.730
 7426SOL    HW123177   2.278   1.106   5.648
 7426SOL    HW223178   2.194   1.031   5.766
 7427SOL     OW23179   3.637   0.170   4.159
 7427SOL    HW123180   3.642   0.265   4.129
 7427SOL    HW223181   3.720   0.147   4.211
 7428SOL     OW23182   3.952   1.296   6.128
 7428SOL    HW123183   3.968   1.231   6.053
 7428SOL    HW223184   3.891   1.368   6.098
 7429SOL     OW23185   6.997   6.819   3.982
 7429SOL    HW123186   0.019   6.871   3.908
 7429SOL    HW223187   0.001   6.859   4.070
 7430SOL     OW23188   0.808   3.285   6.925
 7430SOL    HW123189   0.808   3.185   6.920
 7430SOL    HW223190   0.738   3.321   6.863
 7431SOL     OW23191   0.732   3.004   3.062
 7431SOL    HW123192   0.659   3.011   2.994
 7431SOL    HW223193   0.816   2.970   3.019
 7432SOL     OW23194   0.816   1.002   3.444
 7432SOL    HW123195   0.827   0.922   3.385
 7432SOL    HW223196   0.871   1.077   3.409
 7433SOL     OW23197   4.770   5.751   6.304
 7433SOL    HW123198   4.732   5.658   6.311
 7433SOL    HW223199   4.731   5.809   6.375
 7434SOL     OW23200   5.031   6.408   5.964
 7434SOL    HW123201   5.094   6.476   6.002
 7434SOL    HW223202   5.082   6.344   5.907
 7435SOL     OW23203   3.895   5.977   0.947
 7435SOL    HW123204   3.805   6.022   0.948
 7435SOL    HW223205   3.908   5.930   0.860
 7436SOL     OW23206   5.796   3.793   6.353
 7436SOL    HW123207   5.883   3.800   6.305
 7436SOL    HW223208   5.722   3.822   6.292
 7437SOL     OW23209   0.896   6.334   0.279
 7437SOL    HW123210   0.869   6.342   0.375
 7437SOL    HW223211   0.995   6.345   0.271
 7438SOL     OW23212   1.025   5.528   0.081
 7438SOL    HW123213   1.031   5.475   7.018
 7438SOL    HW223214   1.117   5.540   0.119
 7439SOL     OW23215   1.586   5.858   5.533
 7439SOL    HW123216   1.670   5.897   5.571
 7439SOL    HW223217   1.588   5.758   5.544
 7440SOL     OW23218   0.136   3.894   4.243
 7440SOL    HW123219   0.122   3.796   4.228
 7440SOL    HW223220   0.223   3.922   4.201
 7441SOL     OW23221   5.470   6.314   3.957
 7441SOL    HW123222   5.495   6.410   3.963
 7441SOL    HW223223   5.382   6.300   4.003
 7442SOL     OW23224   6.448   0.923   5.838
 7442SOL    HW123225   6.367   0.875   5.871
 7442SOL    HW223226   6.490   0.974   5.913
 7443SOL     OW23227   6.770   7.021   1.915
 7443SOL    HW123228   6.688   0.015   1.971
 7443SOL    HW223229   6.836   6.969   1.968
 7444SOL     OW23230   6.009   2.900   5.570
 7444SOL    HW123231   5.957   2.962   5.629
 7444SOL    HW223232   6.021   2.813   5.617
 7445SOL     OW23233   3.762   1.263   1.262
 7445SOL    HW123234   3.687   1.207   1.296
 7445SOL    HW223235   3.759   1.265   1.162
 7446SOL     OW23236   5.593   3.640   1.014
 7446SOL    HW123237   5.630   3.634   1.107
 7446SOL    HW223238   5.573   3.548   0.980
 7447SOL     OW23239   0.621   3.466   6.317
 7447SOL    HW123240   0.539   3.427   6.359
 7447SOL    HW223241   0.601   3.489   6.221
 7448SOL     OW23242   6.638   5.921   5.554
 7448SOL    HW123243   6.690   5.920   5.468
 7448SOL    HW223244   6.549   5.963   5.538
 7449SOL     OW23245   6.434   3.368   1.857
 7449SOL    HW123246   6.342   3.344   1.827
 7449SOL    HW223247   6.436   3.379   1.956
 7450SOL     OW23248   5.365   1.965   4.348
 7450SOL    HW123249   5.315   1.934   4.267
 7450SOL    HW223250   5.434   2.032   4.320
 7451SOL     OW23251   0.047   0.535   3.046
 7451SOL    HW123252   7.022   0.542   2.958
 7451SOL    HW223253   0.107   0.456   3.045
 7452SOL     OW23254   0.742   6.159   4.805
 7452SOL    HW123255   0.780   6.185   4.716
 7452SOL    HW223256   0.643   6.170   4.803
 7453SOL     OW23257   4.993   6.719   5.729
 7453SOL    HW123258   4.901   6.679   5.723
 7453SOL    HW223259   5.058   6.649   5.760
 7454SOL     OW23260   0.498   2.390   2.713
 7454SOL    HW123261   0.598   2.391   2.721
 7454SOL    HW223262   0.472   2.383   2.617
 7455SOL     OW23263   6.959   1.670   2.338
 7455SOL    HW123264   0.020   1.698   2.288
 7455SOL    HW223265   6.968   1.575   2.367
 7456SOL     OW23266   1.002   1.242   4.388
 7456SOL    HW123267   1.020   1.220   4.484
 7456SOL    HW223268   0.937   1.318   4.383
 7457SOL     OW23269   3.906   0.139   6.050
 7457SOL    HW123270   3.850   0.221   6.059
 7457SOL    HW223271   3.989   0.161   5.998
 7458SOL     OW23272   1.894   6.590   5.859
 7458SOL    HW123273   1.883   6.491   5.862
 7458SOL    HW223274   1.844   6.631   5.936
 7459SOL     OW23275   4.840   0.568   1.784
 7459SOL    HW123276   4.866   0.472   1.769
 7459SOL    HW223277   4.916   0.627   1.756
 7460SOL     OW23278   1.322   5.136   0.741
 7460SOL    HW123279   1.419   5.156   0.730
 7460SOL    HW223280   1.268   5.213   0.704
 7461SOL     OW23281   5.886   1.416   5.955
 7461SOL    HW123282   5.951   1.365   5.899
 7461SOL    HW223283   5.913   1.512   5.959
 7462SOL     OW23284   1.751   4.061   2.664
 7462SOL    HW123285   1.756   4.130   2.736
 7462SOL    HW223286   1.822   4.080   2.596
 7463SOL     OW23287   2.538   4.620   1.195
 7463SOL    HW123288   2.498   4.711   1.180
 7463SOL    HW223289   2.536   4.568   1.110
 7464SOL     OW23290   4.665   0.336   6.573
 7464SOL    HW123291   4.575   0.375   6.552
 7464SOL    HW223292   4.663   0.295   6.664
 7465SOL     OW23293   0.623   5.658   0.358
 7465SOL    HW123294   0.579   5.697   0.277
 7465SOL    HW223295   0.722   5.654   0.343
 7466SOL     OW23296   6.893   0.716   5.176
 7466SOL    HW123297   6.912   0.756   5.265
 7466SOL    HW223298   6.806   0.666   5.180
 7467SOL     OW23299   0.190   2.039   1.096
 7467SOL    HW123300   0.233   1.995   1.018
 7467SOL    HW223301   0.209   2.137   1.095
 7468SOL     OW23302   5.373   3.025   3.686
 7468SOL    HW123303   5.392   3.024   3.588
 7468SOL    HW223304   5.303   2.956   3.707
 7469SOL     OW23305   0.010   1.119   0.466
 7469SOL    HW123306   7.012   1.041   0.406
 7469SOL    HW223307   6.954   1.137   0.525
 7470SOL     OW23308   6.612   3.463   4.053
 7470SOL    HW123309   6.586   3.446   3.958
 7470SOL    HW223310   6.549   3.414   4.114
 7471SOL     OW23311   6.536   5.834   6.053
 7471SOL    HW123312   6.596   5.867   5.981
 7471SOL    HW223313   6.442   5.829   6.019
 7472SOL     OW23314   6.279   6.643   5.068
 7472SOL    HW123315   6.237   6.703   5.136
 7472SOL    HW223316   6.287   6.551   5.105
 7473SOL     OW23317   6.225   5.141   3.271
 7473SOL    HW123318   6.268   5.073   3.212
 7473SOL    HW223319   6.294   5.206   3.303
 7474SOL     OW23320   1.625   1.305   5.513
 7474SOL    HW123321   1.696   1.312   5.583
 7474SOL    HW223322   1.561   1.232   5.537
 7475SOL     OW23323   4.606   2.188   2.162
 7475SOL    HW123324   4.572   2.095   2.168
 7475SOL    HW223325   4.539   2.251   2.200
 7476SOL     OW23326   3.033   6.478   3.657
 7476SOL    HW123327   3.110   6.542   3.669
 7476SOL    HW223328   3.066   6.395   3.613
 7477SOL     OW23329   0.409   0.828   5.059
 7477SOL    HW123330   0.476   0.753   5.068
 7477SOL    HW223331   0.317   0.792   5.075
 7478SOL     OW23332   4.962   5.584   6.545
 7478SOL    HW123333   5.037   5.596   6.610
 7478SOL    HW223334   4.976   5.645   6.467
 7479SOL     OW23335   4.788   2.550   1.731
 7479SOL    HW123336   4.731   2.620   1.775
 7479SOL    HW223337   4.809   2.478   1.797
 7480SOL     OW23338   0.505   4.077   1.850
 7480SOL    HW123339   0.483   4.117   1.761
 7480SOL    HW223340   0.423   4.036   1.889
 7481SOL     OW23341   5.973   5.050   1.216
 7481SOL    HW123342   5.958   5.009   1.127
 7481SOL    HW223343   6.022   5.137   1.206
 7482SOL     OW23344   4.527   2.093   3.104
 7482SOL    HW123345   4.601   2.029   3.080
 7482SOL    HW223346   4.456   2.044   3.155
 7483SOL     OW23347   4.716   2.752   4.685
 7483SOL    HW123348   4.765   2.837   4.705
 7483SOL    HW223349   4.769   2.675   4.720
 7484SOL     OW23350   1.768   0.672   3.570
 7484SOL    HW123351   1.679   0.663   3.526
 7484SOL    HW223352   1.829   0.724   3.510
 7485SOL     OW23353   3.660   0.271   5.121
 7485SOL    HW123354   3.616   0.182   5.133
 7485SOL    HW223355   3.596   0.335   5.080
 7486SOL     OW23356   1.888   0.203   0.662
 7486SOL    HW123357   1.931   0.182   0.574
 7486SOL    HW223358   1.949   0.263   0.715
 7487SOL     OW23359   2.306   6.332   2.638
 7487SOL    HW123360   2.395   6.312   2.598
 7487SOL    HW223361   2.313   6.333   2.738
 7488SOL     OW23362   2.391   6.774   3.799
 7488SOL    HW123363   2.307   6.772   3.854
 7488SOL    HW223364   2.419   6.681   3.777
 7489SOL     OW23365   5.219   2.814   5.252
 7489SOL    HW123366   5.160   2.877   5.201
 7489SOL    HW223367   5.254   2.743   5.190
 7490SOL     OW23368   1.351   0.701   1.926
 7490SOL    HW123369   1.370   0.617   1.876
 7490SOL    HW223370   1.399   0.700   2.013
 7491SOL     OW23371   5.809   2.114   5.836
 7491SOL    HW123372   5.874   2.169   5.889
 7491SOL    HW223373   5.787   2.031   5.888
 7492SOL     OW23374   1.940   0.456   3.053
 7492SOL    HW123375   2.028   0.448   3.098
 7492SOL    HW223376   1.869   0.475   3.121
 7493SOL     OW23377   0.137   3.414   6.671
 7493SOL    HW123378   0.046   3.454   6.664
 7493SOL    HW223379   0.201   3.467   6.616
 7494SOL     OW23380   4.632   1.277   2.623
 7494SOL    HW123381   4.607   1.245   2.532
 7494SOL    HW223382   4.551   1.317   2.668
 7495SOL     OW23383   2.131   1.430   6.979
 7495SOL    HW123384   2.139   1.491   0.036
 7495SOL    HW223385   2.209   1.443   6.918
 7496SOL     OW23386   6.161   3.390   5.957
 7496SOL    HW123387   6.252   3.362   5.927
 7496SOL    HW223388   6.147   3.360   6.051
 7497SOL     OW23389   2.041   4.298   0.118
 7497SOL    HW123390   2.102   4.373   0.092
 7497SOL    HW223391   2.022   4.241   0.038
 7498SOL     OW23392   2.928   0.349   5.952
 7498SOL    HW123393   2.882   0.398   5.878
 7498SOL    HW223394   3.011   0.399   5.978
 7499SOL     OW23395   3.120   1.882   2.988
 7499SOL    HW123396   3.190   1.952   2.973
 7499SOL    HW223397   3.039   1.924   3.028
 7500SOL     OW23398   3.193   5.328   2.952
 7500SOL    HW123399   3.247   5.366   2.877
 7500SOL    HW223400   3.220   5.234   2.969
 7501SOL     OW23401   5.178   4.202   4.780
 7501SOL    HW123402   5.187   4.104   4.801
 7501SOL    HW223403   5.107   4.215   4.711
 7502SOL     OW23404   1.733   0.434   3.832
 7502SOL    HW123405   1.778   0.425   3.744
 7502SOL    HW223406   1.650   0.378   3.834
 7503SOL     OW23407   2.498   0.807   0.929
 7503SOL    HW123408   2.558   0.886   0.918
 7503SOL    HW223409   2.552   0.725   0.946
 7504SOL     OW23410   1.255   0.022   3.078
 7504SOL    HW123411   1.288   6.999   3.161
 7504SOL    HW223412   1.258   0.121   3.090
 7505SOL     OW23413   2.178   1.415   5.395
 7505SOL    HW123414   2.217   1.506   5.411
 7505SOL    HW223415   2.118   1.418   5.315
 7506SOL     OW23416   5.868   0.697   3.378
 7506SOL    HW123417   5.803   0.750   3.324
 7506SOL    HW223418   5.955   0.747   3.382
 7507SOL     OW23419   0.466   1.019   2.544
 7507SOL    HW123420   0.515   0.932   2.544
 7507SOL    HW223421   0.422   1.033   2.633
 7508SOL     OW23422   0.913   6.986   1.414
 7508SOL    HW123423   0.850   6.940   1.477
 7508SOL    HW223424   1.007   6.970   1.443
 7509SOL     OW23425   5.324   4.225   0.295
 7509SOL    HW123426   5.262   4.217   0.373
 7509SOL    HW223427   5.297   4.160   0.224
 7510SOL     OW23428   3.951   4.130   5.511
 7510SOL    HW123429   4.022   4.077   5.464
 7510SOL    HW223430   3.908   4.193   5.447
 7511SOL     OW23431   2.636   6.885   3.871
 7511SOL    HW123432   2.553   6.842   3.837
 7511SOL    HW223433   2.670   6.950   3.802
 7512SOL     OW23434   2.761   6.582   6.315
 7512SOL    HW123435   2.853   6.595   6.351
 7512SOL    HW223436   2.753   6.627   6.226
 7513SOL     OW23437   2.561   0.839   1.363
 7513SOL    HW123438   2.611   0.771   1.309
 7513SOL    HW223439   2.522   0.908   1.302
 7514SOL     OW23440   2.522   5.706   1.711
 7514SOL    HW123441   2.459   5.784   1.711
 7514SOL    HW223442   2.531   5.671   1.804
 7515SOL     OW23443   6.844   4.695   2.770
 7515SOL    HW123444   6.856   4.794   2.763
 7515SOL    HW223445   6.792   4.662   2.691
 7516SOL     OW23446   6.887   6.508   5.221
 7516SOL    HW123447   6.889   6.579   5.151
 7516SOL    HW223448   6.793   6.493   5.251
 7517SOL     OW23449   0.337   2.919   0.921
 7517SOL    HW123450   0.384   2.852   0.864
 7517SOL    HW223451   0.298   2.873   1.001
 7518SOL     OW23452   4.176   4.754   4.034
 7518SOL    HW123453   4.167   4.743   4.133
 7518SOL    HW223454   4.238   4.685   3.998
 7519SOL     OW23455   0.356   6.747   3.868
 7519SOL    HW123456   0.349   6.703   3.958
 7519SOL    HW223457   0.332   6.844   3.877
 7520SOL     OW23458   2.459   0.330   2.243
 7520SOL    HW123459   2.426   0.276   2.321
 7520SOL    HW223460   2.540   0.381   2.270
 7521SOL     OW23461   4.932   3.927   6.147
 7521SOL    HW123462   4.855   3.984   6.176
 7521SOL    HW223463   4.933   3.843   6.201
 7522SOL     OW23464   1.726   0.837   6.346
 7522SOL    HW123465   1.812   0.879   6.373
 7522SOL    HW223466   1.667   0.905   6.302
 7523SOL     OW23467   6.049   0.302   5.517
 7523SOL    HW123468   6.102   0.386   5.509
 7523SOL    HW223469   5.991   0.292   5.436
 7524SOL     OW23470   1.241   1.945   5.439
 7524SOL    HW123471   1.243   1.870   5.505
 7524SOL    HW223472   1.281   1.915   5.353
 7525SOL     OW23473   3.346   0.565   6.425
 7525SOL    HW123474   3.367   0.556   6.523
 7525SOL    HW223475   3.314   0.657   6.406
 7526SOL     OW23476   2.910   3.184   2.051
 7526SOL    HW123477   2.891   3.269   2.100
 7526SOL    HW223478   2.997   3.147   2.081
 7527SOL     OW23479   3.073   5.930   2.976
 7527SOL    HW123480   2.993   5.970   2.932
 7527SOL    HW223481   3.045   5.871   3.051
 7528SOL     OW23482   5.660   2.054   0.025
 7528SOL    HW123483   5.596   1.981   0.004
 7528SOL    HW223484   5.671   2.061   0.125
 7529SOL     OW23485   4.764   0.862   4.471
 7529SOL    HW123486   4.665   0.862   4.487
 7529SOL    HW223487   4.807   0.930   4.530
 7530SOL     OW23488   0.139   3.028   2.791
 7530SOL    HW123489   0.095   3.109   2.831
 7530SOL    HW223490   0.237   3.042   2.786
 7531SOL     OW23491   5.200   3.286   4.587
 7531SOL    HW123492   5.106   3.309   4.609
 7531SOL    HW223493   5.222   3.316   4.494
 7532SOL     OW23494   5.528   5.707   6.963
 7532SOL    HW123495   5.514   5.653   0.024
 7532SOL    HW223496   5.518   5.648   6.883
 7533SOL     OW23497   2.568   1.597   1.925
 7533SOL    HW123498   2.655   1.550   1.907
 7533SOL    HW223499   2.537   1.644   1.843
 7534SOL     OW23500   4.730   5.879   5.272
 7534SOL    HW123501   4.828   5.870   5.287
 7534SOL    HW223502   4.691   5.939   5.341
 7535SOL     OW23503   1.703   0.207   5.009
 7535SOL    HW123504   1.704   0.246   4.917
 7535SOL    HW223505   1.745   0.116   5.006
 7536SOL     OW23506   4.605   4.462   4.815
 7536SOL    HW123507   4.511   4.451   4.848
 7536SOL    HW223508   4.640   4.551   4.845
 7537SOL     OW23509   3.135   5.671   2.346
 7537SOL    HW123510   3.130   5.759   2.298
 7537SOL    HW223511   3.138   5.597   2.278
 7538SOL     OW23512   2.516   3.397   1.452
 7538SOL    HW123513   2.464   3.415   1.369
 7538SOL    HW223514   2.453   3.374   1.526
 7539SOL     OW23515   1.138   3.848   4.568
 7539SOL    HW123516   1.190   3.934   4.569
 7539SOL    HW223517   1.194   3.776   4.529
 7540SOL     OW23518   3.750   0.157   4.407
 7540SOL    HW123519   3.659   0.196   4.415
 7540SOL    HW223520   3.762   0.085   4.475
 7541SOL     OW23521   0.161   4.507   5.276
 7541SOL    HW123522   0.073   4.465   5.256
 7541SOL    HW223523   0.216   4.510   5.192
 7542SOL     OW23524   0.962   5.203   6.661
 7542SOL    HW123525   0.919   5.150   6.735
 7542SOL    HW223526   0.930   5.298   6.665
 7543SOL     OW23527   3.526   2.062   6.680
 7543SOL    HW123528   3.584   2.101   6.609
 7543SOL    HW223529   3.435   2.045   6.643
 7544SOL     OW23530   6.946   2.673   3.110
 7544SOL    HW123531   0.021   2.698   3.105
 7544SOL    HW223532   6.935   2.599   3.176
 7545SOL     OW23533   0.197   5.830   0.906
 7545SOL    HW123534   0.127   5.900   0.919
 7545SOL    HW223535   0.163   5.760   0.843
 7546SOL     OW23536   3.401   1.969   1.763
 7546SOL    HW123537   3.339   2.024   1.820
 7546SOL    HW223538   3.495   1.997   1.779
 7547SOL     OW23539   5.473   0.960   0.883
 7547SOL    HW123540   5.522   0.960   0.970
 7547SOL    HW223541   5.510   0.889   0.824
 7548SOL     OW23542   4.082   1.230   0.127
 7548SOL    HW123543   4.070   1.191   0.037
 7548SOL    HW223544   4.078   1.158   0.196
 7549SOL     OW23545   4.741   2.493   0.496
 7549SOL    HW123546   4.720   2.587   0.522
 7549SOL    HW223547   4.665   2.454   0.445
 7550SOL     OW23548   2.507   4.991   2.330
 7550SOL    HW123549   2.481   4.962   2.238
 7550SOL    HW223550   2.463   5.079   2.351
 7551SOL     OW23551   5.557   3.685   6.806
 7551SOL    HW123552   5.473   3.648   6.767
 7551SOL    HW223553   5.576   3.775   6.766
 7552SOL     OW23554   1.630   6.184   2.463
 7552SOL    HW123555   1.597   6.190   2.369
 7552SOL    HW223556   1.658   6.274   2.495
 7553SOL     OW23557   4.301   6.189   5.915
 7553SOL    HW123558   4.319   6.245   5.833
 7553SOL    HW223559   4.209   6.151   5.910
 7554SOL     OW23560   4.617   1.186   0.313
 7554SOL    HW123561   4.518   1.192   0.331
 7554SOL    HW223562   4.656   1.112   0.367
 7555SOL     OW23563   2.406   4.740   6.020
 7555SOL    HW123564   2.402   4.720   6.118
 7555SOL    HW223565   2.489   4.700   5.982
 7556SOL     OW23566   2.141   3.284   0.300
 7556SOL    HW123567   2.213   3.313   0.363
 7556SOL    HW223568   2.067   3.351   0.302
 7557SOL     OW23569   5.089   0.914   4.941
 7557SOL    HW123570   5.053   0.938   5.031
 7557SOL    HW223571   5.077   0.991   4.879
 7558SOL     OW23572   1.185   2.731   4.008
 7558SOL    HW123573   1.253   2.798   4.038
 7558SOL    HW223574   1.094   2.763   4.032
 7559SOL     OW23575   5.014   3.462   0.013
 7559SOL    HW123576   4.999   3.437   6.939
 7559SOL    HW223577   4.986   3.556   0.028
 7560SOL     OW23578   5.147   0.209   0.973
 7560SOL    HW123579   5.051   0.183   0.968
 7560SOL    HW223580   5.157   0.307   0.955
 7561SOL     OW23581   0.713   3.569   6.899
 7561SOL    HW123582   0.791   3.578   6.961
 7561SOL    HW223583   0.628   3.571   6.951
 7562SOL     OW23584   0.064   6.477   4.092
 7562SOL    HW123585   7.017   6.502   4.025
 7562SOL    HW223586   0.037   6.510   4.182
 7563SOL     OW23587   3.216   0.434   1.167
 7563SOL    HW123588   3.200   0.344   1.127
 7563SOL    HW223589   3.282   0.426   1.241
 7564SOL     OW23590   4.880   0.340   3.208
 7564SOL    HW123591   4.957   0.321   3.268
 7564SOL    HW223592   4.802   0.284   3.235
 7565SOL     OW23593   5.076   3.668   0.724
 7565SOL    HW123594   5.064   3.634   0.818
 7565SOL    HW223595   5.038   3.602   0.660
 7566SOL     OW23596   5.667   4.881   2.836
 7566SOL    HW123597   5.654   4.782   2.837
 7566SOL    HW223598   5.711   4.909   2.921
 7567SOL     OW23599   1.953   2.263   4.520
 7567SOL    HW123600   2.012   2.269   4.600
 7567SOL    HW223601   1.967   2.175   4.475
 7568SOL     OW23602   5.058   5.814   2.662
 7568SOL    HW123603   4.959   5.817   2.675
 7568SOL    HW223604   5.102   5.872   2.731
 7569SOL     OW23605   4.081   5.201   6.279
 7569SOL    HW123606   4.107   5.130   6.345
 7569SOL    HW223607   3.994   5.241   6.306
 7570SOL     OW23608   5.743   3.179   5.488
 7570SOL    HW123609   5.787   3.265   5.464
 7570SOL    HW223610   5.788   3.140   5.568
 7571SOL     OW23611   4.147   5.379   3.352
 7571SOL    HW123612   4.152   5.388   3.252
 7571SOL    HW223613   4.105   5.291   3.375
 7572SOL     OW23614   4.810   0.921   1.236
 7572SOL    HW123615   4.842   0.838   1.281
 7572SOL    HW223616   4.710   0.920   1.231
 7573SOL     OW23617   0.408   0.287   5.158
 7573SOL    HW123618   0.508   0.287   5.166
 7573SOL    HW223619   0.382   0.297   5.062
 7574SOL     OW23620   5.158   0.547   5.618
 7574SOL    HW123621   5.171   0.646   5.621
 7574SOL    HW223622   5.164   0.515   5.524
 7575SOL     OW23623   5.406   0.109   6.127
 7575SOL    HW123624   5.459   0.193   6.138
 7575SOL    HW223625   5.355   0.112   6.041
 7576SOL     OW23626   4.852   4.527   6.945
 7576SOL    HW123627   4.864   4.605   7.006
 7576SOL    HW223628   4.800   4.456   6.992
 7577SOL     OW23629   0.770   6.899   0.149
 7577SOL    HW123630   0.749   6.964   0.222
 7577SOL    HW223631   0.864   6.867   0.158
 7578SOL     OW23632   1.633   5.251   1.580
 7578SOL    HW123633   1.644   5.258   1.481
 7578SOL    HW223634   1.540   5.220   1.601
 7579SOL     OW23635   6.922   1.197   1.729
 7579SOL    HW123636   6.915   1.296   1.740
 7579SOL    HW223637   6.970   1.158   1.807
 7580SOL     OW23638   0.526   3.855   4.546
 7580SOL    HW123639   0.518   3.756   4.547
 7580SOL    HW223640   0.436   3.896   4.533
 7581SOL     OW23641   6.920   1.119   1.287
 7581SOL    HW123642   6.883   1.028   1.307
 7581SOL    HW223643   6.874   1.187   1.344
 7582SOL     OW23644   4.262   1.138   1.706
 7582SOL    HW123645   4.193   1.110   1.639
 7582SOL    HW223646   4.306   1.222   1.675
 7583SOL     OW23647   6.135   3.506   2.203
 7583SOL    HW123648   6.164   3.418   2.165
 7583SOL    HW223649   6.201   3.535   2.272
 7584SOL     OW23650   3.432   6.922   1.235
 7584SOL    HW123651   3.351   6.889   1.284
 7584SOL    HW223652   3.417   6.914   1.136
 7585SOL     OW23653   1.600   2.939   6.556
 7585SOL    HW123654   1.665   2.863   6.548
 7585SOL    HW223655   1.507   2.902   6.561
 7586SOL     OW23656   2.633   0.340   3.566
 7586SOL    HW123657   2.712   0.355   3.626
 7586SOL    HW223658   2.589   0.427   3.546
 7587SOL     OW23659   2.620   2.922   0.224
 7587SOL    HW123660   2.636   2.942   0.321
 7587SOL    HW223661   2.529   2.952   0.197
 7588SOL     OW23662   1.652   2.890   3.436
 7588SOL    HW123663   1.716   2.959   3.470
 7588SOL    HW223664   1.620   2.834   3.512
 7589SOL     OW23665   0.885   0.570   2.450
 7589SOL    HW123666   0.932   0.495   2.496
 7589SOL    HW223667   0.902   0.655   2.499
 7590SOL     OW23668   4.022   1.454   5.845
 7590SOL    HW123669   3.990   1.545   5.872
 7590SOL    HW223670   4.121   1.456   5.828
 7591SOL     OW23671   0.239   3.582   0.685
 7591SOL    HW123672   0.219   3.567   0.588
 7591SOL    HW223673   0.212   3.674   0.711
 7592SOL     OW23674   6.757   4.578   4.815
 7592SOL    HW123675   6.801   4.519   4.748
 7592SOL    HW223676   6.664   4.545   4.833
 7593SOL     OW23677   6.028   3.420   1.002
 7593SOL    HW123678   5.968   3.472   0.940
 7593SOL    HW223679   6.123   3.435   0.977
 7594SOL     OW23680   1.346   5.492   2.335
 7594SOL    HW123681   1.264   5.441   2.361
 7594SOL    HW223682   1.345   5.582   2.377
 7595SOL     OW23683   6.149   3.008   5.921
 7595SOL    HW123684   6.089   3.067   5.868
 7595SOL    HW223685   6.241   3.047   5.924
 7596SOL     OW23686   3.943   5.320   4.360
 7596SOL    HW123687   3.888   5.395   4.396
 7596SOL    HW223688   3.930   5.239   4.417
 7597SOL     OW23689   2.563   6.544   2.600
 7597SOL    HW123690   2.607   6.489   2.529
 7597SOL    HW223691   2.470   6.567   2.571
 7598SOL     OW23692   0.180   1.595   3.333
 7598SOL    HW123693   0.236   1.513   3.319
 7598SOL    HW223694   0.084   1.570   3.338
 7599SOL     OW23695   5.301   2.272   2.387
 7599SOL    HW123696   5.227   2.234   2.332
 7599SOL    HW223697   5.352   2.197   2.430
 7600SOL     OW23698   1.488   1.749   2.852
 7600SOL    HW123699   1.531   1.759   2.942
 7600SOL    HW223700   1.445   1.836   2.826
 7601SOL     OW23701   2.071   5.747   2.559
 7601SOL    HW123702   2.000   5.680   2.577
 7601SOL    HW223703   2.029   5.834   2.532
 7602SOL     OW23704   2.098   4.027   6.478
 7602SOL    HW123705   2.100   3.962   6.402
 7602SOL    HW223706   2.172   4.005   6.542
 7603SOL     OW23707   1.604   6.053   6.315
 7603SOL    HW123708   1.596   6.112   6.395
 7603SOL    HW223709   1.542   6.086   6.243
 7604SOL     OW23710   2.161   3.824   4.660
 7604SOL    HW123711   2.198   3.909   4.621
 7604SOL    HW223712   2.134   3.840   4.755
 7605SOL     OW23713   1.316   0.791   1.198
 7605SOL    HW123714   1.259   0.762   1.275
 7605SOL    HW223715   1.322   0.891   1.197
 7606SOL     OW23716   5.770   4.100   5.167
 7606SOL    HW123717   5.841   4.065   5.106
 7606SOL    HW223718   5.695   4.138   5.113
 7607SOL     OW23719   2.972   5.400   0.260
 7607SOL    HW123720   3.043   5.407   0.189
 7607SOL    HW223721   2.965   5.304   0.290
 7608SOL     OW23722   4.037   3.844   2.194
 7608SOL    HW123723   3.955   3.827   2.139
 7608SOL    HW223724   4.075   3.757   2.225
 7609SOL     OW23725   1.014   3.418   4.559
 7609SOL    HW123726   1.061   3.379   4.638
 7609SOL    HW223727   1.069   3.492   4.520
 7610SOL     OW23728   4.784   4.756   5.895
 7610SOL    HW123729   4.815   4.708   5.813
 7610SOL    HW223730   4.852   4.825   5.920
 7611SOL     OW23731   6.158   3.303   1.796
 7611SOL    HW123732   6.130   3.269   1.886
 7611SOL    HW223733   6.124   3.241   1.725
 7612SOL     OW23734   4.730   2.664   3.393
 7612SOL    HW123735   4.639   2.698   3.417
 7612SOL    HW223736   4.722   2.594   3.322
 7613SOL     OW23737   6.739   3.046   1.003
 7613SOL    HW123738   6.803   2.993   1.058
 7613SOL    HW223739   6.679   2.984   0.953
 7614SOL     OW23740   4.965   3.116   0.378
 7614SOL    HW123741   5.025   3.175   0.324
 7614SOL    HW223742   4.928   3.168   0.455
 7615SOL     OW23743   3.695   5.624   0.879
 7615SOL    HW123744   3.741   5.632   0.791
 7615SOL    HW223745   3.670   5.528   0.895
 7616SOL     OW23746   5.739   6.044   4.507
 7616SOL    HW123747   5.644   6.041   4.476
 7616SOL    HW223748   5.789   6.114   4.455
 7617SOL     OW23749   3.988   5.500   2.370
 7617SOL    HW123750   4.032   5.502   2.460
 7617SOL    HW223751   3.903   5.552   2.373
 7618SOL     OW23752   6.782   1.256   5.498
 7618SOL    HW123753   6.840   1.185   5.538
 7618SOL    HW223754   6.747   1.223   5.410
 7619SOL     OW23755   5.743   2.676   5.318
 7619SOL    HW123756   5.791   2.632   5.242
 7619SOL    HW223757   5.648   2.692   5.291
 7620SOL     OW23758   4.079   6.149   1.014
 7620SOL    HW123759   4.009   6.079   1.000
 7620SOL    HW223760   4.159   6.109   1.057
 7621SOL     OW23761   6.714   1.552   1.181
 7621SOL    HW123762   6.766   1.556   1.266
 7621SOL    HW223763   6.774   1.525   1.106
 7622SOL     OW23764   4.778   5.307   0.079
 7622SOL    HW123765   4.832   5.379   0.037
 7622SOL    HW223766   4.697   5.347   0.122
 7623SOL     OW23767   4.678   4.077   0.138
 7623SOL    HW123768   4.618   4.023   0.196
 7623SOL    HW223769   4.652   4.067   0.042
 7624SOL     OW23770   6.668   3.639   4.793
 7624SOL    HW123771   6.743   3.662   4.855
 7624SOL    HW223772   6.599   3.587   4.843
 7625SOL     OW23773   4.642   0.588   1.545
 7625SOL    HW123774   4.543   0.581   1.529
 7625SOL    HW223775   4.659   0.624   1.636
 7626SOL     OW23776   5.892   0.358   4.230
 7626SOL    HW123777   5.884   0.413   4.146
 7626SOL    HW223778   5.977   0.382   4.277
 7627SOL     OW23779   4.617   3.158   6.732
 7627SOL    HW123780   4.610   3.246   6.685
 7627SOL    HW223781   4.546   3.096   6.698
 7628SOL     OW23782   3.473   2.046   2.095
 7628SOL    HW123783   3.567   2.079   2.082
 7628SOL    HW223784   3.439   2.077   2.184
 7629SOL     OW23785   0.053   6.397   3.127
 7629SOL    HW123786   0.006   6.318   3.088
 7629SOL    HW223787   0.003   6.428   3.208
 7630SOL     OW23788   0.199   6.841   1.292
 7630SOL    HW123789   0.157   6.839   1.202
 7630SOL    HW223790   0.299   6.837   1.282
 7631SOL     OW23791   0.654   1.042   6.334
 7631SOL    HW123792   0.669   0.966   6.397
 7631SOL    HW223793   0.605   1.010   6.253
 7632SOL     OW23794   3.988   3.061   1.382
 7632SOL    HW123795   3.952   3.154   1.384
 7632SOL    HW223796   4.077   3.060   1.337
 7633SOL     OW23797   5.311   0.688   1.065
 7633SOL    HW123798   5.385   0.660   1.004
 7633SOL    HW223799   5.280   0.780   1.040
 7634SOL     OW23800   1.773   2.153   2.292
 7634SOL    HW123801   1.771   2.132   2.194
 7634SOL    HW223802   1.837   2.091   2.338
 7635SOL     OW23803   3.065   5.081   5.080
 7635SOL    HW123804   2.982   5.137   5.077
 7635SOL    HW223805   3.041   4.985   5.065
 7636SOL     OW23806   1.355   2.905   4.163
 7636SOL    HW123807   1.364   2.991   4.214
 7636SOL    HW223808   1.446   2.868   4.145
 7637SOL     OW23809   1.961   5.288   2.322
 7637SOL    HW123810   1.949   5.235   2.406
 7637SOL    HW223811   1.928   5.235   2.244
 7638SOL     OW23812   2.541   6.294   1.344
 7638SOL    HW123813   2.598   6.323   1.421
 7638SOL    HW223814   2.598   6.284   1.263
 7639SOL     OW23815   0.829   2.248   0.522
 7639SOL    HW123816   0.924   2.277   0.511
 7639SOL    HW223817   0.798   2.202   0.438
 7640SOL     OW23818   3.027   0.985   5.769
 7640SOL    HW123819   2.940   0.963   5.724
 7640SOL    HW223820   3.099   0.994   5.700
 7641SOL     OW23821   1.155   3.834   2.581
 7641SOL    HW123822   1.243   3.805   2.543
 7641SOL    HW223823   1.091   3.757   2.579
 7642SOL     OW23824   3.588   1.494   2.915
 7642SOL    HW123825   3.549   1.468   2.827
 7642SOL    HW223826   3.569   1.591   2.932
 7643SOL     OW23827   4.871   2.672   3.623
 7643SOL    HW123828   4.814   2.667   3.541
 7643SOL    HW223829   4.966   2.653   3.599
 7644SOL     OW23830   5.746   1.572   2.084
 7644SOL    HW123831   5.684   1.626   2.026
 7644SOL    HW223832   5.836   1.616   2.086
 7645SOL     OW23833   4.458   3.534   5.518
 7645SOL    HW123834   4.427   3.628   5.504
 7645SOL    HW223835   4.417   3.474   5.448
 7646SOL     OW23836   1.070   3.425   3.354
 7646SOL    HW123837   0.974   3.430   3.381
 7646SOL    HW223838   1.125   3.481   3.415
 7647SOL     OW23839   6.573   2.500   3.410
 7647SOL    HW123840   6.604   2.595   3.417
 7647SOL    HW223841   6.613   2.445   3.483
 7648SOL     OW23842   3.211   1.636   2.948
 7648SOL    HW123843   3.172   1.728   2.948
 7648SOL    HW223844   3.158   1.578   2.886
 7649SOL     OW23845   0.663   0.901   3.039
 7649SOL    HW123846   0.584   0.843   3.019
 7649SOL    HW223847   0.632   0.994   3.057
 7650SOL     OW23848   5.022   1.369   0.493
 7650SOL    HW123849   4.931   1.346   0.528
 7650SOL    HW223850   5.065   1.436   0.553
 7651SOL     OW23851   2.282   0.708   3.425
 7651SOL    HW123852   2.277   0.782   3.358
 7651SOL    HW223853   2.190   0.688   3.459
 7652SOL     OW23854   6.421   3.339   5.932
 7652SOL    HW123855   6.485   3.273   5.893
 7652SOL    HW223856   6.453   3.432   5.914
 7653SOL     OW23857   1.050   1.422   0.114
 7653SOL    HW123858   1.130   1.445   0.170
 7653SOL    HW223859   0.967   1.448   0.162
 7654SOL     OW23860   4.822   3.091   4.360
 7654SOL    HW123861   4.760   3.013   4.356
 7654SOL    HW223862   4.791   3.155   4.431
 7655SOL     OW23863   4.724   6.688   3.090
 7655SOL    HW123864   4.656   6.635   3.039
 7655SOL    HW223865   4.769   6.628   3.156
 7656SOL     OW23866   3.042   3.868   6.367
 7656SOL    HW123867   2.944   3.871   6.389
 7656SOL    HW223868   3.074   3.961   6.348
 7657SOL     OW23869   1.267   2.453   4.053
 7657SOL    HW123870   1.310   2.404   3.977
 7657SOL    HW223871   1.247   2.546   4.025
 7658SOL     OW23872   4.268   6.844   6.309
 7658SOL    HW123873   4.173   6.872   6.316
 7658SOL    HW223874   4.278   6.778   6.234
 7659SOL     OW23875   5.737   4.859   6.001
 7659SOL    HW123876   5.836   4.857   5.996
 7659SOL    HW223877   5.704   4.952   5.987
 7660SOL     OW23878   0.446   5.802   3.719
 7660SOL    HW123879   0.388   5.882   3.728
 7660SOL    HW223880   0.395   5.720   3.744
 7661SOL     OW23881   5.760   2.152   5.135
 7661SOL    HW123882   5.847   2.154   5.085
 7661SOL    HW223883   5.778   2.168   5.232
 7662SOL     OW23884   1.053   2.920   3.292
 7662SOL    HW123885   0.982   2.988   3.309
 7662SOL    HW223886   1.115   2.914   3.371
 7663SOL     OW23887   0.200   5.071   5.217
 7663SOL    HW123888   0.132   4.999   5.231
 7663SOL    HW223889   0.185   5.113   5.127
 7664SOL     OW23890   4.149   6.926   1.532
 7664SOL    HW123891   4.088   6.975   1.594
 7664SOL    HW223892   4.134   6.828   1.540
 7665SOL     OW23893   6.203   0.323   4.757
 7665SOL    HW123894   6.192   0.256   4.830
 7665SOL    HW223895   6.144   0.401   4.775
 7666SOL     OW23896   0.664   5.246   2.128
 7666SOL    HW123897   0.658   5.314   2.201
 7666SOL    HW223898   0.760   5.226   2.110
 7667SOL     OW23899   4.672   6.498   2.377
 7667SOL    HW123900   4.626   6.428   2.323
 7667SOL    HW223901   4.705   6.571   2.317
 7668SOL     OW23902   3.396   4.757   0.387
 7668SOL    HW123903   3.353   4.846   0.400
 7668SOL    HW223904   3.484   4.769   0.342
 7669SOL     OW23905   5.048   1.473   4.859
 7669SOL    HW123906   5.094   1.451   4.945
 7669SOL    HW223907   4.958   1.430   4.858
 7670SOL     OW23908   0.903   4.754   0.159
 7670SOL    HW123909   1.001   4.773   0.160
 7670SOL    HW223910   0.853   4.836   0.185
 7671SOL     OW23911   4.669   1.185   1.823
 7671SOL    HW123912   4.699   1.198   1.728
 7671SOL    HW223913   4.595   1.118   1.826
 7672SOL     OW23914   0.574   6.682   2.152
 7672SOL    HW123915   0.504   6.685   2.080
 7672SOL    HW223916   0.621   6.594   2.149
 7673SOL     OW23917   1.500   6.559   0.742
 7673SOL    HW123918   1.430   6.624   0.772
 7673SOL    HW223919   1.456   6.477   0.705
 7674SOL     OW23920   5.867   0.983   3.039
 7674SOL    HW123921   5.899   1.075   3.059
 7674SOL    HW223922   5.827   0.980   2.947
 7675SOL     OW23923   6.158   6.790   2.339
 7675SOL    HW123924   6.098   6.786   2.419
 7675SOL    HW223925   6.117   6.738   2.264
 7676SOL     OW23926   3.040   2.421   0.793
 7676SOL    HW123927   3.047   2.465   0.703
 7676SOL    HW223928   3.089   2.476   0.861
 7677SOL     OW23929   0.369   5.023   1.501
 7677SOL    HW123930   0.294   5.084   1.526
 7677SOL    HW223931   0.374   5.015   1.402
 7678SOL     OW23932   1.771   3.364   4.914
 7678SOL    HW123933   1.671   3.364   4.915
 7678SOL    HW223934   1.805   3.440   4.970
 7679SOL     OW23935   3.298   5.928   5.406
 7679SOL    HW123936   3.216   5.952   5.354
 7679SOL    HW223937   3.275   5.926   5.504
 7680SOL     OW23938   0.986   0.961   0.011
 7680SOL    HW123939   0.916   0.964   6.961
 7680SOL    HW223940   1.057   1.028   7.013
 7681SOL     OW23941   2.990   1.442   1.057
 7681SOL    HW123942   2.981   1.531   1.103
 7681SOL    HW223943   3.071   1.443   0.998
 7682SOL     OW23944   3.409   0.243   2.078
 7682SOL    HW123945   3.361   0.315   2.129
 7682SOL    HW223946   3.401   0.261   1.980
 7683SOL     OW23947   5.567   1.716   4.576
 7683SOL    HW123948   5.508   1.796   4.572
 7683SOL    HW223949   5.650   1.739   4.628
 7684SOL     OW23950   2.774   2.019   1.801
 7684SOL    HW123951   2.844   2.089   1.810
 7684SOL    HW223952   2.802   1.952   1.732
 7685SOL     OW23953   2.729   2.125   5.976
 7685SOL    HW123954   2.650   2.133   5.915
 7685SOL    HW223955   2.734   2.207   6.034
 7686SOL     OW23956   6.643   6.539   3.178
 7686SOL    HW123957   6.645   6.590   3.093
 7686SOL    HW223958   6.568   6.572   3.236
 7687SOL     OW23959   5.872   4.974   3.471
 7687SOL    HW123960   5.969   4.953   3.456
 7687SOL    HW223961   5.860   5.009   3.564
 7688SOL     OW23962   0.675   5.992   5.259
 7688SOL    HW123963   0.708   5.981   5.353
 7688SOL    HW223964   0.631   6.082   5.250
 7689SOL     OW23965   5.538   6.500   2.563
 7689SOL    HW123966   5.583   6.556   2.632
 7689SOL    HW223967   5.443   6.530   2.553
 7690SOL     OW23968   5.233   5.356   0.622
 7690SOL    HW123969   5.143   5.319   0.597
 7690SOL    HW223970   5.299   5.282   0.625
 7691SOL     OW23971   5.214   3.908   4.421
 7691SOL    HW123972   5.244   3.998   4.453
 7691SOL    HW223973   5.280   3.839   4.451
 7692SOL     OW23974   0.576   6.295   2.056
 7692SOL    HW123975   0.523   6.376   2.030
 7692SOL    HW223976   0.580   6.232   1.978
 7693SOL     OW23977   3.163   6.692   1.558
 7693SOL    HW123978   3.243   6.681   1.617
 7693SOL    HW223979   3.126   6.602   1.534
 7694SOL     OW23980   6.099   3.605   4.726
 7694SOL    HW123981   6.094   3.651   4.815
 7694SOL    HW223982   6.107   3.507   4.740
 7695SOL     OW23983   5.361   0.596   0.732
 7695SOL    HW123984   5.439   0.634   0.781
 7695SOL    HW223985   5.350   0.643   0.644
 7696SOL     OW23986   0.877   0.899   5.462
 7696SOL    HW123987   0.800   0.905   5.399
 7696SOL    HW223988   0.844   0.899   5.556
 7697SOL     OW23989   2.334   6.696   2.705
 7697SOL    HW123990   2.422   6.743   2.700
 7697SOL    HW223991   2.268   6.753   2.755
 7698SOL     OW23992   5.928   1.019   3.937
 7698SOL    HW123993   5.853   0.955   3.956
 7698SOL    HW223994   6.015   0.976   3.962
 7699SOL     OW23995   3.418   5.472   6.738
 7699SOL    HW123996   3.453   5.493   6.830
 7699SOL    HW223997   3.390   5.376   6.735
 7700SOL     OW23998   3.918   5.984   2.947
 7700SOL    HW123999   4.000   5.983   3.004
 7700SOL    HW224000   3.888   6.078   2.935
 7701SOL     OW24001   6.596   1.895   0.951
 7701SOL    HW124002   6.531   1.962   0.987
 7701SOL    HW224003   6.687   1.914   0.988
 7702SOL     OW24004   3.166   6.460   5.159
 7702SOL    HW124005   3.262   6.454   5.133
 7702SOL    HW224006   3.153   6.416   5.248
 7703SOL     OW24007   6.746   6.016   6.826
 7703SOL    HW124008   6.759   5.987   6.731
 7703SOL    HW224009   6.789   6.105   6.840
 7704SOL     OW24010   5.843   6.741   4.718
 7704SOL    HW124011   5.934   6.752   4.679
 7704SOL    HW224012   5.780   6.711   4.646
 7705SOL     OW24013   2.560   5.797   0.186
 7705SOL    HW124014   2.526   5.890   0.204
 7705SOL    HW224015   2.597   5.792   0.093
 7706SOL     OW24016   3.705   3.796   4.989
 7706SOL    HW124017   3.711   3.889   5.024
 7706SOL    HW224018   3.779   3.780   4.924
 7707SOL     OW24019   0.077   4.925   5.526
 7707SOL    HW124020   0.058   4.901   5.430
 7707SOL    HW224021   0.070   4.842   5.582
 7708SOL     OW24022   0.922   6.590   6.139
 7708SOL    HW124023   0.903   6.534   6.058
 7708SOL    HW224024   1.005   6.644   6.123
 7709SOL     OW24025   6.418   4.286   1.878
 7709SOL    HW124026   6.415   4.238   1.791
 7709SOL    HW224027   6.329   4.327   1.897
 7710SOL     OW24028   3.063   2.022   0.235
 7710SOL    HW124029   3.159   2.007   0.212
 7710SOL    HW224030   3.048   2.002   0.332
 7711SOL     OW24031   5.927   6.388   5.914
 7711SOL    HW124032   5.901   6.384   6.010
 7711SOL    HW224033   5.998   6.320   5.896
 7712SOL     OW24034   6.181   5.210   1.796
 7712SOL    HW124035   6.262   5.238   1.744
 7712SOL    HW224036   6.174   5.110   1.796
 7713SOL     OW24037   2.287   4.184   1.062
 7713SOL    HW124038   2.283   4.102   1.120
 7713SOL    HW224039   2.295   4.265   1.121
 7714SOL     OW24040   0.401   3.389   5.800
 7714SOL    HW124041   0.354   3.301   5.795
 7714SOL    HW224042   0.495   3.379   5.770
 7715SOL     OW24043   2.912   1.936   0.579
 7715SOL    HW124044   2.936   2.033   0.581
 7715SOL    HW224045   2.974   1.885   0.638
 7716SOL     OW24046   6.670   4.442   2.199
 7716SOL    HW124047   6.578   4.444   2.161
 7716SOL    HW224048   6.731   4.498   2.141
 7717SOL     OW24049   2.178   0.681   5.275
 7717SOL    HW124050   2.145   0.775   5.277
 7717SOL    HW224051   2.189   0.647   5.368
 7718SOL     OW24052   6.808   3.694   3.832
 7718SOL    HW124053   6.882   3.758   3.852
 7718SOL    HW224054   6.720   3.735   3.856
 7719SOL     OW24055   6.936   4.377   5.269
 7719SOL    HW124056   6.841   4.407   5.276
 7719SOL    HW224057   6.943   4.282   5.301
 7720SOL     OW24058   6.827   1.150   6.855
 7720SOL    HW124059   6.728   1.164   6.847
 7720SOL    HW224060   6.873   1.239   6.853
 7721SOL     OW24061   0.353   4.911   2.640
 7721SOL    HW124062   0.451   4.922   2.657
 7721SOL    HW224063   0.312   5.000   2.622
 7722SOL     OW24064   1.277   4.155   3.585
 7722SOL    HW124065   1.255   4.068   3.629
 7722SOL    HW224066   1.278   4.144   3.486
 7723SOL     OW24067   4.485   3.422   6.214
 7723SOL    HW124068   4.451   3.468   6.133
 7723SOL    HW224069   4.510   3.327   6.192
 7724SOL     OW24070   3.144   4.081   1.236
 7724SOL    HW124071   3.103   4.001   1.190
 7724SOL    HW224072   3.118   4.080   1.333
 7725SOL     OW24073   6.782   1.656   2.992
 7725SOL    HW124074   6.734   1.727   2.939
 7725SOL    HW224075   6.721   1.621   3.062
 7726SOL     OW24076   1.375   4.789   5.315
 7726SOL    HW124077   1.410   4.706   5.270
 7726SOL    HW224078   1.284   4.809   5.280
 7727SOL     OW24079   0.119   2.293   2.776
 7727SOL    HW124080   0.150   2.388   2.765
 7727SOL    HW224081   0.179   2.232   2.725
 7728SOL     OW24082   1.879   3.553   5.127
 7728SOL    HW124083   1.965   3.574   5.175
 7728SOL    HW224084   1.811   3.522   5.193
 7729SOL     OW24085   5.490   2.213   1.375
 7729SOL    HW124086   5.418   2.274   1.406
 7729SOL    HW224087   5.465   2.173   1.287
 7730SOL     OW24088   6.086   5.827   0.394
 7730SOL    HW124089   6.166   5.872   0.354
 7730SOL    HW224090   6.030   5.788   0.321
 7731SOL     OW24091   6.960   1.375   6.996
 7731SOL    HW124092   6.948   1.470   0.004
 7731SOL    HW224093   6.928   1.313   0.045
 7732SOL     OW24094   4.975   6.972   0.445
 7732SOL    HW124095   5.058   6.927   0.411
 7732SOL    HW224096   4.999   0.037   0.487
 7733SOL     OW24097   4.896   6.130   2.727
 7733SOL    HW124098   4.805   6.116   2.688
 7733SOL    HW224099   4.909   6.069   2.805
 7734SOL     OW24100   1.565   5.008   3.758
 7734SOL    HW124101   1.633   5.069   3.799
 7734SOL    HW224102   1.612   4.939   3.703
 7735SOL     OW24103   4.487   6.678   6.811
 7735SOL    HW124104   4.514   6.634   6.897
 7735SOL    HW224105   4.457   6.608   6.746
 7736SOL     OW24106   3.455   3.000   7.014
 7736SOL    HW124107   3.513   3.053   6.952
 7736SOL    HW224108   3.417   2.922   6.965
 7737SOL     OW24109   3.387   6.655   2.474
 7737SOL    HW124110   3.319   6.631   2.544
 7737SOL    HW224111   3.351   6.728   2.416
 7738SOL     OW24112   2.755   5.788   6.987
 7738SOL    HW124113   2.709   5.699   6.993
 7738SOL    HW224114   2.850   5.778   7.017
 7739SOL     OW24115   0.246   2.292   1.029
 7739SOL    HW124116   0.181   2.360   0.996
 7739SOL    HW224117   0.313   2.335   1.088
 7740SOL     OW24118   2.490   1.716   2.858
 7740SOL    HW124119   2.505   1.620   2.879
 7740SOL    HW224120   2.419   1.725   2.788
 7741SOL     OW24121   0.532   4.865   5.800
 7741SOL    HW124122   0.434   4.851   5.814
 7741SOL    HW224123   0.546   4.932   5.728
 7742SOL     OW24124   4.361   1.742   3.558
 7742SOL    HW124125   4.388   1.794   3.639
 7742SOL    HW224126   4.277   1.782   3.520
 7743SOL     OW24127   5.527   1.584   0.014
 7743SOL    HW124128   5.445   1.533   7.011
 7743SOL    HW224129   5.599   1.520   0.041
 7744SOL     OW24130   0.516   0.327   4.212
 7744SOL    HW124131   0.420   0.325   4.240
 7744SOL    HW224132   0.567   0.391   4.269
 7745SOL     OW24133   3.769   1.005   0.121
 7745SOL    HW124134   3.808   0.996   0.212
 7745SOL    HW224135   3.669   1.012   0.128
 7746SOL     OW24136   1.829   0.370   0.333
 7746SOL    HW124137   1.753   0.322   0.378
 7746SOL    HW224138   1.821   0.468   0.352
 7747SOL     OW24139   5.025   5.992   1.557
 7747SOL    HW124140   5.114   5.966   1.596
 7747SOL    HW224141   5.036   6.072   1.499
 7748SOL     OW24142   3.045   3.550   4.522
 7748SOL    HW124143   2.999   3.482   4.579
 7748SOL    HW224144   3.130   3.512   4.487
 7749SOL     OW24145   3.101   3.301   5.738
 7749SOL    HW124146   3.052   3.319   5.823
 7749SOL    HW224147   3.082   3.375   5.673
 7750SOL     OW24148   0.246   6.328   1.451
 7750SOL    HW124149   0.257   6.274   1.535
 7750SOL    HW224150   0.195   6.412   1.472
 7751SOL     OW24151   1.732   2.718   2.432
 7751SOL    HW124152   1.767   2.654   2.363
 7751SOL    HW224153   1.782   2.804   2.425
 7752SOL     OW24154   5.816   6.120   5.906
 7752SOL    HW124155   5.733   6.174   5.894
 7752SOL    HW224156   5.816   6.079   5.997
 7753SOL     OW24157   1.943   0.893   3.938
 7753SOL    HW124158   1.869   0.829   3.918
 7753SOL    HW224159   1.920   0.945   4.020
 7754SOL     OW24160   3.728   6.816   2.327
 7754SOL    HW124161   3.699   6.870   2.405
 7754SOL    HW224162   3.707   6.720   2.343
 7755SOL     OW24163   1.312   2.157   5.874
 7755SOL    HW124164   1.326   2.092   5.948
 7755SOL    HW224165   1.371   2.133   5.797
 7756SOL     OW24166   2.565   6.248   2.493
 7756SOL    HW124167   2.595   6.153   2.504
 7756SOL    HW224168   2.553   6.268   2.396
 7757SOL     OW24169   6.525   4.838   6.248
 7757SOL    HW124170   6.505   4.776   6.323
 7757SOL    HW224171   6.567   4.922   6.284
 7758SOL     OW24172   1.487   0.741   5.962
 7758SOL    HW124173   1.414   0.808   5.979
 7758SOL    HW224174   1.531   0.761   5.875
 7759SOL     OW24175   1.242   1.381   5.660
 7759SOL    HW124176   1.322   1.417   5.611
 7759SOL    HW224177   1.159   1.423   5.624
 7760SOL     OW24178   5.472   3.711   2.998
 7760SOL    HW124179   5.391   3.655   3.016
 7760SOL    HW224180   5.554   3.661   3.027
 7761SOL     OW24181   0.343   0.401   4.910
 7761SOL    HW124182   0.425   0.418   4.856
 7761SOL    HW224183   0.289   0.485   4.916
 7762SOL     OW24184   3.373   6.810   3.920
 7762SOL    HW124185   3.400   6.901   3.950
 7762SOL    HW224186   3.326   6.815   3.832
 7763SOL     OW24187   1.767   1.125   6.747
 7763SOL    HW124188   1.832   1.185   6.700
 7763SOL    HW224189   1.676   1.135   6.706
 7764SOL     OW24190   3.848   2.946   3.709
 7764SOL    HW124191   3.785   2.954   3.786
 7764SOL    HW224192   3.924   3.010   3.721
 7765SOL     OW24193   6.451   3.168   5.309
 7765SOL    HW124194   6.464   3.073   5.336
 7765SOL    HW224195   6.353   3.189   5.305
 7766SOL     OW24196   6.880   3.593   0.633
 7766SOL    HW124197   6.952   3.608   0.701
 7766SOL    HW224198   6.878   3.671   0.570
 7767SOL     OW24199   4.928   6.275   2.457
 7767SOL    HW124200   4.923   6.251   2.554
 7767SOL    HW224201   4.941   6.192   2.403
 7768SOL     OW24202   4.256   4.736   2.742
 7768SOL    HW124203   4.203   4.706   2.663
 7768SOL    HW224204   4.264   4.836   2.741
 7769SOL     OW24205   4.155   1.920   3.511
 7769SOL    HW124206   4.092   1.847   3.537
 7769SOL    HW224207   4.112   1.977   3.440
 7770SOL     OW24208   1.833   4.380   3.169
 7770SOL    HW124209   1.759   4.322   3.202
 7770SOL    HW224210   1.795   4.468   3.140
 7771SOL     OW24211   3.379   2.072   5.116
 7771SOL    HW124212   3.449   2.004   5.137
 7771SOL    HW224213   3.381   2.092   5.018
 7772SOL     OW24214   4.675   0.098   2.347
 7772SOL    HW124215   4.678   0.028   2.419
 7772SOL    HW224216   4.631   0.180   2.383
 7773SOL     OW24217   3.035   5.985   4.875
 7773SOL    HW124218   2.936   5.993   4.888
 7773SOL    HW224219   3.054   5.947   4.785
 7774SOL     OW24220   4.846   2.061   5.382
 7774SOL    HW124221   4.806   2.036   5.470
 7774SOL    HW224222   4.816   1.996   5.312
 7775SOL     OW24223   4.585   5.611   0.793
 7775SOL    HW124224   4.619   5.603   0.699
 7775SOL    HW224225   4.495   5.567   0.799
 7776SOL     OW24226   0.864   5.612   5.864
 7776SOL    HW124227   0.804   5.675   5.815
 7776SOL    HW224228   0.814   5.570   5.940
 7777SOL     OW24229   6.245   6.308   4.745
 7777SOL    HW124230   6.203   6.391   4.780
 7777SOL    HW224231   6.253   6.241   4.819
 7778SOL     OW24232   5.376   4.093   0.917
 7778SOL    HW124233   5.474   4.088   0.901
 7778SOL    HW224234   5.358   4.099   1.015
 7779SOL     OW24235   2.748   2.514   1.718
 7779SOL    HW124236   2.658   2.517   1.762
 7779SOL    HW224237   2.817   2.490   1.786
 7780SOL     OW24238   0.914   4.982   5.020
 7780SOL    HW124239   0.905   5.068   4.971
 7780SOL    HW224240   0.921   4.906   4.955
 7781SOL     OW24241   1.579   5.214   1.020
 7781SOL    HW124242   1.550   5.293   0.965
 7781SOL    HW224243   1.646   5.161   0.968
 7782SOL     OW24244   5.735   5.248   4.336
 7782SOL    HW124245   5.666   5.175   4.337
 7782SOL    HW224246   5.707   5.319   4.271
 7783SOL     OW24247   1.313   5.644   5.130
 7783SOL    HW124248   1.331   5.699   5.212
 7783SOL    HW224249   1.395   5.643   5.073
 7784SOL     OW24250   3.631   2.168   1.713
 7784SOL    HW124251   3.663   2.221   1.791
 7784SOL    HW224252   3.567   2.223   1.660
 7785SOL     OW24253   1.905   5.921   4.450
 7785SOL    HW124254   1.891   5.875   4.362
 7785SOL    HW224255   1.857   5.871   4.522
 7786SOL     OW24256   2.691   6.584   0.218
 7786SOL    HW124257   2.591   6.582   0.213
 7786SOL    HW224258   2.728   6.500   0.179
 7787SOL     OW24259   1.968   2.440   5.942
 7787SOL    HW124260   2.050   2.411   5.892
 7787SOL    HW224261   1.970   2.400   6.034
 7788SOL     OW24262   2.332   4.801   1.209
 7788SOL    HW124263   2.318   4.778   1.113
 7788SOL    HW224264   2.364   4.895   1.217
 7789SOL     OW24265   1.837   6.381   6.214
 7789SOL    HW124266   1.789   6.425   6.290
 7789SOL    HW224267   1.772   6.324   6.162
 7790SOL     OW24268   5.493   5.824   3.258
 7790SOL    HW124269   5.466   5.829   3.355
 7790SOL    HW224270   5.591   5.844   3.250
 7791SOL     OW24271   2.851   5.034   2.912
 7791SOL    HW124272   2.920   4.992   2.972
 7791SOL    HW224273   2.863   5.000   2.819
 7792SOL     OW24274   1.998   5.131   4.869
 7792SOL    HW124275   2.085   5.129   4.819
 7792SOL    HW224276   1.953   5.219   4.853
 7793SOL     OW24277   3.536   0.871   1.097
 7793SOL    HW124278   3.628   0.858   1.133
 7793SOL    HW224279   3.501   0.783   1.063
 7794SOL     OW24280   6.198   3.872   3.004
 7794SOL    HW124281   6.147   3.924   3.072
 7794SOL    HW224282   6.251   3.800   3.049
 7795SOL     OW24283   1.823   3.699   6.100
 7795SOL    HW124284   1.790   3.630   6.164
 7795SOL    HW224285   1.891   3.658   6.039
 7796SOL     OW24286   4.043   3.117   3.651
 7796SOL    HW124287   4.083   3.203   3.684
 7796SOL    HW224288   4.001   3.132   3.561
 7797SOL     OW24289   1.685   0.302   1.694
 7797SOL    HW124290   1.732   0.300   1.606
 7797SOL    HW224291   1.659   0.396   1.716
 7798SOL     OW24292   2.096   3.614   4.536
 7798SOL    HW124293   1.998   3.625   4.551
 7798SOL    HW224294   2.146   3.686   4.585
 7799SOL     OW24295   2.064   6.094   2.086
 7799SOL    HW124296   2.047   6.027   2.159
 7799SOL    HW224297   2.148   6.144   2.106
 7800SOL     OW24298   0.846   5.649   1.462
 7800SOL    HW124299   0.852   5.701   1.546
 7800SOL    HW224300   0.866   5.553   1.481
 7801SOL     OW24301   2.436   2.142   2.072
 7801SOL    HW124302   2.491   2.060   2.057
 7801SOL    HW224303   2.463   2.212   2.007
 7802SOL     OW24304   5.475   3.041   0.898
 7802SOL    HW124305   5.494   2.945   0.916
 7802SOL    HW224306   5.549   3.097   0.936
 7803SOL     OW24307   4.433   2.034   5.913
 7803SOL    HW124308   4.468   2.101   5.847
 7803SOL    HW224309   4.336   2.016   5.894
 7804SOL     OW24310   4.365   1.998   5.037
 7804SOL    HW124311   4.314   2.067   4.985
 7804SOL    HW224312   4.310   1.915   5.044
 7805SOL     OW24313   5.649   2.492   1.393
 7805SOL    HW124314   5.609   2.465   1.481
 7805SOL    HW224315   5.582   2.543   1.341
 7806SOL     OW24316   6.340   2.106   0.298
 7806SOL    HW124317   6.320   2.029   0.358
 7806SOL    HW224318   6.282   2.101   0.217
 7807SOL     OW24319   1.034   4.771   5.795
 7807SOL    HW124320   1.032   4.774   5.695
 7807SOL    HW224321   1.101   4.837   5.829
 7808SOL     OW24322   6.384   3.430   4.773
 7808SOL    HW124323   6.325   3.487   4.829
 7808SOL    HW224324   6.376   3.334   4.802
 7809SOL     OW24325   3.334   4.971   4.534
 7809SOL    HW124326   3.339   4.956   4.632
 7809SOL    HW224327   3.246   4.939   4.499
 7810SOL     OW24328   3.199   6.960   4.397
 7810SOL    HW124329   3.215   6.912   4.311
 7810SOL    HW224330   3.125   0.005   4.385
 7811SOL     OW24331   1.418   5.988   1.837
 7811SOL    HW124332   1.466   6.066   1.796
 7811SOL    HW224333   1.326   5.981   1.798
 7812SOL     OW24334   0.207   2.343   4.391
 7812SOL    HW124335   0.218   2.432   4.346
 7812SOL    HW224336   0.141   2.288   4.341
 7813SOL     OW24337   4.116   2.332   0.174
 7813SOL    HW124338   4.076   2.247   0.139
 7813SOL    HW224339   4.101   2.338   0.272
 7814SOL     OW24340   0.275   3.725   3.900
 7814SOL    HW124341   0.335   3.655   3.938
 7814SOL    HW224342   0.249   3.699   3.807
 7815SOL     OW24343   6.005   1.192   5.039
 7815SOL    HW124344   5.950   1.253   4.982
 7815SOL    HW224345   6.052   1.246   5.109
 7816SOL     OW24346   1.414   2.594   6.312
 7816SOL    HW124347   1.444   2.689   6.314
 7816SOL    HW224348   1.317   2.590   6.291
 7817SOL     OW24349   4.698   4.256   4.093
 7817SOL    HW124350   4.622   4.294   4.145
 7817SOL    HW224351   4.756   4.330   4.059
 7818SOL     OW24352   4.501   0.403   2.062
 7818SOL    HW124353   4.482   0.306   2.048
 7818SOL    HW224354   4.424   0.446   2.108
 7819SOL     OW24355   6.818   4.348   2.966
 7819SOL    HW124356   6.885   4.329   3.037
 7819SOL    HW224357   6.784   4.442   2.976
 7820SOL     OW24358   1.572   1.411   5.843
 7820SOL    HW124359   1.588   1.330   5.787
 7820SOL    HW224360   1.479   1.409   5.880
 7821SOL     OW24361   6.152   5.522   6.825
 7821SOL    HW124362   6.142   5.559   6.733
 7821SOL    HW224363   6.132   5.424   6.824
 7822SOL     OW24364   0.959   1.346   6.825
 7822SOL    HW124365   1.032   1.289   6.862
 7822SOL    HW224366   0.886   1.289   6.790
 7823SOL     OW24367   2.918   3.432   5.353
 7823SOL    HW124368   2.820   3.425   5.332
 7823SOL    HW224369   2.969   3.367   5.297
 7824SOL     OW24370   6.053   1.208   3.787
 7824SOL    HW124371   5.997   1.137   3.827
 7824SOL    HW224372   6.000   1.292   3.778
 7825SOL     OW24373   1.386   3.186   0.981
 7825SOL    HW124374   1.403   3.173   0.884
 7825SOL    HW224375   1.301   3.139   1.007
 7826SOL     OW24376   5.926   1.257   0.099
 7826SOL    HW124377   5.937   1.335   0.037
 7826SOL    HW224378   5.828   1.237   0.110
 7827SOL     OW24379   3.263   4.956   1.397
 7827SOL    HW124380   3.304   5.011   1.470
 7827SOL    HW224381   3.297   4.989   1.309
 7828SOL     OW24382   0.721   4.960   0.166
 7828SOL    HW124383   0.652   4.962   0.239
 7828SOL    HW224384   0.678   4.984   0.079
 7829SOL     OW24385   1.646   3.061   0.425
 7829SOL    HW124386   1.727   3.118   0.438
 7829SOL    HW224387   1.646   2.988   0.493
 7830SOL     OW24388   3.042   4.060   5.682
 7830SOL    HW124389   2.998   4.139   5.639
 7830SOL    HW224390   3.020   3.978   5.629
 7831SOL     OW24391   1.674   5.861   0.881
 7831SOL    HW124392   1.717   5.772   0.899
 7831SOL    HW224393   1.704   5.926   0.950
 7832SOL     OW24394   4.738   1.094   3.766
 7832SOL    HW124395   4.833   1.110   3.792
 7832SOL    HW224396   4.705   1.011   3.810
 7833SOL     OW24397   0.582   0.779   6.596
 7833SOL    HW124398   0.512   0.708   6.601
 7833SOL    HW224399   0.539   0.868   6.581
 7834SOL     OW24400   6.273   1.331   3.404
 7834SOL    HW124401   6.303   1.270   3.477
 7834SOL    HW224402   6.240   1.276   3.327
 7835SOL     OW24403   2.729   1.774   5.472
 7835SOL    HW124404   2.696   1.734   5.387
 7835SOL    HW224405   2.677   1.735   5.549
 7836SOL     OW24406   3.100   2.842   5.281
 7836SOL    HW124407   3.044   2.881   5.354
 7836SOL    HW224408   3.091   2.743   5.281
 7837SOL     OW24409   6.022   5.888   0.960
 7837SOL    HW124410   6.104   5.831   0.965
 7837SOL    HW224411   5.997   5.918   1.052
 7838SOL     OW24412   4.550   6.882   7.020
 7838SOL    HW124413   4.516   6.975   0.016
 7838SOL    HW224414   4.484   6.816   0.032
 7839SOL     OW24415   6.177   3.959   5.189
 7839SOL    HW124416   6.200   3.881   5.131
 7839SOL    HW224417   6.124   4.026   5.136
 7840SOL     OW24418   6.082   2.536   3.977
 7840SOL    HW124419   6.069   2.634   3.990
 7840SOL    HW224420   6.061   2.511   3.882
 7841SOL     OW24421   3.890   1.683   6.441
 7841SOL    HW124422   3.892   1.596   6.392
 7841SOL    HW224423   3.964   1.685   6.508
 7842SOL     OW24424   1.780   2.309   2.506
 7842SOL    HW124425   1.819   2.283   2.594
 7842SOL    HW224426   1.785   2.231   2.443
 7843SOL     OW24427   5.503   5.061   2.593
 7843SOL    HW124428   5.418   5.059   2.541
 7843SOL    HW224429   5.503   4.986   2.660
 7844SOL     OW24430   3.985   6.779   2.448
 7844SOL    HW124431   4.038   6.849   2.497
 7844SOL    HW224432   3.929   6.824   2.378
 7845SOL     OW24433   5.259   1.907   4.080
 7845SOL    HW124434   5.310   1.823   4.065
 7845SOL    HW224435   5.281   1.973   4.008
 7846SOL     OW24436   0.915   1.155   3.155
 7846SOL    HW124437   0.951   1.108   3.074
 7846SOL    HW224438   0.942   1.251   3.153
 7847SOL     OW24439   6.934   1.536   3.320
 7847SOL    HW124440   6.907   1.459   3.261
 7847SOL    HW224441   6.896   1.621   3.283
 7848SOL     OW24442   3.362   3.235   0.635
 7848SOL    HW124443   3.407   3.170   0.695
 7848SOL    HW224444   3.415   3.244   0.550
 7849SOL     OW24445   5.578   4.227   3.342
 7849SOL    HW124446   5.569   4.233   3.242
 7849SOL    HW224447   5.544   4.311   3.383
 7850SOL     OW24448   0.506   1.889   5.292
 7850SOL    HW124449   0.424   1.835   5.308
 7850SOL    HW224450   0.560   1.848   5.218
 7851SOL     OW24451   6.375   1.415   1.780
 7851SOL    HW124452   6.312   1.482   1.819
 7851SOL    HW224453   6.328   1.327   1.768
 7852SOL     OW24454   2.531   1.391   6.058
 7852SOL    HW124455   2.600   1.427   5.996
 7852SOL    HW224456   2.561   1.302   6.094
 7853SOL     OW24457   4.643   2.230   1.855
 7853SOL    HW124458   4.689   2.297   1.912
 7853SOL    HW224459   4.706   2.155   1.834
 7854SOL     OW24460   3.453   3.915   0.214
 7854SOL    HW124461   3.500   3.974   0.149
 7854SOL    HW224462   3.459   3.820   0.184
 7855SOL     OW24463   4.153   5.500   5.500
 7855SOL    HW124464   4.098   5.538   5.425
 7855SOL    HW224465   4.121   5.539   5.587
 7856SOL     OW24466   6.466   4.186   5.511
 7856SOL    HW124467   6.549   4.185   5.567
 7856SOL    HW224468   6.386   4.174   5.570
 7857SOL     OW24469   6.046   2.090   5.325
 7857SOL    HW124470   5.956   2.124   5.353
 7857SOL    HW224471   6.116   2.129   5.385
 7858SOL     OW24472   5.079   5.381   3.375
 7858SOL    HW124473   5.164   5.421   3.341
 7858SOL    HW224474   5.079   5.380   3.475
 7859SOL     OW24475   5.463   2.760   6.427
 7859SOL    HW124476   5.468   2.785   6.330
 7859SOL    HW224477   5.506   2.671   6.441
 7860SOL     OW24478   4.832   0.256   2.689
 7860SOL    HW124479   4.831   0.246   2.590
 7860SOL    HW224480   4.753   0.210   2.729
 7861SOL     OW24481   3.763   5.414   1.867
 7861SOL    HW124482   3.836   5.480   1.847
 7861SOL    HW224483   3.723   5.382   1.781
 7862SOL     OW24484   3.223   3.998   1.731
 7862SOL    HW124485   3.147   4.006   1.796
 7862SOL    HW224486   3.307   3.976   1.781
 7863SOL     OW24487   0.691   5.783   3.817
 7863SOL    HW124488   0.737   5.704   3.776
 7863SOL    HW224489   0.599   5.792   3.779
 7864SOL     OW24490   0.723   5.575   5.431
 7864SOL    HW124491   0.737   5.645   5.501
 7864SOL    HW224492   0.626   5.566   5.412
 7865SOL     OW24493   5.327   6.734   4.358
 7865SOL    HW124494   5.403   6.670   4.369
 7865SOL    HW224495   5.273   6.737   4.442
 7866SOL     OW24496   1.443   1.833   6.625
 7866SOL    HW124497   1.508   1.788   6.563
 7866SOL    HW224498   1.393   1.764   6.677
 7867SOL     OW24499   5.182   6.617   3.092
 7867SOL    HW124500   5.206   6.688   3.158
 7867SOL    HW224501   5.183   6.657   3.000
 7868SOL     OW24502   5.367   6.949   1.874
 7868SOL    HW124503   5.448   6.980   1.924
 7868SOL    HW224504   5.316   6.885   1.931
 7869SOL     OW24505   6.065   3.994   6.972
 7869SOL    HW124506   5.965   3.994   6.977
 7869SOL    HW224507   6.103   3.974   0.040
 7870SOL     OW24508   3.956   4.852   4.497
 7870SOL    HW124509   4.033   4.881   4.440
 7870SOL    HW224510   3.891   4.801   4.441
 7871SOL     OW24511   4.898   3.070   2.351
 7871SOL    HW124512   4.882   3.008   2.274
 7871SOL    HW224513   4.989   3.111   2.343
 7872SOL     OW24514   2.295   4.416   3.160
 7872SOL    HW124515   2.226   4.355   3.198
 7872SOL    HW224516   2.343   4.462   3.234
 7873SOL     OW24517   5.826   0.321   6.185
 7873SOL    HW124518   5.840   0.237   6.132
 7873SOL    HW224519   5.811   0.398   6.123
 7874SOL     OW24520   5.762   1.538   0.840
 7874SOL    HW124521   5.771   1.552   0.741
 7874SOL    HW224522   5.665   1.526   0.863
 7875SOL     OW24523   5.599   2.087   6.399
 7875SOL    HW124524   5.507   2.077   6.438
 7875SOL    HW224525   5.644   1.998   6.396
 7876SOL     OW24526   6.717   6.359   4.547
 7876SOL    HW124527   6.777   6.379   4.468
 7876SOL    HW224528   6.678   6.444   4.581
 7877SOL     OW24529   0.754   2.336   2.773
 7877SOL    HW124530   0.806   2.338   2.687
 7877SOL    HW224531   0.816   2.353   2.849
 7878SOL     OW24532   5.952   5.530   3.896
 7878SOL    HW124533   5.896   5.450   3.873
 7878SOL    HW224534   5.964   5.535   3.996
 7879SOL     OW24535   4.546   5.619   4.240
 7879SOL    HW124536   4.525   5.574   4.154
 7879SOL    HW224537   4.638   5.592   4.270
 7880SOL     OW24538   2.024   4.968   1.149
 7880SOL    HW124539   1.938   4.916   1.153
 7880SOL    HW224540   2.042   5.009   1.238
 7881SOL     OW24541   5.538   4.652   5.014
 7881SOL    HW124542   5.499   4.618   5.099
 7881SOL    HW224543   5.622   4.601   4.992
 7882SOL     OW24544   0.705   3.239   3.217
 7882SOL    HW124545   0.675   3.167   3.154
 7882SOL    HW224546   0.770   3.201   3.282
 7883SOL     OW24547   1.327   0.398   0.619
 7883SOL    HW124548   1.376   0.469   0.570
 7883SOL    HW224549   1.246   0.437   0.664
 7884SOL     OW24550   2.299   4.297   3.798
 7884SOL    HW124551   2.308   4.298   3.898
 7884SOL    HW224552   2.284   4.204   3.767
 7885SOL     OW24553   6.272   5.653   1.249
 7885SOL    HW124554   6.325   5.570   1.228
 7885SOL    HW224555   6.334   5.725   1.280
 7886SOL     OW24556   3.060   5.954   0.532
 7886SOL    HW124557   3.138   5.991   0.583
 7886SOL    HW224558   3.057   5.995   0.441
 7887SOL     OW24559   3.083   2.559   5.342
 7887SOL    HW124560   3.115   2.478   5.292
 7887SOL    HW224561   2.989   2.580   5.314
 7888SOL     OW24562   6.595   6.466   5.320
 7888SOL    HW124563   6.521   6.423   5.269
 7888SOL    HW224564   6.583   6.449   5.417
 7889SOL     OW24565   0.900   4.502   0.810
 7889SOL    HW124566   0.865   4.563   0.739
 7889SOL    HW224567   0.945   4.556   0.881
 7890SOL     OW24568   0.149   3.305   3.682
 7890SOL    HW124569   0.123   3.376   3.616
 7890SOL    HW224570   0.084   3.229   3.676
 7891SOL     OW24571   2.211   4.401   4.389
 7891SOL    HW124572   2.253   4.370   4.474
 7891SOL    HW224573   2.222   4.330   4.319
 7892SOL     OW24574   1.918   2.059   3.728
 7892SOL    HW124575   1.899   2.063   3.630
 7892SOL    HW224576   1.947   1.967   3.753
 7893SOL     OW24577   6.691   6.213   2.037
 7893SOL    HW124578   6.597   6.230   2.010
 7893SOL    HW224579   6.724   6.287   2.095
 7894SOL     OW24580   4.120   6.414   0.617
 7894SOL    HW124581   4.045   6.349   0.629
 7894SOL    HW224582   4.196   6.368   0.570
 7895SOL     OW24583   5.581   0.394   4.982
 7895SOL    HW124584   5.624   0.304   4.975
 7895SOL    HW224585   5.513   0.404   4.911
 7896SOL     OW24586   3.803   3.289   1.013
 7896SOL    HW124587   3.734   3.346   0.969
 7896SOL    HW224588   3.820   3.208   0.957
 7897SOL     OW24589   3.377   2.710   0.692
 7897SOL    HW124590   3.312   2.745   0.760
 7897SOL    HW224591   3.347   2.738   0.601
 7898SOL     OW24592   3.814   1.481   3.755
 7898SOL    HW124593   3.718   1.494   3.731
 7898SOL    HW224594   3.867   1.471   3.671
 7899SOL     OW24595   5.817   0.073   0.879
 7899SOL    HW124596   5.874   0.054   0.959
 7899SOL    HW224597   5.725   0.037   0.894
 7900SOL     OW24598   1.339   5.470   1.860
 7900SOL    HW124599   1.404   5.486   1.786
 7900SOL    HW224600   1.322   5.372   1.870
 7901SOL     OW24601   4.351   0.994   6.195
 7901SOL    HW124602   4.401   0.916   6.159
 7901SOL    HW224603   4.253   0.977   6.188
 7902SOL     OW24604   6.354   6.820   1.148
 7902SOL    HW124605   6.449   6.814   1.179
 7902SOL    HW224606   6.294   6.818   1.228
 7903SOL     OW24607   4.768   1.680   1.920
 7903SOL    HW124608   4.728   1.770   1.933
 7903SOL    HW224609   4.823   1.679   1.837
 7904SOL     OW24610   5.883   6.790   2.942
 7904SOL    HW124611   5.844   6.869   2.990
 7904SOL    HW224612   5.942   6.739   3.004
 7905SOL     OW24613   5.680   2.011   0.312
 7905SOL    HW124614   5.610   1.940   0.308
 7905SOL    HW224615   5.744   1.991   0.387
 7906SOL     OW24616   0.294   5.190   1.034
 7906SOL    HW124617   0.331   5.158   0.947
 7906SOL    HW224618   0.286   5.290   1.032
 7907SOL     OW24619   5.147   1.702   2.654
 7907SOL    HW124620   5.073   1.752   2.700
 7907SOL    HW224621   5.179   1.628   2.713
 7908SOL     OW24622   1.689   0.802   5.754
 7908SOL    HW124623   1.725   0.709   5.749
 7908SOL    HW224624   1.625   0.817   5.678
 7909SOL     OW24625   4.920   4.824   4.553
 7909SOL    HW124626   5.010   4.786   4.572
 7909SOL    HW224627   4.927   4.924   4.542
 7910SOL     OW24628   3.059   3.882   6.065
 7910SOL    HW124629   3.045   3.981   6.075
 7910SOL    HW224630   3.054   3.838   6.154
 7911SOL     OW24631   1.480   3.848   0.477
 7911SOL    HW124632   1.505   3.764   0.430
 7911SOL    HW224633   1.437   3.911   0.413
 7912SOL     OW24634   6.322   4.547   0.581
 7912SOL    HW124635   6.412   4.527   0.619
 7912SOL    HW224636   6.306   4.646   0.582
 7913SOL     OW24637   1.257   4.446   1.864
 7913SOL    HW124638   1.267   4.518   1.932
 7913SOL    HW224639   1.261   4.486   1.773
 7914SOL     OW24640   0.605   4.512   0.246
 7914SOL    HW124641   0.559   4.440   0.194
 7914SOL    HW224642   0.640   4.474   0.331
 7915SOL     OW24643   4.884   2.469   2.271
 7915SOL    HW124644   4.858   2.507   2.182
 7915SOL    HW224645   4.865   2.535   2.343
 7916SOL     OW24646   0.345   4.812   5.108
 7916SOL    HW124647   0.253   4.789   5.077
 7916SOL    HW224648   0.377   4.894   5.060
 7917SOL     OW24649   3.293   3.272   4.697
 7917SOL    HW124650   3.370   3.215   4.727
 7917SOL    HW224651   3.243   3.225   4.625
 7918SOL     OW24652   0.490   1.075   5.019
 7918SOL    HW124653   0.586   1.095   4.997
 7918SOL    HW224654   0.484   0.984   5.060
 7919SOL     OW24655   1.929   4.552   2.864
 7919SOL    HW124656   2.018   4.582   2.900
 7919SOL    HW224657   1.858   4.573   2.931
 7920SOL     OW24658   0.389   6.946   0.595
 7920SOL    HW124659   0.392   6.847   0.612
 7920SOL    HW224660   0.296   6.972   0.567
 7921SOL     OW24661   5.339   6.218   1.781
 7921SOL    HW124662   5.355   6.315   1.798
 7921SOL    HW224663   5.426   6.172   1.763
 7922SOL     OW24664   6.951   6.636   0.708
 7922SOL    HW124665   6.956   6.615   0.806
 7922SOL    HW224666   0.003   6.590   0.659
 7923SOL     OW24667   3.659   0.345   0.751
 7923SOL    HW124668   3.603   0.291   0.688
 7923SOL    HW224669   3.621   0.338   0.843
 7924SOL     OW24670   4.839   6.762   1.605
 7924SOL    HW124671   4.856   6.813   1.689
 7924SOL    HW224672   4.802   6.672   1.627
 7925SOL     OW24673   1.299   1.266   6.352
 7925SOL    HW124674   1.373   1.330   6.373
 7925SOL    HW224675   1.214   1.316   6.338
 7926SOL     OW24676   4.759   1.172   5.657
 7926SOL    HW124677   4.754   1.075   5.678
 7926SOL    HW224678   4.775   1.223   5.741
 7927SOL     OW24679   4.457   5.475   2.663
 7927SOL    HW124680   4.429   5.555   2.716
 7927SOL    HW224681   4.500   5.408   2.724
 7928SOL     OW24682   1.372   1.625   5.076
 7928SOL    HW124683   1.459   1.629   5.028
 7928SOL    HW224684   1.368   1.542   5.132
 7929SOL     OW24685   4.739   4.319   5.773
 7929SOL    HW124686   4.644   4.349   5.769
 7929SOL    HW224687   4.800   4.397   5.766
 7930SOL     OW24688   4.130   5.601   4.846
 7930SOL    HW124689   4.055   5.665   4.862
 7930SOL    HW224690   4.177   5.584   4.933
 7931SOL     OW24691   3.154   2.803   6.968
 7931SOL    HW124692   3.083   2.735   6.955
 7931SOL    HW224693   3.243   2.758   6.977
 7932SOL     OW24694   1.187   6.604   6.710
 7932SOL    HW124695   1.132   6.589   6.627
 7932SOL    HW224696   1.283   6.583   6.690
 7933SOL     OW24697   0.428   5.902   6.169
 7933SOL    HW124698   0.521   5.903   6.132
 7933SOL    HW224699   0.382   5.987   6.147
 7934SOL     OW24700   1.785   4.939   6.913
 7934SOL    HW124701   1.776   4.949   6.814
 7934SOL    HW224702   1.824   4.849   6.934
 7935SOL     OW24703   5.616   6.446   0.935
 7935SOL    HW124704   5.611   6.359   0.985
 7935SOL    HW224705   5.690   6.442   0.868
 7936SOL     OW24706   3.655   5.947   2.491
 7936SOL    HW124707   3.595   6.025   2.470
 7936SOL    HW224708   3.744   5.962   2.449
 7937SOL     OW24709   6.577   6.570   3.582
 7937SOL    HW124710   6.501   6.562   3.518
 7937SOL    HW224711   6.592   6.482   3.627
 7938SOL     OW24712   6.969   5.407   3.717
 7938SOL    HW124713   6.924   5.328   3.757
 7938SOL    HW224714   0.043   5.385   3.699
 7939SOL     OW24715   1.356   2.778   4.748
 7939SOL    HW124716   1.331   2.755   4.842
 7939SOL    HW224717   1.321   2.708   4.686
 7940SOL     OW24718   1.700   3.474   1.600
 7940SOL    HW124719   1.793   3.441   1.615
 7940SOL    HW224720   1.644   3.400   1.564
 7941SOL     OW24721   5.788   0.637   1.455
 7941SOL    HW124722   5.816   0.638   1.551
 7941SOL    HW224723   5.775   0.730   1.423
 7942SOL     OW24724   6.786   5.669   2.657
 7942SOL    HW124725   6.854   5.657   2.585
 7942SOL    HW224726   6.699   5.629   2.628
 7943SOL     OW24727   5.828   3.659   6.883
 7943SOL    HW124728   5.780   3.606   6.953
 7943SOL    HW224729   5.779   3.651   6.796
 7944SOL     OW24730   0.855   2.424   1.305
 7944SOL    HW124731   0.916   2.411   1.384
 7944SOL    HW224732   0.817   2.336   1.278
 7945SOL     OW24733   6.101   5.282   1.202
 7945SOL    HW124734   6.036   5.357   1.196
 7945SOL    HW224735   6.154   5.291   1.286
 7946SOL     OW24736   3.026   0.635   5.641
 7946SOL    HW124737   3.084   0.713   5.617
 7946SOL    HW224738   2.986   0.597   5.558
 7947SOL     OW24739   3.670   2.038   6.288
 7947SOL    HW124740   3.604   2.101   6.330
 7947SOL    HW224741   3.628   1.994   6.208
 7948SOL     OW24742   1.213   0.334   1.070
 7948SOL    HW124743   1.197   0.289   1.158
 7948SOL    HW224744   1.138   0.397   1.050
 7949SOL     OW24745   4.461   4.720   4.803
 7949SOL    HW124746   4.417   4.634   4.829
 7949SOL    HW224747   4.489   4.770   4.885
 7950SOL     OW24748   5.076   5.186   4.323
 7950SOL    HW124749   4.982   5.219   4.317
 7950SOL    HW224750   5.130   5.248   4.379
 7951SOL     OW24751   2.266   4.037   2.136
 7951SOL    HW124752   2.265   3.942   2.107
 7951SOL    HW224753   2.193   4.087   2.090
 7952SOL     OW24754   0.085   3.757   0.088
 7952SOL    HW124755   0.004   3.718   0.046
 7952SOL    HW224756   0.159   3.690   0.088
 7953SOL     OW24757   2.894   2.206   3.824
 7953SOL    HW124758   2.830   2.265   3.774
 7953SOL    HW224759   2.845   2.158   3.897
 7954SOL     OW24760   3.467   4.475   6.775
 7954SOL    HW124761   3.524   4.399   6.743
 7954SOL    HW224762   3.479   4.554   6.715
 7955SOL     OW24763   1.591   0.131   6.392
 7955SOL    HW124764   1.583   0.222   6.353
 7955SOL    HW224765   1.524   0.120   6.466
 7956SOL     OW24766   3.664   6.452   2.176
 7956SOL    HW124767   3.641   6.509   2.254
 7956SOL    HW224768   3.762   6.437   2.172
 7957SOL     OW24769   0.775   0.900   1.456
 7957SOL    HW124770   0.702   0.967   1.445
 7957SOL    HW224771   0.853   0.942   1.502
 7958SOL     OW24772   3.543   5.269   5.077
 7958SOL    HW124773   3.448   5.242   5.062
 7958SOL    HW224774   3.578   5.316   4.996
 7959SOL     OW24775   4.711   5.969   0.631
 7959SOL    HW124776   4.616   5.958   0.660
 7959SOL    HW224777   4.772   5.958   0.710
 7960SOL     OW24778   2.627   1.370   6.397
 7960SOL    HW124779   2.557   1.318   6.349
 7960SOL    HW224780   2.717   1.327   6.383
 7961SOL     OW24781   6.837   1.226   0.644
 7961SOL    HW124782   6.815   1.163   0.718
 7961SOL    HW224783   6.832   1.320   0.678
 7962SOL     OW24784   0.984   0.805   6.263
 7962SOL    HW124785   1.058   0.748   6.300
 7962SOL    HW224786   0.897   0.776   6.303
 7963SOL     OW24787   6.339   6.139   4.331
 7963SOL    HW124788   6.360   6.135   4.233
 7963SOL    HW224789   6.370   6.055   4.375
 7964SOL     OW24790   0.308   4.731   2.295
 7964SOL    HW124791   0.252   4.655   2.261
 7964SOL    HW224792   0.285   4.748   2.391
 7965SOL     OW24793   4.147   2.643   5.832
 7965SOL    HW124794   4.107   2.734   5.825
 7965SOL    HW224795   4.100   2.581   5.769
 7966SOL     OW24796   1.509   2.721   5.964
 7966SOL    HW124797   1.415   2.690   5.980
 7966SOL    HW224798   1.548   2.668   5.889
 7967SOL     OW24799   2.946   6.711   2.936
 7967SOL    HW124800   2.917   6.642   2.870
 7967SOL    HW224801   3.019   6.673   2.993
 7968SOL     OW24802   1.570   2.714   3.643
 7968SOL    HW124803   1.637   2.682   3.710
 7968SOL    HW224804   1.508   2.780   3.686
 7969SOL     OW24805   3.878   6.105   6.863
 7969SOL    HW124806   3.952   6.142   6.806
 7969SOL    HW224807   3.790   6.123   6.819
 7970SOL     OW24808   6.208   3.052   2.914
 7970SOL    HW124809   6.261   2.968   2.917
 7970SOL    HW224810   6.188   3.076   2.819
 7971SOL     OW24811   3.457   2.048   0.437
 7971SOL    HW124812   3.549   2.036   0.474
 7971SOL    HW224813   3.403   2.106   0.498
 7972SOL     OW24814   2.045   3.033   0.375
 7972SOL    HW124815   2.113   3.096   0.337
 7972SOL    HW224816   1.972   3.085   0.419
 7973SOL     OW24817   4.347   4.820   4.564
 7973SOL    HW124818   4.269   4.808   4.624
 7973SOL    HW224819   4.419   4.871   4.611
 7974SOL     OW24820   5.972   0.982   5.435
 7974SOL    HW124821   5.898   1.031   5.389
 7974SOL    HW224822   6.060   1.020   5.405
 7975SOL     OW24823   6.467   1.491   2.125
 7975SOL    HW124824   6.397   1.562   2.117
 7975SOL    HW224825   6.530   1.498   2.047
 7976SOL     OW24826   0.444   0.218   6.184
 7976SOL    HW124827   0.460   0.127   6.223
 7976SOL    HW224828   0.479   0.221   6.091
 7977SOL     OW24829   4.485   6.179   2.474
 7977SOL    HW124830   4.454   6.102   2.419
 7977SOL    HW224831   4.545   6.147   2.547
 7978SOL     OW24832   5.644   3.890   6.665
 7978SOL    HW124833   5.707   3.967   6.670
 7978SOL    HW224834   5.604   3.884   6.574
 7979SOL     OW24835   4.265   5.966   5.196
 7979SOL    HW124836   4.175   5.960   5.240
 7979SOL    HW224837   4.260   5.923   5.106
 7980SOL     OW24838   2.659   5.316   0.072
 7980SOL    HW124839   2.560   5.326   0.080
 7980SOL    HW224840   2.702   5.406   0.083
 7981SOL     OW24841   0.343   5.473   1.531
 7981SOL    HW124842   0.286   5.466   1.613
 7981SOL    HW224843   0.285   5.469   1.449
 7982SOL     OW24844   1.119   1.210   6.984
 7982SOL    HW124845   1.100   1.294   0.013
 7982SOL    HW224846   1.206   1.172   7.015
 7983SOL     OW24847   6.017   2.361   1.719
 7983SOL    HW124848   5.959   2.297   1.669
 7983SOL    HW224849   6.002   2.454   1.685
 7984SOL     OW24850   1.685   1.182   0.695
 7984SOL    HW124851   1.670   1.233   0.780
 7984SOL    HW224852   1.750   1.108   0.711
 7985SOL     OW24853   2.680   1.063   4.204
 7985SOL    HW124854   2.768   1.018   4.187
 7985SOL    HW224855   2.677   1.095   4.299
 7986SOL     OW24856   2.648   0.985   6.458
 7986SOL    HW124857   2.715   0.922   6.498
 7986SOL    HW224858   2.641   0.967   6.360
 7987SOL     OW24859   1.547   2.828   6.222
 7987SOL    HW124860   1.577   2.812   6.128
 7987SOL    HW224861   1.515   2.922   6.232
 7988SOL     OW24862   0.879   2.268   4.154
 7988SOL    HW124863   0.904   2.288   4.059
 7988SOL    HW224864   0.951   2.215   4.197
 7989SOL     OW24865   3.543   2.846   5.736
 7989SOL    HW124866   3.448   2.850   5.706
 7989SOL    HW224867   3.601   2.897   5.671
 7990SOL     OW24868   0.271   3.952   4.512
 7990SOL    HW124869   0.306   4.044   4.495
 7990SOL    HW224870   0.182   3.942   4.466
 7991SOL     OW24871   6.054   6.704   3.424
 7991SOL    HW124872   5.958   6.729   3.432
 7991SOL    HW224873   6.099   6.718   3.512
 7992SOL     OW24874   1.453   0.324   1.471
 7992SOL    HW124875   1.392   0.395   1.434
 7992SOL    HW224876   1.534   0.367   1.510
 7993SOL     OW24877   0.891   0.175   0.431
 7993SOL    HW124878   0.955   0.110   0.388
 7993SOL    HW224879   0.816   0.194   0.367
 7994SOL     OW24880   4.401   6.609   3.562
 7994SOL    HW124881   4.349   6.572   3.639
 7994SOL    HW224882   4.453   6.536   3.519
 7995SOL     OW24883   4.822   5.804   3.990
 7995SOL    HW124884   4.808   5.741   4.066
 7995SOL    HW224885   4.741   5.803   3.931
 7996SOL     OW24886   3.165   6.745   4.567
 7996SOL    HW124887   3.179   6.661   4.514
 7996SOL    HW224888   3.181   6.824   4.509
 7997SOL     OW24889   0.340   1.297   1.170
 7997SOL    HW124890   0.352   1.309   1.268
 7997SOL    HW224891   0.246   1.267   1.151
 7998SOL     OW24892   3.097   6.394   1.065
 7998SOL    HW124893   3.071   6.327   1.135
 7998SOL    HW224894   3.106   6.484   1.108
 7999SOL     OW24895   0.663   0.344   6.360
 7999SOL    HW124896   0.657   0.338   6.459
 7999SOL    HW224897   0.597   0.282   6.318
 8000SOL     OW24898   4.938   0.305   6.597
 8000SOL    HW124899   4.841   0.318   6.574
 8000SOL    HW224900   4.945   0.252   6.681
 8001SOL     OW24901   4.163   6.412   1.320
 8001SOL    HW124902   4.210   6.497   1.342
 8001SOL    HW224903   4.098   6.429   1.246
 8002SOL     OW24904   0.793   1.882   5.954
 8002SOL    HW124905   0.841   1.969   5.958
 8002SOL    HW224906   0.720   1.880   6.023
 8003SOL     OW24907   2.768   5.414   2.428
 8003SOL    HW124908   2.700   5.409   2.501
 8003SOL    HW224909   2.756   5.499   2.377
 8004SOL     OW24910   2.147   3.464   2.993
 8004SOL    HW124911   2.050   3.489   2.987
 8004SOL    HW224912   2.185   3.456   2.901
 8005SOL     OW24913   3.012   0.981   1.505
 8005SOL    HW124914   2.978   0.899   1.550
 8005SOL    HW224915   3.069   0.956   1.427
 8006SOL     OW24916   1.902   0.507   6.108
 8006SOL    HW124917   1.817   0.455   6.108
 8006SOL    HW224918   1.954   0.485   6.025
 8007SOL     OW24919   6.921   0.277   4.364
 8007SOL    HW124920   6.905   0.371   4.336
 8007SOL    HW224921   6.921   0.218   4.283
 8008SOL     OW24922   4.086   5.476   6.821
 8008SOL    HW124923   4.054   5.413   6.892
 8008SOL    HW224924   4.147   5.427   6.758
 8009SOL     OW24925   5.757   1.050   2.438
 8009SOL    HW124926   5.741   1.148   2.428
 8009SOL    HW224927   5.843   1.035   2.487
 8010SOL     OW24928   1.010   1.093   6.227
 8010SOL    HW124929   0.987   1.154   6.302
 8010SOL    HW224930   0.961   1.006   6.238
 8011SOL     OW24931   3.502   2.809   0.926
 8011SOL    HW124932   3.501   2.867   0.844
 8011SOL    HW224933   3.534   2.717   0.901
 8012SOL     OW24934   1.437   4.274   1.992
 8012SOL    HW124935   1.364   4.304   1.931
 8012SOL    HW224936   1.525   4.283   1.945
 8013SOL     OW24937   1.164   5.387   3.596
 8013SOL    HW124938   1.138   5.439   3.515
 8013SOL    HW224939   1.262   5.395   3.611
 8014SOL     OW24940   0.980   6.600   5.259
 8014SOL    HW124941   0.911   6.663   5.225
 8014SOL    HW224942   0.941   6.508   5.267
 8015SOL     OW24943   2.671   0.741   6.754
 8015SOL    HW124944   2.645   0.668   6.816
 8015SOL    HW224945   2.609   0.742   6.675
 8016SOL     OW24946   5.326   6.827   5.867
 8016SOL    HW124947   5.409   6.882   5.861
 8016SOL    HW224948   5.261   6.856   5.797
 8017SOL     OW24949   5.479   0.051   0.187
 8017SOL    HW124950   5.570   0.034   0.224
 8017SOL    HW224951   5.412   0.044   0.261
 8018SOL     OW24952   3.294   1.684   5.727
 8018SOL    HW124953   3.246   1.612   5.777
 8018SOL    HW224954   3.228   1.753   5.696
 8019SOL     OW24955   2.308   4.356   6.941
 8019SOL    HW124956   2.380   4.339   7.008
 8019SOL    HW224957   2.257   4.438   6.966
 8020SOL     OW24958   5.560   0.790   0.688
 8020SOL    HW124959   5.647   0.756   0.722
 8020SOL    HW224960   5.539   0.747   0.600
 8021SOL     OW24961   1.019   2.674   1.199
 8021SOL    HW124962   0.945   2.740   1.201
 8021SOL    HW224963   1.019   2.620   1.283
 8022SOL     OW24964   5.507   6.510   2.860
 8022SOL    HW124965   5.565   6.464   2.927
 8022SOL    HW224966   5.415   6.472   2.864
 8023SOL     OW24967   5.739   5.502   2.768
 8023SOL    HW124968   5.703   5.525   2.678
 8023SOL    HW224969   5.786   5.582   2.807
 8024SOL     OW24970   2.193   4.833   6.996
 8024SOL    HW124971   2.166   4.809   0.067
 8024SOL    HW224972   2.168   4.759   6.934
 8025SOL     OW24973   1.863   6.485   6.680
 8025SOL    HW124974   1.819   6.437   6.756
 8025SOL    HW224975   1.870   6.582   6.702
 8026SOL     OW24976   0.827   4.046   0.011
 8026SOL    HW124977   0.764   3.985   6.984
 8026SOL    HW224978   0.906   4.066   6.976
 8027SOL     OW24979   4.799   0.860   5.241
 8027SOL    HW124980   4.720   0.905   5.283
 8027SOL    HW224981   4.767   0.792   5.175
 8028SOL     OW24982   3.180   5.484   4.818
 8028SOL    HW124983   3.127   5.427   4.754
 8028SOL    HW224984   3.225   5.425   4.885
 8029SOL     OW24985   4.916   2.825   1.442
 8029SOL    HW124986   4.969   2.909   1.425
 8029SOL    HW224987   4.820   2.849   1.456
 8030SOL     OW24988   4.284   4.517   1.046
 8030SOL    HW124989   4.375   4.532   1.086
 8030SOL    HW224990   4.224   4.478   1.116
 8031SOL     OW24991   6.253   6.588   2.038
 8031SOL    HW124992   6.199   6.671   2.056
 8031SOL    HW224993   6.192   6.514   2.010
 8032SOL     OW24994   6.856   5.238   1.508
 8032SOL    HW124995   6.923   5.204   1.442
 8032SOL    HW224996   6.890   5.222   1.601
 8033SOL     OW24997   5.243   1.221   5.456
 8033SOL    HW124998   5.144   1.205   5.462
 8033SOL    HW224999   5.292   1.141   5.492
 8034SOL     OW25000   5.195   6.706   4.578
 8034SOL    HW125001   5.098   6.707   4.553
 8034SOL    HW225002   5.213   6.628   4.638
 8035SOL     OW25003   5.265   1.684   4.525
 8035SOL    HW125004   5.301   1.758   4.468
 8035SOL    HW225005   5.338   1.617   4.541
 8036SOL     OW25006   6.806   3.713   3.546
 8036SOL    HW125007   6.807   3.692   3.644
 8036SOL    HW225008   6.899   3.735   3.516
 8037SOL     OW25009   1.736   3.301   0.155
 8037SOL    HW125010   1.747   3.339   0.063
 8037SOL    HW225011   1.651   3.249   0.159
 8038SOL     OW25012   4.302   6.674   2.497
 8038SOL    HW125013   4.392   6.717   2.493
 8038SOL    HW225014   4.236   6.740   2.534
 8039SOL     OW25015   0.557   2.225   4.602
 8039SOL    HW125016   0.576   2.129   4.582
 8039SOL    HW225017   0.621   2.283   4.552
 8040SOL     OW25018   1.441   5.698   0.005
 8040SOL    HW125019   1.519   5.759   7.012
 8040SOL    HW225020   1.449   5.619   6.965
 8041SOL     OW25021   2.356   1.977   2.712
 8041SOL    HW125022   2.446   1.994   2.752
 8041SOL    HW225023   2.332   2.053   2.652
 8042SOL     OW25024   2.908   3.431   3.828
 8042SOL    HW125025   2.961   3.451   3.745
 8042SOL    HW225026   2.889   3.333   3.832
 8043SOL     OW25027   3.371   6.985   1.733
 8043SOL    HW125028   3.345   6.930   1.653
 8043SOL    HW225029   3.465   6.964   1.759
 8044SOL     OW25030   4.305   2.392   1.429
 8044SOL    HW125031   4.349   2.338   1.356
 8044SOL    HW225032   4.365   2.395   1.509
 8045SOL     OW25033   5.394   1.762   2.600
 8045SOL    HW125034   5.437   1.789   2.686
 8045SOL    HW225035   5.296   1.749   2.615
 8046SOL     OW25036   0.223   5.476   1.251
 8046SOL    HW125037   0.207   5.565   1.208
 8046SOL    HW225038   0.318   5.450   1.239
 8047SOL     OW25039   4.146   5.738   4.544
 8047SOL    HW125040   4.163   5.735   4.445
 8047SOL    HW225041   4.162   5.648   4.583
 8048SOL     OW25042   5.183   0.812   5.555
 8048SOL    HW125043   5.132   0.897   5.539
 8048SOL    HW225044   5.263   0.810   5.495
 8049SOL     OW25045   0.891   0.435   0.280
 8049SOL    HW125046   0.906   0.486   0.196
 8049SOL    HW225047   0.845   0.349   0.259
 8050SOL     OW25048   1.641   4.223   3.341
 8050SOL    HW125049   1.559   4.166   3.333
 8050SOL    HW225050   1.709   4.175   3.397
 8051SOL     OW25051   4.644   5.779   3.740
 8051SOL    HW125052   4.576   5.803   3.671
 8051SOL    HW225053   4.700   5.703   3.707
 8052SOL     OW25054   4.617   1.563   2.107
 8052SOL    HW125055   4.521   1.576   2.083
 8052SOL    HW225056   4.675   1.594   2.032
 8053SOL     OW25057   2.891   3.685   3.318
 8053SOL    HW125058   2.835   3.758   3.356
 8053SOL    HW225059   2.962   3.725   3.260
 8054SOL     OW25060   5.350   6.488   4.720
 8054SOL    HW125061   5.446   6.496   4.692
 8054SOL    HW225062   5.344   6.495   4.820
 8055SOL     OW25063   0.456   0.382   5.505
 8055SOL    HW125064   0.466   0.466   5.559
 8055SOL    HW225065   0.403   0.315   5.557
 8056SOL     OW25066   2.818   1.543   4.366
 8056SOL    HW125067   2.834   1.497   4.278
 8056SOL    HW225068   2.876   1.624   4.372
 8057SOL     OW25069   2.895   1.992   3.121
 8057SOL    HW125070   2.822   1.928   3.143
 8057SOL    HW225071   2.875   2.038   3.035
 8058SOL     OW25072   3.899   0.268   2.184
 8058SOL    HW125073   3.907   0.284   2.085
 8058SOL    HW225074   3.802   0.263   2.209
 8059SOL     OW25075   3.242   2.062   4.848
 8059SOL    HW125076   3.182   2.130   4.890
 8059SOL    HW225077   3.316   2.108   4.799
 8060SOL     OW25078   6.329   2.148   4.320
 8060SOL    HW125079   6.404   2.091   4.286
 8060SOL    HW225080   6.352   2.244   4.306
 8061SOL     OW25081   0.257   0.978   3.116
 8061SOL    HW125082   0.222   1.067   3.087
 8061SOL    HW225083   0.330   0.991   3.184
 8062SOL     OW25084   4.053   4.875   3.798
 8062SOL    HW125085   4.114   4.815   3.851
 8062SOL    HW225086   3.974   4.900   3.855
 8063SOL     OW25087   1.015   2.481   1.530
 8063SOL    HW125088   0.996   2.553   1.597
 8063SOL    HW225089   1.105   2.496   1.490
 8064SOL     OW25090   0.269   3.958   1.924
 8064SOL    HW125091   0.198   4.023   1.953
 8064SOL    HW225092   0.319   3.926   2.004
 8065SOL     OW25093   2.273   5.502   3.485
 8065SOL    HW125094   2.351   5.498   3.547
 8065SOL    HW225095   2.303   5.533   3.395
 8066SOL     OW25096   0.256   1.816   5.202
 8066SOL    HW125097   0.189   1.848   5.134
 8066SOL    HW225098   0.251   1.873   5.283
 8067SOL     OW25099   4.639   2.758   1.814
 8067SOL    HW125100   4.608   2.844   1.855
 8067SOL    HW225101   4.719   2.776   1.756
 8068SOL     OW25102   0.091   3.823   1.148
 8068SOL    HW125103   0.008   3.856   1.191
 8068SOL    HW225104   0.070   3.745   1.089
 8069SOL     OW25105   2.286   6.457   1.351
 8069SOL    HW125106   2.349   6.384   1.325
 8069SOL    HW225107   2.334   6.526   1.403
 8070SOL     OW25108   3.932   3.430   0.296
 8070SOL    HW125109   3.895   3.344   0.260
 8070SOL    HW225110   3.913   3.504   0.232
 8071SOL     OW25111   2.783   6.290   4.795
 8071SOL    HW125112   2.814   6.221   4.730
 8071SOL    HW225113   2.778   6.250   4.886
 8072SOL     OW25114   3.570   1.075   0.852
 8072SOL    HW125115   3.600   0.992   0.899
 8072SOL    HW225116   3.620   1.085   0.766
 8073SOL     OW25117   2.974   5.312   4.631
 8073SOL    HW125118   2.935   5.277   4.716
 8073SOL    HW225119   2.905   5.305   4.558
 8074SOL     OW25120   3.762   2.510   0.560
 8074SOL    HW125121   3.769   2.610   0.564
 8074SOL    HW225122   3.786   2.471   0.649
 8075SOL     OW25123   6.913   0.375   0.890
 8075SOL    HW125124   7.012   0.362   0.902
 8075SOL    HW225125   6.897   0.426   0.805
 8076SOL     OW25126   6.693   1.514   5.307
 8076SOL    HW125127   6.786   1.546   5.327
 8076SOL    HW225128   6.694   1.414   5.301
 8077SOL     OW25129   2.641   5.782   2.078
 8077SOL    HW125130   2.686   5.858   2.031
 8077SOL    HW225131   2.560   5.816   2.126
 8078SOL     OW25132   0.108   1.286   0.268
 8078SOL    HW125133   0.099   1.229   0.350
 8078SOL    HW225134   0.156   1.234   0.197
 8079SOL     OW25135   4.868   1.547   3.699
 8079SOL    HW125136   4.788   1.506   3.654
 8079SOL    HW225137   4.890   1.495   3.782
 8080SOL     OW25138   0.567   2.350   0.556
 8080SOL    HW125139   0.531   2.412   0.627
 8080SOL    HW225140   0.666   2.342   0.565
 8081SOL     OW25141   5.888   5.986   5.546
 8081SOL    HW125142   5.921   5.954   5.457
 8081SOL    HW225143   5.874   5.908   5.607
 8082SOL     OW25144   4.554   6.621   2.013
 8082SOL    HW125145   4.471   6.591   2.060
 8082SOL    HW225146   4.623   6.647   2.080
 8083SOL     OW25147   4.971   3.368   2.699
 8083SOL    HW125148   4.907   3.354   2.624
 8083SOL    HW225149   5.000   3.463   2.701
 8084SOL     OW25150   4.963   0.135   0.695
 8084SOL    HW125151   4.908   0.214   0.670
 8084SOL    HW225152   4.908   0.071   0.748
 8085SOL     OW25153   6.559   6.603   1.762
 8085SOL    HW125154   6.619   6.651   1.698
 8085SOL    HW225155   6.473   6.653   1.772
 8086SOL     OW25156   5.499   0.903   2.911
 8086SOL    HW125157   5.457   0.966   2.977
 8086SOL    HW225158   5.459   0.917   2.821
 8087SOL     OW25159   3.159   1.294   0.645
 8087SOL    HW125160   3.063   1.289   0.619
 8087SOL    HW225161   3.210   1.345   0.576
 8088SOL     OW25162   5.310   2.094   1.143
 8088SOL    HW125163   5.304   2.189   1.112
 8088SOL    HW225164   5.244   2.079   1.216
 8089SOL     OW25165   5.641   2.320   0.388
 8089SOL    HW125166   5.608   2.363   0.304
 8089SOL    HW225167   5.635   2.221   0.378
 8090SOL     OW25168   4.837   1.590   6.998
 8090SOL    HW125169   4.783   1.561   6.919
 8090SOL    HW225170   4.811   1.536   0.056
 8091SOL     OW25171   2.621   3.464   5.384
 8091SOL    HW125172   2.575   3.542   5.426
 8091SOL    HW225173   2.674   3.415   5.454
 8092SOL     OW25174   6.256   2.164   4.897
 8092SOL    HW125175   6.272   2.088   4.960
 8092SOL    HW225176   6.287   2.139   4.805
 8093SOL     OW25177   3.801   5.546   2.836
 8093SOL    HW125178   3.742   5.576   2.761
 8093SOL    HW225179   3.875   5.612   2.847
 8094SOL     OW25180   1.798   3.722   4.902
 8094SOL    HW125181   1.718   3.775   4.929
 8094SOL    HW225182   1.837   3.677   4.983
 8095SOL     OW25183   6.905   4.460   4.623
 8095SOL    HW125184   6.961   4.501   4.552
 8095SOL    HW225185   6.883   4.365   4.600
 8096SOL     OW25186   2.430   6.414   3.261
 8096SOL    HW125187   2.424   6.486   3.192
 8096SOL    HW225188   2.518   6.422   3.309
 8097SOL     OW25189   4.657   0.207   4.007
 8097SOL    HW125190   4.680   0.269   3.931
 8097SOL    HW225191   4.616   0.124   3.970
 8098SOL     OW25192   1.560   0.412   3.346
 8098SOL    HW125193   1.490   0.387   3.413
 8098SOL    HW225194   1.585   0.333   3.291
 8099SOL     OW25195   3.485   7.018   4.292
 8099SOL    HW125196   3.453   0.051   4.370
 8099SOL    HW225197   3.543   0.053   4.233
 8100SOL     OW25198   5.994   1.079   0.457
 8100SOL    HW125199   6.039   1.080   0.547
 8100SOL    HW225200   6.046   1.134   0.393
 8101SOL     OW25201   1.792   7.021   2.936
 8101SOL    HW125202   1.698   6.989   2.920
 8101SOL    HW225203   1.825   0.047   2.855
 8102SOL     OW25204   0.359   4.296   3.660
 8102SOL    HW125205   0.306   4.378   3.639
 8102SOL    HW225206   0.301   4.231   3.709
 8103SOL     OW25207   4.198   6.925   1.003
 8103SOL    HW125208   4.210   6.961   1.096
 8103SOL    HW225209   4.208   6.826   1.004
 8104SOL     OW25210   3.240   0.121   6.340
 8104SOL    HW125211   3.316   0.151   6.282
 8104SOL    HW225212   3.156   0.167   6.310
 8105SOL     OW25213   0.540   2.688   2.999
 8105SOL    HW125214   0.589   2.609   3.037
 8105SOL    HW225215   0.579   2.710   2.910
 8106SOL     OW25216   2.148   5.783   2.909
 8106SOL    HW125217   2.178   5.872   2.876
 8106SOL    HW225218   2.053   5.767   2.882
 8107SOL     OW25219   0.964   5.053   4.480
 8107SOL    HW125220   1.043   5.091   4.529
 8107SOL    HW225221   0.991   4.967   4.437
 8108SOL     OW25222   6.009   3.109   5.222
 8108SOL    HW125223   6.081   3.166   5.262
 8108SOL    HW225224   5.974   3.046   5.292
 8109SOL     OW25225   1.378   3.781   4.830
 8109SOL    HW125226   1.327   3.700   4.860
 8109SOL    HW225227   1.314   3.856   4.814
 8110SOL     OW25228   3.625   6.364   0.685
 8110SOL    HW125229   3.569   6.381   0.766
 8110SOL    HW225230   3.594   6.421   0.609
 8111SOL     OW25231   4.498   0.170   5.129
 8111SOL    HW125232   4.509   0.093   5.192
 8111SOL    HW225233   4.587   0.197   5.093
 8112SOL     OW25234   2.261   2.552   4.760
 8112SOL    HW125235   2.283   2.649   4.755
 8112SOL    HW225236   2.332   2.498   4.715
 8113SOL     OW25237   2.906   3.285   0.897
 8113SOL    HW125238   2.924   3.319   0.805
 8113SOL    HW225239   2.921   3.357   0.964
 8114SOL     OW25240   1.690   3.753   1.890
 8114SOL    HW125241   1.728   3.676   1.942
 8114SOL    HW225242   1.764   3.815   1.864
 8115SOL     OW25243   3.441   0.460   0.201
 8115SOL    HW125244   3.436   0.520   0.280
 8115SOL    HW225245   3.522   0.402   0.207
 8116SOL     OW25246   4.611   5.420   5.645
 8116SOL    HW125247   4.529   5.414   5.702
 8116SOL    HW225248   4.616   5.510   5.603
 8117SOL     OW25249   1.640   0.945   3.410
 8117SOL    HW125250   1.719   1.004   3.395
 8117SOL    HW225251   1.565   0.998   3.447
 8118SOL     OW25252   5.526   4.144   5.863
 8118SOL    HW125253   5.469   4.196   5.800
 8118SOL    HW225254   5.597   4.095   5.812
 8119SOL     OW25255   6.012   5.834   5.761
 8119SOL    HW125256   6.077   5.800   5.693
 8119SOL    HW225257   6.031   5.929   5.782
 8120SOL     OW25258   2.236   5.129   0.480
 8120SOL    HW125259   2.280   5.191   0.415
 8120SOL    HW225260   2.277   5.039   0.473
 8121SOL     OW25261   0.760   4.456   1.849
 8121SOL    HW125262   0.689   4.407   1.900
 8121SOL    HW225263   0.791   4.535   1.901
 8122SOL     OW25264   0.827   6.134   2.471
 8122SOL    HW125265   0.770   6.116   2.391
 8122SOL    HW225266   0.769   6.158   2.549
 8123SOL     OW25267   6.655   0.812   6.110
 8123SOL    HW125268   6.734   0.784   6.055
 8123SOL    HW225269   6.611   0.731   6.148
 8124SOL     OW25270   6.060   6.747   0.945
 8124SOL    HW125271   6.149   6.775   0.910
 8124SOL    HW225272   5.988   6.793   0.893
 8125SOL     OW25273   1.340   1.145   3.707
 8125SOL    HW125274   1.334   1.046   3.723
 8125SOL    HW225275   1.412   1.183   3.766
 8126SOL     OW25276   5.273   4.833   2.728
 8126SOL    HW125277   5.185   4.824   2.773
 8126SOL    HW225278   5.273   4.781   2.643
 8127SOL     OW25279   2.964   5.600   6.431
 8127SOL    HW125280   3.039   5.599   6.497
 8127SOL    HW225281   2.891   5.661   6.464
 8128SOL     OW25282   2.816   1.785   1.614
 8128SOL    HW125283   2.904   1.759   1.654
 8128SOL    HW225284   2.832   1.839   1.531
 8129SOL     OW25285   4.513   0.441   5.843
 8129SOL    HW125286   4.582   0.377   5.878
 8129SOL    HW225287   4.556   0.530   5.826
 8130SOL     OW25288   0.563   3.230   6.156
 8130SOL    HW125289   0.466   3.254   6.143
 8130SOL    HW225290   0.582   3.144   6.109
 8131SOL     OW25291   3.775   2.088   0.881
 8131SOL    HW125292   3.800   2.063   0.974
 8131SOL    HW225293   3.847   2.061   0.818
 8132SOL     OW25294   6.445   6.681   5.789
 8132SOL    HW125295   6.424   6.760   5.847
 8132SOL    HW225296   6.360   6.644   5.751
 8133SOL     OW25297   2.947   4.824   1.365
 8133SOL    HW125298   3.029   4.795   1.315
 8133SOL    HW225299   2.878   4.752   1.359
 8134SOL     OW25300   0.368   2.724   5.513
 8134SOL    HW125301   0.451   2.743   5.461
 8134SOL    HW225302   0.380   2.637   5.563
 8135SOL     OW25303   2.339   5.768   1.262
 8135SOL    HW125304   2.318   5.685   1.209
 8135SOL    HW225305   2.289   5.765   1.349
 8136SOL     OW25306   4.123   5.074   3.111
 8136SOL    HW125307   4.210   5.100   3.151
 8136SOL    HW225308   4.133   4.986   3.064
 8137SOL     OW25309   3.463   1.334   5.273
 8137SOL    HW125310   3.436   1.247   5.232
 8137SOL    HW225311   3.562   1.347   5.262
 8138SOL     OW25312   5.724   1.408   0.196
 8138SOL    HW125313   5.818   1.441   0.193
 8138SOL    HW225314   5.695   1.397   0.292
 8139SOL     OW25315   0.724   1.450   3.459
 8139SOL    HW125316   0.789   1.467   3.533
 8139SOL    HW225317   0.774   1.432   3.375
 8140SOL     OW25318   4.879   0.574   0.716
 8140SOL    HW125319   4.847   0.621   0.798
 8140SOL    HW225320   4.883   0.476   0.733
 8141SOL     OW25321   4.426   6.146   5.521
 8141SOL    HW125322   4.429   6.156   5.421
 8141SOL    HW225323   4.449   6.234   5.564
 8142SOL     OW25324   1.283   4.402   0.169
 8142SOL    HW125325   1.223   4.324   0.151
 8142SOL    HW225326   1.368   4.391   0.116
 8143SOL     OW25327   6.984   4.436   0.748
 8143SOL    HW125328   6.899   4.490   0.747
 8143SOL    HW225329   6.991   4.386   0.834
 8144SOL     OW25330   0.016   6.459   6.128
 8144SOL    HW125331   0.002   6.392   6.056
 8144SOL    HW225332   6.950   6.493   6.160
 8145SOL     OW25333   5.661   5.850   1.601
 8145SOL    HW125334   5.652   5.874   1.505
 8145SOL    HW225335   5.584   5.793   1.629
 8146SOL     OW25336   4.958   0.684   4.936
 8146SOL    HW125337   5.001   0.770   4.907
 8146SOL    HW225338   4.991   0.659   5.027
 8147SOL     OW25339   6.764   1.577   2.127
 8147SOL    HW125340   6.756   1.480   2.102
 8147SOL    HW225341   6.802   1.584   2.220
 8148SOL     OW25342   5.233   4.354   0.926
 8148SOL    HW125343   5.154   4.345   0.986
 8148SOL    HW225344   5.284   4.269   0.924
 8149SOL     OW25345   1.967   6.069   2.730
 8149SOL    HW125346   1.908   6.033   2.658
 8149SOL    HW225347   1.925   6.051   2.819
 8150SOL     OW25348   1.981   3.778   1.372
 8150SOL    HW125349   1.885   3.799   1.390
 8150SOL    HW225350   2.015   3.838   1.301
 8151SOL     OW25351   5.446   4.593   2.555
 8151SOL    HW125352   5.374   4.568   2.490
 8151SOL    HW225353   5.528   4.621   2.506
 8152SOL     OW25354   5.925   2.105   2.847
 8152SOL    HW125355   5.964   2.196   2.839
 8152SOL    HW225356   5.937   2.055   2.760
 8153SOL     OW25357   1.383   1.242   4.104
 8153SOL    HW125358   1.415   1.300   4.029
 8153SOL    HW225359   1.338   1.161   4.066
 8154SOL     OW25360   3.822   5.268   2.411
 8154SOL    HW125361   3.872   5.353   2.392
 8154SOL    HW225362   3.885   5.201   2.451
 8155SOL     OW25363   1.701   3.078   2.069
 8155SOL    HW125364   1.663   3.143   2.004
 8155SOL    HW225365   1.656   2.989   2.058
 8156SOL     OW25366   5.016   6.302   0.780
 8156SOL    HW125367   5.085   6.288   0.851
 8156SOL    HW225368   4.931   6.256   0.807
 8157SOL     OW25369   6.390   5.065   6.091
 8157SOL    HW125370   6.366   5.063   5.994
 8157SOL    HW225371   6.440   4.981   6.114
 8158SOL     OW25372   4.982   4.346   6.781
 8158SOL    HW125373   4.895   4.383   6.813
 8158SOL    HW225374   5.058   4.391   6.828
 8159SOL     OW25375   2.491   5.964   2.835
 8159SOL    HW125376   2.395   5.994   2.835
 8159SOL    HW225377   2.508   5.909   2.917
 8160SOL     OW25378   5.692   0.845   3.213
 8160SOL    HW125379   5.746   0.923   3.184
 8160SOL    HW225380   5.660   0.794   3.133
 8161SOL     OW25381   6.234   2.621   6.502
 8161SOL    HW125382   6.146   2.666   6.513
 8161SOL    HW225383   6.283   2.620   6.590
 8162SOL     OW25384   6.083   6.673   6.690
 8162SOL    HW125385   6.105   6.769   6.673
 8162SOL    HW225386   5.986   6.664   6.714
 8163SOL     OW25387   2.787   4.131   5.457
 8163SOL    HW125388   2.868   4.073   5.463
 8163SOL    HW225389   2.813   4.220   5.418
 8164SOL     OW25390   5.202   2.185   0.133
 8164SOL    HW125391   5.146   2.243   0.074
 8164SOL    HW225392   5.289   2.231   0.153
 8165SOL     OW25393   1.025   3.889   6.163
 8165SOL    HW125394   0.934   3.918   6.192
 8165SOL    HW225395   1.052   3.939   6.081
 8166SOL     OW25396   1.382   0.794   3.163
 8166SOL    HW125397   1.377   0.893   3.171
 8166SOL    HW225398   1.377   0.753   3.254
 8167SOL     OW25399   0.162   0.246   3.782
 8167SOL    HW125400   0.206   0.160   3.807
 8167SOL    HW225401   0.087   0.228   3.718
 8168SOL     OW25402   2.088   1.646   2.734
 8168SOL    HW125403   1.993   1.654   2.764
 8168SOL    HW225404   2.139   1.592   2.802
 8169SOL     OW25405   5.033   1.976   0.639
 8169SOL    HW125406   4.959   1.911   0.629
 8169SOL    HW225407   5.030   2.043   0.565
 8170SOL     OW25408   1.245   4.980   2.047
 8170SOL    HW125409   1.203   4.978   2.137
 8170SOL    HW225410   1.343   4.999   2.056
 8171SOL     OW25411   1.729   1.822   6.238
 8171SOL    HW125412   1.822   1.826   6.200
 8171SOL    HW225413   1.682   1.908   6.219
 8172SOL     OW25414   0.517   2.494   2.440
 8172SOL    HW125415   0.475   2.488   2.349
 8172SOL    HW225416   0.486   2.577   2.486
 8173SOL     OW25417   5.463   1.716   2.330
 8173SOL    HW125418   5.469   1.708   2.430
 8173SOL    HW225419   5.428   1.630   2.292
 8174SOL     OW25420   6.408   1.800   1.675
 8174SOL    HW125421   6.332   1.745   1.640
 8174SOL    HW225422   6.373   1.890   1.702
 8175SOL     OW25423   0.649   3.036   5.391
 8175SOL    HW125424   0.624   2.942   5.365
 8175SOL    HW225425   0.739   3.035   5.435
 8176SOL     OW25426   2.112   4.939   1.417
 8176SOL    HW125427   2.078   4.944   1.511
 8176SOL    HW225428   2.120   4.843   1.389
 8177SOL     OW25429   3.739   6.633   3.687
 8177SOL    HW125430   3.669   6.704   3.684
 8177SOL    HW225431   3.719   6.571   3.764
 8178SOL     OW25432   2.624   6.158   0.066
 8178SOL    HW125433   2.619   6.231   7.019
 8178SOL    HW225434   2.698   6.179   0.131
 8179SOL     OW25435   4.768   1.598   5.117
 8179SOL    HW125436   4.769   1.499   5.105
 8179SOL    HW225437   4.736   1.641   5.032
 8180SOL     OW25438   6.477   0.409   5.080
 8180SOL    HW125439   6.537   0.332   5.059
 8180SOL    HW225440   6.531   0.487   5.112
 8181SOL     OW25441   2.092   1.356   1.040
 8181SOL    HW125442   2.028   1.416   0.991
 8181SOL    HW225443   2.186   1.380   1.014
 8182SOL     OW25444   3.278   3.634   5.809
 8182SOL    HW125445   3.305   3.728   5.789
 8182SOL    HW225446   3.310   3.574   5.735
 8183SOL     OW25447   6.609   1.973   5.160
 8183SOL    HW125448   6.560   1.977   5.247
 8183SOL    HW225449   6.579   2.049   5.102
 8184SOL     OW25450   6.470   1.143   0.325
 8184SOL    HW125451   6.527   1.136   0.407
 8184SOL    HW225452   6.409   1.065   0.319
 8185SOL     OW25453   2.666   0.108   0.172
 8185SOL    HW125454   2.567   0.106   0.156
 8185SOL    HW225455   2.703   0.015   0.168
 8186SOL     OW25456   3.858   4.794   5.535
 8186SOL    HW125457   3.833   4.888   5.513
 8186SOL    HW225458   3.796   4.759   5.605
 8187SOL     OW25459   1.596   1.971   4.569
 8187SOL    HW125460   1.549   2.059   4.574
 8187SOL    HW225461   1.581   1.920   4.653
 8188SOL     OW25462   5.855   2.716   2.842
 8188SOL    HW125463   5.922   2.682   2.908
 8188SOL    HW225464   5.876   2.811   2.820
 8189SOL     OW25465   4.728   4.531   3.076
 8189SOL    HW125466   4.800   4.463   3.088
 8189SOL    HW225467   4.703   4.568   3.166
 8190SOL     OW25468   4.576   5.248   4.406
 8190SOL    HW125469   4.527   5.249   4.494
 8190SOL    HW225470   4.518   5.209   4.335
 8191SOL     OW25471   3.526   6.359   1.661
 8191SOL    HW125472   3.494   6.287   1.723
 8191SOL    HW225473   3.592   6.321   1.596
 8192SOL     OW25474   3.943   5.004   0.588
 8192SOL    HW125475   3.931   4.921   0.642
 8192SOL    HW225476   3.929   4.983   0.491
 8193SOL     OW25477   6.988   5.793   4.605
 8193SOL    HW125478   6.978   5.866   4.538
 8193SOL    HW225479   0.022   5.825   4.682
 8194SOL     OW25480   5.508   2.555   0.724
 8194SOL    HW125481   5.444   2.479   0.731
 8194SOL    HW225482   5.597   2.521   0.693
 8195SOL     OW25483   1.309   0.515   1.695
 8195SOL    HW125484   1.312   0.425   1.650
 8195SOL    HW225485   1.215   0.537   1.721
 8196SOL     OW25486   3.775   5.959   5.966
 8196SOL    HW125487   3.713   5.892   5.925
 8196SOL    HW225488   3.869   5.938   5.941
 8197SOL     OW25489   4.804   2.030   0.321
 8197SOL    HW125490   4.874   2.092   0.355
 8197SOL    HW225491   4.804   2.031   0.221
 8198SOL     OW25492   3.574   6.812   2.965
 8198SOL    HW125493   3.549   6.908   2.967
 8198SOL    HW225494   3.561   6.776   2.872
 8199SOL     OW25495   5.922   3.081   6.705
 8199SOL    HW125496   5.881   3.084   6.614
 8199SOL    HW225497   5.858   3.118   6.772
 8200SOL     OW25498   5.352   4.412   2.000
 8200SOL    HW125499   5.346   4.344   2.073
 8200SOL    HW225500   5.266   4.464   1.995
 8201SOL     OW25501   5.660   0.305   3.575
 8201SOL    HW125502   5.660   0.397   3.536
 8201SOL    HW225503   5.580   0.293   3.633
 8202SOL     OW25504   0.538   5.399   4.020
 8202SOL    HW125505   0.502   5.368   4.107
 8202SOL    HW225506   0.574   5.492   4.030
 8203SOL     OW25507   4.401   2.611   0.068
 8203SOL    HW125508   4.403   2.513   0.090
 8203SOL    HW225509   4.470   2.631   7.020
 8204SOL     OW25510   2.390   5.148   6.899
 8204SOL    HW125511   2.352   5.140   6.807
 8204SOL    HW225512   2.402   5.244   6.922
 8205SOL     OW25513   0.225   4.530   0.691
 8205SOL    HW125514   0.272   4.558   0.775
 8205SOL    HW225515   0.130   4.507   0.713
 8206SOL     OW25516   4.791   2.875   6.474
 8206SOL    HW125517   4.706   2.862   6.423
 8206SOL    HW225518   4.869   2.872   6.412
 8207SOL     OW25519   3.107   3.922   4.775
 8207SOL    HW125520   3.101   3.844   4.838
 8207SOL    HW225521   3.032   3.917   4.709
 8208SOL     OW25522   2.111   0.043   1.292
 8208SOL    HW125523   2.093   0.134   1.330
 8208SOL    HW225524   2.029   0.010   1.246
 8209SOL     OW25525   0.783   1.134   5.854
 8209SOL    HW125526   0.803   1.050   5.803
 8209SOL    HW225527   0.712   1.116   5.922
 8210SOL     OW25528   2.430   1.372   1.340
 8210SOL    HW125529   2.463   1.331   1.255
 8210SOL    HW225530   2.402   1.300   1.403
 8211SOL     OW25531   3.391   4.006   2.019
 8211SOL    HW125532   3.469   4.036   1.963
 8211SOL    HW225533   3.420   4.001   2.115
 8212SOL     OW25534   1.793   1.834   1.520
 8212SOL    HW125535   1.830   1.742   1.530
 8212SOL    HW225536   1.782   1.875   1.611
 8213SOL     OW25537   6.501   4.755   2.291
 8213SOL    HW125538   6.480   4.682   2.357
 8213SOL    HW225539   6.463   4.732   2.202
 8214SOL     OW25540   6.909   5.477   4.693
 8214SOL    HW125541   6.868   5.417   4.761
 8214SOL    HW225542   7.006   5.453   4.681
 8215SOL     OW25543   2.610   5.536   6.271
 8215SOL    HW125544   2.574   5.580   6.353
 8215SOL    HW225545   2.677   5.466   6.296
 8216SOL     OW25546   4.744   5.539   3.677
 8216SOL    HW125547   4.672   5.473   3.700
 8216SOL    HW225548   4.832   5.506   3.711
 8217SOL     OW25549   2.124   4.181   1.474
 8217SOL    HW125550   2.205   4.146   1.427
 8217SOL    HW225551   2.112   4.130   1.560
 8218SOL     OW25552   0.888   6.222   4.561
 8218SOL    HW125553   0.899   6.313   4.521
 8218SOL    HW225554   0.960   6.207   4.629
 8219SOL     OW25555   4.142   3.165   0.788
 8219SOL    HW125556   4.060   3.202   0.744
 8219SOL    HW225557   4.179   3.090   0.734
 8220SOL     OW25558   3.000   3.849   4.125
 8220SOL    HW125559   2.921   3.797   4.157
 8220SOL    HW225560   3.073   3.846   4.194
 8221SOL     OW25561   6.058   5.942   3.182
 8221SOL    HW125562   6.102   6.024   3.144
 8221SOL    HW225563   6.122   5.865   3.178
 8222SOL     OW25564   5.158   1.235   1.519
 8222SOL    HW125565   5.075   1.198   1.477
 8222SOL    HW225566   5.237   1.213   1.462
 8223SOL     OW25567   1.438   4.333   5.327
 8223SOL    HW125568   1.515   4.366   5.382
 8223SOL    HW225569   1.364   4.302   5.387
 8224SOL     OW25570   5.681   2.417   2.446
 8224SOL    HW125571   5.679   2.321   2.473
 8224SOL    HW225572   5.715   2.426   2.353
 8225SOL     OW25573   4.090   1.661   1.197
 8225SOL    HW125574   4.054   1.643   1.288
 8225SOL    HW225575   4.178   1.614   1.186
 8226SOL     OW25576   3.513   6.167   0.523
 8226SOL    HW125577   3.577   6.234   0.560
 8226SOL    HW225578   3.538   6.145   0.429
 8227SOL     OW25579   6.704   1.549   2.564
 8227SOL    HW125580   6.652   1.527   2.647
 8227SOL    HW225581   6.734   1.645   2.567
 8228SOL     OW25582   0.144   1.698   6.144
 8228SOL    HW125583   0.192   1.611   6.152
 8228SOL    HW225584   0.193   1.758   6.081
 8229SOL     OW25585   4.142   3.616   1.575
 8229SOL    HW125586   4.172   3.587   1.484
 8229SOL    HW225587   4.082   3.695   1.567
 8230SOL     OW25588   3.452   6.750   5.544
 8230SOL    HW125589   3.405   6.740   5.456
 8230SOL    HW225590   3.403   6.817   5.600
 8231SOL     OW25591   2.967   2.846   1.597
 8231SOL    HW125592   2.872   2.814   1.600
 8231SOL    HW225593   3.029   2.768   1.609
 8232SOL     OW25594   5.801   2.066   2.464
 8232SOL    HW125595   5.795   2.054   2.365
 8232SOL    HW225596   5.863   2.142   2.484
 8233SOL     OW25597   1.447   6.895   6.041
 8233SOL    HW125598   1.463   6.922   5.946
 8233SOL    HW225599   1.406   6.971   6.091
 8234SOL     OW25600   2.540   4.007   0.062
 8234SOL    HW125601   2.557   3.920   0.108
 8234SOL    HW225602   2.626   4.055   0.049
 8235SOL     OW25603   0.130   3.975   6.959
 8235SOL    HW125604   0.113   4.066   6.998
 8235SOL    HW225605   0.099   3.905   0.001
 8236SOL     OW25606   0.126   4.801   0.354
 8236SOL    HW125607   0.086   4.757   0.435
 8236SOL    HW225608   0.215   4.760   0.335
 8237SOL     OW25609   4.510   5.760   6.136
 8237SOL    HW125610   4.529   5.679   6.080
 8237SOL    HW225611   4.535   5.741   6.231
 8238SOL     OW25612   0.464   5.451   0.122
 8238SOL    HW125613   0.492   5.520   0.054
 8238SOL    HW225614   0.462   5.361   0.079
 8239SOL     OW25615   0.402   0.970   5.496
 8239SOL    HW125616   0.323   0.909   5.490
 8239SOL    HW225617   0.371   1.065   5.500
 8240SOL     OW25618   3.404   4.016   2.310
 8240SOL    HW125619   3.457   4.053   2.386
 8240SOL    HW225620   3.307   4.023   2.331
 8241SOL     OW25621   2.825   5.366   6.357
 8241SOL    HW125622   2.870   5.286   6.318
 8241SOL    HW225623   2.894   5.428   6.395
 8242SOL     OW25624   0.798   3.972   6.319
 8242SOL    HW125625   0.764   3.880   6.299
 8242SOL    HW225626   0.721   4.036   6.326
 8243SOL     OW25627   6.341   3.477   0.804
 8243SOL    HW125628   6.409   3.550   0.812
 8243SOL    HW225629   6.383   3.389   0.826
 8244SOL     OW25630   0.083   0.765   3.191
 8244SOL    HW125631   0.147   0.825   3.143
 8244SOL    HW225632   0.084   0.675   3.148
 8245SOL     OW25633   3.551   2.024   2.643
 8245SOL    HW125634   3.500   2.071   2.571
 8245SOL    HW225635   3.618   2.087   2.683
 8246SOL     OW25636   0.820   3.727   6.597
 8246SOL    HW125637   0.862   3.738   6.507
 8246SOL    HW225638   0.727   3.693   6.587
 8247SOL     OW25639   2.320   0.925   3.249
 8247SOL    HW125640   2.384   0.944   3.175
 8247SOL    HW225641   2.243   0.873   3.214
 8248SOL     OW25642   0.287   4.575   4.253
 8248SOL    HW125643   0.247   4.630   4.180
 8248SOL    HW225644   0.361   4.626   4.298
 8249SOL     OW25645   1.821   1.237   5.673
 8249SOL    HW125646   1.894   1.306   5.670
 8249SOL    HW225647   1.832   1.180   5.754
 8250SOL     OW25648   2.252   2.405   1.741
 8250SOL    HW125649   2.293   2.450   1.820
 8250SOL    HW225650   2.264   2.463   1.660
 8251SOL     OW25651   5.051   2.959   4.301
 8251SOL    HW125652   4.966   3.007   4.325
 8251SOL    HW225653   5.110   3.019   4.247
 8252SOL     OW25654   3.600   1.715   6.292
 8252SOL    HW125655   3.626   1.799   6.340
 8252SOL    HW225656   3.645   1.637   6.335
 8253SOL     OW25657   3.720   5.582   5.737
 8253SOL    HW125658   3.680   5.604   5.826
 8253SOL    HW225659   3.706   5.485   5.717
 8254SOL     OW25660   4.696   4.631   5.338
 8254SOL    HW125661   4.683   4.730   5.344
 8254SOL    HW225662   4.746   4.599   5.419
 8255SOL     OW25663   1.861   6.299   5.215
 8255SOL    HW125664   1.815   6.212   5.197
 8255SOL    HW225665   1.813   6.373   5.168
 8256SOL     OW25666   6.564   6.412   2.550
 8256SOL    HW125667   6.635   6.400   2.618
 8256SOL    HW225668   6.480   6.366   2.579
 8257SOL     OW25669   5.171   4.082   2.413
 8257SOL    HW125670   5.206   4.132   2.492
 8257SOL    HW225671   5.110   4.141   2.360
 8258SOL     OW25672   4.921   2.632   2.030
 8258SOL    HW125673   4.954   2.677   2.113
 8258SOL    HW225674   4.908   2.701   1.958
 8259SOL     OW25675   3.800   1.711   4.922
 8259SOL    HW125676   3.765   1.792   4.875
 8259SOL    HW225677   3.881   1.677   4.873
 8260SOL     OW25678   2.761   6.927   1.269
 8260SOL    HW125679   2.811   6.918   1.355
 8260SOL    HW225680   2.759   6.839   1.222
 8261SOL     OW25681   5.443   6.587   3.270
 8261SOL    HW125682   5.389   6.548   3.194
 8261SOL    HW225683   5.528   6.624   3.234
 8262SOL     OW25684   1.100   3.924   0.529
 8262SOL    HW125685   1.028   3.976   0.575
 8262SOL    HW225686   1.143   3.862   0.594
 8263SOL     OW25687   0.198   2.616   6.648
 8263SOL    HW125688   0.155   2.537   6.603
 8263SOL    HW225689   0.139   2.696   6.639
 8264SOL     OW25690   2.043   6.866   0.638
 8264SOL    HW125691   2.009   6.827   0.723
 8264SOL    HW225692   2.135   6.904   0.653
 8265SOL     OW25693   6.075   0.134   1.341
 8265SOL    HW125694   6.101   0.184   1.259
 8265SOL    HW225695   6.002   0.184   1.388
 8266SOL     OW25696   2.345   1.156   4.592
 8266SOL    HW125697   2.394   1.243   4.582
 8266SOL    HW225698   2.390   1.101   4.662
 8267SOL     OW25699   1.516   3.677   1.680
 8267SOL    HW125700   1.584   3.630   1.624
 8267SOL    HW225701   1.555   3.697   1.770
 8268SOL     OW25702   2.647   6.638   6.570
 8268SOL    HW125703   2.659   6.735   6.592
 8268SOL    HW225704   2.657   6.624   6.471
 8269SOL     OW25705   4.551   2.245   2.514
 8269SOL    HW125706   4.516   2.308   2.445
 8269SOL    HW225707   4.650   2.236   2.503
 8270SOL     OW25708   2.901   6.540   4.774
 8270SOL    HW125709   2.869   6.445   4.769
 8270SOL    HW225710   2.862   6.593   4.699
 8271SOL     OW25711   0.030   0.155   2.692
 8271SOL    HW125712   6.968   0.200   2.663
 8271SOL    HW225713   0.008   0.079   2.753
 8272SOL     OW25714   6.409   1.860   2.930
 8272SOL    HW125715   6.390   1.820   3.019
 8272SOL    HW225716   6.422   1.959   2.940
 8273SOL     OW25717   2.919   1.552   0.795
 8273SOL    HW125718   2.916   1.648   0.766
 8273SOL    HW225719   2.965   1.545   0.883
 8274SOL     OW25720   4.264   5.399   4.738
 8274SOL    HW125721   4.255   5.437   4.646
 8274SOL    HW225722   4.236   5.467   4.805
 8275SOL     OW25723   5.375   0.055   4.993
 8275SOL    HW125724   5.321   6.993   4.981
 8275SOL    HW225725   5.465   0.043   4.951
 8276SOL     OW25726   0.782   1.642   5.442
 8276SOL    HW125727   0.723   1.638   5.522
 8276SOL    HW225728   0.765   1.562   5.384
 8277SOL     OW25729   1.240   6.106   5.911
 8277SOL    HW125730   1.298   6.032   5.877
 8277SOL    HW225731   1.215   6.166   5.836
 8278SOL     OW25732   3.362   1.867   6.936
 8278SOL    HW125733   3.300   1.810   6.882
 8278SOL    HW225734   3.335   1.963   6.927
 8279SOL     OW25735   0.552   6.449   4.948
 8279SOL    HW125736   0.549   6.542   4.985
 8279SOL    HW225737   0.525   6.451   4.852
 8280SOL     OW25738   3.112   2.993   0.142
 8280SOL    HW125739   3.127   2.939   0.059
 8280SOL    HW225740   3.028   3.045   0.133
 8281SOL     OW25741   2.553   4.655   1.562
 8281SOL    HW125742   2.571   4.676   1.658
 8281SOL    HW225743   2.563   4.737   1.507
 8282SOL     OW25744   4.082   4.311   6.764
 8282SOL    HW125745   4.022   4.388   6.741
 8282SOL    HW225746   4.135   4.287   6.683
 8283SOL     OW25747   1.601   4.353   4.524
 8283SOL    HW125748   1.596   4.346   4.623
 8283SOL    HW225749   1.670   4.290   4.489
 8284SOL     OW25750   1.200   3.824   1.854
 8284SOL    HW125751   1.152   3.742   1.823
 8284SOL    HW225752   1.137   3.885   1.902
 8285SOL     OW25753   3.350   3.944   4.645
 8285SOL    HW125754   3.281   3.983   4.705
 8285SOL    HW225755   3.404   3.877   4.695
 8286SOL     OW25756   5.514   2.042   4.969
 8286SOL    HW125757   5.454   1.970   4.933
 8286SOL    HW225758   5.503   2.125   4.915
 8287SOL     OW25759   1.177   4.991   3.996
 8287SOL    HW125760   1.226   4.909   4.025
 8287SOL    HW225761   1.226   5.072   4.028
 8288SOL     OW25762   2.639   2.384   2.438
 8288SOL    HW125763   2.671   2.371   2.532
 8288SOL    HW225764   2.692   2.325   2.376
 8289SOL     OW25765   0.178   6.317   6.292
 8289SOL    HW125766   0.122   6.375   6.233
 8289SOL    HW225767   0.224   6.247   6.237
 8290SOL     OW25768   5.485   1.394   0.824
 8290SOL    HW125769   5.478   1.408   0.725
 8290SOL    HW225770   5.541   1.313   0.842
 8291SOL     OW25771   5.303   5.026   5.883
 8291SOL    HW125772   5.275   4.945   5.831
 8291SOL    HW225773   5.368   4.999   5.953
 8292SOL     OW25774   3.288   6.197   6.633
 8292SOL    HW125775   3.280   6.149   6.545
 8292SOL    HW225776   3.334   6.285   6.619
 8293SOL     OW25777   1.933   5.173   0.813
 8293SOL    HW125778   2.030   5.198   0.820
 8293SOL    HW225779   1.925   5.076   0.789
 8294SOL     OW25780   5.659   3.704   4.808
 8294SOL    HW125781   5.614   3.618   4.782
 8294SOL    HW225782   5.676   3.704   4.907
 8295SOL     OW25783   5.196   3.481   2.121
 8295SOL    HW125784   5.129   3.480   2.047
 8295SOL    HW225785   5.213   3.575   2.150
 8296SOL     OW25786   2.300   5.429   0.358
 8296SOL    HW125787   2.218   5.472   0.322
 8296SOL    HW225788   2.318   5.464   0.450
 8297SOL     OW25789   0.017   3.522   2.607
 8297SOL    HW125790   6.966   3.458   2.584
 8297SOL    HW225791   0.003   3.608   2.557
 8298SOL     OW25792   6.848   1.538   0.646
 8298SOL    HW125793   6.927   1.566   0.591
 8298SOL    HW225794   6.765   1.577   0.608
 8299SOL     OW25795   0.542   3.021   2.774
 8299SOL    HW125796   0.485   3.086   2.825
 8299SOL    HW225797   0.638   3.036   2.797
 8300SOL     OW25798   0.209   6.234   4.035
 8300SOL    HW125799   0.303   6.241   4.004
 8300SOL    HW225800   0.172   6.326   4.051
 8301SOL     OW25801   4.353   1.188   0.333
 8301SOL    HW125802   4.321   1.138   0.253
 8301SOL    HW225803   4.313   1.279   0.335
 8302SOL     OW25804   5.409   6.429   6.229
 8302SOL    HW125805   5.446   6.477   6.148
 8302SOL    HW225806   5.322   6.386   6.205
 8303SOL     OW25807   5.904   0.559   3.740
 8303SOL    HW125808   5.952   0.484   3.694
 8303SOL    HW225809   5.849   0.522   3.815
 8304SOL     OW25810   5.513   4.380   1.347
 8304SOL    HW125811   5.512   4.373   1.248
 8304SOL    HW225812   5.433   4.432   1.378
 8305SOL     OW25813   4.742   4.613   4.242
 8305SOL    HW125814   4.699   4.651   4.324
 8305SOL    HW225815   4.730   4.677   4.165
 8306SOL     OW25816   5.991   1.525   3.562
 8306SOL    HW125817   5.985   1.449   3.496
 8306SOL    HW225818   5.967   1.610   3.516
 8307SOL     OW25819   4.057   5.521   1.572
 8307SOL    HW125820   4.109   5.606   1.566
 8307SOL    HW225821   3.964   5.540   1.601
 8308SOL     OW25822   2.285   6.061   0.487
 8308SOL    HW125823   2.282   5.967   0.522
 8308SOL    HW225824   2.328   6.061   0.397
 8309SOL     OW25825   6.493   5.984   2.074
 8309SOL    HW125826   6.478   5.919   2.148
 8309SOL    HW225827   6.590   5.984   2.048
 8310SOL     OW25828   0.856   5.377   1.508
 8310SOL    HW125829   0.890   5.393   1.601
 8310SOL    HW225830   0.765   5.337   1.512
 8311SOL     OW25831   6.314   1.778   5.553
 8311SOL    HW125832   6.221   1.761   5.521
 8311SOL    HW225833   6.374   1.705   5.521
 8312SOL     OW25834   5.193   1.146   6.262
 8312SOL    HW125835   5.291   1.157   6.241
 8312SOL    HW225836   5.174   1.188   6.351
 8313SOL     OW25837   5.653   0.251   5.914
 8313SOL    HW125838   5.626   0.278   5.822
 8313SOL    HW225839   5.745   0.210   5.912
 8314SOL     OW25840   6.278   6.535   6.522
 8314SOL    HW125841   6.228   6.599   6.580
 8314SOL    HW225842   6.214   6.491   6.459
 8315SOL     OW25843   4.095   3.298   2.627
 8315SOL    HW125844   4.011   3.316   2.575
 8315SOL    HW225845   4.133   3.210   2.600
 8316SOL     OW25846   1.014   2.889   1.841
 8316SOL    HW125847   0.945   2.931   1.899
 8316SOL    HW225848   1.102   2.934   1.856
 8317SOL     OW25849   1.193   2.309   2.839
 8317SOL    HW125850   1.198   2.379   2.768
 8317SOL    HW225851   1.285   2.283   2.868
 8318SOL     OW25852   4.293   1.388   5.843
 8318SOL    HW125853   4.302   1.320   5.916
 8318SOL    HW225854   4.293   1.343   5.754
 8319SOL     OW25855   1.412   1.278   1.318
 8319SOL    HW125856   1.403   1.377   1.312
 8319SOL    HW225857   1.441   1.241   1.230
 8320SOL     OW25858   2.958   3.826   2.405
 8320SOL    HW125859   2.930   3.793   2.315
 8320SOL    HW225860   2.879   3.867   2.451
 8321SOL     OW25861   6.420   0.228   0.185
 8321SOL    HW125862   6.358   0.260   0.113
 8321SOL    HW225863   6.377   0.152   0.234
 8322SOL     OW25864   6.412   0.972   0.652
 8322SOL    HW125865   6.395   0.890   0.598
 8322SOL    HW225866   6.491   1.021   0.616
 8323SOL     OW25867   4.320   4.696   1.556
 8323SOL    HW125868   4.418   4.675   1.551
 8323SOL    HW225869   4.270   4.637   1.492
 8324SOL     OW25870   5.721   0.291   1.257
 8324SOL    HW125871   5.688   0.324   1.169
 8324SOL    HW225872   5.658   0.223   1.294
 8325SOL     OW25873   1.708   3.487   5.327
 8325SOL    HW125874   1.777   3.470   5.397
 8325SOL    HW225875   1.619   3.502   5.370
 8326SOL     OW25876   4.450   4.366   5.716
 8326SOL    HW125877   4.444   4.460   5.682
 8326SOL    HW225878   4.429   4.302   5.642
 8327SOL     OW25879   6.687   0.213   5.867
 8327SOL    HW125880   6.747   0.187   5.943
 8327SOL    HW225881   6.730   0.189   5.780
 8328SOL     OW25882   2.339   5.796   6.683
 8328SOL    HW125883   2.320   5.738   6.762
 8328SOL    HW225884   2.255   5.813   6.633
 8329SOL     OW25885   0.834   2.986   4.949
 8329SOL    HW125886   0.796   2.897   4.922
 8329SOL    HW225887   0.929   2.974   4.978
 8330SOL     OW25888   3.078   0.929   6.545
 8330SOL    HW125889   3.003   0.871   6.575
 8330SOL    HW225890   3.043   1.021   6.525
 8331SOL     OW25891   3.451   0.588   1.054
 8331SOL    HW125892   3.446   0.590   0.954
 8331SOL    HW225893   3.370   0.542   1.090
 8332SOL     OW25894   5.845   5.559   2.379
 8332SOL    HW125895   5.837   5.607   2.292
 8332SOL    HW225896   5.942   5.551   2.404
 8333SOL     OW25897   0.873   5.082   6.879
 8333SOL    HW125898   0.946   5.067   6.944
 8333SOL    HW225899   0.824   5.166   6.903
 8334SOL     OW25900   3.255   1.795   4.878
 8334SOL    HW125901   3.332   1.783   4.941
 8334SOL    HW225902   3.243   1.893   4.859
 8335SOL     OW25903   4.690   1.421   0.148
 8335SOL    HW125904   4.679   1.351   0.219
 8335SOL    HW225905   4.614   1.415   0.083
 8336SOL     OW25906   0.551   4.307   2.621
 8336SOL    HW125907   0.499   4.228   2.653
 8336SOL    HW225908   0.585   4.359   2.700
 8337SOL     OW25909   0.669   6.329   4.149
 8337SOL    HW125910   0.700   6.268   4.222
 8337SOL    HW225911   0.714   6.418   4.157
 8338SOL     OW25912   3.812   5.251   1.325
 8338SOL    HW125913   3.717   5.280   1.331
 8338SOL    HW225914   3.872   5.330   1.320
 8339SOL     OW25915   6.642   0.526   1.991
 8339SOL    HW125916   6.623   0.555   2.085
 8339SOL    HW225917   6.556   0.519   1.940
 8340SOL     OW25918   4.903   4.028   1.215
 8340SOL    HW125919   4.921   3.954   1.151
 8340SOL    HW225920   4.840   4.093   1.173
 8341SOL     OW25921   2.118   0.280   6.560
 8341SOL    HW125922   2.199   0.329   6.526
 8341SOL    HW225923   2.043   0.292   6.496
 8342SOL     OW25924   4.823   0.004   0.235
 8342SOL    HW125925   4.761   6.964   0.187
 8342SOL    HW225926   4.843   6.990   0.326
 8343SOL     OW25927   0.414   6.112   3.662
 8343SOL    HW125928   0.420   6.111   3.562
 8343SOL    HW225929   0.506   6.121   3.700
 8344SOL     OW25930   6.356   5.869   4.498
 8344SOL    HW125931   6.264   5.866   4.460
 8344SOL    HW225932   6.395   5.777   4.497
 8345SOL     OW25933   4.243   2.289   2.695
 8345SOL    HW125934   4.287   2.242   2.619
 8345SOL    HW225935   4.184   2.362   2.660
 8346SOL     OW25936   3.708   4.665   0.928
 8346SOL    HW125937   3.770   4.625   0.995
 8346SOL    HW225938   3.760   4.699   0.850
 8347SOL     OW25939   3.150   6.859   4.949
 8347SOL    HW125940   3.114   6.776   4.992
 8347SOL    HW225941   3.080   6.900   4.892
 8348SOL     OW25942   2.156   1.202   1.250
 8348SOL    HW125943   2.226   1.247   1.305
 8348SOL    HW225944   2.136   1.258   1.169
 8349SOL     OW25945   0.862   6.930   2.662
 8349SOL    HW125946   0.812   6.844   2.662
 8349SOL    HW225947   0.857   6.971   2.753
 8350SOL     OW25948   2.723   6.293   6.241
 8350SOL    HW125949   2.765   6.243   6.317
 8350SOL    HW225950   2.678   6.375   6.276
 8351SOL     OW25951   5.074   5.647   4.502
 8351SOL    HW125952   5.000   5.621   4.564
 8351SOL    HW225953   5.035   5.689   4.420
 8352SOL     OW25954   0.379   7.021   3.591
 8352SOL    HW125955   0.394   0.088   3.547
 8352SOL    HW225956   0.325   6.963   3.530
 8353SOL     OW25957   0.206   3.739   1.510
 8353SOL    HW125958   0.169   3.832   1.503
 8353SOL    HW225959   0.269   3.734   1.588
 8354SOL     OW25960   3.296   0.067   4.617
 8354SOL    HW125961   3.310   6.996   4.652
 8354SOL    HW225962   3.220   0.067   4.552
 8355SOL     OW25963   2.501   1.337   5.527
 8355SOL    HW125964   2.546   1.410   5.476
 8355SOL    HW225965   2.514   1.353   5.625
 8356SOL     OW25966   0.780   0.486   1.871
 8356SOL    HW125967   0.715   0.556   1.842
 8356SOL    HW225968   0.787   0.417   1.800
 8357SOL     OW25969   3.192   6.960   5.516
 8357SOL    HW125970   3.238   6.943   5.603
 8357SOL    HW225971   3.196   6.877   5.460
 8358SOL     OW25972   1.938   4.036   5.040
 8358SOL    HW125973   2.011   4.086   5.086
 8358SOL    HW225974   1.850   4.059   5.082
 8359SOL     OW25975   3.470   0.834   5.285
 8359SOL    HW125976   3.561   0.794   5.274
 8359SOL    HW225977   3.409   0.765   5.325
 8360SOL     OW25978   4.151   6.866   0.328
 8360SOL    HW125979   4.092   6.792   0.296
 8360SOL    HW225980   4.105   6.915   0.402
 8361SOL     OW25981   3.163   0.588   1.580
 8361SOL    HW125982   3.225   0.667   1.574
 8361SOL    HW225983   3.211   0.511   1.621
 8362SOL     OW25984   5.020   1.490   0.971
 8362SOL    HW125985   5.094   1.428   0.948
 8362SOL    HW225986   5.003   1.486   1.070
 8363SOL     OW25987   4.513   2.683   6.824
 8363SOL    HW125988   4.420   2.648   6.839
 8363SOL    HW225989   4.532   2.684   6.725
 8364SOL     OW25990   0.343   2.017   4.153
 8364SOL    HW125991   0.407   2.094   4.146
 8364SOL    HW225992   0.295   2.005   4.066
 8365SOL     OW25993   1.665   2.662   2.960
 8365SOL    HW125994   1.625   2.753   2.944
 8365SOL    HW225995   1.701   2.626   2.874
 8366SOL     OW25996   2.337   5.266   1.045
 8366SOL    HW125997   2.339   5.291   0.948
 8366SOL    HW225998   2.317   5.169   1.054
 8367SOL     OW25999   3.583   5.934   4.631
 8367SOL    HW126000   3.535   5.860   4.679
 8367SOL    HW226001   3.583   5.915   4.533
 8368SOL     OW26002   0.613   6.581   6.788
 8368SOL    HW126003   0.600   6.532   6.874
 8368SOL    HW226004   0.708   6.570   6.757
 8369SOL     OW26005   0.388   0.125   5.653
 8369SOL    HW126006   0.359   0.090   5.742
 8369SOL    HW226007   0.388   0.050   5.586
 8370SOL     OW26008   2.808   1.645   6.004
 8370SOL    HW126009   2.907   1.637   6.014
 8370SOL    HW226010   2.785   1.726   5.951
 8371SOL     OW26011   1.832   4.629   0.747
 8371SOL    HW126012   1.782   4.589   0.824
 8371SOL    HW226013   1.804   4.584   0.662
 8372SOL     OW26014   1.521   5.545   1.635
 8372SOL    HW126015   1.555   5.453   1.615
 8372SOL    HW226016   1.596   5.610   1.630
 8373SOL     OW26017   2.185   6.376   3.916
 8373SOL    HW126018   2.225   6.347   3.829
 8373SOL    HW226019   2.108   6.317   3.939
 8374SOL     OW26020   6.918   0.103   4.860
 8374SOL    HW126021   7.005   0.122   4.906
 8374SOL    HW226022   6.884   0.188   4.819
 8375SOL     OW26023   4.074   6.453   5.145
 8375SOL    HW126024   4.021   6.528   5.106
 8375SOL    HW226025   4.102   6.476   5.238
 8376SOL     OW26026   0.619   1.331   4.563
 8376SOL    HW126027   0.686   1.363   4.496
 8376SOL    HW226028   0.633   1.378   4.650
 8377SOL     OW26029   5.317   6.107   0.777
 8377SOL    HW126030   5.229   6.086   0.735
 8377SOL    HW226031   5.390   6.066   0.721
 8378SOL     OW26032   3.796   4.825   2.933
 8378SOL    HW126033   3.785   4.902   2.870
 8378SOL    HW226034   3.717   4.764   2.926
 8379SOL     OW26035   5.350   2.695   1.098
 8379SOL    HW126036   5.429   2.725   1.044
 8379SOL    HW226037   5.375   2.688   1.194
 8380SOL     OW26038   1.046   0.594   1.788
 8380SOL    HW126039   0.959   0.549   1.807
 8380SOL    HW226040   1.047   0.684   1.833
 8381SOL     OW26041   0.682   2.847   4.382
 8381SOL    HW126042   0.766   2.901   4.383
 8381SOL    HW226043   0.643   2.845   4.475
 8382SOL     OW26044   2.168   6.954   2.440
 8382SOL    HW126045   2.119   6.951   2.353
 8382SOL    HW226046   2.108   6.923   2.514
 8383SOL     OW26047   3.179   6.831   6.032
 8383SOL    HW126048   3.174   6.931   6.030
 8383SOL    HW226049   3.110   6.795   6.095
 8384SOL     OW26050   6.540   1.660   1.484
 8384SOL    HW126051   6.496   1.725   1.546
 8384SOL    HW226052   6.472   1.592   1.455
 8385SOL     OW26053   4.931   2.522   6.854
 8385SOL    HW126054   4.933   2.570   6.766
 8385SOL    HW226055   4.863   2.564   6.914
 8386SOL     OW26056   1.837   6.546   2.061
 8386SOL    HW126057   1.767   6.607   2.098
 8386SOL    HW226058   1.873   6.489   2.135
 8387SOL     OW26059   1.386   1.329   1.599
 8387SOL    HW126060   1.372   1.351   1.503
 8387SOL    HW226061   1.348   1.402   1.656
 8388SOL     OW26062   2.395   0.252   0.482
 8388SOL    HW126063   2.375   0.280   0.576
 8388SOL    HW226064   2.492   0.228   0.475
 8389SOL     OW26065   6.629   4.001   4.082
 8389SOL    HW126066   6.598   3.937   4.012
 8389SOL    HW226067   6.728   3.995   4.091
 8390SOL     OW26068   4.604   6.491   6.988
 8390SOL    HW126069   4.696   6.454   6.975
 8390SOL    HW226070   4.592   6.517   0.062
 8391SOL     OW26071   5.734   4.714   0.780
 8391SOL    HW126072   5.817   4.749   0.739
 8391SOL    HW226073   5.743   4.714   0.879
 8392SOL     OW26074   7.013   4.786   5.294
 8392SOL    HW126075   6.940   4.778   5.226
 8392SOL    HW226076   0.048   4.704   5.294
 8393SOL     OW26077   0.250   0.378   2.340
 8393SOL    HW126078   0.250   0.456   2.402
 8393SOL    HW226079   0.220   0.407   2.249
 8394SOL     OW26080   0.252   3.051   1.891
 8394SOL    HW126081   0.176   3.086   1.836
 8394SOL    HW226082   0.251   2.951   1.889
 8395SOL     OW26083   2.096   5.902   4.689
 8395SOL    HW126084   2.191   5.933   4.677
 8395SOL    HW226085   2.046   5.916   4.604
 8396SOL     OW26086   4.040   5.347   3.049
 8396SOL    HW126087   4.024   5.255   3.085
 8396SOL    HW226088   4.009   5.350   2.953
 8397SOL     OW26089   2.396   0.824   2.588
 8397SOL    HW126090   2.459   0.768   2.534
 8397SOL    HW226091   2.313   0.841   2.536
 8398SOL     OW26092   4.206   2.501   6.707
 8398SOL    HW126093   4.151   2.481   6.788
 8398SOL    HW226094   4.149   2.548   6.640
 8399SOL     OW26095   6.024   6.403   0.512
 8399SOL    HW126096   5.939   6.455   0.512
 8399SOL    HW226097   6.005   6.305   0.516
 8400SOL     OW26098   1.565   0.952   4.076
 8400SOL    HW126099   1.555   0.856   4.100
 8400SOL    HW226100   1.639   0.992   4.130
 8401SOL     OW26101   3.096   1.804   6.250
 8401SOL    HW126102   3.049   1.716   6.240
 8401SOL    HW226103   3.121   1.838   6.159
 8402SOL     OW26104   3.756   2.013   5.556
 8402SOL    HW126105   3.820   2.034   5.631
 8402SOL    HW226106   3.713   1.925   5.573
 8403SOL     OW26107   1.254   2.598   4.580
 8403SOL    HW126108   1.180   2.610   4.515
 8403SOL    HW226109   1.322   2.535   4.543
 8404SOL     OW26110   4.259   6.785   5.927
 8404SOL    HW126111   4.302   6.873   5.947
 8404SOL    HW226112   4.261   6.727   6.009
 8405SOL     OW26113   2.458   6.870   5.590
 8405SOL    HW126114   2.542   6.862   5.537
 8405SOL    HW226115   2.385   6.906   5.532
 8406SOL     OW26116   5.697   6.697   0.377
 8406SOL    HW126117   5.619   6.675   0.320
 8406SOL    HW226118   5.671   6.766   0.444
 8407SOL     OW26119   3.785   6.093   4.040
 8407SOL    HW126120   3.713   6.063   3.978
 8407SOL    HW226121   3.746   6.111   4.131
 8408SOL     OW26122   5.420   3.841   2.413
 8408SOL    HW126123   5.376   3.784   2.343
 8408SOL    HW226124   5.411   3.797   2.502
 8409SOL     OW26125   5.632   2.915   4.196
 8409SOL    HW126126   5.633   2.923   4.096
 8409SOL    HW226127   5.617   3.006   4.236
 8410SOL     OW26128   5.232   0.761   1.510
 8410SOL    HW126129   5.215   0.672   1.467
 8410SOL    HW226130   5.232   0.749   1.609
 8411SOL     OW26131   0.591   4.989   6.946
 8411SOL    HW126132   0.528   4.911   6.945
 8411SOL    HW226133   0.607   5.020   6.853
 8412SOL     OW26134   3.443   2.202   1.497
 8412SOL    HW126135   3.430   2.269   1.424
 8412SOL    HW226136   3.432   2.110   1.461
 8413SOL     OW26137   4.124   5.525   0.362
 8413SOL    HW126138   4.199   5.559   0.305
 8413SOL    HW226139   4.148   5.535   0.459
 8414SOL     OW26140   3.373   5.260   3.570
 8414SOL    HW126141   3.366   5.168   3.611
 8414SOL    HW226142   3.429   5.255   3.488
 8415SOL     OW26143   6.676   6.100   3.599
 8415SOL    HW126144   6.713   6.124   3.510
 8415SOL    HW226145   6.744   6.048   3.651
 8416SOL     OW26146   5.449   3.758   2.685
 8416SOL    HW126147   5.474   3.669   2.645
 8416SOL    HW226148   5.481   3.763   2.779
 8417SOL     OW26149   1.620   4.606   5.733
 8417SOL    HW126150   1.711   4.632   5.702
 8417SOL    HW226151   1.555   4.680   5.711
 8418SOL     OW26152   5.729   5.116   1.309
 8418SOL    HW126153   5.694   5.052   1.377
 8418SOL    HW226154   5.821   5.091   1.282
 8419SOL     OW26155   5.502   0.556   2.153
 8419SOL    HW126156   5.427   0.494   2.131
 8419SOL    HW226157   5.500   0.576   2.252
 8420SOL     OW26158   4.561   6.515   0.233
 8420SOL    HW126159   4.587   6.425   0.267
 8420SOL    HW226160   4.461   6.520   0.225
 8421SOL     OW26161   2.058   5.463   6.689
 8421SOL    HW126162   2.115   5.452   6.607
 8421SOL    HW226163   2.060   5.558   6.718
 8422SOL     OW26164   3.924   1.059   1.164
 8422SOL    HW126165   3.942   1.096   1.072
 8422SOL    HW226166   3.879   1.128   1.220
 8423SOL     OW26167   3.520   4.606   5.792
 8423SOL    HW126168   3.614   4.584   5.764
 8423SOL    HW226169   3.476   4.523   5.827
 8424SOL     OW26170   1.925   2.645   3.122
 8424SOL    HW126171   1.990   2.575   3.091
 8424SOL    HW226172   1.848   2.649   3.058
 8425SOL     OW26173   4.920   5.833   0.092
 8425SOL    HW126174   4.980   5.912   0.094
 8425SOL    HW226175   4.944   5.771   0.167
 8426SOL     OW26176   3.278   3.624   4.031
 8426SOL    HW126177   3.292   3.683   4.111
 8426SOL    HW226178   3.332   3.540   4.043
 8427SOL     OW26179   3.796   3.192   4.781
 8427SOL    HW126180   3.802   3.093   4.790
 8427SOL    HW226181   3.861   3.236   4.842
 8428SOL     OW26182   0.517   4.514   1.673
 8428SOL    HW126183   0.526   4.592   1.611
 8428SOL    HW226184   0.491   4.546   1.764
 8429SOL     OW26185   1.621   5.660   3.772
 8429SOL    HW126186   1.709   5.618   3.796
 8429SOL    HW226187   1.637   5.743   3.719
 8430SOL     OW26188   3.373   4.947   3.760
 8430SOL    HW126189   3.299   4.903   3.810
 8430SOL    HW226190   3.355   4.942   3.662
 8431SOL     OW26191   3.127   4.980   0.731
 8431SOL    HW126192   3.107   4.888   0.767
 8431SOL    HW226193   3.182   5.030   0.798
 8432SOL     OW26194   6.076   6.837   6.390
 8432SOL    HW126195   6.172   6.817   6.409
 8432SOL    HW226196   6.044   6.909   6.452
 8433SOL     OW26197   5.278   2.486   0.241
 8433SOL    HW126198   5.327   2.404   0.216
 8433SOL    HW226199   5.337   2.546   0.295
 8434SOL     OW26200   2.685   6.615   4.599
 8434SOL    HW126201   2.631   6.570   4.528
 8434SOL    HW226202   2.629   6.629   4.680
 8435SOL     OW26203   5.785   0.898   1.384
 8435SOL    HW126204   5.793   0.983   1.438
 8435SOL    HW226205   5.811   0.917   1.290
 8436SOL     OW26206   3.960   0.112   3.832
 8436SOL    HW126207   3.995   0.203   3.852
 8436SOL    HW226208   3.941   0.105   3.734
 8437SOL     OW26209   2.141   0.133   3.565
 8437SOL    HW126210   2.131   0.127   3.465
 8437SOL    HW226211   2.213   0.071   3.595
 8438SOL     OW26212   2.560   4.719   2.469
 8438SOL    HW126213   2.624   4.791   2.495
 8438SOL    HW226214   2.551   4.654   2.545
 8439SOL     OW26215   6.077   4.930   2.602
 8439SOL    HW126216   6.067   5.028   2.589
 8439SOL    HW226217   5.990   4.884   2.582
 8440SOL     OW26218   0.868   2.471   3.847
 8440SOL    HW126219   0.931   2.394   3.848
 8440SOL    HW226220   0.912   2.550   3.804
 8441SOL     OW26221   5.787   6.639   6.738
 8441SOL    HW126222   5.780   6.657   6.837
 8441SOL    HW226223   5.734   6.707   6.688
 8442SOL     OW26224   2.949   1.637   5.508
 8442SOL    HW126225   2.995   1.661   5.422
 8442SOL    HW226226   2.868   1.694   5.519
 8443SOL     OW26227   1.985   5.785   3.313
 8443SOL    HW126228   2.073   5.790   3.266
 8443SOL    HW226229   1.945   5.694   3.301
 8444SOL     OW26230   2.554   5.599   3.519
 8444SOL    HW126231   2.549   5.579   3.421
 8444SOL    HW226232   2.650   5.600   3.547
 8445SOL     OW26233   4.303   6.463   0.251
 8445SOL    HW126234   4.214   6.435   0.215
 8445SOL    HW226235   4.342   6.389   0.307
 8446SOL     OW26236   4.434   5.106   6.503
 8446SOL    HW126237   4.499   5.178   6.481
 8446SOL    HW226238   4.480   5.032   6.552
 8447SOL     OW26239   4.841   2.234   2.452
 8447SOL    HW126240   4.891   2.266   2.533
 8447SOL    HW226241   4.869   2.289   2.373
 8448SOL     OW26242   4.475   6.023   4.316
 8448SOL    HW126243   4.531   6.105   4.327
 8448SOL    HW226244   4.428   6.027   4.228
 8449SOL     OW26245   6.886   2.543   4.195
 8449SOL    HW126246   6.836   2.506   4.116
 8449SOL    HW226247   6.971   2.493   4.207
 8450SOL     OW26248   0.567   6.207   1.216
 8450SOL    HW126249   0.604   6.283   1.163
 8450SOL    HW226250   0.482   6.174   1.172
 8451SOL     OW26251   4.066   2.458   6.937
 8451SOL    HW126252   4.011   2.389   6.891
 8451SOL    HW226253   4.080   2.431   0.011
 8452SOL     OW26254   6.496   1.395   2.988
 8452SOL    HW126255   6.565   1.354   3.048
 8452SOL    HW226256   6.497   1.494   3.000
 8453SOL     OW26257   0.180   4.045   6.268
 8453SOL    HW126258   0.243   3.972   6.240
 8453SOL    HW226259   0.228   4.109   6.328
 8454SOL     OW26260   0.088   0.177   1.188
 8454SOL    HW126261   0.000   0.155   1.230
 8454SOL    HW226262   0.110   0.109   1.117
 8455SOL     OW26263   5.680   2.966   1.714
 8455SOL    HW126264   5.649   2.875   1.738
 8455SOL    HW226265   5.778   2.963   1.692
 8456SOL     OW26266   4.574   6.213   2.872
 8456SOL    HW126267   4.597   6.149   2.945
 8456SOL    HW226268   4.603   6.176   2.784
 8457SOL     OW26269   6.382   6.371   5.084
 8457SOL    HW126270   6.316   6.316   5.136
 8457SOL    HW226271   6.438   6.311   5.027
 8458SOL     OW26272   3.370   1.586   6.666
 8458SOL    HW126273   3.317   1.657   6.713
 8458SOL    HW226274   3.458   1.623   6.637
 8459SOL     OW26275   3.259   6.737   2.217
 8459SOL    HW126276   3.165   6.746   2.250
 8459SOL    HW226277   3.288   6.824   2.175
 8460SOL     OW26278   4.356   3.328   5.325
 8460SOL    HW126279   4.360   3.251   5.389
 8460SOL    HW226280   4.404   3.304   5.241
 8461SOL     OW26281   6.982   4.507   3.540
 8461SOL    HW126282   0.035   4.547   3.487
 8461SOL    HW226283   6.950   4.575   3.606
 8462SOL     OW26284   3.490   2.569   6.285
 8462SOL    HW126285   3.436   2.536   6.363
 8462SOL    HW226286   3.528   2.491   6.236
 8463SOL     OW26287   6.783   7.019   0.723
 8463SOL    HW126288   6.833   6.981   0.646
 8463SOL    HW226289   6.726   0.073   0.691
 8464SOL     OW26290   5.568   3.542   5.143
 8464SOL    HW126291   5.607   3.467   5.197
 8464SOL    HW226292   5.560   3.623   5.200
 8465SOL     OW26293   1.246   2.803   1.136
 8465SOL    HW126294   1.326   2.744   1.132
 8465SOL    HW226295   1.164   2.748   1.148
 8466SOL     OW26296   0.573   6.728   5.021
 8466SOL    HW126297   0.494   6.789   5.028
 8466SOL    HW226298   0.644   6.756   5.086
 8467SOL     OW26299   4.518   6.951   0.726
 8467SOL    HW126300   4.448   6.884   0.703
 8467SOL    HW226301   4.519   0.002   0.658
 8468SOL     OW26302   3.910   1.944   6.351
 8468SOL    HW126303   3.898   1.858   6.401
 8468SOL    HW226304   3.821   1.986   6.336
 8469SOL     OW26305   3.439   1.078   5.982
 8469SOL    HW126306   3.427   1.109   5.888
 8469SOL    HW226307   3.476   1.153   6.037
 8470SOL     OW26308   1.819   3.882   0.294
 8470SOL    HW126309   1.855   3.819   0.226
 8470SOL    HW226310   1.772   3.829   0.366
 8471SOL     OW26311   4.173   0.892   3.596
 8471SOL    HW126312   4.126   0.832   3.661
 8471SOL    HW226313   4.267   0.860   3.583
 8472SOL     OW26314   6.638   0.628   5.159
 8472SOL    HW126315   6.582   0.684   5.220
 8472SOL    HW226316   6.602   0.636   5.065
 8473SOL     OW26317   6.477   6.337   0.557
 8473SOL    HW126318   6.561   6.341   0.610
 8473SOL    HW226319   6.406   6.392   0.603
 8474SOL     OW26320   3.493   3.155   1.930
 8474SOL    HW126321   3.462   3.123   2.019
 8474SOL    HW226322   3.593   3.154   1.927
 8475SOL     OW26323   6.666   2.439   4.040
 8475SOL    HW126324   6.609   2.448   3.958
 8475SOL    HW226325   6.625   2.492   4.115
 8476SOL     OW26326   6.734   2.233   1.131
 8476SOL    HW126327   6.793   2.180   1.193
 8476SOL    HW226328   6.644   2.246   1.174
 8477SOL     OW26329   5.142   6.892   1.054
 8477SOL    HW126330   5.128   6.970   1.114
 8477SOL    HW226331   5.053   6.858   1.023
 8478SOL     OW26332   1.667   0.074   6.090
 8478SOL    HW126333   1.578   0.068   6.046
 8478SOL    HW226334   1.668   0.150   6.154
 8479SOL     OW26335   0.906   3.108   1.095
 8479SOL    HW126336   0.898   3.011   1.072
 8479SOL    HW226337   0.822   3.156   1.071
 8480SOL     OW26338   4.358   1.745   6.932
 8480SOL    HW126339   4.333   1.818   6.868
 8480SOL    HW226340   4.319   1.658   6.900
 8481SOL     OW26341   4.387   2.407   4.761
 8481SOL    HW126342   4.355   2.459   4.840
 8481SOL    HW226343   4.452   2.462   4.709
 8482SOL     OW26344   4.288   5.980   1.653
 8482SOL    HW126345   4.222   6.047   1.686
 8482SOL    HW226346   4.355   6.025   1.594
 8483SOL     OW26347   4.537   6.315   2.201
 8483SOL    HW126348   4.490   6.281   2.283
 8483SOL    HW226349   4.474   6.312   2.123
 8484SOL     OW26350   0.188   6.393   3.519
 8484SOL    HW126351   0.229   6.482   3.500
 8484SOL    HW226352   0.245   6.321   3.479
 8485SOL     OW26353   3.870   2.677   0.126
 8485SOL    HW126354   3.965   2.703   0.107
 8485SOL    HW226355   3.827   2.748   0.181
 8486SOL     OW26356   2.840   1.688   2.914
 8486SOL    HW126357   2.910   1.618   2.898
 8486SOL    HW226358   2.867   1.772   2.867
 8487SOL     OW26359   5.769   1.048   5.887
 8487SOL    HW126360   5.685   1.097   5.864
 8487SOL    HW226361   5.830   1.047   5.807
 8488SOL     OW26362   5.117   6.034   0.091
 8488SOL    HW126363   5.181   5.995   0.026
 8488SOL    HW226364   5.167   6.066   0.172
 8489SOL     OW26365   6.372   2.189   0.997
 8489SOL    HW126366   6.326   2.112   0.952
 8489SOL    HW226367   6.423   2.155   1.076
 8490SOL     OW26368   4.744   6.553   3.908
 8490SOL    HW126369   4.745   6.518   3.814
 8490SOL    HW226370   4.825   6.520   3.956
 8491SOL     OW26371   2.929   6.228   1.211
 8491SOL    HW126372   2.865   6.171   1.263
 8491SOL    HW226373   2.879   6.278   1.141
 8492SOL     OW26374   4.529   3.844   5.473
 8492SOL    HW126375   4.489   3.897   5.398
 8492SOL    HW226376   4.613   3.800   5.441
 8493SOL     OW26377   2.264   2.829   6.605
 8493SOL    HW126378   2.189   2.882   6.565
 8493SOL    HW226379   2.278   2.859   6.699
 8494SOL     OW26380   3.451   5.526   1.538
 8494SOL    HW126381   3.520   5.598   1.547
 8494SOL    HW226382   3.420   5.499   1.630
 8495SOL     OW26383   6.032   5.221   2.572
 8495SOL    HW126384   5.936   5.244   2.560
 8495SOL    HW226385   6.070   5.271   2.649
 8496SOL     OW26386   1.225   2.853   1.405
 8496SOL    HW126387   1.296   2.922   1.421
 8496SOL    HW226388   1.200   2.852   1.308
 8497SOL     OW26389   6.370   0.943   3.526
 8497SOL    HW126390   6.468   0.940   3.505
 8497SOL    HW226391   6.324   0.868   3.478
 8498SOL     OW26392   6.922   6.812   3.109
 8498SOL    HW126393   6.934   6.779   3.203
 8498SOL    HW226394   6.841   6.869   3.105
 8499SOL     OW26395   2.043   4.943   6.706
 8499SOL    HW126396   2.055   4.941   6.607
 8499SOL    HW226397   2.029   5.037   6.736
 8500SOL     OW26398   1.726   6.056   5.300
 8500SOL    HW126399   1.654   6.112   5.341
 8500SOL    HW226400   1.784   6.018   5.373
 8501SOL     OW26401   0.544   2.196   6.951
 8501SOL    HW126402   0.630   2.214   6.903
 8501SOL    HW226403   0.517   2.276   7.004
 8502SOL     OW26404   1.204   3.566   1.514
 8502SOL    HW126405   1.214   3.516   1.428
 8502SOL    HW226406   1.201   3.664   1.495
 8503SOL     OW26407   1.274   6.310   3.995
 8503SOL    HW126408   1.181   6.320   4.029
 8503SOL    HW226409   1.314   6.401   3.981
 8504SOL     OW26410   2.454   4.882   2.107
 8504SOL    HW126411   2.481   4.788   2.130
 8504SOL    HW226412   2.526   4.924   2.053
 8505SOL     OW26413   5.228   3.499   3.802
 8505SOL    HW126414   5.231   3.403   3.774
 8505SOL    HW226415   5.320   3.536   3.804
 8506SOL     OW26416   6.956   0.908   6.510
 8506SOL    HW126417   6.974   0.972   6.585
 8506SOL    HW226418   6.870   0.931   6.466
 8507SOL     OW26419   3.767   0.809   5.534
 8507SOL    HW126420   3.837   0.858   5.586
 8507SOL    HW226421   3.804   0.723   5.500
 8508SOL     OW26422   6.098   1.652   5.072
 8508SOL    HW126423   6.066   1.738   5.113
 8508SOL    HW226424   6.178   1.620   5.122
 8509SOL     OW26425   4.991   1.643   4.451
 8509SOL    HW126426   5.062   1.646   4.521
 8509SOL    HW226427   5.024   1.590   4.373
 8510SOL     OW26428   6.151   4.481   2.496
 8510SOL    HW126429   6.094   4.561   2.517
 8510SOL    HW226430   6.134   4.410   2.564
 8511SOL     OW26431   5.902   3.489   2.363
 8511SOL    HW126432   5.969   3.524   2.297
 8511SOL    HW226433   5.857   3.408   2.324
 8512SOL     OW26434   3.284   2.137   1.920
 8512SOL    HW126435   3.200   2.118   1.972
 8512SOL    HW226436   3.362   2.138   1.982
 8513SOL     OW26437   5.824   4.383   1.044
 8513SOL    HW126438   5.883   4.392   0.964
 8513SOL    HW226439   5.879   4.363   1.125
 8514SOL     OW26440   2.624   2.348   3.827
 8514SOL    HW126441   2.610   2.408   3.906
 8514SOL    HW226442   2.558   2.371   3.755
 8515SOL     OW26443   5.549   1.861   0.714
 8515SOL    HW126444   5.473   1.894   0.657
 8515SOL    HW226445   5.519   1.859   0.809
 8516SOL     OW26446   5.703   2.510   1.940
 8516SOL    HW126447   5.747   2.599   1.949
 8516SOL    HW226448   5.608   2.516   1.969
 8517SOL     OW26449   1.150   2.524   6.211
 8517SOL    HW126450   1.180   2.563   6.123
 8517SOL    HW226451   1.080   2.584   6.251
 8518SOL     OW26452   4.495   4.110   6.914
 8518SOL    HW126453   4.473   4.171   6.838
 8518SOL    HW226454   4.418   4.109   6.979
 8519SOL     OW26455   1.311   4.059   2.121
 8519SOL    HW126456   1.370   3.982   2.144
 8519SOL    HW226457   1.356   4.118   2.054
 8520SOL     OW26458   3.247   2.352   0.204
 8520SOL    HW126459   3.341   2.378   0.226
 8520SOL    HW226460   3.193   2.347   0.288
 8521SOL     OW26461   2.295   5.324   6.246
 8521SOL    HW126462   2.301   5.319   6.146
 8521SOL    HW226463   2.339   5.243   6.285
 8522SOL     OW26464   1.437   6.492   1.463
 8522SOL    HW126465   1.366   6.530   1.523
 8522SOL    HW226466   1.521   6.544   1.473
 8523SOL     OW26467   2.114   6.723   6.328
 8523SOL    HW126468   2.177   6.782   6.378
 8523SOL    HW226469   2.086   6.646   6.385
 8524SOL     OW26470   0.492   2.694   4.826
 8524SOL    HW126471   0.457   2.670   4.916
 8524SOL    HW226472   0.458   2.630   4.758
 8525SOL     OW26473   6.057   3.836   3.391
 8525SOL    HW126474   6.110   3.861   3.472
 8525SOL    HW226475   6.012   3.748   3.406
 8526SOL     OW26476   3.723   5.726   0.144
 8526SOL    HW126477   3.721   5.769   0.054
 8526SOL    HW226478   3.815   5.729   0.181
 8527SOL     OW26479   2.827   0.086   5.990
 8527SOL    HW126480   2.843   0.183   5.972
 8527SOL    HW226481   2.912   0.043   6.021
 8528SOL     OW26482   3.896   2.284   5.940
 8528SOL    HW126483   3.916   2.198   5.987
 8528SOL    HW226484   3.798   2.289   5.921
 8529SOL     OW26485   0.274   0.163   1.658
 8529SOL    HW126486   0.348   0.226   1.682
 8529SOL    HW226487   0.295   0.119   1.571
 8530SOL     OW26488   3.161   3.251   5.033
 8530SOL    HW126489   3.240   3.282   5.086
 8530SOL    HW226490   3.141   3.316   4.960
 8531SOL     OW26491   6.571   5.023   2.730
 8531SOL    HW126492   6.586   4.943   2.672
 8531SOL    HW226493   6.481   5.016   2.774
 8532SOL     OW26494   3.893   5.113   4.568
 8532SOL    HW126495   3.916   5.023   4.532
 8532SOL    HW226496   3.968   5.148   4.624
 8533SOL     OW26497   1.946   7.016   5.396
 8533SOL    HW126498   2.041   7.009   5.425
 8533SOL    HW226499   1.891   0.029   5.472
 8534SOL     OW26500   6.401   2.776   4.033
 8534SOL    HW126501   6.382   2.682   4.062
 8534SOL    HW226502   6.498   2.785   4.010
 8535SOL     OW26503   6.716   1.435   4.851
 8535SOL    HW126504   6.707   1.357   4.790
 8535SOL    HW226505   6.671   1.515   4.811
 8536SOL     OW26506   5.920   2.076   4.728
 8536SOL    HW126507   5.911   2.130   4.645
 8536SOL    HW226508   6.004   2.022   4.725
 8537SOL     OW26509   5.575   1.772   1.967
 8537SOL    HW126510   5.626   1.804   1.888
 8537SOL    HW226511   5.484   1.814   1.968
 8538SOL     OW26512   0.732   1.309   6.281
 8538SOL    HW126513   0.700   1.214   6.275
 8538SOL    HW226514   0.829   1.312   6.256
 8539SOL     OW26515   5.873   1.124   2.085
 8539SOL    HW126516   5.944   1.055   2.098
 8539SOL    HW226517   5.784   1.079   2.074
 8540SOL     OW26518   4.938   1.312   6.897
 8540SOL    HW126519   4.848   1.335   6.935
 8540SOL    HW226520   4.965   1.222   6.931
 8541SOL     OW26521   2.728   2.379   4.418
 8541SOL    HW126522   2.632   2.388   4.394
 8541SOL    HW226523   2.742   2.403   4.514
 8542SOL     OW26524   2.821   4.766   6.952
 8542SOL    HW126525   2.750   4.768   6.881
 8542SOL    HW226526   2.883   4.843   6.938
 8543SOL     OW26527   3.491   1.016   0.130
 8543SOL    HW126528   3.450   1.075   0.060
 8543SOL    HW226529   3.482   1.059   0.219
 8544SOL     OW26530   5.529   3.007   4.639
 8544SOL    HW126531   5.599   2.967   4.579
 8544SOL    HW226532   5.547   2.980   4.733
 8545SOL     OW26533   4.675   6.709   4.126
 8545SOL    HW126534   4.580   6.681   4.133
 8545SOL    HW226535   4.717   6.664   4.047
 8546SOL     OW26536   0.382   0.252   3.470
 8546SOL    HW126537   0.293   0.277   3.433
 8546SOL    HW226538   0.452   0.267   3.400
 8547SOL     OW26539   1.410   6.825   6.306
 8547SOL    HW126540   1.401   6.831   6.206
 8547SOL    HW226541   1.321   6.799   6.345
 8548SOL     OW26542   6.589   3.589   5.896
 8548SOL    HW126543   6.595   3.633   5.806
 8548SOL    HW226544   6.662   3.623   5.955
 8549SOL     OW26545   1.507   3.324   4.937
 8549SOL    HW126546   1.530   3.246   4.878
 8549SOL    HW226547   1.408   3.326   4.953
 8550SOL     OW26548   1.945   5.196   6.261
 8550SOL    HW126549   1.993   5.114   6.229
 8550SOL    HW226550   2.009   5.252   6.314
 8551SOL     OW26551   2.240   3.465   6.707
 8551SOL    HW126552   2.239   3.390   6.641
 8551SOL    HW226553   2.292   3.542   6.669
 8552SOL     OW26554   2.226   0.120   2.928
 8552SOL    HW126555   2.305   0.152   2.981
 8552SOL    HW226556   2.143   0.165   2.961
 8553SOL     OW26557   4.473   4.545   6.774
 8553SOL    HW126558   4.431   4.634   6.755
 8553SOL    HW226559   4.565   4.542   6.736
 8554SOL     OW26560   0.533   4.872   1.040
 8554SOL    HW126561   0.627   4.850   1.015
 8554SOL    HW226562   0.479   4.884   0.956
 8555SOL     OW26563   2.348   1.250   3.957
 8555SOL    HW126564   2.355   1.160   4.001
 8555SOL    HW226565   2.358   1.240   3.858
 8556SOL     OW26566   1.518   5.884   5.192
 8556SOL    HW126567   1.574   5.948   5.245
 8556SOL    HW226568   1.437   5.932   5.158
 8557SOL     OW26569   6.702   0.002   2.670
 8557SOL    HW126570   6.666   7.016   2.577
 8557SOL    HW226571   6.639   6.980   2.734
 8558SOL     OW26572   2.065   4.795   3.179
 8558SOL    HW126573   2.123   4.761   3.105
 8558SOL    HW226574   2.094   4.887   3.204
 8559SOL     OW26575   1.669   0.709   2.552
 8559SOL    HW126576   1.626   0.744   2.468
 8559SOL    HW226577   1.686   0.611   2.543
 8560SOL     OW26578   6.925   6.450   1.738
 8560SOL    HW126579   6.914   6.444   1.837
 8560SOL    HW226580   6.951   6.544   1.713
 8561SOL     OW26581   3.554   0.570   2.812
 8561SOL    HW126582   3.543   0.549   2.909
 8561SOL    HW226583   3.605   0.656   2.802
 8562SOL     OW26584   4.083   6.188   6.080
 8562SOL    HW126585   4.070   6.285   6.058
 8562SOL    HW226586   4.029   6.133   6.016
 8563SOL     OW26587   1.307   4.503   0.989
 8563SOL    HW126588   1.306   4.602   0.983
 8563SOL    HW226589   1.337   4.464   0.902
 8564SOL     OW26590   3.157   0.507   5.338
 8564SOL    HW126591   3.102   0.579   5.297
 8564SOL    HW226592   3.100   0.449   5.395
 8565SOL     OW26593   3.646   5.703   1.145
 8565SOL    HW126594   3.664   5.656   1.058
 8565SOL    HW226595   3.600   5.641   1.208
 8566SOL     OW26596   1.181   6.931   1.479
 8566SOL    HW126597   1.162   6.881   1.563
 8566SOL    HW226598   1.248   6.882   1.425
 8567SOL     OW26599   0.677   2.421   3.646
 8567SOL    HW126600   0.743   2.462   3.709
 8567SOL    HW226601   0.638   2.338   3.686
 8568SOL     OW26602   5.736   1.407   6.887
 8568SOL    HW126603   5.639   1.411   6.863
 8568SOL    HW226604   5.758   1.315   6.920
 8569SOL     OW26605   4.413   0.882   5.834
 8569SOL    HW126606   4.468   0.870   5.917
 8569SOL    HW226607   4.344   0.810   5.829
 8570SOL     OW26608   1.711   1.549   4.686
 8570SOL    HW126609   1.752   1.458   4.684
 8570SOL    HW226610   1.754   1.606   4.616
 8571SOL     OW26611   0.809   5.834   5.106
 8571SOL    HW126612   0.779   5.833   5.010
 8571SOL    HW226613   0.766   5.910   5.154
 8572SOL     OW26614   3.139   5.254   6.515
 8572SOL    HW126615   3.173   5.198   6.440
 8572SOL    HW226616   3.196   5.240   6.596
 8573SOL     OW26617   3.584   6.324   6.345
 8573SOL    HW126618   3.542   6.395   6.289
 8573SOL    HW226619   3.585   6.238   6.295
 8574SOL     OW26620   0.299   6.045   6.578
 8574SOL    HW126621   0.271   6.140   6.562
 8574SOL    HW226622   0.248   6.008   6.656
 8575SOL     OW26623   2.295   2.836   4.118
 8575SOL    HW126624   2.316   2.858   4.213
 8575SOL    HW226625   2.289   2.920   4.064
 8576SOL     OW26626   1.376   4.182   5.963
 8576SOL    HW126627   1.475   4.177   5.965
 8576SOL    HW226628   1.346   4.277   5.969
 8577SOL     OW26629   1.175   6.522   4.612
 8577SOL    HW126630   1.208   6.490   4.523
 8577SOL    HW226631   1.230   6.481   4.685
 8578SOL     OW26632   6.034   6.455   4.112
 8578SOL    HW126633   5.938   6.429   4.103
 8578SOL    HW226634   6.084   6.382   4.159
 8579SOL     OW26635   2.081   0.503   1.821
 8579SOL    HW126636   2.112   0.532   1.912
 8579SOL    HW226637   2.107   0.408   1.806
 8580SOL     OW26638   2.319   6.118   1.390
 8580SOL    HW126639   2.268   6.086   1.311
 8580SOL    HW226640   2.410   6.149   1.361
 8581SOL     OW26641   3.453   3.979   1.375
 8581SOL    HW126642   3.483   3.956   1.282
 8581SOL    HW226643   3.385   3.913   1.405
 8582SOL     OW26644   4.728   4.232   4.414
 8582SOL    HW126645   4.716   4.240   4.315
 8582SOL    HW226646   4.683   4.309   4.459
 8583SOL     OW26647   5.036   0.482   4.307
 8583SOL    HW126648   5.103   0.460   4.236
 8583SOL    HW226649   4.970   0.407   4.315
 8584SOL     OW26650   0.584   4.960   6.096
 8584SOL    HW126651   0.556   5.056   6.096
 8584SOL    HW226652   0.594   4.929   6.001
 8585SOL     OW26653   0.363   6.502   6.088
 8585SOL    HW126654   0.325   6.521   6.178
 8585SOL    HW226655   0.329   6.569   6.022
 8586SOL     OW26656   2.981   6.566   2.085
 8586SOL    HW126657   2.987   6.615   1.999
 8586SOL    HW226658   3.044   6.489   2.085
 8587SOL     OW26659   1.349   0.446   4.084
 8587SOL    HW126660   1.270   0.385   4.087
 8587SOL    HW226661   1.431   0.394   4.108
 8588SOL     OW26662   2.848   0.601   0.055
 8588SOL    HW126663   2.903   0.566   0.130
 8588SOL    HW226664   2.840   0.700   0.062
 8589SOL     OW26665   5.162   2.734   5.779
 8589SOL    HW126666   5.235   2.802   5.777
 8589SOL    HW226667   5.084   2.770   5.830
 8590SOL     OW26668   6.917   6.452   3.340
 8590SOL    HW126669   6.869   6.504   3.269
 8590SOL    HW226670   6.899   6.492   3.429
 8591SOL     OW26671   0.130   4.090   0.422
 8591SOL    HW126672   0.167   4.112   0.331
 8591SOL    HW226673   0.103   3.994   0.424
 8592SOL     OW26674   6.590   2.743   6.569
 8592SOL    HW126675   6.552   2.695   6.647
 8592SOL    HW226676   6.671   2.694   6.536
 8593SOL     OW26677   1.582   2.032   0.473
 8593SOL    HW126678   1.621   2.045   0.382
 8593SOL    HW226679   1.649   1.986   0.531
 8594SOL     OW26680   4.404   2.656   5.285
 8594SOL    HW126681   4.496   2.618   5.280
 8594SOL    HW226682   4.410   2.754   5.305
 8595SOL     OW26683   0.584   2.180   3.799
 8595SOL    HW126684   0.604   2.187   3.897
 8595SOL    HW226685   0.525   2.102   3.783
 8596SOL     OW26686   1.107   4.975   2.909
 8596SOL    HW126687   1.125   5.007   2.815
 8596SOL    HW226688   1.019   5.011   2.940
 8597SOL     OW26689   4.553   1.806   0.925
 8597SOL    HW126690   4.509   1.732   0.874
 8597SOL    HW226691   4.532   1.894   0.882
 8598SOL     OW26692   5.830   6.928   0.192
 8598SOL    HW126693   5.780   6.853   0.236
 8598SOL    HW226694   5.922   6.897   0.169
 8599SOL     OW26695   1.634   2.694   4.848
 8599SOL    HW126696   1.548   2.743   4.861
 8599SOL    HW226697   1.616   2.605   4.806
 8600SOL     OW26698   5.366   4.505   5.441
 8600SOL    HW126699   5.379   4.600   5.468
 8600SOL    HW226700   5.354   4.449   5.523
 8601SOL     OW26701   1.371   1.648   4.643
 8601SOL    HW126702   1.291   1.700   4.613
 8601SOL    HW226703   1.410   1.599   4.565
 8602SOL     OW26704   3.168   5.773   1.970
 8602SOL    HW126705   3.197   5.680   1.995
 8602SOL    HW226706   3.158   5.828   2.053
 8603SOL     OW26707   4.621   5.832   0.941
 8603SOL    HW126708   4.605   5.739   0.910
 8603SOL    HW226709   4.719   5.851   0.944
 8604SOL     OW26710   0.203   3.156   5.257
 8604SOL    HW126711   0.302   3.143   5.260
 8604SOL    HW226712   0.175   3.213   5.334
 8605SOL     OW26713   2.324   5.693   4.166
 8605SOL    HW126714   2.231   5.685   4.200
 8605SOL    HW226715   2.364   5.779   4.196
 8606SOL     OW26716   1.927   3.312   6.325
 8606SOL    HW126717   1.939   3.358   6.413
 8606SOL    HW226718   1.855   3.359   6.273
 8607SOL     OW26719   3.439   5.622   0.502
 8607SOL    HW126720   3.517   5.559   0.500
 8607SOL    HW226721   3.355   5.570   0.520
 8608SOL     OW26722   3.478   4.916   2.669
 8608SOL    HW126723   3.460   4.889   2.574
 8608SOL    HW226724   3.469   5.015   2.678
 8609SOL     OW26725   5.335   1.009   2.702
 8609SOL    HW126726   5.239   1.005   2.727
 8609SOL    HW226727   5.353   1.093   2.650
 8610SOL     OW26728   1.316   1.929   2.753
 8610SOL    HW126729   1.263   1.951   2.672
 8610SOL    HW226730   1.375   2.006   2.777
 8611SOL     OW26731   2.954   1.767   4.320
 8611SOL    HW126732   3.047   1.762   4.285
 8611SOL    HW226733   2.896   1.815   4.253
 8612SOL     OW26734   2.610   3.508   0.587
 8612SOL    HW126735   2.544   3.441   0.552
 8612SOL    HW226736   2.562   3.572   0.647
 8613SOL     OW26737   3.061   1.945   1.136
 8613SOL    HW126738   3.107   1.918   1.052
 8613SOL    HW226739   3.113   2.016   1.182
 8614SOL     OW26740   0.996   2.946   3.012
 8614SOL    HW126741   1.042   2.939   3.101
 8614SOL    HW226742   1.013   3.037   2.973
 8615SOL     OW26743   4.229   1.018   4.806
 8615SOL    HW126744   4.309   1.002   4.864
 8615SOL    HW226745   4.258   1.023   4.710
 8616SOL     OW26746   3.127   4.671   1.760
 8616SOL    HW126747   3.042   4.654   1.811
 8616SOL    HW226748   3.171   4.752   1.797
 8617SOL     OW26749   6.585   1.912   6.315
 8617SOL    HW126750   6.511   1.885   6.253
 8617SOL    HW226751   6.641   1.832   6.336
 8618SOL     OW26752   6.078   4.657   1.021
 8618SOL    HW126753   6.100   4.560   1.019
 8618SOL    HW226754   5.990   4.670   1.068
 8619SOL     OW26755   3.756   4.894   2.226
 8619SOL    HW126756   3.712   4.861   2.143
 8619SOL    HW226757   3.699   4.963   2.270
 8620SOL     OW26758   1.371   0.047   3.398
 8620SOL    HW126759   1.437   0.033   3.324
 8620SOL    HW226760   1.394   0.131   3.447
 8621SOL     OW26761   5.548   1.788   3.261
 8621SOL    HW126762   5.583   1.872   3.304
 8621SOL    HW226763   5.449   1.794   3.252
 8622SOL     OW26764   5.716   3.117   0.963
 8622SOL    HW126765   5.753   3.120   0.870
 8622SOL    HW226766   5.788   3.137   1.029
 8623SOL     OW26767   0.623   3.861   4.030
 8623SOL    HW126768   0.652   3.865   3.934
 8623SOL    HW226769   0.657   3.941   4.079
 8624SOL     OW26770   1.580   4.260   5.008
 8624SOL    HW126771   1.504   4.204   5.040
 8624SOL    HW226772   1.664   4.232   5.055
 8625SOL     OW26773   4.360   0.619   6.269
 8625SOL    HW126774   4.313   0.543   6.315
 8625SOL    HW226775   4.417   0.668   6.336
 8626SOL     OW26776   3.295   3.115   6.140
 8626SOL    HW126777   3.371   3.072   6.091
 8626SOL    HW226778   3.212   3.060   6.129
 8627SOL     OW26779   1.115   1.892   3.437
 8627SOL    HW126780   1.040   1.899   3.372
 8627SOL    HW226781   1.109   1.967   3.503
 8628SOL     OW26782   6.174   6.478   1.330
 8628SOL    HW126783   6.134   6.442   1.246
 8628SOL    HW226784   6.170   6.578   1.329
 8629SOL     OW26785   1.505   5.352   4.937
 8629SOL    HW126786   1.427   5.315   4.988
 8629SOL    HW226787   1.523   5.445   4.966
 8630SOL     OW26788   5.500   4.496   4.167
 8630SOL    HW126789   5.510   4.526   4.072
 8630SOL    HW226790   5.436   4.419   4.171
 8631SOL     OW26791   0.390   4.783   6.203
 8631SOL    HW126792   0.427   4.787   6.296
 8631SOL    HW226793   0.442   4.844   6.143
 8632SOL     OW26794   4.046   5.233   4.767
 8632SOL    HW126795   4.075   5.141   4.795
 8632SOL    HW226796   4.127   5.288   4.747
 8633SOL     OW26797   5.500   1.777   6.000
 8633SOL    HW126798   5.447   1.707   5.952
 8633SOL    HW226799   5.439   1.850   6.031
 8634SOL     OW26800   4.619   3.046   7.004
 8634SOL    HW126801   4.633   3.091   6.916
 8634SOL    HW226802   4.696   2.984   0.000
 8635SOL     OW26803   5.363   3.288   6.368
 8635SOL    HW126804   5.372   3.324   6.460
 8635SOL    HW226805   5.453   3.272   6.329
 8636SOL     OW26806   5.762   5.669   0.868
 8636SOL    HW126807   5.723   5.714   0.948
 8636SOL    HW226808   5.770   5.735   0.793
 8637SOL     OW26809   2.366   1.475   6.824
 8637SOL    HW126810   2.415   1.465   6.911
 8637SOL    HW226811   2.389   1.399   6.763
 8638SOL     OW26812   3.391   2.303   5.279
 8638SOL    HW126813   3.410   2.217   5.231
 8638SOL    HW226814   3.301   2.337   5.252
 8639SOL     OW26815   5.204   2.754   0.118
 8639SOL    HW126816   5.277   2.812   0.154
 8639SOL    HW226817   5.199   2.670   0.173
 8640SOL     OW26818   4.183   3.795   6.588
 8640SOL    HW126819   4.256   3.835   6.644
 8640SOL    HW226820   4.168   3.700   6.615
 8641SOL     OW26821   4.806   4.863   3.839
 8641SOL    HW126822   4.753   4.932   3.789
 8641SOL    HW226823   4.812   4.780   3.784
 8642SOL     OW26824   1.290   5.978   3.031
 8642SOL    HW126825   1.346   5.936   2.960
 8642SOL    HW226826   1.307   6.076   3.033
 8643SOL     OW26827   2.401   0.023   6.636
 8643SOL    HW126828   2.429   6.980   6.707
 8643SOL    HW226829   2.465   0.100   6.635
 8644SOL     OW26830   5.274   2.580   5.559
 8644SOL    HW126831   5.200   2.625   5.610
 8644SOL    HW226832   5.291   2.489   5.597
 8645SOL     OW26833   4.293   3.895   1.225
 8645SOL    HW126834   4.320   3.942   1.142
 8645SOL    HW226835   4.294   3.959   1.302
 8646SOL     OW26836   6.851   1.944   1.035
 8646SOL    HW126837   6.919   1.988   0.977
 8646SOL    HW226838   6.894   1.919   1.122
 8647SOL     OW26839   2.744   5.576   6.709
 8647SOL    HW126840   2.737   5.477   6.697
 8647SOL    HW226841   2.677   5.606   6.777
 8648SOL     OW26842   6.608   0.724   2.773
 8648SOL    HW126843   6.632   0.814   2.736
 8648SOL    HW226844   6.549   0.735   2.853
 8649SOL     OW26845   5.487   5.607   5.961
 8649SOL    HW126846   5.430   5.681   5.996
 8649SOL    HW226847   5.540   5.641   5.883
 8650SOL     OW26848   2.255   5.321   4.130
 8650SOL    HW126849   2.324   5.321   4.058
 8650SOL    HW226850   2.164   5.333   4.090
 8651SOL     OW26851   4.508   0.475   6.889
 8651SOL    HW126852   4.576   0.408   6.860
 8651SOL    HW226853   4.417   0.434   6.884
 8652SOL     OW26854   1.887   5.109   3.374
 8652SOL    HW126855   1.896   5.208   3.375
 8652SOL    HW226856   1.969   5.068   3.335
 8653SOL     OW26857   6.184   0.448   6.122
 8653SOL    HW126858   6.239   0.513   6.071
 8653SOL    HW226859   6.105   0.421   6.068
 8654SOL     OW26860   1.304   4.643   2.050
 8654SOL    HW126861   1.243   4.699   1.993
 8654SOL    HW226862   1.395   4.640   2.008
 8655SOL     OW26863   6.809   1.034   4.285
 8655SOL    HW126864   6.866   0.977   4.344
 8655SOL    HW226865   6.740   1.081   4.341
 8656SOL     OW26866   6.879   0.031   1.059
 8656SOL    HW126867   6.799   6.993   1.051
 8656SOL    HW226868   6.872   0.084   1.144
 8657SOL     OW26869   5.164   4.714   6.856
 8657SOL    HW126870   5.156   4.632   6.911
 8657SOL    HW226871   5.074   4.742   6.824
 8658SOL     OW26872   5.996   6.007   0.570
 8658SOL    HW126873   6.038   6.053   0.648
 8658SOL    HW226874   6.061   5.941   0.531
 8659SOL     OW26875   4.357   2.077   2.470
 8659SOL    HW126876   4.394   1.997   2.423
 8659SOL    HW226877   4.432   2.137   2.498
 8660SOL     OW26878   6.684   4.112   1.911
 8660SOL    HW126879   6.585   4.116   1.897
 8660SOL    HW226880   6.712   4.017   1.921
 8661SOL     OW26881   6.199   4.104   1.262
 8661SOL    HW126882   6.250   4.029   1.304
 8661SOL    HW226883   6.181   4.083   1.166
 8662SOL     OW26884   4.429   5.784   1.302
 8662SOL    HW126885   4.522   5.821   1.304
 8662SOL    HW226886   4.364   5.859   1.288
 8663SOL     OW26887   2.715   6.044   1.392
 8663SOL    HW126888   2.677   5.953   1.376
 8663SOL    HW226889   2.657   6.094   1.457
 8664SOL     OW26890   1.665   6.387   1.273
 8664SOL    HW126891   1.611   6.380   1.357
 8664SOL    HW226892   1.604   6.395   1.195
 8665SOL     OW26893   5.565   5.880   5.130
 8665SOL    HW126894   5.626   5.801   5.122
 8665SOL    HW226895   5.498   5.878   5.055
 8666SOL     OW26896   5.821   1.379   4.021
 8666SOL    HW126897   5.737   1.350   4.068
 8666SOL    HW226898   5.804   1.381   3.922
 8667SOL     OW26899   4.048   2.150   3.359
 8667SOL    HW126900   3.987   2.118   3.287
 8667SOL    HW226901   3.994   2.170   3.441
 8668SOL     OW26902   4.848   3.322   3.330
 8668SOL    HW126903   4.915   3.377   3.381
 8668SOL    HW226904   4.811   3.251   3.389
 8669SOL     OW26905   1.428   6.627   5.881
 8669SOL    HW126906   1.514   6.649   5.837
 8669SOL    HW226907   1.353   6.676   5.835
 8670SOL     OW26908   3.632   4.637   5.330
 8670SOL    HW126909   3.619   4.717   5.271
 8670SOL    HW226910   3.596   4.657   5.421
 8671SOL     OW26911   5.596   1.829   2.795
 8671SOL    HW126912   5.623   1.770   2.871
 8671SOL    HW226913   5.666   1.825   2.724
 8672SOL     OW26914   0.974   5.629   3.896
 8672SOL    HW126915   0.955   5.542   3.853
 8672SOL    HW226916   0.900   5.653   3.958
 8673SOL     OW26917   5.528   2.794   0.043
 8673SOL    HW126918   5.574   2.788   6.976
 8673SOL    HW226919   5.470   2.876   0.044
 8674SOL     OW26920   4.990   5.875   2.958
 8674SOL    HW126921   4.909   5.925   2.990
 8674SOL    HW226922   5.012   5.804   3.025
 8675SOL     OW26923   3.820   2.151   4.379
 8675SOL    HW126924   3.878   2.186   4.452
 8675SOL    HW226925   3.727   2.138   4.413
 8676SOL     OW26926   5.298   0.096   2.696
 8676SOL    HW126927   5.304   0.086   2.596
 8676SOL    HW226928   5.203   0.109   2.722
 8677SOL     OW26929   1.975   5.312   5.970
 8677SOL    HW126930   1.964   5.408   5.943
 8677SOL    HW226931   1.978   5.305   6.069
 8678SOL     OW26932   0.199   7.008   2.162
 8678SOL    HW126933   0.266   0.060   2.155
 8678SOL    HW226934   0.164   7.003   2.255
 8679SOL     OW26935   0.328   2.018   3.492
 8679SOL    HW126936   0.365   2.103   3.456
 8679SOL    HW226937   0.228   2.026   3.500
 8680SOL     OW26938   0.241   3.541   7.021
 8680SOL    HW126939   0.234   3.448   6.987
 8680SOL    HW226940   0.324   3.550   0.055
 8681SOL     OW26941   4.639   5.108   1.180
 8681SOL    HW126942   4.638   5.201   1.216
 8681SOL    HW226943   4.620   5.111   1.082
 8682SOL     OW26944   5.336   6.338   2.206
 8682SOL    HW126945   5.290   6.309   2.290
 8682SOL    HW226946   5.430   6.363   2.227
 8683SOL     OW26947   1.860   1.813   4.347
 8683SOL    HW126948   1.762   1.832   4.336
 8683SOL    HW226949   1.890   1.754   4.271
 8684SOL     OW26950   5.950   2.833   5.300
 8684SOL    HW126951   5.876   2.766   5.302
 8684SOL    HW226952   5.964   2.871   5.391
 8685SOL     OW26953   0.309   2.010   6.479
 8685SOL    HW126954   0.387   1.963   6.438
 8685SOL    HW226955   0.280   1.961   6.561
 8686SOL     OW26956   0.454   1.141   3.268
 8686SOL    HW126957   0.390   1.212   3.298
 8686SOL    HW226958   0.517   1.179   3.200
 8687SOL     OW26959   5.226   5.004   1.677
 8687SOL    HW126960   5.240   5.036   1.584
 8687SOL    HW226961   5.284   5.055   1.740
 8688SOL     OW26962   1.220   5.231   6.549
 8688SOL    HW126963   1.161   5.268   6.621
 8688SOL    HW226964   1.250   5.139   6.575
 8689SOL     OW26965   3.683   3.830   1.157
 8689SOL    HW126966   3.736   3.785   1.085
 8689SOL    HW226967   3.601   3.777   1.176
 8690SOL     OW26968   1.556   3.946   3.951
 8690SOL    HW126969   1.656   3.947   3.942
 8690SOL    HW226970   1.517   3.882   3.885
 8691SOL     OW26971   3.872   1.992   5.807
 8691SOL    HW126972   3.935   2.027   5.876
 8691SOL    HW226973   3.815   1.920   5.847
 8692SOL     OW26974   3.120   1.369   4.581
 8692SOL    HW126975   3.138   1.428   4.660
 8692SOL    HW226976   3.206   1.326   4.553
 8693SOL     OW26977   5.474   0.576   0.214
 8693SOL    HW126978   5.448   0.632   0.135
 8693SOL    HW226979   5.514   0.490   0.182
 8694SOL     OW26980   4.608   0.783   4.987
 8694SOL    HW126981   4.643   0.702   5.035
 8694SOL    HW226982   4.567   0.756   4.901
 8695SOL     OW26983   4.213   3.018   6.146
 8695SOL    HW126984   4.299   2.973   6.123
 8695SOL    HW226985   4.177   2.980   6.231
 8696SOL     OW26986   1.909   4.940   5.569
 8696SOL    HW126987   1.917   4.991   5.484
 8696SOL    HW226988   1.967   4.981   5.639
 8697SOL     OW26989   0.001   2.972   6.323
 8697SOL    HW126990   6.988   2.978   6.229
 8697SOL    HW226991   6.953   3.006   6.386
 8698SOL     OW26992   4.788   5.885   4.997
 8698SOL    HW126993   4.737   5.843   4.923
 8698SOL    HW226994   4.724   5.929   5.061
 8699SOL     OW26995   1.517   2.454   5.037
 8699SOL    HW126996   1.546   2.377   4.980
 8699SOL    HW226997   1.500   2.421   5.130
 8700SOL     OW26998   1.333   0.951   4.335
 8700SOL    HW126999   1.249   0.968   4.283
 8700SOL    HW227000   1.383   1.037   4.344
 8701SOL     OW27001   1.354   0.739   6.760
 8701SOL    HW127002   1.354   0.798   6.679
 8701SOL    HW227003   1.446   0.706   6.778
 8702SOL     OW27004   5.464   5.251   1.642
 8702SOL    HW127005   5.416   5.240   1.729
 8702SOL    HW227006   5.556   5.212   1.650
 8703SOL     OW27007   2.326   4.978   0.195
 8703SOL    HW127008   2.399   5.043   0.217
 8703SOL    HW227009   2.249   5.026   0.154
 8704SOL     OW27010   0.217   3.995   3.371
 8704SOL    HW127011   0.296   4.016   3.313
 8704SOL    HW227012   0.137   4.045   3.338
 8705SOL     OW27013   5.485   0.995   6.345
 8705SOL    HW127014   5.478   0.901   6.311
 8705SOL    HW227015   5.427   1.006   6.425
 8706SOL     OW27016   5.453   1.868   6.990
 8706SOL    HW127017   5.476   1.771   6.999
 8706SOL    HW227018   5.387   1.880   6.915
 8707SOL     OW27019   6.813   1.369   6.482
 8707SOL    HW127020   6.843   1.446   6.425
 8707SOL    HW227021   6.843   1.384   6.576
 8708SOL     OW27022   4.420   1.537   2.467
 8708SOL    HW127023   4.347   1.497   2.411
 8708SOL    HW227024   4.509   1.504   2.435
 8709SOL     OW27025   0.248   6.490   0.323
 8709SOL    HW127026   0.294   6.545   0.253
 8709SOL    HW227027   0.172   6.440   0.280
 8710SOL     OW27028   2.160   3.018   3.691
 8710SOL    HW127029   2.170   3.037   3.594
 8710SOL    HW227030   2.100   2.939   3.704
 8711SOL     OW27031   1.901   6.769   2.999
 8711SOL    HW127032   1.933   6.773   3.094
 8711SOL    HW227033   1.843   6.848   2.980
 8712SOL     OW27034   3.986   2.235   4.571
 8712SOL    HW127035   4.085   2.222   4.579
 8712SOL    HW227036   3.959   2.317   4.620
 8713SOL     OW27037   6.217   2.942   3.895
 8713SOL    HW127038   6.295   2.897   3.938
 8713SOL    HW227039   6.188   2.890   3.815
 8714SOL     OW27040   0.860   0.383   5.414
 8714SOL    HW127041   0.875   0.460   5.352
 8714SOL    HW227042   0.943   0.327   5.418
 8715SOL     OW27043   4.246   6.977   1.273
 8715SOL    HW127044   4.212   7.003   1.363
 8715SOL    HW227045   4.342   7.003   1.264
 8716SOL     OW27046   0.052   0.144   0.771
 8716SOL    HW127047   0.134   0.141   0.828
 8716SOL    HW227048   6.999   0.097   0.818
 8717SOL     OW27049   2.909   3.365   4.663
 8717SOL    HW127050   2.921   3.303   4.586
 8717SOL    HW227051   2.817   3.353   4.700
 8718SOL     OW27052   1.905   3.360   5.490
 8718SOL    HW127053   1.987   3.412   5.514
 8718SOL    HW227054   1.921   3.312   5.403
 8719SOL     OW27055   4.312   0.042   6.671
 8719SOL    HW127056   4.227   0.079   6.633
 8719SOL    HW227057   4.380   0.033   6.599
 8720SOL     OW27058   6.712   5.430   5.755
 8720SOL    HW127059   6.708   5.528   5.738
 8720SOL    HW227060   6.782   5.411   5.824
 8721SOL     OW27061   6.971   2.635   1.648
 8721SOL    HW127062   6.937   2.724   1.680
 8721SOL    HW227063   6.929   2.562   1.703
 8722SOL     OW27064   3.656   0.884   0.427
 8722SOL    HW127065   3.726   0.884   0.498
 8722SOL    HW227066   3.572   0.842   0.462
 8723SOL     OW27067   4.645   6.381   1.877
 8723SOL    HW127068   4.629   6.464   1.930
 8723SOL    HW227069   4.662   6.405   1.781
 8724SOL     OW27070   5.241   6.841   4.941
 8724SOL    HW127071   5.260   6.751   4.980
 8724SOL    HW227072   5.161   6.836   4.882
 8725SOL     OW27073   1.398   6.369   5.583
 8725SOL    HW127074   1.497   6.363   5.595
 8725SOL    HW227075   1.352   6.348   5.669
 8726SOL     OW27076   0.027   1.758   3.878
 8726SOL    HW127077   6.964   1.723   3.918
 8726SOL    HW227078   0.009   1.788   3.784
 8727SOL     OW27079   5.447   0.069   2.117
 8727SOL    HW127080   5.393   0.005   2.171
 8727SOL    HW227081   5.497   0.131   2.178
 8728SOL     OW27082   6.417   0.852   2.081
 8728SOL    HW127083   6.381   0.848   1.987
 8728SOL    HW227084   6.366   0.789   2.139
 8729SOL     OW27085   3.657   5.278   5.409
 8729SOL    HW127086   3.560   5.298   5.418
 8729SOL    HW227087   3.698   5.339   5.341
 8730SOL     OW27088   5.815   4.436   2.738
 8730SOL    HW127089   5.793   4.348   2.696
 8730SOL    HW227090   5.816   4.426   2.838
 8731SOL     OW27091   1.648   2.520   3.221
 8731SOL    HW127092   1.549   2.515   3.234
 8731SOL    HW227093   1.670   2.587   3.151
 8732SOL     OW27094   5.710   4.765   1.262
 8732SOL    HW127095   5.732   4.830   1.335
 8732SOL    HW227096   5.672   4.682   1.301
 8733SOL     OW27097   2.293   5.454   1.283
 8733SOL    HW127098   2.333   5.448   1.374
 8733SOL    HW227099   2.311   5.370   1.232
 8734SOL     OW27100   1.014   3.960   2.206
 8734SOL    HW127101   1.021   3.989   2.111
 8734SOL    HW227102   1.055   4.030   2.265
 8735SOL     OW27103   0.772   2.602   0.458
 8735SOL    HW127104   0.805   2.593   0.364
 8735SOL    HW227105   0.849   2.620   0.519
 8736SOL     OW27106   0.084   5.350   0.645
 8736SOL    HW127107   0.182   5.332   0.641
 8736SOL    HW227108   0.052   5.341   0.739
 8737SOL     OW27109   1.807   6.641   6.968
 8737SOL    HW127110   1.903   6.669   6.960
 8737SOL    HW227111   1.800   6.543   6.952
 8738SOL     OW27112   2.886   5.345   4.347
 8738SOL    HW127113   2.829   5.263   4.338
 8738SOL    HW227114   2.827   5.425   4.360
 8739SOL     OW27115   6.447   5.656   6.908
 8739SOL    HW127116   6.417   5.580   6.850
 8739SOL    HW227117   6.395   5.738   6.886
 8740SOL     OW27118   4.508   1.221   4.450
 8740SOL    HW127119   4.525   1.285   4.375
 8740SOL    HW227120   4.430   1.163   4.427
 8741SOL     OW27121   2.248   1.161   2.382
 8741SOL    HW127122   2.243   1.065   2.410
 8741SOL    HW227123   2.207   1.218   2.453
 8742SOL     OW27124   4.927   6.405   1.979
 8742SOL    HW127125   4.877   6.374   1.897
 8742SOL    HW227126   4.992   6.334   2.006
 8743SOL     OW27127   1.659   0.178   1.945
 8743SOL    HW127128   1.639   0.237   2.024
 8743SOL    HW227129   1.695   0.234   1.870
 8744SOL     OW27130   3.855   2.797   6.719
 8744SOL    HW127131   3.862   2.824   6.623
 8744SOL    HW227132   3.945   2.807   6.762
 8745SOL     OW27133   6.746   2.191   6.591
 8745SOL    HW127134   6.784   2.114   6.641
 8745SOL    HW227135   6.709   2.159   6.503
 8746SOL     OW27136   4.587   5.437   4.715
 8746SOL    HW127137   4.519   5.455   4.645
 8746SOL    HW227138   4.541   5.414   4.801
 8747SOL     OW27139   0.281   2.264   3.249
 8747SOL    HW127140   0.306   2.304   3.160
 8747SOL    HW227141   0.217   2.325   3.295
 8748SOL     OW27142   0.185   1.068   4.466
 8748SOL    HW127143   0.159   1.130   4.392
 8748SOL    HW227144   0.276   1.093   4.501
 8749SOL     OW27145   2.223   0.211   4.907
 8749SOL    HW127146   2.281   0.234   4.829
 8749SOL    HW227147   2.127   0.208   4.877
 8750SOL     OW27148   3.160   3.712   4.953
 8750SOL    HW127149   3.110   3.721   5.039
 8750SOL    HW227150   3.159   3.617   4.923
 8751SOL     OW27151   6.162   1.671   2.181
 8751SOL    HW127152   6.212   1.751   2.215
 8751SOL    HW227153   6.155   1.603   2.254
 8752SOL     OW27154   3.263   3.136   6.641
 8752SOL    HW127155   3.262   3.098   6.549
 8752SOL    HW227156   3.180   3.109   6.689
 8753SOL     OW27157   3.319   1.507   6.420
 8753SOL    HW127158   3.358   1.549   6.502
 8753SOL    HW227159   3.331   1.408   6.424
 8754SOL     OW27160   2.073   3.588   6.004
 8754SOL    HW127161   2.092   3.676   5.960
 8754SOL    HW227162   2.156   3.554   6.048
 8755SOL     OW27163   2.516   1.267   1.111
 8755SOL    HW127164   2.455   1.291   1.035
 8755SOL    HW227165   2.610   1.265   1.078
 8756SOL     OW27166   1.155   3.587   4.397
 8756SOL    HW127167   1.202   3.522   4.337
 8756SOL    HW227168   1.110   3.657   4.342
 8757SOL     OW27169   3.950   6.037   6.502
 8757SOL    HW127170   3.984   5.996   6.417
 8757SOL    HW227171   3.868   5.988   6.532
 8758SOL     OW27172   4.716   5.750   2.970
 8758SOL    HW127173   4.715   5.655   2.941
 8758SOL    HW227174   4.772   5.804   2.907
 8759SOL     OW27175   4.517   2.652   6.542
 8759SOL    HW127176   4.431   2.648   6.490
 8759SOL    HW227177   4.577   2.721   6.501
 8760SOL     OW27178   2.390   0.604   5.028
 8760SOL    HW127179   2.483   0.572   5.047
 8760SOL    HW227180   2.385   0.642   4.936
 8761SOL     OW27181   6.218   2.000   1.800
 8761SOL    HW127182   6.197   2.095   1.819
 8761SOL    HW227183   6.148   1.962   1.739
 8762SOL     OW27184   1.331   4.164   3.318
 8762SOL    HW127185   1.302   4.246   3.269
 8762SOL    HW227186   1.351   4.091   3.253
 8763SOL     OW27187   6.755   6.448   6.210
 8763SOL    HW127188   6.769   6.487   6.301
 8763SOL    HW227189   6.665   6.473   6.176
 8764SOL     OW27190   5.487   6.846   4.820
 8764SOL    HW127191   5.546   6.780   4.866
 8764SOL    HW227192   5.392   6.827   4.843
 8765SOL     OW27193   5.669   6.986   3.584
 8765SOL    HW127194   5.687   0.015   3.499
 8765SOL    HW227195   5.581   7.015   3.622
 8766SOL     OW27196   4.576   4.959   4.644
 8766SOL    HW127197   4.548   4.973   4.739
 8766SOL    HW227198   4.654   5.019   4.624
 8767SOL     OW27199   4.882   5.525   3.212
 8767SOL    HW127200   4.905   5.446   3.269
 8767SOL    HW227201   4.835   5.594   3.267
 8768SOL     OW27202   1.166   2.747   0.095
 8768SOL    HW127203   1.180   2.809   0.018
 8768SOL    HW227204   1.179   2.652   0.065
 8769SOL     OW27205   0.232   1.017   3.601
 8769SOL    HW127206   0.328   1.002   3.576
 8769SOL    HW227207   0.207   1.112   3.583
 8770SOL     OW27208   4.521   4.491   2.233
 8770SOL    HW127209   4.506   4.419   2.165
 8770SOL    HW227210   4.435   4.513   2.278
 8771SOL     OW27211   0.994   1.813   6.411
 8771SOL    HW127212   1.037   1.759   6.339
 8771SOL    HW227213   0.922   1.760   6.454
 8772SOL     OW27214   4.888   0.623   6.348
 8772SOL    HW127215   4.877   0.539   6.294
 8772SOL    HW227216   4.869   0.603   6.444
 8773SOL     OW27217   5.441   2.604   3.591
 8773SOL    HW127218   5.423   2.587   3.688
 8773SOL    HW227219   5.538   2.621   3.577
 8774SOL     OW27220   1.583   0.763   0.051
 8774SOL    HW127221   1.630   0.848   0.075
 8774SOL    HW227222   1.563   0.762   6.975
 8775SOL     OW27223   5.584   6.762   5.601
 8775SOL    HW127224   5.596   6.772   5.700
 8775SOL    HW227225   5.663   6.714   5.563
 8776SOL     OW27226   4.260   3.026   0.259
 8776SOL    HW127227   4.357   3.032   0.282
 8776SOL    HW227228   4.243   3.077   0.174
 8777SOL     OW27229   6.562   4.456   3.224
 8777SOL    HW127230   6.631   4.482   3.156
 8777SOL    HW227231   6.515   4.373   3.195
 8778SOL     OW27232   5.936   3.340   5.826
 8778SOL    HW127233   5.850   3.381   5.858
 8778SOL    HW227234   6.007   3.355   5.895
 8779SOL     OW27235   2.775   5.148   1.939
 8779SOL    HW127236   2.730   5.228   1.980
 8779SOL    HW227237   2.725   5.065   1.964
 8780SOL     OW27238   0.342   6.643   2.800
 8780SOL    HW127239   0.421   6.583   2.794
 8780SOL    HW227240   0.282   6.628   2.721
 8781SOL     OW27241   4.979   0.907   3.612
 8781SOL    HW127242   4.995   0.938   3.706
 8781SOL    HW227243   4.881   0.892   3.598
 8782SOL     OW27244   6.473   6.544   1.350
 8782SOL    HW127245   6.520   6.489   1.419
 8782SOL    HW227246   6.397   6.492   1.311
 8783SOL     OW27247   6.598   4.638   3.993
 8783SOL    HW127248   6.545   4.683   4.065
 8783SOL    HW227249   6.689   4.615   4.028
 8784SOL     OW27250   6.092   4.822   5.987
 8784SOL    HW127251   6.020   4.786   6.047
 8784SOL    HW227252   6.121   4.751   5.923
 8785SOL     OW27253   5.570   4.063   6.992
 8785SOL    HW127254   5.484   4.013   7.002
 8785SOL    HW227255   5.605   4.088   0.060
 8786SOL     OW27256   2.678   0.857   0.548
 8786SOL    HW127257   2.603   0.809   0.594
 8786SOL    HW227258   2.697   0.943   0.595
 8787SOL     OW27259   3.176   1.315   1.677
 8787SOL    HW127260   3.162   1.337   1.580
 8787SOL    HW227261   3.231   1.386   1.720
 8788SOL     OW27262   6.147   0.541   5.253
 8788SOL    HW127263   6.225   0.484   5.226
 8788SOL    HW227264   6.171   0.637   5.243
 8789SOL     OW27265   6.150   6.184   4.508
 8789SOL    HW127266   6.213   6.215   4.580
 8789SOL    HW227267   6.202   6.150   4.430
 8790SOL     OW27268   0.156   0.286   6.248
 8790SOL    HW127269   0.246   0.252   6.224
 8790SOL    HW227270   0.161   0.384   6.266
 8791SOL     OW27271   5.084   6.103   5.323
 8791SOL    HW127272   5.126   6.070   5.239
 8791SOL    HW227273   5.021   6.034   5.359
 8792SOL     OW27274   2.516   5.872   3.083
 8792SOL    HW127275   2.529   5.791   3.141
 8792SOL    HW227276   2.456   5.937   3.130
 8793SOL     OW27277   1.271   4.747   2.690
 8793SOL    HW127278   1.234   4.695   2.768
 8793SOL    HW227279   1.270   4.688   2.609
 8794SOL     OW27280   4.697   6.933   2.577
 8794SOL    HW127281   4.693   6.834   2.577
 8794SOL    HW227282   4.776   6.964   2.629
 8795SOL     OW27283   1.637   4.478   5.461
 8795SOL    HW127284   1.592   4.507   5.545
 8795SOL    HW227285   1.665   4.559   5.408
 8796SOL     OW27286   4.242   2.204   4.595
 8796SOL    HW127287   4.305   2.129   4.617
 8796SOL    HW227288   4.274   2.288   4.640
 8797SOL     OW27289   0.360   0.249   6.782
 8797SOL    HW127290   0.362   0.295   6.870
 8797SOL    HW227291   0.414   0.165   6.787
 8798SOL     OW27292   5.494   5.340   6.460
 8798SOL    HW127293   5.447   5.255   6.436
 8798SOL    HW227294   5.574   5.318   6.517
 8799SOL     OW27295   2.622   4.556   3.547
 8799SOL    HW127296   2.686   4.579   3.620
 8799SOL    HW227297   2.529   4.570   3.578
 8800SOL     OW27298   6.705   4.248   5.682
 8800SOL    HW127299   6.782   4.185   5.679
 8800SOL    HW227300   6.736   4.337   5.715
 8801SOL     OW27301   6.863   1.284   5.038
 8801SOL    HW127302   6.959   1.310   5.031
 8801SOL    HW227303   6.807   1.349   4.986
 8802SOL     OW27304   2.138   0.012   6.686
 8802SOL    HW127305   2.236   0.002   6.667
 8802SOL    HW227306   2.106   0.099   6.650
 8803SOL     OW27307   0.173   6.163   6.977
 8803SOL    HW127308   0.264   6.200   6.956
 8803SOL    HW227309   0.141   6.108   6.899
 8804SOL     OW27310   2.530   6.868   2.118
 8804SOL    HW127311   2.456   6.849   2.183
 8804SOL    HW227312   2.528   6.965   2.093
 8805SOL     OW27313   3.125   6.226   3.807
 8805SOL    HW127314   3.160   6.300   3.864
 8805SOL    HW227315   3.196   6.156   3.796
 8806SOL     OW27316   3.269   4.877   1.884
 8806SOL    HW127317   3.309   4.946   1.824
 8806SOL    HW227318   3.341   4.818   1.919
 8807SOL     OW27319   4.840   0.549   6.911
 8807SOL    HW127320   4.826   0.451   6.927
 8807SOL    HW227321   4.756   0.599   6.935
 8808SOL     OW27322   6.026   2.678   6.759
 8808SOL    HW127323   6.034   2.585   6.795
 8808SOL    HW227324   5.988   2.675   6.666
 8809SOL     OW27325   4.367   5.009   3.252
 8809SOL    HW127326   4.357   4.911   3.238
 8809SOL    HW227327   4.366   5.029   3.350
 8810SOL     OW27328   5.914   0.481   4.881
 8810SOL    HW127329   5.907   0.540   4.961
 8810SOL    HW227330   5.892   0.387   4.908
 8811SOL     OW27331   3.639   1.035   2.644
 8811SOL    HW127332   3.688   1.114   2.607
 8811SOL    HW227333   3.593   0.987   2.569
 8812SOL     OW27334   1.811   0.669   0.396
 8812SOL    HW127335   1.885   0.676   0.463
 8812SOL    HW227336   1.761   0.755   0.392
 8813SOL     OW27337   1.973   5.050   1.911
 8813SOL    HW127338   2.068   5.031   1.933
 8813SOL    HW227339   1.960   5.149   1.900
 8814SOL     OW27340   6.164   0.035   0.737
 8814SOL    HW127341   6.204   6.972   0.771
 8814SOL    HW227342   6.081   0.014   0.685
 8815SOL     OW27343   5.640   6.694   0.691
 8815SOL    HW127344   5.561   6.635   0.709
 8815SOL    HW227345   5.614   6.767   0.628
 8816SOL     OW27346   1.407   6.649   0.395
 8816SOL    HW127347   1.416   6.656   0.296
 8816SOL    HW227348   1.493   6.676   0.439
 8817SOL     OW27349   0.401   4.785   3.873
 8817SOL    HW127350   0.412   4.807   3.776
 8817SOL    HW227351   0.442   4.695   3.892
 8818SOL     OW27352   0.659   4.430   4.394
 8818SOL    HW127353   0.758   4.436   4.385
 8818SOL    HW227354   0.629   4.335   4.384
 8819SOL     OW27355   5.768   5.209   5.268
 8819SOL    HW127356   5.785   5.119   5.226
 8819SOL    HW227357   5.701   5.199   5.341
 8820SOL     OW27358   2.905   0.924   5.144
 8820SOL    HW127359   2.816   0.925   5.097
 8820SOL    HW227360   2.975   0.960   5.082
 8821SOL     OW27361   1.769   6.262   0.799
 8821SOL    HW127362   1.673   6.244   0.777
 8821SOL    HW227363   1.798   6.346   0.753
 8822SOL     OW27364   0.384   0.657   3.695
 8822SOL    HW127365   0.375   0.559   3.678
 8822SOL    HW227366   0.391   0.673   3.793
 8823SOL     OW27367   2.224   1.068   2.715
 8823SOL    HW127368   2.194   1.059   2.810
 8823SOL    HW227369   2.277   1.152   2.704
 8824SOL     OW27370   1.423   1.828   0.106
 8824SOL    HW127371   1.476   1.886   0.044
 8824SOL    HW227372   1.469   1.740   0.117
 8825SOL     OW27373   1.917   0.963   2.291
 8825SOL    HW127374   1.860   1.027   2.238
 8825SOL    HW227375   1.993   1.013   2.332
 8826SOL     OW27376   0.560   3.916   0.740
 8826SOL    HW127377   0.474   3.944   0.784
 8826SOL    HW227378   0.548   3.825   0.699
 8827SOL     OW27379   4.338   1.698   2.089
 8827SOL    HW127380   4.265   1.685   2.156
 8827SOL    HW227381   4.322   1.783   2.039
 8828SOL     OW27382   4.052   5.477   5.961
 8828SOL    HW127383   3.994   5.410   6.007
 8828SOL    HW227384   4.073   5.552   6.023
 8829SOL     OW27385   5.063   2.946   0.919
 8829SOL    HW127386   5.040   2.900   1.004
 8829SOL    HW227387   5.134   2.894   0.871
 8830SOL     OW27388   1.356   2.114   2.227
 8830SOL    HW127389   1.445   2.088   2.190
 8830SOL    HW227390   1.364   2.203   2.273
 8831SOL     OW27391   4.575   2.575   4.314
 8831SOL    HW127392   4.498   2.513   4.302
 8831SOL    HW227393   4.654   2.541   4.262
 8832SOL     OW27394   0.042   6.971   2.922
 8832SOL    HW127395   0.000   6.906   2.985
 8832SOL    HW227396   0.109   0.005   2.971
 8833SOL     OW27397   2.648   4.649   5.956
 8833SOL    HW127398   2.655   4.561   6.003
 8833SOL    HW227399   2.719   4.655   5.886
 8834SOL     OW27400   5.732   4.443   4.988
 8834SOL    HW127401   5.787   4.430   5.070
 8834SOL    HW227402   5.661   4.372   4.983
 8835SOL     OW27403   4.783   0.897   5.680
 8835SOL    HW127404   4.759   0.839   5.603
 8835SOL    HW227405   4.802   0.841   5.760
 8836SOL     OW27406   5.035   1.690   0.149
 8836SOL    HW127407   5.037   1.687   0.049
 8836SOL    HW227408   4.943   1.711   0.180
 8837SOL     OW27409   0.234   6.502   2.237
 8837SOL    HW127410   0.197   6.409   2.239
 8837SOL    HW227411   0.294   6.516   2.315
 8838SOL     OW27412   1.959   5.384   3.151
 8838SOL    HW127413   1.898   5.306   3.132
 8838SOL    HW227414   1.909   5.452   3.205
 8839SOL     OW27415   5.388   5.847   1.849
 8839SOL    HW127416   5.476   5.852   1.896
 8839SOL    HW227417   5.327   5.917   1.886
 8840SOL     OW27418   0.116   1.856   3.229
 8840SOL    HW127419   0.126   1.780   3.292
 8840SOL    HW227420   0.200   1.911   3.229
 8841SOL     OW27421   0.822   0.909   4.594
 8841SOL    HW127422   0.743   0.931   4.650
 8841SOL    HW227423   0.855   0.818   4.617
 8842SOL     OW27424   3.373   2.877   2.393
 8842SOL    HW127425   3.405   2.915   2.306
 8842SOL    HW227426   3.276   2.856   2.387
 8843SOL     OW27427   2.315   3.490   6.080
 8843SOL    HW127428   2.330   3.401   6.036
 8843SOL    HW227429   2.385   3.555   6.049
 8844SOL     OW27430   0.519   1.346   5.786
 8844SOL    HW127431   0.481   1.256   5.806
 8844SOL    HW227432   0.593   1.338   5.719
 8845SOL     OW27433   3.446   3.719   1.227
 8845SOL    HW127434   3.391   3.729   1.310
 8845SOL    HW227435   3.414   3.640   1.175
 8846SOL     OW27436   3.450   5.027   4.073
 8846SOL    HW127437   3.372   4.969   4.094
 8846SOL    HW227438   3.496   4.994   3.991
 8847SOL     OW27439   2.484   1.448   2.955
 8847SOL    HW127440   2.387   1.465   2.973
 8847SOL    HW227441   2.497   1.351   2.933
 8848SOL     OW27442   2.620   2.001   2.447
 8848SOL    HW127443   2.535   2.037   2.485
 8848SOL    HW227444   2.682   1.975   2.521
 8849SOL     OW27445   2.903   6.267   3.185
 8849SOL    HW127446   2.978   6.219   3.140
 8849SOL    HW227447   2.847   6.313   3.116
 8850SOL     OW27448   1.530   2.079   6.717
 8850SOL    HW127449   1.511   1.990   6.677
 8850SOL    HW227450   1.471   2.148   6.675
 8851SOL     OW27451   1.355   5.916   2.095
 8851SOL    HW127452   1.410   5.942   2.015
 8851SOL    HW227453   1.331   5.819   2.087
 8852SOL     OW27454   5.081   3.543   5.734
 8852SOL    HW127455   5.059   3.562   5.829
 8852SOL    HW227456   5.059   3.622   5.677
 8853SOL     OW27457   3.162   1.239   0.286
 8853SOL    HW127458   3.193   1.285   0.203
 8853SOL    HW227459   3.176   1.299   0.365
 8854SOL     OW27460   3.196   1.206   5.837
 8854SOL    HW127461   3.107   1.162   5.827
 8854SOL    HW227462   3.231   1.191   5.930
 8855SOL     OW27463   0.272   6.099   1.264
 8855SOL    HW127464   0.302   6.022   1.321
 8855SOL    HW227465   0.269   6.182   1.320
 8856SOL     OW27466   0.257   6.429   6.738
 8856SOL    HW127467   0.314   6.370   6.796
 8856SOL    HW227468   0.204   6.373   6.676
 8857SOL     OW27469   6.787   1.726   3.993
 8857SOL    HW127470   6.694   1.722   3.958
 8857SOL    HW227471   6.806   1.817   4.028
 8858SOL     OW27472   0.737   2.512   5.471
 8858SOL    HW127473   0.644   2.493   5.438
 8858SOL    HW227474   0.759   2.451   5.547
 8859SOL     OW27475   0.074   0.693   3.739
 8859SOL    HW127476   7.016   0.695   3.679
 8859SOL    HW227477   0.143   0.758   3.706
 8860SOL     OW27478   0.080   2.980   3.118
 8860SOL    HW127479   0.078   3.067   3.069
 8860SOL    HW227480   0.020   2.915   3.071
 8861SOL     OW27481   4.427   1.662   5.786
 8861SOL    HW127482   4.428   1.562   5.787
 8861SOL    HW227483   4.485   1.697   5.860
 8862SOL     OW27484   5.440   0.845   4.193
 8862SOL    HW127485   5.498   0.868   4.271
 8862SOL    HW227486   5.456   0.750   4.166
 8863SOL     OW27487   1.531   4.959   4.077
 8863SOL    HW127488   1.554   4.863   4.093
 8863SOL    HW227489   1.484   4.968   3.990
 8864SOL     OW27490   3.437   4.967   6.676
 8864SOL    HW127491   3.342   4.940   6.689
 8864SOL    HW227492   3.473   4.924   6.593
 8865SOL     OW27493   3.167   0.527   6.076
 8865SOL    HW127494   3.259   0.566   6.066
 8865SOL    HW227495   3.114   0.583   6.140
 8866SOL     OW27496   5.485   6.770   2.942
 8866SOL    HW127497   5.508   6.677   2.911
 8866SOL    HW227498   5.438   6.818   2.868
 8867SOL     OW27499   6.011   3.542   2.617
 8867SOL    HW127500   5.977   3.559   2.525
 8867SOL    HW227501   6.104   3.579   2.626
 8868SOL     OW27502   6.683   2.606   0.972
 8868SOL    HW127503   6.645   2.682   0.921
 8868SOL    HW227504   6.610   2.559   1.022
 8869SOL     OW27505   4.171   6.040   4.521
 8869SOL    HW127506   4.092   6.094   4.493
 8869SOL    HW227507   4.150   5.943   4.513
 8870SOL     OW27508   3.555   0.239   0.523
 8870SOL    HW127509   3.567   0.206   0.430
 8870SOL    HW227510   3.462   0.218   0.554
 8871SOL     OW27511   2.046   1.164   3.697
 8871SOL    HW127512   1.980   1.173   3.771
 8871SOL    HW227513   2.116   1.097   3.722
 8872SOL     OW27514   1.729   4.109   5.211
 8872SOL    HW127515   1.653   4.052   5.241
 8872SOL    HW227516   1.782   4.139   5.291
 8873SOL     OW27517   0.880   6.661   1.649
 8873SOL    HW127518   0.950   6.728   1.672
 8873SOL    HW227519   0.899   6.622   1.558
 8874SOL     OW27520   1.795   5.996   2.515
 8874SOL    HW127521   1.718   6.059   2.507
 8874SOL    HW227522   1.807   5.947   2.429
 8875SOL     OW27523   0.054   3.635   5.258
 8875SOL    HW127524   0.034   3.721   5.304
 8875SOL    HW227525   6.991   3.599   5.218
 8876SOL     OW27526   2.265   6.546   4.693
 8876SOL    HW127527   2.179   6.500   4.715
 8876SOL    HW227528   2.331   6.528   4.765
 8877SOL     OW27529   3.380   1.439   3.967
 8877SOL    HW127530   3.303   1.494   4.000
 8877SOL    HW227531   3.455   1.500   3.941
 8878SOL     OW27532   6.813   4.558   0.223
 8878SOL    HW127533   6.732   4.615   0.236
 8878SOL    HW227534   6.883   4.609   0.172
 8879SOL     OW27535   4.800   4.635   2.813
 8879SOL    HW127536   4.721   4.621   2.873
 8879SOL    HW227537   4.862   4.557   2.821
 8880SOL     OW27538   5.237   5.976   5.131
 8880SOL    HW127539   5.282   5.952   5.045
 8880SOL    HW227540   5.284   5.931   5.207
 8881SOL     OW27541   6.224   6.710   3.655
 8881SOL    HW127542   6.172   6.671   3.731
 8881SOL    HW227543   6.321   6.713   3.679
 8882SOL     OW27544   5.542   0.915   1.185
 8882SOL    HW127545   5.602   0.933   1.263
 8882SOL    HW227546   5.498   0.826   1.198
 8883SOL     OW27547   1.321   6.263   6.377
 8883SOL    HW127548   1.252   6.324   6.337
 8883SOL    HW227549   1.294   6.168   6.362
 8884SOL     OW27550   6.646   4.087   6.142
 8884SOL    HW127551   6.610   4.007   6.096
 8884SOL    HW227552   6.607   4.094   6.234
 8885SOL     OW27553   6.686   3.597   1.376
 8885SOL    HW127554   6.659   3.659   1.302
 8885SOL    HW227555   6.708   3.651   1.457
 8886SOL     OW27556   2.949   0.133   4.616
 8886SOL    HW127557   2.970   0.230   4.608
 8886SOL    HW227558   2.941   0.093   4.524
 8887SOL     OW27559   3.763   1.078   0.682
 8887SOL    HW127560   3.777   0.982   0.706
 8887SOL    HW227561   3.849   1.116   0.647
 8888SOL     OW27562   1.982   1.828   6.099
 8888SOL    HW127563   2.054   1.776   6.143
 8888SOL    HW227564   1.941   1.774   6.026
 8889SOL     OW27565   6.534   0.313   6.133
 8889SOL    HW127566   6.486   0.305   6.046
 8889SOL    HW227567   6.566   0.407   6.145
 8890SOL     OW27568   6.471   5.694   3.686
 8890SOL    HW127569   6.493   5.689   3.784
 8890SOL    HW227570   6.426   5.609   3.658
 8891SOL     OW27571   4.683   3.498   6.742
 8891SOL    HW127572   4.707   3.571   6.679
 8891SOL    HW227573   4.618   3.436   6.699
 8892SOL     OW27574   3.160   5.452   3.207
 8892SOL    HW127575   3.257   5.452   3.233
 8892SOL    HW227576   3.151   5.418   3.114
 8893SOL     OW27577   0.576   6.250   3.198
 8893SOL    HW127578   0.585   6.257   3.098
 8893SOL    HW227579   0.610   6.160   3.227
 8894SOL     OW27580   3.826   2.616   6.268
 8894SOL    HW127581   3.787   2.528   6.294
 8894SOL    HW227582   3.864   2.610   6.176
 8895SOL     OW27583   6.464   2.524   2.352
 8895SOL    HW127584   6.558   2.518   2.316
 8895SOL    HW227585   6.410   2.585   2.294
 8896SOL     OW27586   2.653   3.077   5.447
 8896SOL    HW127587   2.656   3.084   5.347
 8896SOL    HW227588   2.559   3.092   5.479
 8897SOL     OW27589   2.083   2.674   3.350
 8897SOL    HW127590   2.096   2.588   3.400
 8897SOL    HW227591   2.019   2.659   3.275
 8898SOL     OW27592   5.303   2.784   2.411
 8898SOL    HW127593   5.308   2.684   2.407
 8898SOL    HW227594   5.304   2.813   2.506
 8899SOL     OW27595   1.597   5.556   1.194
 8899SOL    HW127596   1.565   5.649   1.215
 8899SOL    HW227597   1.668   5.530   1.259
 8900SOL     OW27598   5.766   3.074   3.092
 8900SOL    HW127599   5.773   3.120   3.004
 8900SOL    HW227600   5.818   3.125   3.161
 8901SOL     OW27601   2.112   0.642   4.894
 8901SOL    HW127602   2.189   0.680   4.841
 8901SOL    HW227603   2.041   0.711   4.903
 8902SOL     OW27604   2.047   0.413   0.822
 8902SOL    HW127605   2.127   0.473   0.809
 8902SOL    HW227606   1.973   0.466   0.863
 8903SOL     OW27607   0.577   1.612   5.061
 8903SOL    HW127608   0.634   1.695   5.061
 8903SOL    HW227609   0.566   1.579   5.155
 8904SOL     OW27610   5.999   6.940   3.989
 8904SOL    HW127611   5.984   6.974   3.897
 8904SOL    HW227612   5.951   6.999   4.054
 8905SOL     OW27613   1.393   3.903   4.171
 8905SOL    HW127614   1.459   3.929   4.101
 8905SOL    HW227615   1.441   3.881   4.256
 8906SOL     OW27616   0.670   6.137   6.890
 8906SOL    HW127617   0.647   6.107   6.798
 8906SOL    HW227618   0.752   6.090   6.922
 8907SOL     OW27619   2.535   2.330   5.001
 8907SOL    HW127620   2.437   2.347   4.996
 8907SOL    HW227621   2.555   2.271   5.079
 8908SOL     OW27622   1.293   5.030   6.820
 8908SOL    HW127623   1.225   5.039   6.893
 8908SOL    HW227624   1.263   4.961   6.754
 8909SOL     OW27625   2.669   0.720   6.141
 8909SOL    HW127626   2.679   0.802   6.085
 8909SOL    HW227627   2.577   0.719   6.182
 8910SOL     OW27628   6.938   2.561   5.999
 8910SOL    HW127629   6.862   2.621   6.023
 8910SOL    HW227630   6.928   2.474   6.047
 8911SOL     OW27631   4.266   2.240   4.945
 8911SOL    HW127632   4.337   2.276   4.885
 8911SOL    HW227633   4.219   2.316   4.991
 8912SOL     OW27634   3.381   3.687   6.828
 8912SOL    HW127635   3.311   3.758   6.833
 8912SOL    HW227636   3.338   3.597   6.836
 8913SOL     OW27637   4.942   5.010   5.910
 8913SOL    HW127638   5.009   4.958   5.855
 8913SOL    HW227639   4.881   5.060   5.849
 8914SOL     OW27640   4.464   0.175   4.829
 8914SOL    HW127641   4.563   0.167   4.846
 8914SOL    HW227642   4.418   0.206   4.912
 8915SOL     OW27643   0.598   3.140   3.931
 8915SOL    HW127644   0.618   3.090   4.015
 8915SOL    HW227645   0.499   3.150   3.920
 8916SOL     OW27646   6.701   3.298   0.723
 8916SOL    HW127647   6.740   3.321   0.812
 8916SOL    HW227648   6.773   3.289   0.655
 8917SOL     OW27649   6.649   3.395   0.185
 8917SOL    HW127650   6.566   3.343   0.205
 8917SOL    HW227651   6.693   3.423   0.270
 8918SOL     OW27652   6.509   4.008   1.095
 8918SOL    HW127653   6.463   4.095   1.111
 8918SOL    HW227654   6.456   3.954   1.029
 8919SOL     OW27655   3.721   4.120   0.890
 8919SOL    HW127656   3.648   4.110   0.957
 8919SOL    HW227657   3.698   4.067   0.808
 8920SOL     OW27658   0.387   0.604   6.650
 8920SOL    HW127659   0.342   0.625   6.737
 8920SOL    HW227660   0.328   0.545   6.595
 8921SOL     OW27661   2.298   2.455   2.404
 8921SOL    HW127662   2.285   2.502   2.317
 8921SOL    HW227663   2.353   2.512   2.465
 8922SOL     OW27664   4.251   4.553   1.344
 8922SOL    HW127665   4.159   4.523   1.370
 8922SOL    HW227666   4.246   4.648   1.311
 8923SOL     OW27667   1.805   2.804   6.328
 8923SOL    HW127668   1.716   2.804   6.283
 8923SOL    HW227669   1.877   2.799   6.260
 8924SOL     OW27670   3.367   5.291   5.444
 8924SOL    HW127671   3.292   5.327   5.388
 8924SOL    HW227672   3.373   5.192   5.432
 8925SOL     OW27673   0.893   1.818   2.816
 8925SOL    HW127674   0.940   1.748   2.763
 8925SOL    HW227675   0.852   1.885   2.755
 8926SOL     OW27676   6.610   3.169   5.814
 8926SOL    HW127677   6.563   3.086   5.785
 8926SOL    HW227678   6.670   3.148   5.891
 8927SOL     OW27679   0.014   1.023   4.780
 8927SOL    HW127680   0.112   1.037   4.763
 8927SOL    HW227681   6.988   1.016   4.693
 8928SOL     OW27682   0.464   7.008   6.430
 8928SOL    HW127683   0.503   6.916   6.422
 8928SOL    HW227684   0.366   7.000   6.449
 8929SOL     OW27685   5.971   2.325   4.254
 8929SOL    HW127686   6.042   2.355   4.318
 8929SOL    HW227687   6.002   2.242   4.207
 8930SOL     OW27688   1.654   3.588   4.087
 8930SOL    HW127689   1.722   3.626   4.025
 8930SOL    HW227690   1.566   3.581   4.040
 8931SOL     OW27691   2.186   3.023   0.693
 8931SOL    HW127692   2.180   3.120   0.667
 8931SOL    HW227693   2.131   3.008   0.775
 8932SOL     OW27694   6.569   1.320   1.094
 8932SOL    HW127695   6.619   1.398   1.130
 8932SOL    HW227696   6.477   1.348   1.068
 8933SOL     OW27697   2.063   3.147   6.121
 8933SOL    HW127698   2.133   3.086   6.158
 8933SOL    HW227699   2.027   3.206   6.193
 8934SOL     OW27700   3.458   4.950   4.817
 8934SOL    HW127701   3.491   4.856   4.814
 8934SOL    HW227702   3.522   5.010   4.770
 8935SOL     OW27703   6.580   4.249   0.487
 8935SOL    HW127704   6.557   4.249   0.585
 8935SOL    HW227705   6.665   4.299   0.474
 8936SOL     OW27706   1.428   3.155   3.005
 8936SOL    HW127707   1.346   3.211   3.013
 8936SOL    HW227708   1.440   3.102   3.089
 8937SOL     OW27709   6.776   6.953   4.273
 8937SOL    HW127710   6.715   6.904   4.335
 8937SOL    HW227711   6.746   0.026   4.264
 8938SOL     OW27712   0.328   0.567   0.617
 8938SOL    HW127713   0.382   0.485   0.637
 8938SOL    HW227714   0.348   0.638   0.684
 8939SOL     OW27715   6.085   4.784   4.297
 8939SOL    HW127716   6.119   4.691   4.309
 8939SOL    HW227717   6.008   4.799   4.360
 8940SOL     OW27718   6.138   1.446   1.962
 8940SOL    HW127719   6.160   1.375   2.029
 8940SOL    HW227720   6.121   1.533   2.010
 8941SOL     OW27721   5.821   2.454   4.870
 8941SOL    HW127722   5.841   2.492   4.779
 8941SOL    HW227723   5.858   2.361   4.875
 8942SOL     OW27724   6.549   5.283   5.936
 8942SOL    HW127725   6.557   5.317   6.030
 8942SOL    HW227726   6.604   5.342   5.876
 8943SOL     OW27727   4.000   5.428   0.734
 8943SOL    HW127728   3.914   5.477   0.720
 8943SOL    HW227729   4.072   5.471   0.679
 8944SOL     OW27730   5.392   5.470   5.006
 8944SOL    HW127731   5.328   5.520   4.947
 8944SOL    HW227732   5.438   5.399   4.952
 8945SOL     OW27733   1.029   0.997   3.881
 8945SOL    HW127734   0.989   0.917   3.837
 8945SOL    HW227735   1.129   0.989   3.879
 8946SOL     OW27736   2.629   1.547   4.003
 8946SOL    HW127737   2.723   1.518   4.022
 8946SOL    HW227738   2.606   1.624   4.062
 8947SOL     OW27739   2.482   3.653   5.935
 8947SOL    HW127740   2.485   3.584   5.863
 8947SOL    HW227741   2.488   3.744   5.895
 8948SOL     OW27742   6.361   6.174   4.045
 8948SOL    HW127743   6.368   6.267   4.008
 8948SOL    HW227744   6.272   6.135   4.021
 8949SOL     OW27745   3.773   6.007   0.580
 8949SOL    HW127746   3.724   6.025   0.495
 8949SOL    HW227747   3.827   6.088   0.605
 8950SOL     OW27748   4.556   4.972   6.710
 8950SOL    HW127749   4.575   5.070   6.723
 8950SOL    HW227750   4.620   4.918   6.764
 8951SOL     OW27751   2.290   0.859   4.463
 8951SOL    HW127752   2.342   0.842   4.379
 8951SOL    HW227753   2.293   0.956   4.485
 8952SOL     OW27754   0.547   5.390   2.745
 8952SOL    HW127755   0.557   5.466   2.809
 8952SOL    HW227756   0.487   5.417   2.670
 8953SOL     OW27757   0.941   4.079   0.720
 8953SOL    HW127758   0.845   4.106   0.708
 8953SOL    HW227759   1.000   4.153   0.688
 8954SOL     OW27760   6.554   6.597   4.367
 8954SOL    HW127761   6.522   6.570   4.276
 8954SOL    HW227762   6.513   6.537   4.436
 8955SOL     OW27763   6.778   5.704   2.923
 8955SOL    HW127764   6.853   5.647   2.955
 8955SOL    HW227765   6.761   5.687   2.826
 8956SOL     OW27766   1.744   1.586   6.521
 8956SOL    HW127767   1.708   1.537   6.442
 8956SOL    HW227768   1.692   1.559   6.602
 8957SOL     OW27769   1.753   4.722   1.577
 8957SOL    HW127770   1.755   4.814   1.538
 8957SOL    HW227771   1.824   4.666   1.536
 8958SOL     OW27772   0.215   1.995   4.792
 8958SOL    HW127773   0.243   2.077   4.743
 8958SOL    HW227774   0.295   1.953   4.836
 8959SOL     OW27775   1.479   4.281   2.280
 8959SOL    HW127776   1.462   4.255   2.185
 8959SOL    HW227777   1.461   4.203   2.340
 8960SOL     OW27778   4.249   5.590   3.468
 8960SOL    HW127779   4.200   5.512   3.428
 8960SOL    HW227780   4.192   5.632   3.539
 8961SOL     OW27781   3.008   0.864   3.525
 8961SOL    HW127782   3.098   0.900   3.505
 8961SOL    HW227783   2.940   0.938   3.521
 8962SOL     OW27784   6.407   5.967   2.747
 8962SOL    HW127785   6.504   5.986   2.729
 8962SOL    HW227786   6.392   5.868   2.746
 8963SOL     OW27787   3.954   0.102   4.906
 8963SOL    HW127788   3.991   0.032   4.844
 8963SOL    HW227789   4.003   0.098   4.993
 8964SOL     OW27790   5.185   3.078   2.753
 8964SOL    HW127791   5.189   3.037   2.844
 8964SOL    HW227792   5.259   3.144   2.743
 8965SOL     OW27793   2.367   5.609   0.584
 8965SOL    HW127794   2.348   5.668   0.663
 8965SOL    HW227795   2.347   5.659   0.500
 8966SOL     OW27796   6.490   4.444   0.306
 8966SOL    HW127797   6.432   4.386   0.249
 8966SOL    HW227798   6.541   4.387   0.371
 8967SOL     OW27799   4.032   0.652   1.528
 8967SOL    HW127800   4.063   0.568   1.484
 8967SOL    HW227801   4.080   0.730   1.488
 8968SOL     OW27802   4.514   5.518   3.373
 8968SOL    HW127803   4.428   5.530   3.423
 8968SOL    HW227804   4.547   5.424   3.386
 8969SOL     OW27805   6.444   0.449   3.946
 8969SOL    HW127806   6.358   0.472   3.991
 8969SOL    HW227807   6.468   0.354   3.965
 8970SOL     OW27808   2.436   3.256   6.839
 8970SOL    HW127809   2.420   3.259   6.938
 8970SOL    HW227810   2.348   3.250   6.791
 8971SOL     OW27811   5.766   4.916   1.528
 8971SOL    HW127812   5.765   5.006   1.571
 8971SOL    HW227813   5.777   4.846   1.598
 8972SOL     OW27814   4.845   3.246   6.888
 8972SOL    HW127815   4.806   3.198   6.809
 8972SOL    HW227816   4.937   3.211   6.906
 8973SOL     OW27817   0.250   3.645   3.626
 8973SOL    HW127818   0.297   3.695   3.553
 8973SOL    HW227819   0.195   3.572   3.585
 8974SOL     OW27820   1.303   4.039   4.502
 8974SOL    HW127821   1.387   4.052   4.555
 8974SOL    HW227822   1.316   4.074   4.409
 8975SOL     OW27823   1.515   6.086   6.726
 8975SOL    HW127824   1.523   6.113   6.822
 8975SOL    HW227825   1.475   6.162   6.674
 8976SOL     OW27826   0.802   5.342   6.951
 8976SOL    HW127827   0.743   5.382   6.880
 8976SOL    HW227828   0.786   5.388   0.016
 8977SOL     OW27829   6.787   2.709   6.825
 8977SOL    HW127830   6.862   2.683   6.764
 8977SOL    HW227831   6.722   2.766   6.775
 8978SOL     OW27832   5.145   6.517   4.298
 8978SOL    HW127833   5.214   6.540   4.367
 8978SOL    HW227834   5.171   6.556   4.210
 8979SOL     OW27835   1.356   4.124   5.140
 8979SOL    HW127836   1.342   4.034   5.182
 8979SOL    HW227837   1.373   4.191   5.212
 8980SOL     OW27838   4.180   3.042   5.296
 8980SOL    HW127839   4.155   2.945   5.289
 8980SOL    HW227840   4.098   3.098   5.284
 8981SOL     OW27841   4.604   1.149   5.397
 8981SOL    HW127842   4.648   1.164   5.486
 8981SOL    HW227843   4.594   1.237   5.351
 8982SOL     OW27844   1.566   2.101   1.802
 8982SOL    HW127845   1.601   2.177   1.856
 8982SOL    HW227846   1.624   2.021   1.815
 8983SOL     OW27847   1.055   5.810   0.073
 8983SOL    HW127848   1.047   5.711   0.081
 8983SOL    HW227849   1.115   5.833   7.019
 8984SOL     OW27850   6.449   0.240   3.667
 8984SOL    HW127851   6.488   0.159   3.624
 8984SOL    HW227852   6.444   0.226   3.766
 8985SOL     OW27853   2.375   1.428   0.671
 8985SOL    HW127854   2.365   1.513   0.724
 8985SOL    HW227855   2.449   1.440   0.604
 8986SOL     OW27856   3.947   5.153   1.822
 8986SOL    HW127857   4.032   5.183   1.778
 8986SOL    HW227858   3.876   5.221   1.807
 8987SOL     OW27859   4.872   6.690   0.530
 8987SOL    HW127860   4.869   6.694   0.430
 8987SOL    HW227861   4.925   6.767   0.565
 8988SOL     OW27862   1.383   3.752   0.134
 8988SOL    HW127863   1.464   3.726   0.080
 8988SOL    HW227864   1.367   3.850   0.125
 8989SOL     OW27865   4.978   4.269   2.283
 8989SOL    HW127866   4.885   4.265   2.245
 8989SOL    HW227867   4.985   4.348   2.344
 8990SOL     OW27868   2.320   5.751   2.055
 8990SOL    HW127869   2.367   5.808   2.122
 8990SOL    HW227870   2.336   5.788   1.963
 8991SOL     OW27871   1.838   2.160   6.752
 8991SOL    HW127872   1.875   2.068   6.763
 8991SOL    HW227873   1.740   2.154   6.734
 8992SOL     OW27874   6.485   2.252   6.925
 8992SOL    HW127875   6.472   2.166   6.875
 8992SOL    HW227876   6.570   2.248   6.977
 8993SOL     OW27877   4.488   2.550   2.685
 8993SOL    HW127878   4.423   2.556   2.761
 8993SOL    HW227879   4.578   2.524   2.720
 8994SOL     OW27880   0.362   4.944   4.771
 8994SOL    HW127881   0.377   4.848   4.750
 8994SOL    HW227882   0.449   4.993   4.768
 8995SOL     OW27883   1.114   2.417   6.831
 8995SOL    HW127884   1.196   2.360   6.835
 8995SOL    HW227885   1.125   2.496   6.891
 8996SOL     OW27886   6.629   5.324   1.901
 8996SOL    HW127887   6.706   5.265   1.879
 8996SOL    HW227888   6.561   5.320   1.828
 8997SOL     OW27889   4.180   1.553   6.494
 8997SOL    HW127890   4.275   1.573   6.472
 8997SOL    HW227891   4.128   1.543   6.409
 8998SOL     OW27892   6.733   3.271   4.829
 8998SOL    HW127893   6.667   3.291   4.902
 8998SOL    HW227894   6.822   3.250   4.869
 8999SOL     OW27895   5.105   6.849   0.053
 8999SOL    HW127896   5.006   6.859   0.050
 8999SOL    HW227897   5.146   6.913   7.009
 9000SOL     OW27898   2.812   4.570   0.270
 9000SOL    HW127899   2.827   4.628   0.350
 9000SOL    HW227900   2.726   4.596   0.226
 9001SOL     OW27901   0.877   5.897   2.549
 9001SOL    HW127902   0.948   5.911   2.618
 9001SOL    HW227903   0.853   5.984   2.507
 9002SOL     OW27904   6.492   5.090   5.184
 9002SOL    HW127905   6.577   5.141   5.197
 9002SOL    HW227906   6.473   5.081   5.086
 9003SOL     OW27907   5.581   2.406   1.073
 9003SOL    HW127908   5.481   2.412   1.072
 9003SOL    HW227909   5.613   2.400   1.168
 9004SOL     OW27910   4.925   6.654   1.364
 9004SOL    HW127911   4.873   6.717   1.422
 9004SOL    HW227912   5.018   6.646   1.398
 9005SOL     OW27913   5.121   2.511   5.193
 9005SOL    HW127914   5.124   2.521   5.094
 9005SOL    HW227915   5.205   2.549   5.233
 9006SOL     OW27916   2.872   6.541   0.926
 9006SOL    HW127917   2.931   6.502   0.996
 9006SOL    HW227918   2.887   6.495   0.839
 9007SOL     OW27919   4.310   0.406   4.139
 9007SOL    HW127920   4.287   0.381   4.045
 9007SOL    HW227921   4.394   0.359   4.167
 9008SOL     OW27922   0.308   5.916   3.227
 9008SOL    HW127923   0.214   5.929   3.259
 9008SOL    HW227924   0.333   5.820   3.235
 9009SOL     OW27925   2.532   1.125   0.552
 9009SOL    HW127926   2.595   1.162   0.620
 9009SOL    HW227927   2.478   1.051   0.594
 9010SOL     OW27928   0.969   0.302   4.172
 9010SOL    HW127929   0.972   0.342   4.264
 9010SOL    HW227930   0.946   0.205   4.179
 9011SOL     OW27931   4.442   2.689   1.578
 9011SOL    HW127932   4.493   2.698   1.664
 9011SOL    HW227933   4.357   2.741   1.584
 9012SOL     OW27934   3.536   4.544   1.191
 9012SOL    HW127935   3.469   4.471   1.174
 9012SOL    HW227936   3.560   4.588   1.104
 9013SOL     OW27937   0.470   6.234   4.451
 9013SOL    HW127938   0.561   6.197   4.434
 9013SOL    HW227939   0.408   6.161   4.479
 9014SOL     OW27940   0.590   1.358   0.011
 9014SOL    HW127941   0.568   1.331   0.104
 9014SOL    HW227942   0.677   1.407   0.010
 9015SOL     OW27943   6.070   2.011   1.140
 9015SOL    HW127944   6.085   1.912   1.131
 9015SOL    HW227945   6.073   2.054   1.050
 9016SOL     OW27946   0.970   6.026   6.370
 9016SOL    HW127947   0.959   6.076   6.456
 9016SOL    HW227948   0.897   6.051   6.306
 9017SOL     OW27949   4.474   2.506   1.975
 9017SOL    HW127950   4.420   2.590   1.970
 9017SOL    HW227951   4.493   2.474   1.883
 9018SOL     OW27952   4.376   1.273   6.175
 9018SOL    HW127953   4.472   1.299   6.170
 9018SOL    HW227954   4.366   1.177   6.151
 9019SOL     OW27955   0.586   0.681   1.498
 9019SOL    HW127956   0.498   0.720   1.526
 9019SOL    HW227957   0.652   0.755   1.485
 9020SOL     OW27958   1.403   3.360   1.621
 9020SOL    HW127959   1.395   3.458   1.602
 9020SOL    HW227960   1.312   3.321   1.636
 9021SOL     OW27961   6.920   0.312   3.887
 9021SOL    HW127962   6.853   0.360   3.830
 9021SOL    HW227963   7.008   0.310   3.840
 9022SOL     OW27964   2.681   1.805   0.547
 9022SOL    HW127965   2.660   1.820   0.644
 9022SOL    HW227966   2.777   1.828   0.531
 9023SOL     OW27967   3.396   3.591   2.096
 9023SOL    HW127968   3.491   3.567   2.114
 9023SOL    HW227969   3.336   3.531   2.148
 9024SOL     OW27970   0.486   5.129   4.368
 9024SOL    HW127971   0.426   5.068   4.421
 9024SOL    HW227972   0.575   5.085   4.356
 9025SOL     OW27973   0.731   5.346   0.226
 9025SOL    HW127974   0.706   5.249   0.216
 9025SOL    HW227975   0.651   5.403   0.211
 9026SOL     OW27976   4.223   3.235   1.927
 9026SOL    HW127977   4.298   3.205   1.987
 9026SOL    HW227978   4.255   3.309   1.868
 9027SOL     OW27979   1.157   1.838   4.567
 9027SOL    HW127980   1.214   1.826   4.486
 9027SOL    HW227981   1.167   1.932   4.601
 9028SOL     OW27982   2.492   3.889   5.775
 9028SOL    HW127983   2.410   3.936   5.742
 9028SOL    HW227984   2.572   3.945   5.755
 9029SOL     OW27985   2.998   5.600   4.465
 9029SOL    HW127986   2.926   5.642   4.520
 9029SOL    HW227987   3.038   5.523   4.515
 9030SOL     OW27988   2.160   2.193   3.748
 9030SOL    HW127989   2.077   2.140   3.761
 9030SOL    HW227990   2.239   2.131   3.747
 9031SOL     OW27991   4.387   6.105   4.644
 9031SOL    HW127992   4.451   6.161   4.591
 9031SOL    HW227993   4.314   6.073   4.584
 9032SOL     OW27994   3.344   3.525   1.078
 9032SOL    HW127995   3.365   3.429   1.057
 9032SOL    HW227996   3.259   3.551   1.032
 9033SOL     OW27997   1.745   5.344   3.741
 9033SOL    HW127998   1.802   5.279   3.791
 9033SOL    HW227999   1.673   5.378   3.801
 9034SOL     OW28000   2.901   0.031   5.242
 9034SOL    HW128001   2.911   6.957   5.269
 9034SOL    HW228002   2.860   0.083   5.317
 9035SOL     OW28003   1.726   4.458   5.944
 9035SOL    HW128004   1.677   4.495   5.865
 9035SOL    HW228005   1.726   4.358   5.940
 9036SOL     OW28006   2.269   0.673   5.610
 9036SOL    HW128007   2.332   0.747   5.635
 9036SOL    HW228008   2.177   0.710   5.598
 9037SOL     OW28009   1.525   3.941   5.776
 9037SOL    HW128010   1.432   3.920   5.805
 9037SOL    HW228011   1.589   3.909   5.846
 9038SOL     OW28012   4.865   6.277   6.132
 9038SOL    HW128013   4.926   6.329   6.072
 9038SOL    HW228014   4.833   6.335   6.206
 9039SOL     OW28015   2.813   4.821   4.508
 9039SOL    HW128016   2.745   4.891   4.530
 9039SOL    HW228017   2.767   4.738   4.478
 9040SOL     OW28018   2.933   2.217   2.695
 9040SOL    HW128019   2.836   2.236   2.678
 9040SOL    HW228020   2.953   2.233   2.791
 9041SOL     OW28021   1.657   2.304   1.933
 9041SOL    HW128022   1.727   2.374   1.935
 9041SOL    HW228023   1.567   2.347   1.925
 9042SOL     OW28024   2.563   0.150   3.749
 9042SOL    HW128025   2.595   0.216   3.682
 9042SOL    HW228026   2.555   0.193   3.839
 9043SOL     OW28027   2.549   1.867   6.826
 9043SOL    HW128028   2.545   1.943   6.891
 9043SOL    HW228029   2.457   1.846   6.793
 9044SOL     OW28030   5.731   1.323   2.216
 9044SOL    HW128031   5.778   1.242   2.180
 9044SOL    HW228032   5.729   1.394   2.146
 9045SOL     OW28033   2.889   1.212   2.465
 9045SOL    HW128034   2.948   1.132   2.466
 9045SOL    HW228035   2.819   1.201   2.394
 9046SOL     OW28036   3.485   4.037   4.393
 9046SOL    HW128037   3.425   4.068   4.319
 9046SOL    HW228038   3.453   4.075   4.480
 9047SOL     OW28039   1.273   3.260   6.030
 9047SOL    HW128040   1.299   3.339   6.086
 9047SOL    HW228041   1.200   3.286   5.967
 9048SOL     OW28042   6.368   1.629   5.963
 9048SOL    HW128043   6.318   1.657   5.881
 9048SOL    HW228044   6.309   1.574   6.022
 9049SOL     OW28045   3.717   0.157   6.650
 9049SOL    HW128046   3.801   0.128   6.604
 9049SOL    HW228047   3.726   0.253   6.678
 9050SOL     OW28048   6.931   3.612   6.645
 9050SOL    HW128049   6.929   3.712   6.646
 9050SOL    HW228050   6.877   3.576   6.721
 9051SOL     OW28051   4.685   6.552   0.910
 9051SOL    HW128052   4.615   6.573   0.841
 9051SOL    HW228053   4.775   6.550   0.867
 9052SOL     OW28054   1.586   2.341   3.770
 9052SOL    HW128055   1.670   2.395   3.769
 9052SOL    HW228056   1.603   2.251   3.729
 9053SOL     OW28057   1.579   1.866   3.093
 9053SOL    HW128058   1.656   1.887   3.154
 9053SOL    HW228059   1.501   1.922   3.117
 9054SOL     OW28060   1.888   7.010   1.941
 9054SOL    HW128061   1.918   6.987   1.848
 9054SOL    HW228062   1.799   0.033   1.937
 9055SOL     OW28063   5.899   3.121   3.734
 9055SOL    HW128064   5.936   3.160   3.818
 9055SOL    HW228065   5.880   3.024   3.747
 9056SOL     OW28066   0.174   1.258   1.684
 9056SOL    HW128067   0.214   1.181   1.734
 9056SOL    HW228068   0.075   1.258   1.696
 9057SOL     OW28069   5.558   4.697   5.866
 9057SOL    HW128070   5.623   4.754   5.915
 9057SOL    HW228071   5.593   4.603   5.861
 9058SOL     OW28072   2.121   1.785   3.044
 9058SOL    HW128073   2.172   1.869   3.027
 9058SOL    HW228074   2.025   1.799   3.020
 9059SOL     OW28075   1.063   1.551   5.315
 9059SOL    HW128076   1.146   1.498   5.296
 9059SOL    HW228077   1.078   1.608   5.395
 9060SOL     OW28078   6.296   2.773   2.530
 9060SOL    HW128079   6.262   2.698   2.473
 9060SOL    HW228080   6.220   2.833   2.555
 9061SOL     OW28081   2.788   5.497   2.071
 9061SOL    HW128082   2.824   5.578   2.025
 9061SOL    HW228083   2.723   5.524   2.142
 9062SOL     OW28084   1.876   6.120   1.913
 9062SOL    HW128085   1.966   6.096   1.949
 9062SOL    HW228086   1.871   6.219   1.900
 9063SOL     OW28087   2.459   0.123   2.661
 9063SOL    HW128088   2.404   0.137   2.744
 9063SOL    HW228089   2.409   0.157   2.582
 9064SOL     OW28090   6.194   2.395   5.812
 9064SOL    HW128091   6.254   2.428   5.885
 9064SOL    HW228092   6.233   2.314   5.770
 9065SOL     OW28093   3.236   6.370   6.228
 9065SOL    HW128094   3.331   6.386   6.203
 9065SOL    HW228095   3.212   6.428   6.306
 9066SOL     OW28096   5.821   6.331   0.217
 9066SOL    HW128097   5.764   6.323   0.135
 9066SOL    HW228098   5.814   6.246   0.270
 9067SOL     OW28099   6.085   0.666   4.717
 9067SOL    HW128100   6.135   0.633   4.637
 9067SOL    HW228101   6.045   0.588   4.766
 9068SOL     OW28102   2.875   6.623   5.453
 9068SOL    HW128103   2.825   6.708   5.439
 9068SOL    HW228104   2.822   6.562   5.513
 9069SOL     OW28105   2.550   2.503   2.164
 9069SOL    HW128106   2.474   2.563   2.190
 9069SOL    HW228107   2.615   2.496   2.240
 9070SOL     OW28108   1.432   3.610   5.737
 9070SOL    HW128109   1.371   3.687   5.758
 9070SOL    HW228110   1.495   3.597   5.813
 9071SOL     OW28111   5.729   0.441   0.754
 9071SOL    HW128112   5.731   0.539   0.777
 9071SOL    HW228113   5.655   0.424   0.689
 9072SOL     OW28114   6.662   1.052   1.818
 9072SOL    HW128115   6.732   1.101   1.766
 9072SOL    HW228116   6.657   1.087   1.911
 9073SOL     OW28117   3.009   6.687   0.573
 9073SOL    HW128118   3.070   6.613   0.602
 9073SOL    HW228119   2.929   6.648   0.527
 9074SOL     OW28120   2.032   1.897   1.396
 9074SOL    HW128121   2.048   1.995   1.383
 9074SOL    HW228122   1.940   1.883   1.434
 9075SOL     OW28123   1.092   1.375   2.776
 9075SOL    HW128124   1.154   1.297   2.762
 9075SOL    HW228125   0.998   1.343   2.776
 9076SOL     OW28126   5.708   1.845   5.087
 9076SOL    HW128127   5.639   1.917   5.073
 9076SOL    HW228128   5.752   1.858   5.176
 9077SOL     OW28129   5.662   6.883   6.688
 9077SOL    HW128130   5.666   6.957   6.620
 9077SOL    HW228131   5.607   6.912   6.766
 9078SOL     OW28132   4.375   3.811   6.395
 9078SOL    HW128133   4.292   3.818   6.450
 9078SOL    HW228134   4.390   3.715   6.369
 9079SOL     OW28135   2.840   6.840   4.008
 9079SOL    HW128136   2.761   6.870   3.954
 9079SOL    HW228137   2.845   6.740   4.008
 9080SOL     OW28138   5.112   2.410   7.011
 9080SOL    HW128139   5.044   2.460   6.957
 9080SOL    HW228140   5.143   2.467   0.065
 9081SOL     OW28141   4.032   5.714   2.820
 9081SOL    HW128142   4.043   5.808   2.852
 9081SOL    HW228143   4.108   5.658   2.854
 9082SOL     OW28144   2.454   6.639   5.176
 9082SOL    HW128145   2.392   6.617   5.101
 9082SOL    HW228146   2.505   6.723   5.153
 9083SOL     OW28147   2.887   5.353   5.832
 9083SOL    HW128148   2.808   5.389   5.882
 9083SOL    HW228149   2.956   5.323   5.897
 9084SOL     OW28150   3.045   3.552   5.573
 9084SOL    HW128151   3.107   3.622   5.535
 9084SOL    HW228152   3.016   3.491   5.499
 9085SOL     OW28153   2.210   4.656   1.415
 9085SOL    HW128154   2.280   4.585   1.419
 9085SOL    HW228155   2.233   4.721   1.342
 9086SOL     OW28156   0.824   4.645   0.575
 9086SOL    HW128157   0.883   4.576   0.532
 9086SOL    HW228158   0.867   4.735   0.565
 9087SOL     OW28159   4.661   2.627   2.173
 9087SOL    HW128160   4.665   2.567   2.252
 9087SOL    HW228161   4.600   2.587   2.104
 9088SOL     OW28162   5.439   6.016   0.411
 9088SOL    HW128163   5.476   6.107   0.430
 9088SOL    HW228164   5.339   6.020   0.411
 9089SOL     OW28165   5.026   6.049   5.981
 9089SOL    HW128166   5.012   6.127   6.042
 9089SOL    HW228167   4.966   5.974   6.009
 9090SOL     OW28168   0.248   0.354   3.085
 9090SOL    HW128169   0.307   0.287   3.040
 9090SOL    HW228170   0.303   0.432   3.114
 9091SOL     OW28171   3.074   4.689   0.829
 9091SOL    HW128172   2.981   4.662   0.855
 9091SOL    HW228173   3.096   4.652   0.739
 9092SOL     OW28174   0.907   1.194   0.892
 9092SOL    HW128175   0.847   1.268   0.922
 9092SOL    HW228176   0.996   1.232   0.866
 9093SOL     OW28177   1.175   6.689   6.097
 9093SOL    HW128178   1.160   6.788   6.097
 9093SOL    HW228179   1.231   6.663   6.018
 9094SOL     OW28180   6.326   5.121   2.858
 9094SOL    HW128181   6.246   5.092   2.910
 9094SOL    HW228182   6.298   5.182   2.784
 9095SOL     OW28183   4.964   4.159   5.680
 9095SOL    HW128184   4.894   4.226   5.701
 9095SOL    HW228185   4.941   4.112   5.595
 9096SOL     OW28186   5.573   4.101   2.114
 9096SOL    HW128187   5.642   4.029   2.123
 9096SOL    HW228188   5.615   4.184   2.076
 9097SOL     OW28189   1.240   1.794   0.706
 9097SOL    HW128190   1.262   1.811   0.610
 9097SOL    HW228191   1.308   1.731   0.744
 9098SOL     OW28192   3.954   1.262   5.616
 9098SOL    HW128193   3.868   1.213   5.604
 9098SOL    HW228194   3.977   1.267   5.713
 9099SOL     OW28195   3.145   2.315   5.620
 9099SOL    HW128196   3.073   2.260   5.662
 9099SOL    HW228197   3.187   2.373   5.690
 9100SOL     OW28198   6.903   4.058   4.118
 9100SOL    HW128199   6.940   4.113   4.192
 9100SOL    HW228200   6.964   3.980   4.101
 9101SOL     OW28201   2.081   2.412   3.005
 9101SOL    HW128202   2.130   2.409   2.918
 9101SOL    HW228203   1.984   2.393   2.990
 9102SOL     OW28204   2.596   0.243   1.830
 9102SOL    HW128205   2.630   0.228   1.738
 9102SOL    HW228206   2.549   0.331   1.835
 9103SOL     OW28207   6.344   3.037   6.780
 9103SOL    HW128208   6.277   3.064   6.711
 9103SOL    HW228209   6.308   3.058   6.871
 9104SOL     OW28210   0.426   6.585   2.469
 9104SOL    HW128211   0.449   6.677   2.435
 9104SOL    HW228212   0.337   6.588   2.514
 9105SOL     OW28213   0.966   1.446   6.572
 9105SOL    HW128214   0.939   1.542   6.574
 9105SOL    HW228215   0.970   1.410   6.666
 9106SOL     OW28216   0.200   2.819   1.119
 9106SOL    HW128217   0.257   2.816   1.201
 9106SOL    HW228218   0.105   2.836   1.144
 9107SOL     OW28219   3.643   0.681   6.217
 9107SOL    HW128220   3.661   0.730   6.303
 9107SOL    HW228221   3.636   0.747   6.142
 9108SOL     OW28222   5.128   4.336   5.805
 9108SOL    HW128223   5.216   4.346   5.758
 9108SOL    HW228224   5.074   4.265   5.759
 9109SOL     OW28225   6.463   2.737   3.679
 9109SOL    HW128226   6.366   2.736   3.657
 9109SOL    HW228227   6.498   2.830   3.673
 9110SOL     OW28228   1.653   4.706   4.242
 9110SOL    HW128229   1.589   4.679   4.313
 9110SOL    HW228230   1.746   4.687   4.271
 9111SOL     OW28231   5.254   1.636   0.676
 9111SOL    HW128232   5.261   1.725   0.632
 9111SOL    HW228233   5.325   1.575   0.642
 9112SOL     OW28234   1.056   5.749   2.359
 9112SOL    HW128235   1.000   5.796   2.427
 9112SOL    HW228236   1.153   5.759   2.383
 9113SOL     OW28237   4.793   2.183   3.328
 9113SOL    HW128238   4.825   2.177   3.422
 9113SOL    HW228239   4.865   2.152   3.266
 9114SOL     OW28240   0.915   4.919   2.619
 9114SOL    HW128241   0.994   4.972   2.652
 9114SOL    HW228242   0.886   4.856   2.691
 9115SOL     OW28243   6.753   5.697   4.370
 9115SOL    HW128244   6.822   5.669   4.302
 9115SOL    HW228245   6.757   5.796   4.383
 9116SOL     OW28246   6.942   0.694   2.394
 9116SOL    HW128247   6.958   0.652   2.304
 9116SOL    HW228248   6.962   0.627   2.466
 9117SOL     OW28249   4.680   2.459   0.149
 9117SOL    HW128250   4.684   2.380   0.087
 9117SOL    HW228251   4.591   2.460   0.195
 9118SOL     OW28252   0.173   3.015   0.692
 9118SOL    HW128253   0.168   3.115   0.695
 9118SOL    HW228254   0.216   2.982   0.776
 9119SOL     OW28255   4.004   0.576   2.568
 9119SOL    HW128256   3.998   0.650   2.634
 9119SOL    HW228257   4.080   0.592   2.506
 9120SOL     OW28258   6.363   1.191   5.924
 9120SOL    HW128259   6.355   1.161   6.019
 9120SOL    HW228260   6.424   1.269   5.918
 9121SOL     OW28261   4.045   0.312   5.544
 9121SOL    HW128262   4.129   0.267   5.512
 9121SOL    HW228263   3.995   0.249   5.605
 9122SOL     OW28264   2.522   4.604   2.220
 9122SOL    HW128265   2.598   4.567   2.167
 9122SOL    HW228266   2.557   4.643   2.305
 9123SOL     OW28267   2.426   0.817   4.239
 9123SOL    HW128268   2.446   0.720   4.236
 9123SOL    HW228269   2.458   0.861   4.155
 9124SOL     OW28270   4.779   5.330   0.436
 9124SOL    HW128271   4.797   5.232   0.433
 9124SOL    HW228272   4.856   5.380   0.398
 9125SOL     OW28273   4.142   4.126   0.688
 9125SOL    HW128274   4.193   4.066   0.627
 9125SOL    HW228275   4.140   4.218   0.650
 9126SOL     OW28276   5.926   3.195   1.113
 9126SOL    HW128277   5.967   3.270   1.061
 9126SOL    HW228278   5.932   3.214   1.211
 9127SOL     OW28279   6.327   1.341   6.356
 9127SOL    HW128280   6.390   1.308   6.426
 9127SOL    HW228281   6.233   1.318   6.382
 9128SOL     OW28282   5.815   2.224   5.395
 9128SOL    HW128283   5.738   2.216   5.458
 9128SOL    HW228284   5.838   2.320   5.381
 9129SOL     OW28285   0.414   2.872   6.990
 9129SOL    HW128286   0.457   2.794   6.944
 9129SOL    HW228287   0.345   2.839   0.032
 9130SOL     OW28288   0.997   3.367   6.163
 9130SOL    HW128289   0.904   3.360   6.126
 9130SOL    HW228290   1.064   3.361   6.089
 9131SOL     OW28291   5.146   2.290   6.196
 9131SOL    HW128292   5.145   2.365   6.130
 9131SOL    HW228293   5.226   2.232   6.180
 9132SOL     OW28294   0.502   5.727   4.119
 9132SOL    HW128295   0.466   5.813   4.084
 9132SOL    HW228296   0.437   5.686   4.183
 9133SOL     OW28297   3.889   6.524   1.474
 9133SOL    HW128298   3.835   6.441   1.493
 9133SOL    HW228299   3.829   6.603   1.477
 9134SOL     OW28300   3.598   5.740   1.912
 9134SOL    HW128301   3.662   5.817   1.910
 9134SOL    HW228302   3.616   5.684   1.993
 9135SOL     OW28303   0.111   0.718   1.528
 9135SOL    HW128304   0.076   0.635   1.572
 9135SOL    HW228305   0.055   0.796   1.554
 9136SOL     OW28306   4.930   5.881   6.840
 9136SOL    HW128307   5.020   5.862   6.800
 9136SOL    HW228308   4.935   5.868   6.940
 9137SOL     OW28309   4.715   1.078   0.065
 9137SOL    HW128310   4.637   1.131   0.101
 9137SOL    HW228311   4.788   1.076   0.133
 9138SOL     OW28312   0.232   5.221   6.709
 9138SOL    HW128313   0.136   5.251   6.714
 9138SOL    HW228314   0.254   5.193   6.616
 9139SOL     OW28315   1.889   2.104   2.692
 9139SOL    HW128316   1.983   2.078   2.672
 9139SOL    HW228317   1.843   2.028   2.738
 9140SOL     OW28318   6.873   3.893   2.607
 9140SOL    HW128319   6.893   3.990   2.594
 9140SOL    HW228320   6.774   3.879   2.606
 9141SOL     OW28321   5.919   6.830   1.494
 9141SOL    HW128322   5.949   6.849   1.588
 9141SOL    HW228323   5.869   6.744   1.492
 9142SOL     OW28324   0.822   3.462   1.907
 9142SOL    HW128325   0.919   3.480   1.924
 9142SOL    HW228326   0.806   3.453   1.809
 9143SOL     OW28327   6.342   2.326   0.132
 9143SOL    HW128328   6.365   2.269   0.211
 9143SOL    HW228329   6.375   2.282   0.048
 9144SOL     OW28330   2.589   5.298   4.528
 9144SOL    HW128331   2.545   5.370   4.474
 9144SOL    HW228332   2.592   5.326   4.624
 9145SOL     OW28333   0.215   5.647   6.853
 9145SOL    HW128334   0.242   5.735   6.893
 9145SOL    HW228335   0.265   5.634   6.767
 9146SOL     OW28336   5.231   3.233   3.776
 9146SOL    HW128337   5.292   3.163   3.737
 9146SOL    HW228338   5.148   3.190   3.811
 9147SOL     OW28339   5.914   6.646   5.188
 9147SOL    HW128340   5.922   6.633   5.089
 9147SOL    HW228341   5.933   6.559   5.234
 9148SOL     OW28342   5.271   5.913   2.491
 9148SOL    HW128343   5.182   5.890   2.530
 9148SOL    HW228344   5.273   5.890   2.394
 9149SOL     OW28345   5.118   3.226   2.200
 9149SOL    HW128346   5.140   3.319   2.172
 9149SOL    HW228347   5.200   3.181   2.235
 9150SOL     OW28348   2.817   5.028   0.963
 9150SOL    HW128349   2.863   4.949   0.922
 9150SOL    HW228350   2.835   5.109   0.908
 9151SOL     OW28351   1.831   4.442   3.797
 9151SOL    HW128352   1.742   4.451   3.842
 9151SOL    HW228353   1.867   4.350   3.812
 9152SOL     OW28354   2.190   4.070   4.510
 9152SOL    HW128355   2.091   4.080   4.503
 9152SOL    HW228356   2.229   4.060   4.418
 9153SOL     OW28357   0.439   2.526   0.364
 9153SOL    HW128358   0.502   2.449   0.369
 9153SOL    HW228359   0.490   2.609   0.343
 9154SOL     OW28360   5.854   4.419   5.250
 9154SOL    HW128361   5.824   4.362   5.327
 9154SOL    HW228362   5.925   4.482   5.281
 9155SOL     OW28363   1.821   4.280   2.847
 9155SOL    HW128364   1.879   4.361   2.840
 9155SOL    HW228365   1.739   4.303   2.899
 9156SOL     OW28366   6.837   1.864   0.610
 9156SOL    HW128367   6.910   1.806   0.646
 9156SOL    HW228368   6.810   1.930   0.680
 9157SOL     OW28369   2.698   4.277   0.225
 9157SOL    HW128370   2.784   4.226   0.229
 9157SOL    HW228371   2.716   4.372   0.200
 9158SOL     OW28372   6.559   4.163   4.846
 9158SOL    HW128373   6.640   4.140   4.792
 9158SOL    HW228374   6.488   4.198   4.785
 9159SOL     OW28375   1.734   0.554   3.225
 9159SOL    HW128376   1.681   0.632   3.192
 9159SOL    HW228377   1.674   0.493   3.278
 9160SOL     OW28378   0.814   6.209   6.213
 9160SOL    HW128379   0.786   6.283   6.273
 9160SOL    HW228380   0.746   6.195   6.141
 9161SOL     OW28381   5.616   5.024   3.348
 9161SOL    HW128382   5.629   5.116   3.311
 9161SOL    HW228383   5.703   4.989   3.382
 9162SOL     OW28384   4.201   0.576   2.916
 9162SOL    HW128385   4.130   0.518   2.877
 9162SOL    HW228386   4.286   0.566   2.864
 9163SOL     OW28387   0.040   3.479   4.000
 9163SOL    HW128388   0.050   3.379   3.992
 9163SOL    HW228389   0.068   3.522   3.915
 9164SOL     OW28390   2.242   0.833   6.699
 9164SOL    HW128391   2.253   0.775   6.779
 9164SOL    HW228392   2.175   0.905   6.718
 9165SOL     OW28393   5.364   1.606   5.836
 9165SOL    HW128394   5.271   1.614   5.871
 9165SOL    HW228395   5.389   1.509   5.829
 9166SOL     OW28396   4.432   5.353   0.624
 9166SOL    HW128397   4.506   5.307   0.674
 9166SOL    HW228398   4.432   5.321   0.529
 9167SOL     OW28399   2.094   1.960   5.738
 9167SOL    HW128400   2.010   1.956   5.684
 9167SOL    HW228401   2.075   2.009   5.824
 9168SOL     OW28402   0.080   6.015   6.748
 9168SOL    HW128403   0.013   6.070   6.697
 9168SOL    HW228404   0.062   5.918   6.733
 9169SOL     OW28405   0.025   6.524   6.548
 9169SOL    HW128406   7.014   6.550   6.457
 9169SOL    HW228407   0.062   6.431   6.545
 9170SOL     OW28408   1.950   0.215   6.105
 9170SOL    HW128409   1.971   0.248   6.013
 9170SOL    HW228410   1.866   0.160   6.103
 9171SOL     OW28411   3.616   6.075   0.865
 9171SOL    HW128412   3.556   6.151   0.891
 9171SOL    HW228413   3.642   6.084   0.769
 9172SOL     OW28414   4.698   0.884   3.896
 9172SOL    HW128415   4.796   0.901   3.906
 9172SOL    HW228416   4.650   0.918   3.976
 9173SOL     OW28417   6.334   3.897   5.402
 9173SOL    HW128418   6.301   3.935   5.316
 9173SOL    HW228419   6.304   3.955   5.478
 9174SOL     OW28420   0.592   5.725   0.976
 9174SOL    HW128421   0.565   5.653   0.913
 9174SOL    HW228422   0.555   5.813   0.945
 9175SOL     OW28423   1.123   6.872   6.362
 9175SOL    HW128424   1.103   6.939   6.291
 9175SOL    HW228425   1.163   6.919   6.441
 9176SOL     OW28426   3.153   0.526   2.393
 9176SOL    HW128427   3.111   0.449   2.442
 9176SOL    HW228428   3.082   0.580   2.348
 9177SOL     OW28429   1.092   3.116   4.136
 9177SOL    HW128430   1.048   3.180   4.199
 9177SOL    HW228431   1.173   3.077   4.180
 9178SOL     OW28432   1.977   5.203   6.770
 9178SOL    HW128433   2.009   5.298   6.762
 9178SOL    HW228434   1.924   5.192   6.854
 9179SOL     OW28435   1.593   5.140   4.809
 9179SOL    HW128436   1.571   5.061   4.868
 9179SOL    HW228437   1.594   5.223   4.864
 9180SOL     OW28438   5.833   2.464   3.396
 9180SOL    HW128439   5.741   2.425   3.399
 9180SOL    HW228440   5.880   2.434   3.314
 9181SOL     OW28441   5.252   2.323   3.843
 9181SOL    HW128442   5.163   2.321   3.888
 9181SOL    HW228443   5.297   2.411   3.862
 9182SOL     OW28444   3.085   0.024   3.140
 9182SOL    HW128445   3.163   6.984   3.142
 9182SOL    HW228446   3.112   0.114   3.175
 9183SOL     OW28447   4.723   4.902   6.913
 9183SOL    HW128448   4.781   4.856   6.980
 9183SOL    HW228449   4.662   4.966   6.959
 9184SOL     OW28450   4.338   2.276   1.192
 9184SOL    HW128451   4.251   2.229   1.210
 9184SOL    HW228452   4.400   2.213   1.146
 9185SOL     OW28453   6.904   6.655   4.715
 9185SOL    HW128454   6.868   6.743   4.746
 9185SOL    HW228455   6.958   6.668   4.632
 9186SOL     OW28456   5.279   0.662   5.093
 9186SOL    HW128457   5.312   0.751   5.123
 9186SOL    HW228458   5.240   0.670   5.001
 9187SOL     OW28459   4.013   1.860   6.865
 9187SOL    HW128460   3.921   1.859   6.825
 9187SOL    HW228461   4.032   1.771   6.905
 9188SOL     OW28462   1.874   0.833   1.298
 9188SOL    HW128463   1.941   0.888   1.349
 9188SOL    HW228464   1.781   0.863   1.322
 9189SOL     OW28465   3.488   6.245   2.570
 9189SOL    HW128466   3.404   6.299   2.567
 9189SOL    HW228467   3.566   6.307   2.580
 9190SOL     OW28468   0.771   3.717   5.369
 9190SOL    HW128469   0.702   3.780   5.334
 9190SOL    HW228470   0.728   3.653   5.432
 9191SOL     OW28471   5.713   1.234   6.582
 9191SOL    HW128472   5.618   1.267   6.578
 9191SOL    HW228473   5.726   1.162   6.514
 9192SOL     OW28474   6.643   2.447   6.553
 9192SOL    HW128475   6.544   2.440   6.552
 9192SOL    HW228476   6.683   2.360   6.583
 9193SOL     OW28477   4.153   3.663   4.597
 9193SOL    HW128478   4.081   3.708   4.544
 9193SOL    HW228479   4.215   3.733   4.634
 9194SOL     OW28480   2.986   6.729   2.285
 9194SOL    HW128481   2.992   6.659   2.214
 9194SOL    HW228482   2.934   6.807   2.251
 9195SOL     OW28483   1.889   3.512   2.953
 9195SOL    HW128484   1.887   3.490   2.855
 9195SOL    HW228485   1.816   3.464   3.000
 9196SOL     OW28486   5.420   6.751   3.472
 9196SOL    HW128487   5.430   6.683   3.399
 9196SOL    HW228488   5.443   6.842   3.437
 9197SOL     OW28489   2.889   5.285   0.807
 9197SOL    HW128490   2.813   5.350   0.805
 9197SOL    HW228491   2.949   5.301   0.729
 9198SOL     OW28492   6.560   4.203   6.865
 9198SOL    HW128493   6.601   4.185   6.954
 9198SOL    HW228494   6.506   4.287   6.869
 9199SOL     OW28495   0.706   3.004   6.068
 9199SOL    HW128496   0.653   2.929   6.106
 9199SOL    HW228497   0.798   3.004   6.107
 9200SOL     OW28498   2.134   6.146   5.664
 9200SOL    HW128499   2.093   6.218   5.720
 9200SOL    HW228500   2.202   6.097   5.718
 9201SOL     OW28501   0.824   2.847   1.032
 9201SOL    HW128502   0.784   2.796   1.109
 9201SOL    HW228503   0.826   2.788   0.951
 9202SOL     OW28504   0.661   6.064   3.813
 9202SOL    HW128505   0.668   5.965   3.820
 9202SOL    HW228506   0.748   6.102   3.782
 9203SOL     OW28507   5.686   3.082   5.957
 9203SOL    HW128508   5.614   3.149   5.940
 9203SOL    HW228509   5.645   2.998   5.993
 9204SOL     OW28510   4.916   3.570   4.138
 9204SOL    HW128511   4.897   3.580   4.236
 9204SOL    HW228512   4.931   3.473   4.117
 9205SOL     OW28513   4.560   5.782   3.189
 9205SOL    HW128514   4.555   5.687   3.222
 9205SOL    HW228515   4.607   5.784   3.101
 9206SOL     OW28516   3.321   6.515   3.713
 9206SOL    HW128517   3.336   6.465   3.798
 9206SOL    HW228518   3.395   6.493   3.649
 9207SOL     OW28519   3.678   5.190   0.322
 9207SOL    HW128520   3.762   5.141   0.300
 9207SOL    HW228521   3.677   5.278   0.274
 9208SOL     OW28522   5.309   4.016   2.092
 9208SOL    HW128523   5.394   4.040   2.139
 9208SOL    HW228524   5.251   4.097   2.084
 9209SOL     OW28525   4.495   0.267   1.294
 9209SOL    HW128526   4.506   0.168   1.288
 9209SOL    HW228527   4.556   0.311   1.227
 9210SOL     OW28528   0.541   0.397   1.416
 9210SOL    HW128529   0.640   0.392   1.426
 9210SOL    HW228530   0.515   0.490   1.393
 9211SOL     OW28531   5.712   3.244   6.850
 9211SOL    HW128532   5.751   3.309   6.785
 9211SOL    HW228533   5.761   3.252   6.937
 9212SOL     OW28534   5.034   4.199   4.552
 9212SOL    HW128535   4.964   4.134   4.523
 9212SOL    HW228536   4.993   4.290   4.561
 9213SOL     OW28537   4.758   6.047   4.528
 9213SOL    HW128538   4.855   6.065   4.547
 9213SOL    HW228539   4.749   6.011   4.435
 9214SOL     OW28540   6.926   2.771   5.135
 9214SOL    HW128541   7.009   2.796   5.185
 9214SOL    HW228542   6.944   2.770   5.037
 9215SOL     OW28543   1.452   5.102   2.422
 9215SOL    HW128544   1.508   5.026   2.389
 9215SOL    HW228545   1.512   5.175   2.454
 9216SOL     OW28546   2.479   6.520   3.697
 9216SOL    HW128547   2.573   6.518   3.664
 9216SOL    HW228548   2.421   6.466   3.636
 9217SOL     OW28549   6.054   2.484   0.390
 9217SOL    HW128550   6.065   2.390   0.359
 9217SOL    HW228551   6.015   2.484   0.483
 9218SOL     OW28552   4.267   0.363   6.920
 9218SOL    HW128553   4.233   0.381   7.012
 9218SOL    HW228554   4.201   0.394   6.852
 9219SOL     OW28555   4.102   3.796   5.919
 9219SOL    HW128556   4.048   3.769   5.840
 9219SOL    HW228557   4.198   3.775   5.904
 9220SOL     OW28558   1.606   6.561   2.277
 9220SOL    HW128559   1.653   6.530   2.360
 9220SOL    HW228560   1.585   6.658   2.285
 9221SOL     OW28561   2.678   0.191   4.171
 9221SOL    HW128562   2.758   0.146   4.132
 9221SOL    HW228563   2.682   0.289   4.153
 9222SOL     OW28564   2.602   5.614   4.571
 9222SOL    HW128565   2.577   5.551   4.645
 9222SOL    HW228566   2.520   5.664   4.542
 9223SOL     OW28567   0.942   2.844   4.079
 9223SOL    HW128568   0.854   2.829   4.035
 9223SOL    HW228569   0.977   2.935   4.056
 9224SOL     OW28570   1.340   4.634   3.186
 9224SOL    HW128571   1.407   4.707   3.175
 9224SOL    HW228572   1.253   4.672   3.215
 9225SOL     OW28573   3.443   5.804   5.787
 9225SOL    HW128574   3.493   5.878   5.742
 9225SOL    HW228575   3.504   5.755   5.850
 9226SOL     OW28576   0.474   6.851   1.285
 9226SOL    HW128577   0.492   6.909   1.206
 9226SOL    HW228578   0.525   6.884   1.364
 9227SOL     OW28579   1.687   6.164   1.452
 9227SOL    HW128580   1.774   6.182   1.498
 9227SOL    HW228581   1.680   6.222   1.371
 9228SOL     OW28582   2.152   2.296   0.367
 9228SOL    HW128583   2.057   2.324   0.354
 9228SOL    HW228584   2.159   2.238   0.448
 9229SOL     OW28585   1.436   4.806   5.691
 9229SOL    HW128586   1.506   4.875   5.676
 9229SOL    HW228587   1.367   4.840   5.755
 9230SOL     OW28588   5.102   3.298   2.925
 9230SOL    HW128589   5.039   3.306   2.848
 9230SOL    HW228590   5.154   3.213   2.918
 9231SOL     OW28591   1.403   3.088   5.336
 9231SOL    HW128592   1.420   3.049   5.245
 9231SOL    HW228593   1.477   3.151   5.359
 9232SOL     OW28594   2.737   5.198   0.475
 9232SOL    HW128595   2.695   5.108   0.462
 9232SOL    HW228596   2.667   5.265   0.496
 9233SOL     OW28597   0.164   6.606   0.535
 9233SOL    HW128598   0.254   6.645   0.555
 9233SOL    HW228599   0.170   6.549   0.453
 9234SOL     OW28600   2.503   5.930   0.846
 9234SOL    HW128601   2.583   5.921   0.905
 9234SOL    HW228602   2.527   5.904   0.753
 9235SOL     OW28603   1.929   3.119   3.122
 9235SOL    HW128604   1.891   3.044   3.176
 9235SOL    HW228605   1.860   3.190   3.110
 9236SOL     OW28606   1.893   3.690   0.140
 9236SOL    HW128607   1.803   3.675   0.099
 9236SOL    HW228608   1.964   3.660   0.076
 9237SOL     OW28609   0.402   5.662   3.423
 9237SOL    HW128610   0.434   5.635   3.332
 9237SOL    HW228611   0.444   5.749   3.449
 9238SOL     OW28612   2.903   2.764   6.053
 9238SOL    HW128613   2.831   2.778   5.984
 9238SOL    HW228614   2.881   2.683   6.108
 9239SOL     OW28615   0.116   4.252   6.681
 9239SOL    HW128616   0.038   4.188   6.682
 9239SOL    HW228617   0.195   4.207   6.640
 9240SOL     OW28618   4.927   2.867   1.850
 9240SOL    HW128619   4.868   2.921   1.910
 9240SOL    HW228620   4.964   2.926   1.778
 9241SOL     OW28621   0.290   5.433   0.930
 9241SOL    HW128622   0.368   5.466   0.877
 9241SOL    HW228623   0.238   5.511   0.966
 9242SOL     OW28624   1.419   3.919   1.717
 9242SOL    HW128625   1.339   3.901   1.773
 9242SOL    HW228626   1.459   3.832   1.686
 9243SOL     OW28627   6.773   0.707   1.633
 9243SOL    HW128628   6.713   0.725   1.555
 9243SOL    HW228629   6.770   0.609   1.654
 9244SOL     OW28630   2.790   5.665   6.064
 9244SOL    HW128631   2.756   5.690   6.154
 9244SOL    HW228632   2.758   5.573   6.040
 9245SOL     OW28633   0.809   4.945   3.519
 9245SOL    HW128634   0.716   4.978   3.504
 9245SOL    HW228635   0.870   5.022   3.538
 9246SOL     OW28636   5.874   0.190   2.925
 9246SOL    HW128637   5.965   0.153   2.905
 9246SOL    HW228638   5.806   0.117   2.916
 9247SOL     OW28639   2.632   6.192   2.795
 9247SOL    HW128640   2.572   6.114   2.813
 9247SOL    HW228641   2.642   6.204   2.696
 9248SOL     OW28642   2.701   2.097   4.379
 9248SOL    HW128643   2.721   2.186   4.420
 9248SOL    HW228644   2.736   2.095   4.286
 9249SOL     OW28645   4.426   4.967   1.295
 9249SOL    HW128646   4.441   4.994   1.390
 9249SOL    HW228647   4.490   5.015   1.236
 9250SOL     OW28648   6.218   2.867   4.617
 9250SOL    HW128649   6.301   2.917   4.643
 9250SOL    HW228650   6.195   2.802   4.690
 9251SOL     OW28651   3.950   1.649   2.529
 9251SOL    HW128652   3.983   1.676   2.439
 9251SOL    HW228653   3.949   1.729   2.590
 9252SOL     OW28654   5.004   0.428   4.667
 9252SOL    HW128655   4.959   0.341   4.686
 9252SOL    HW228656   4.959   0.472   4.589
 9253SOL     OW28657   5.400   4.750   5.602
 9253SOL    HW128658   5.428   4.709   5.689
 9253SOL    HW228659   5.357   4.838   5.619
 9254SOL     OW28660   4.468   4.478   3.314
 9254SOL    HW128661   4.489   4.423   3.233
 9254SOL    HW228662   4.372   4.507   3.311
 9255SOL     OW28663   4.925   4.080   0.425
 9255SOL    HW128664   4.944   4.108   0.331
 9255SOL    HW228665   4.844   4.130   0.459
 9256SOL     OW28666   2.647   0.905   2.356
 9256SOL    HW128667   2.587   0.830   2.331
 9256SOL    HW228668   2.727   0.869   2.405
 9257SOL     OW28669   5.952   5.191   3.296
 9257SOL    HW128670   6.052   5.186   3.294
 9257SOL    HW228671   5.915   5.115   3.349
 9258SOL     OW28672   4.140   3.069   1.729
 9258SOL    HW128673   4.087   2.990   1.757
 9258SOL    HW228674   4.173   3.117   1.810
 9259SOL     OW28675   1.425   1.617   0.827
 9259SOL    HW128676   1.397   1.542   0.766
 9259SOL    HW228677   1.377   1.608   0.914
 9260SOL     OW28678   6.194   1.944   5.748
 9260SOL    HW128679   6.222   1.895   5.666
 9260SOL    HW228680   6.116   2.003   5.727
 9261SOL     OW28681   3.904   1.684   0.266
 9261SOL    HW128682   3.890   1.586   0.278
 9261SOL    HW228683   3.818   1.732   0.287
 9262SOL     OW28684   0.473   5.777   5.166
 9262SOL    HW128685   0.546   5.844   5.181
 9262SOL    HW228686   0.428   5.757   5.253
 9263SOL     OW28687   3.168   6.622   2.666
 9263SOL    HW128688   3.083   6.601   2.616
 9263SOL    HW228689   3.177   6.559   2.744
 9264SOL     OW28690   4.853   4.348   0.359
 9264SOL    HW128691   4.801   4.377   0.440
 9264SOL    HW228692   4.791   4.340   0.281
 9265SOL     OW28693   3.116   2.444   7.012
 9265SOL    HW128694   3.195   2.444   6.950
 9265SOL    HW228695   3.146   2.414   0.081
 9266SOL     OW28696   1.517   6.093   0.733
 9266SOL    HW128697   1.548   6.033   0.807
 9266SOL    HW228698   1.516   6.042   0.647
 9267SOL     OW28699   6.985   1.948   4.691
 9267SOL    HW128700   6.965   1.850   4.686
 9267SOL    HW228701   0.058   1.960   4.722
 9268SOL     OW28702   1.911   0.093   2.448
 9268SOL    HW128703   1.865   0.015   2.492
 9268SOL    HW228704   1.983   0.059   2.388
 9269SOL     OW28705   4.065   0.945   6.195
 9269SOL    HW128706   4.017   0.907   6.275
 9269SOL    HW228707   4.040   1.041   6.183
 9270SOL     OW28708   4.291   6.826   5.633
 9270SOL    HW128709   4.239   6.784   5.707
 9270SOL    HW228710   4.364   6.883   5.671
 9271SOL     OW28711   6.055   6.765   0.247
 9271SOL    HW128712   6.034   6.687   0.188
 9271SOL    HW228713   6.045   6.738   0.343
 9272SOL     OW28714   1.138   5.191   5.800
 9272SOL    HW128715   1.093   5.255   5.738
 9272SOL    HW228716   1.190   5.242   5.869
 9273SOL     OW28717   6.308   6.283   3.175
 9273SOL    HW128718   6.278   6.331   3.257
 9273SOL    HW228719   6.227   6.256   3.122
 9274SOL     OW28720   0.226   1.515   0.097
 9274SOL    HW128721   0.154   1.448   0.115
 9274SOL    HW228722   0.282   1.526   0.179
 9275SOL     OW28723   6.695   0.849   0.065
 9275SOL    HW128724   6.674   0.936   0.107
 9275SOL    HW228725   6.669   0.852   6.990
 9276SOL     OW28726   1.711   4.508   0.951
 9276SOL    HW128727   1.687   4.419   0.991
 9276SOL    HW228728   1.666   4.581   1.002
 9277SOL     OW28729   4.637   4.529   1.888
 9277SOL    HW128730   4.593   4.614   1.919
 9277SOL    HW228731   4.572   4.453   1.897
 9278SOL     OW28732   1.703   0.317   5.490
 9278SOL    HW128733   1.751   0.236   5.524
 9278SOL    HW228734   1.672   0.300   5.396
 9279SOL     OW28735   2.744   0.272   1.580
 9279SOL    HW128736   2.753   0.364   1.540
 9279SOL    HW228737   2.696   0.212   1.515
 9280SOL     OW28738   2.586   1.557   2.589
 9280SOL    HW128739   2.489   1.557   2.563
 9280SOL    HW228740   2.611   1.467   2.623
 9281SOL     OW28741   3.338   4.146   6.839
 9281SOL    HW128742   3.335   4.152   6.739
 9281SOL    HW228743   3.430   4.169   6.871
 9282SOL     OW28744   5.397   1.381   3.773
 9282SOL    HW128745   5.440   1.470   3.756
 9282SOL    HW228746   5.460   1.323   3.825
 9283SOL     OW28747   4.555   0.542   4.361
 9283SOL    HW128748   4.561   0.458   4.306
 9283SOL    HW228749   4.479   0.534   4.425
 9284SOL     OW28750   2.828   2.647   5.337
 9284SOL    HW128751   2.755   2.715   5.332
 9284SOL    HW228752   2.794   2.559   5.305
 9285SOL     OW28753   5.199   3.559   1.498
 9285SOL    HW128754   5.237   3.589   1.586
 9285SOL    HW228755   5.100   3.552   1.506
 9286SOL     OW28756   5.670   5.790   1.084
 9286SOL    HW128757   5.710   5.875   1.117
 9286SOL    HW228758   5.633   5.738   1.161
 9287SOL     OW28759   3.919   4.860   6.882
 9287SOL    HW128760   3.993   4.850   6.816
 9287SOL    HW228761   3.833   4.879   6.834
 9288SOL     OW28762   4.630   1.916   2.596
 9288SOL    HW128763   4.678   1.957   2.673
 9288SOL    HW228764   4.694   1.904   2.520
 9289SOL     OW28765   4.955   0.033   1.407
 9289SOL    HW128766   5.049   0.011   1.381
 9289SOL    HW228767   4.950   0.044   1.507
 9290SOL     OW28768   5.335   0.807   3.800
 9290SOL    HW128769   5.388   0.779   3.720
 9290SOL    HW228770   5.344   0.738   3.872
 9291SOL     OW28771   1.140   5.070   5.559
 9291SOL    HW128772   1.235   5.038   5.552
 9291SOL    HW228773   1.120   5.094   5.654
 9292SOL     OW28774   2.552   2.548   6.725
 9292SOL    HW128775   2.638   2.498   6.730
 9292SOL    HW228776   2.505   2.542   6.813
 9293SOL     OW28777   6.309   3.757   6.590
 9293SOL    HW128778   6.393   3.712   6.560
 9293SOL    HW228779   6.330   3.817   6.667
 9294SOL     OW28780   5.739   0.899   6.126
 9294SOL    HW128781   5.733   0.946   6.039
 9294SOL    HW228782   5.713   0.961   6.200
 9295SOL     OW28783   5.316   0.195   5.409
 9295SOL    HW128784   5.388   0.221   5.473
 9295SOL    HW228785   5.335   0.236   5.320
 9296SOL     OW28786   2.041   5.502   0.279
 9296SOL    HW128787   2.015   5.562   0.203
 9296SOL    HW228788   2.051   5.556   0.363
 9297SOL     OW28789   0.850   7.017   2.924
 9297SOL    HW128790   0.768   6.974   2.960
 9297SOL    HW228791   0.891   0.054   2.994
 9298SOL     OW28792   0.858   6.761   6.334
 9298SOL    HW128793   0.874   6.693   6.263
 9298SOL    HW228794   0.942   6.814   6.350
 9299SOL     OW28795   1.043   2.094   4.281
 9299SOL    HW128796   1.037   1.995   4.275
 9299SOL    HW228797   1.060   2.121   4.376
 9300SOL     OW28798   0.549   4.562   5.842
 9300SOL    HW128799   0.479   4.627   5.813
 9300SOL    HW228800   0.612   4.606   5.905
 9301SOL     OW28801   5.501   5.277   4.819
 9301SOL    HW128802   5.481   5.296   4.722
 9301SOL    HW228803   5.584   5.220   4.825
 9302SOL     OW28804   2.091   3.359   4.055
 9302SOL    HW128805   1.995   3.385   4.069
 9302SOL    HW228806   2.120   3.298   4.129
 9303SOL     OW28807   3.036   3.615   0.669
 9303SOL    HW128808   2.983   3.680   0.614
 9303SOL    HW228809   3.002   3.523   0.653
 9304SOL     OW28810   4.335   4.492   0.683
 9304SOL    HW128811   4.307   4.432   0.759
 9304SOL    HW228812   4.279   4.574   0.683
 9305SOL     OW28813   3.783   0.801   0.756
 9305SOL    HW128814   3.821   0.784   0.847
 9305SOL    HW228815   3.730   0.721   0.727
 9306SOL     OW28816   1.157   3.451   5.647
 9306SOL    HW128817   1.165   3.472   5.549
 9306SOL    HW228818   1.227   3.502   5.698
 9307SOL     OW28819   1.357   3.844   1.033
 9307SOL    HW128820   1.393   3.858   0.941
 9307SOL    HW228821   1.386   3.919   1.092
 9308SOL     OW28822   1.487   3.197   1.859
 9308SOL    HW128823   1.484   3.252   1.775
 9308SOL    HW228824   1.399   3.152   1.873
 9309SOL     OW28825   2.639   5.442   5.521
 9309SOL    HW128826   2.593   5.443   5.610
 9309SOL    HW228827   2.738   5.438   5.535
 9310SOL     OW28828   5.653   5.899   5.813
 9310SOL    HW128829   5.578   5.963   5.800
 9310SOL    HW228830   5.732   5.947   5.851
 9311SOL     OW28831   4.980   4.760   1.156
 9311SOL    HW128832   5.070   4.760   1.199
 9311SOL    HW228833   4.987   4.721   1.064
 9312SOL     OW28834   1.881   2.625   1.324
 9312SOL    HW128835   1.909   2.578   1.407
 9312SOL    HW228836   1.790   2.666   1.338
 9313SOL     OW28837   0.048   0.476   1.678
 9313SOL    HW128838   0.015   0.436   1.593
 9313SOL    HW228839   7.004   0.458   1.751
 9314SOL     OW28840   6.795   3.532   6.855
 9314SOL    HW128841   6.843   3.473   6.920
 9314SOL    HW228842   6.697   3.512   6.858
 9315SOL     OW28843   6.896   6.609   5.612
 9315SOL    HW128844   6.937   6.656   5.690
 9315SOL    HW228845   6.891   6.672   5.534
 9316SOL     OW28846   6.465   6.146   5.496
 9316SOL    HW128847   6.432   6.240   5.511
 9316SOL    HW228848   6.471   6.128   5.398
 9317SOL     OW28849   4.428   5.565   4.507
 9317SOL    HW128850   4.340   5.520   4.490
 9317SOL    HW228851   4.471   5.588   4.420
 9318SOL     OW28852   6.325   0.436   6.798
 9318SOL    HW128853   6.372   0.507   6.850
 9318SOL    HW228854   6.362   0.346   6.824
 9319SOL     OW28855   2.296   3.173   1.346
 9319SOL    HW128856   2.376   3.116   1.367
 9319SOL    HW228857   2.326   3.256   1.298
 9320SOL     OW28858   3.991   0.458   5.249
 9320SOL    HW128859   3.957   0.406   5.170
 9320SOL    HW228860   4.058   0.526   5.217
 9321SOL     OW28861   0.934   0.818   5.019
 9321SOL    HW128862   0.851   0.762   5.017
 9321SOL    HW228863   0.991   0.791   5.097
 9322SOL     OW28864   0.255   4.421   6.857
 9322SOL    HW128865   0.182   4.399   6.792
 9322SOL    HW228866   0.217   4.465   6.938
 9323SOL     OW28867   0.973   1.124   4.659
 9323SOL    HW128868   0.917   1.049   4.625
 9323SOL    HW228869   1.048   1.088   4.714
 9324SOL     OW28870   1.894   4.089   2.414
 9324SOL    HW128871   1.833   4.074   2.336
 9324SOL    HW228872   1.965   4.018   2.414
 9325SOL     OW28873   6.944   0.216   0.117
 9325SOL    HW128874   6.968   0.138   0.176
 9325SOL    HW228875   7.006   0.292   0.135
 9326SOL     OW28876   2.650   4.916   0.371
 9326SOL    HW128877   2.681   4.958   0.285
 9326SOL    HW228878   2.580   4.848   0.352
 9327SOL     OW28879   4.431   6.981   2.575
 9327SOL    HW128880   4.413   0.046   2.620
 9327SOL    HW228881   4.522   6.948   2.602
 9328SOL     OW28882   2.371   0.721   4.754
 9328SOL    HW128883   2.461   0.682   4.736
 9328SOL    HW228884   2.310   0.703   4.677
 9329SOL     OW28885   6.351   4.106   0.821
 9329SOL    HW128886   6.393   4.046   0.752
 9329SOL    HW228887   6.285   4.166   0.776
 9330SOL     OW28888   6.812   0.115   5.633
 9330SOL    HW128889   6.787   0.021   5.656
 9330SOL    HW228890   6.817   0.125   5.534
 9331SOL     OW28891   2.167   1.065   6.109
 9331SOL    HW128892   2.166   1.155   6.065
 9331SOL    HW228893   2.133   0.997   6.045
 9332SOL     OW28894   3.293   5.250   0.593
 9332SOL    HW128895   3.199   5.284   0.594
 9332SOL    HW228896   3.320   5.226   0.687
 9333SOL     OW28897   3.730   5.558   6.680
 9333SOL    HW128898   3.674   5.641   6.680
 9333SOL    HW228899   3.826   5.583   6.691
 9334SOL     OW28900   4.555   6.139   4.941
 9334SOL    HW128901   4.646   6.163   4.974
 9334SOL    HW228902   4.549   6.157   4.843
 9335SOL     OW28903   1.874   1.379   0.018
 9335SOL    HW128904   1.962   1.391   6.993
 9335SOL    HW228905   1.831   1.469   0.030
 9336SOL     OW28906   4.600   6.997   4.420
 9336SOL    HW128907   4.685   6.947   4.404
 9336SOL    HW228908   4.620   0.059   4.471
 9337SOL     OW28909   5.018   1.033   5.500
 9337SOL    HW128910   4.936   0.976   5.494
 9337SOL    HW228911   4.992   1.129   5.490
 9338SOL     OW28912   6.035   0.018   1.036
 9338SOL    HW128913   6.088   6.975   1.091
 9338SOL    HW228914   6.096   0.065   0.972
 9339SOL     OW28915   6.283   6.003   0.280
 9339SOL    HW128916   6.316   5.943   0.207
 9339SOL    HW228917   6.248   6.087   0.240
 9340SOL     OW28918   3.862   4.948   3.157
 9340SOL    HW128919   3.955   4.982   3.146
 9340SOL    HW228920   3.844   4.876   3.090
 9341SOL     OW28921   5.544   4.510   0.759
 9341SOL    HW128922   5.617   4.576   0.776
 9341SOL    HW228923   5.584   4.423   0.730
 9342SOL     OW28924   2.246   0.086   4.565
 9342SOL    HW128925   2.326   0.120   4.514
 9342SOL    HW228926   2.269   7.020   4.606
 9343SOL     OW28927   4.789   4.044   1.980
 9343SOL    HW128928   4.818   3.986   2.056
 9343SOL    HW228929   4.793   4.140   2.007
 9344SOL     OW28930   5.141   6.089   1.144
 9344SOL    HW128931   5.187   6.113   1.229
 9344SOL    HW228932   5.145   6.167   1.081
 9345SOL     OW28933   6.593   4.833   1.402
 9345SOL    HW128934   6.493   4.827   1.398
 9345SOL    HW228935   6.621   4.928   1.388
 9346SOL     OW28936   4.347   0.481   1.771
 9346SOL    HW128937   4.337   0.480   1.672
 9346SOL    HW228938   4.396   0.398   1.800
 9347SOL     OW28939   3.129   6.030   0.248
 9347SOL    HW128940   3.207   5.970   0.267
 9347SOL    HW228941   3.050   5.975   0.222
 9348SOL     OW28942   2.780   5.663   2.312
 9348SOL    HW128943   2.771   5.723   2.232
 9348SOL    HW228944   2.834   5.709   2.382
 9349SOL     OW28945   6.568   5.399   2.173
 9349SOL    HW128946   6.570   5.348   2.087
 9349SOL    HW228947   6.644   5.464   2.175
 9350SOL     OW28948   6.424   1.423   4.675
 9350SOL    HW128949   6.353   1.397   4.610
 9350SOL    HW228950   6.384   1.436   4.765
 9351SOL     OW28951   3.536   0.052   6.470
 9351SOL    HW128952   3.596   0.077   6.546
 9351SOL    HW228953   3.479   0.130   6.444
 9352SOL     OW28954   3.435   2.176   6.375
 9352SOL    HW128955   3.395   2.200   6.287
 9352SOL    HW228956   3.387   2.098   6.414
 9353SOL     OW28957   0.986   4.715   1.287
 9353SOL    HW128958   1.017   4.803   1.252
 9353SOL    HW228959   0.911   4.730   1.353
 9354SOL     OW28960   6.940   2.116   6.314
 9354SOL    HW128961   6.850   2.153   6.336
 9354SOL    HW228962   6.945   2.020   6.343
 9355SOL     OW28963   0.155   1.517   4.592
 9355SOL    HW128964   0.184   1.493   4.684
 9355SOL    HW228965   0.225   1.574   4.548
 9356SOL     OW28966   5.005   5.819   2.269
 9356SOL    HW128967   5.104   5.811   2.260
 9356SOL    HW228968   4.961   5.738   2.229
 9357SOL     OW28969   3.031   3.121   6.384
 9357SOL    HW128970   2.959   3.157   6.443
 9357SOL    HW228971   3.113   3.179   6.393
 9358SOL     OW28972   6.038   2.886   2.514
 9358SOL    HW128973   5.939   2.873   2.513
 9358SOL    HW228974   6.061   2.971   2.562
 9359SOL     OW28975   0.917   3.644   5.674
 9359SOL    HW128976   1.005   3.679   5.708
 9359SOL    HW228977   0.845   3.711   5.693
 9360SOL     OW28978   1.888   6.120   6.585
 9360SOL    HW128979   1.833   6.194   6.547
 9360SOL    HW228980   1.956   6.090   6.518
 9361SOL     OW28981   1.231   6.291   3.080
 9361SOL    HW128982   1.274   6.358   3.019
 9361SOL    HW228983   1.233   6.326   3.174
 9362SOL     OW28984   2.133   2.748   2.837
 9362SOL    HW128985   2.072   2.815   2.878
 9362SOL    HW228986   2.154   2.775   2.743
 9363SOL     OW28987   3.823   6.489   1.907
 9363SOL    HW128988   3.879   6.490   1.989
 9363SOL    HW228989   3.727   6.479   1.932
 9364SOL     OW28990   3.747   2.924   6.044
 9364SOL    HW128991   3.838   2.905   6.007
 9364SOL    HW228992   3.754   2.994   6.115
 9365SOL     OW28993   2.285   2.069   4.958
 9365SOL    HW128994   2.273   2.168   4.951
 9365SOL    HW228995   2.276   2.027   4.867
 9366SOL     OW28996   3.131   6.528   6.914
 9366SOL    HW128997   3.105   6.548   7.008
 9366SOL    HW228998   3.230   6.524   6.907
 9367SOL     OW28999   6.655   6.240   2.865
 9367SOL    HW129000   6.667   6.147   2.831
 9367SOL    HW229001   6.651   6.240   2.965
 9368SOL     OW29002   2.642   1.407   3.677
 9368SOL    HW129003   2.553   1.418   3.721
 9368SOL    HW229004   2.709   1.376   3.745
 9369SOL     OW29005   6.638   6.618   4.683
 9369SOL    HW129006   6.737   6.619   4.696
 9369SOL    HW229007   6.592   6.614   4.772
 9370SOL     OW29008   4.868   0.581   2.271
 9370SOL    HW129009   4.834   0.508   2.211
 9370SOL    HW229010   4.967   0.571   2.283
 9371SOL     OW29011   1.616   4.874   0.775
 9371SOL    HW129012   1.618   4.815   0.855
 9371SOL    HW229013   1.523   4.908   0.761
 9372SOL     OW29014   5.513   6.001   2.553
 9372SOL    HW129015   5.499   6.088   2.600
 9372SOL    HW229016   5.425   5.962   2.528
 9373SOL     OW29017   4.567   1.928   2.234
 9373SOL    HW129018   4.586   1.871   2.154
 9373SOL    HW229019   4.514   1.875   2.301
 9374SOL     OW29020   0.725   3.408   0.547
 9374SOL    HW129021   0.695   3.423   0.641
 9374SOL    HW229022   0.811   3.357   0.547
 9375SOL     OW29023   6.947   1.426   3.010
 9375SOL    HW129024   0.013   1.458   2.974
 9375SOL    HW229025   6.882   1.502   3.010
 9376SOL     OW29026   3.055   4.797   1.092
 9376SOL    HW129027   3.092   4.889   1.095
 9376SOL    HW229028   3.092   4.748   1.014
 9377SOL     OW29029   1.995   5.409   3.986
 9377SOL    HW129030   1.948   5.476   3.929
 9377SOL    HW229031   1.959   5.318   3.967
 9378SOL     OW29032   1.729   1.306   5.247
 9378SOL    HW129033   1.692   1.300   5.340
 9378SOL    HW229034   1.655   1.318   5.182
 9379SOL     OW29035   3.737   5.786   5.533
 9379SOL    HW129036   3.702   5.798   5.440
 9379SOL    HW229037   3.715   5.694   5.565
 9380SOL     OW29038   5.477   4.952   4.791
 9380SOL    HW129039   5.568   4.971   4.828
 9380SOL    HW229040   5.447   4.861   4.820
 9381SOL     OW29041   3.610   2.348   5.887
 9381SOL    HW129042   3.550   2.428   5.880
 9381SOL    HW229043   3.625   2.310   5.796
 9382SOL     OW29044   3.555   0.644   3.603
 9382SOL    HW129045   3.593   0.639   3.511
 9382SOL    HW229046   3.476   0.582   3.610
 9383SOL     OW29047   1.245   5.981   4.775
 9383SOL    HW129048   1.198   5.958   4.860
 9383SOL    HW229049   1.243   5.902   4.714
 9384SOL     OW29050   4.064   0.126   2.355
 9384SOL    HW129051   4.017   0.173   2.281
 9384SOL    HW229052   4.047   0.174   2.441
 9385SOL     OW29053   4.353   0.669   3.502
 9385SOL    HW129054   4.431   0.724   3.533
 9385SOL    HW229055   4.359   0.577   3.541
 9386SOL     OW29056   2.119   5.868   4.961
 9386SOL    HW129057   2.092   5.871   4.865
 9386SOL    HW229058   2.037   5.875   5.018
 9387SOL     OW29059   2.778   1.674   6.776
 9387SOL    HW129060   2.798   1.644   6.683
 9387SOL    HW229061   2.694   1.729   6.776
 9388SOL     OW29062   2.510   5.899   2.520
 9388SOL    HW129063   2.480   5.910   2.614
 9388SOL    HW229064   2.455   5.828   2.476
 9389SOL     OW29065   1.861   7.022   3.887
 9389SOL    HW129066   1.801   0.009   3.808
 9389SOL    HW229067   1.930   0.072   3.885
 9390SOL     OW29068   4.604   4.754   5.063
 9390SOL    HW129069   4.626   4.840   5.109
 9390SOL    HW229070   4.652   4.750   4.976
 9391SOL     OW29071   2.751   1.525   4.835
 9391SOL    HW129072   2.750   1.462   4.912
 9391SOL    HW229073   2.799   1.483   4.758
 9392SOL     OW29074   6.419   6.792   5.330
 9392SOL    HW129075   6.428   6.877   5.382
 9392SOL    HW229076   6.348   6.735   5.371
 9393SOL     OW29077   3.557   6.682   6.566
 9393SOL    HW129078   3.654   6.675   6.543
 9393SOL    HW229079   3.522   6.771   6.539
 9394SOL     OW29080   0.118   1.428   2.150
 9394SOL    HW129081   0.092   1.500   2.086
 9394SOL    HW229082   0.191   1.461   2.210
 9395SOL     OW29083   2.950   1.693   1.191
 9395SOL    HW129084   2.981   1.669   1.284
 9395SOL    HW229085   2.971   1.789   1.173
 9396SOL     OW29086   2.005   5.076   3.670
 9396SOL    HW129087   2.073   5.148   3.656
 9396SOL    HW229088   1.929   5.090   3.606
 9397SOL     OW29089   4.643   0.241   6.244
 9397SOL    HW129090   4.714   0.302   6.280
 9397SOL    HW229091   4.672   0.146   6.257
 9398SOL     OW29092   6.558   0.590   4.894
 9398SOL    HW129093   6.555   0.492   4.872
 9398SOL    HW229094   6.469   0.631   4.875
 9399SOL     OW29095   0.599   1.897   5.560
 9399SOL    HW129096   0.560   1.886   5.469
 9399SOL    HW229097   0.604   1.808   5.605
 9400SOL     OW29098   4.160   0.926   1.904
 9400SOL    HW129099   4.215   0.849   1.873
 9400SOL    HW229100   4.191   1.010   1.860
 9401SOL     OW29101   6.010   0.500   3.452
 9401SOL    HW129102   5.977   0.415   3.412
 9401SOL    HW229103   5.946   0.574   3.432
 9402SOL     OW29104   1.352   5.494   3.368
 9402SOL    HW129105   1.319   5.400   3.362
 9402SOL    HW229106   1.429   5.506   3.306
 9403SOL     OW29107   6.224   1.547   3.217
 9403SOL    HW129108   6.138   1.597   3.207
 9403SOL    HW229109   6.215   1.479   3.290
 9404SOL     OW29110   1.607   3.615   0.095
 9404SOL    HW129111   1.567   3.574   0.177
 9404SOL    HW229112   1.612   3.546   0.023
 9405SOL     OW29113   1.828   5.173   3.070
 9405SOL    HW129114   1.828   5.138   2.977
 9405SOL    HW229115   1.800   5.102   3.134
 9406SOL     OW29116   6.827   3.399   5.943
 9406SOL    HW129117   6.894   3.437   5.879
 9406SOL    HW229118   6.735   3.421   5.912
 9407SOL     OW29119   2.647   5.213   2.832
 9407SOL    HW129120   2.584   5.179   2.902
 9407SOL    HW229121   2.740   5.183   2.853
 9408SOL     OW29122   5.917   2.304   6.206
 9408SOL    HW129123   5.956   2.282   6.116
 9408SOL    HW229124   5.903   2.403   6.212
 9409SOL     OW29125   5.973   6.001   6.859
 9409SOL    HW129126   6.012   5.913   6.887
 9409SOL    HW229127   6.022   6.075   6.907
 9410SOL     OW29128   2.759   0.534   1.453
 9410SOL    HW129129   2.848   0.580   1.458
 9410SOL    HW229130   2.689   0.593   1.492
 9411SOL     OW29131   3.115   2.971   2.304
 9411SOL    HW129132   3.159   2.990   2.216
 9411SOL    HW229133   3.019   2.947   2.289
 9412SOL     OW29134   6.873   2.256   2.705
 9412SOL    HW129135   6.970   2.278   2.706
 9412SOL    HW229136   6.861   2.157   2.717
 9413SOL     OW29137   3.268   6.095   3.380
 9413SOL    HW129138   3.234   6.002   3.392
 9413SOL    HW229139   3.245   6.150   3.461
 9414SOL     OW29140   2.862   0.663   3.265
 9414SOL    HW129141   2.788   0.731   3.262
 9414SOL    HW229142   2.884   0.642   3.360
 9415SOL     OW29143   2.877   6.923   1.534
 9415SOL    HW129144   2.904   7.014   1.565
 9415SOL    HW229145   2.934   6.854   1.580
 9416SOL     OW29146   0.177   2.477   0.486
 9416SOL    HW129147   0.255   2.465   0.424
 9416SOL    HW229148   0.194   2.556   0.546
 9417SOL     OW29149   4.714   0.822   0.104
 9417SOL    HW129150   4.672   0.787   0.021
 9417SOL    HW229151   4.722   0.922   0.098
 9418SOL     OW29152   4.202   6.687   1.289
 9418SOL    HW129153   4.209   6.786   1.292
 9418SOL    HW229154   4.173   6.658   1.198
 9419SOL     OW29155   3.273   5.065   5.831
 9419SOL    HW129156   3.249   5.084   5.736
 9419SOL    HW229157   3.312   4.973   5.838
 9420SOL     OW29158   0.147   3.709   5.986
 9420SOL    HW129159   0.091   3.669   5.913
 9420SOL    HW229160   0.143   3.652   6.067
 9421SOL     OW29161   2.189   6.582   4.072
 9421SOL    HW129162   2.178   6.551   4.167
 9421SOL    HW229163   2.209   6.503   4.014
 9422SOL     OW29164   3.441   5.222   3.301
 9422SOL    HW129165   3.479   5.142   3.255
 9422SOL    HW229166   3.450   5.302   3.242
 9423SOL     OW29167   3.057   0.077   3.573
 9423SOL    HW129168   3.142   0.025   3.562
 9423SOL    HW229169   2.981   0.024   3.536
 9424SOL     OW29170   4.929   1.125   4.342
 9424SOL    HW129171   4.890   1.036   4.318
 9424SOL    HW229172   5.007   1.113   4.404
 9425SOL     OW29173   6.463   2.966   0.305
 9425SOL    HW129174   6.447   2.878   0.260
 9425SOL    HW229175   6.467   2.953   0.404
 9426SOL     OW29176   3.749   1.503   6.097
 9426SOL    HW129177   3.739   1.597   6.062
 9426SOL    HW229178   3.712   1.439   6.030
 9427SOL     OW29179   2.558   4.571   3.285
 9427SOL    HW129180   2.495   4.649   3.291
 9427SOL    HW229181   2.566   4.528   3.375
 9428SOL     OW29182   6.541   0.918   1.004
 9428SOL    HW129183   6.530   0.939   1.101
 9428SOL    HW229184   6.453   0.887   0.967
 9429SOL     OW29185   2.155   3.813   2.772
 9429SOL    HW129186   2.063   3.845   2.797
 9429SOL    HW229187   2.147   3.728   2.720
 9430SOL     OW29188   0.640   3.958   3.383
 9430SOL    HW129189   0.732   3.934   3.415
 9430SOL    HW229190   0.646   4.019   3.305
 9431SOL     OW29191   6.151   3.717   1.136
 9431SOL    HW129192   6.250   3.715   1.125
 9431SOL    HW229193   6.108   3.739   1.048
 9432SOL     OW29194   5.295   0.494   3.437
 9432SOL    HW129195   5.336   0.408   3.406
 9432SOL    HW229196   5.197   0.480   3.452
 9433SOL     OW29197   2.761   5.993   2.485
 9433SOL    HW129198   2.824   5.979   2.408
 9433SOL    HW229199   2.681   5.934   2.474
 9434SOL     OW29200   5.030   5.298   2.924
 9434SOL    HW129201   5.113   5.354   2.935
 9434SOL    HW229202   5.042   5.234   2.848
 9435SOL     OW29203   0.103   2.491   5.040
 9435SOL    HW129204   0.051   2.411   5.070
 9435SOL    HW229205   0.185   2.462   4.991
 9436SOL     OW29206   1.786   2.833   0.904
 9436SOL    HW129207   1.802   2.737   0.927
 9436SOL    HW229208   1.687   2.850   0.899
 9437SOL     OW29209   1.001   5.769   2.913
 9437SOL    HW129210   0.919   5.815   2.945
 9437SOL    HW229211   1.049   5.827   2.848
 9438SOL     OW29212   0.017   0.177   1.589
 9438SOL    HW129213   0.006   0.228   1.504
 9438SOL    HW229214   0.103   0.202   1.632
 9439SOL     OW29215   0.911   3.588   1.186
 9439SOL    HW129216   1.005   3.616   1.208
 9439SOL    HW229217   0.876   3.528   1.257
 9440SOL     OW29218   4.217   4.759   3.422
 9440SOL    HW129219   4.224   4.762   3.323
 9440SOL    HW229220   4.141   4.818   3.452
 9441SOL     OW29221   0.262   3.566   5.638
 9441SOL    HW129222   0.302   3.521   5.717
 9441SOL    HW229223   0.312   3.650   5.618
 9442SOL     OW29224   4.813   3.017   0.810
 9442SOL    HW129225   4.903   2.984   0.839
 9442SOL    HW229226   4.824   3.092   0.745
 9443SOL     OW29227   2.198   5.195   0.742
 9443SOL    HW129228   2.179   5.163   0.649
 9443SOL    HW229229   2.256   5.128   0.789
 9444SOL     OW29230   1.600   3.481   0.392
 9444SOL    HW129231   1.510   3.439   0.407
 9444SOL    HW229232   1.647   3.433   0.318
 9445SOL     OW29233   6.009   3.249   3.527
 9445SOL    HW129234   5.941   3.211   3.590
 9445SOL    HW229235   6.027   3.344   3.552
 9446SOL     OW29236   6.092   5.692   3.487
 9446SOL    HW129237   6.106   5.595   3.504
 9446SOL    HW229238   6.139   5.720   3.404
 9447SOL     OW29239   5.862   3.951   3.667
 9447SOL    HW129240   5.787   4.014   3.647
 9447SOL    HW229241   5.944   3.980   3.617
 9448SOL     OW29242   0.756   0.051   6.899
 9448SOL    HW129243   0.733   7.000   6.963
 9448SOL    HW229244   0.746   0.140   6.944
 9449SOL     OW29245   6.242   6.513   0.643
 9449SOL    HW129246   6.276   6.599   0.605
 9449SOL    HW229247   6.179   6.470   0.579
 9450SOL     OW29248   1.813   5.623   4.924
 9450SOL    HW129249   1.718   5.632   4.953
 9450SOL    HW229250   1.873   5.633   5.003
 9451SOL     OW29251   4.149   0.079   5.884
 9451SOL    HW129252   4.108   7.018   5.846
 9451SOL    HW229253   4.162   0.146   5.811
 9452SOL     OW29254   1.716   3.941   0.606
 9452SOL    HW129255   1.691   3.915   0.699
 9452SOL    HW229256   1.687   3.870   0.542
 9453SOL     OW29257   2.142   5.017   3.287
 9453SOL    HW129258   2.217   4.996   3.348
 9453SOL    HW229259   2.171   5.085   3.220
 9454SOL     OW29260   3.698   3.244   6.467
 9454SOL    HW129261   3.704   3.330   6.516
 9454SOL    HW229262   3.602   3.219   6.452
 9455SOL     OW29263   2.921   1.921   3.443
 9455SOL    HW129264   3.012   1.949   3.472
 9455SOL    HW229265   2.927   1.873   3.355
 9456SOL     OW29266   0.356   3.373   0.912
 9456SOL    HW129267   0.313   3.297   0.960
 9456SOL    HW229268   0.341   3.457   0.963
 9457SOL     OW29269   2.125   3.461   5.627
 9457SOL    HW129270   2.082   3.459   5.718
 9457SOL    HW229271   2.192   3.535   5.624
 9458SOL     OW29272   1.104   3.210   0.217
 9458SOL    HW129273   1.161   3.130   0.199
 9458SOL    HW229274   1.161   3.291   0.222
 9459SOL     OW29275   5.140   4.326   3.941
 9459SOL    HW129276   5.144   4.245   3.882
 9459SOL    HW229277   5.108   4.299   4.032
 9460SOL     OW29278   1.088   3.486   3.906
 9460SOL    HW129279   1.018   3.533   3.851
 9460SOL    HW229280   1.133   3.552   3.965
 9461SOL     OW29281   0.567   1.696   1.648
 9461SOL    HW129282   0.597   1.763   1.580
 9461SOL    HW229283   0.483   1.728   1.691
 9462SOL     OW29284   2.041   3.910   3.254
 9462SOL    HW129285   1.969   3.959   3.206
 9462SOL    HW229286   2.105   3.872   3.188
 9463SOL     OW29287   6.160   0.788   1.869
 9463SOL    HW129288   6.142   0.809   1.773
 9463SOL    HW229289   6.165   0.689   1.882
 9464SOL     OW29290   5.752   0.424   0.322
 9464SOL    HW129291   5.836   0.435   0.375
 9464SOL    HW229292   5.745   0.330   0.289
 9465SOL     OW29293   1.622   4.524   2.780
 9465SOL    HW129294   1.652   4.612   2.743
 9465SOL    HW229295   1.608   4.460   2.705
 9466SOL     OW29296   3.979   4.491   5.944
 9466SOL    HW129297   4.025   4.417   5.895
 9466SOL    HW229298   4.045   4.539   6.001
 9467SOL     OW29299   1.386   2.527   2.151
 9467SOL    HW129300   1.425   2.602   2.205
 9467SOL    HW229301   1.385   2.443   2.206
 9468SOL     OW29302   5.483   3.427   6.057
 9468SOL    HW129303   5.403   3.487   6.061
 9468SOL    HW229304   5.460   3.345   6.004
 9469SOL     OW29305   6.455   5.863   1.659
 9469SOL    HW129306   6.359   5.880   1.637
 9469SOL    HW229307   6.461   5.825   1.751
 9470SOL     OW29308   4.925   3.035   5.765
 9470SOL    HW129309   4.911   3.053   5.862
 9470SOL    HW229310   5.010   3.078   5.735
 9471SOL     OW29311   6.669   1.594   4.593
 9471SOL    HW129312   6.588   1.539   4.573
 9471SOL    HW229313   6.647   1.691   4.578
 9472SOL     OW29314   6.788   3.307   5.592
 9472SOL    HW129315   6.779   3.273   5.498
 9472SOL    HW229316   6.709   3.276   5.646
 9473SOL     OW29317   2.259   5.196   6.649
 9473SOL    HW129318   2.271   5.117   6.588
 9473SOL    HW229319   2.163   5.204   6.675
 9474SOL     OW29320   0.556   2.644   6.892
 9474SOL    HW129321   0.643   2.596   6.903
 9474SOL    HW229322   0.505   2.602   6.817
 9475SOL     OW29323   3.379   3.355   6.797
 9475SOL    HW129324   3.403   3.338   6.892
 9475SOL    HW229325   3.321   3.281   6.763
 9476SOL     OW29326   3.642   3.979   4.639
 9476SOL    HW129327   3.624   3.986   4.541
 9476SOL    HW229328   3.612   3.889   4.672
 9477SOL     OW29329   0.442   3.386   1.689
 9477SOL    HW129330   0.350   3.419   1.708
 9477SOL    HW229331   0.455   3.377   1.591
 9478SOL     OW29332   4.820   2.955   0.211
 9478SOL    HW129333   4.877   3.016   0.265
 9478SOL    HW229334   4.855   2.862   0.216
 9479SOL     OW29335   3.990   6.290   6.394
 9479SOL    HW129336   3.985   6.192   6.412
 9479SOL    HW229337   3.935   6.339   6.462
 9480SOL     OW29338   5.418   3.917   0.716
 9480SOL    HW129339   5.329   3.892   0.679
 9480SOL    HW229340   5.405   3.983   0.790
 9481SOL     OW29341   4.803   2.858   2.175
 9481SOL    HW129342   4.761   2.767   2.167
 9481SOL    HW229343   4.760   2.920   2.109
 9482SOL     OW29344   0.486   1.537   3.553
 9482SOL    HW129345   0.476   1.455   3.610
 9482SOL    HW229346   0.575   1.535   3.508
 9483SOL     OW29347   2.006   1.716   1.206
 9483SOL    HW129348   2.070   1.645   1.236
 9483SOL    HW229349   1.998   1.786   1.277
 9484SOL     OW29350   4.406   0.639   4.005
 9484SOL    HW129351   4.478   0.608   3.942
 9484SOL    HW229352   4.337   0.568   4.016
 9485SOL     OW29353   0.125   0.686   0.518
 9485SOL    HW129354   0.195   0.625   0.557
 9485SOL    HW229355   0.167   0.774   0.495
 9486SOL     OW29356   3.798   6.688   1.059
 9486SOL    HW129357   3.709   6.702   1.103
 9486SOL    HW229358   3.785   6.678   0.960
 9487SOL     OW29359   3.680   3.651   3.633
 9487SOL    HW129360   3.696   3.701   3.717
 9487SOL    HW229361   3.766   3.639   3.583
 9488SOL     OW29362   2.360   6.703   0.985
 9488SOL    HW129363   2.278   6.734   1.034
 9488SOL    HW229364   2.397   6.779   0.931
 9489SOL     OW29365   4.364   4.443   1.731
 9489SOL    HW129366   4.441   4.506   1.722
 9489SOL    HW229367   4.395   4.357   1.772
 9490SOL     OW29368   6.550   4.970   1.877
 9490SOL    HW129369   6.641   4.959   1.918
 9490SOL    HW229370   6.559   4.970   1.777
 9491SOL     OW29371   5.820   4.993   4.216
 9491SOL    HW129372   5.843   4.919   4.279
 9491SOL    HW229373   5.816   5.080   4.266
 9492SOL     OW29374   3.593   2.882   3.294
 9492SOL    HW129375   3.587   2.783   3.282
 9492SOL    HW229376   3.570   2.928   3.208
 9493SOL     OW29377   3.478   5.623   3.919
 9493SOL    HW129378   3.529   5.599   4.001
 9493SOL    HW229379   3.443   5.540   3.876
 9494SOL     OW29380   4.955   3.508   1.975
 9494SOL    HW129381   4.917   3.416   1.985
 9494SOL    HW229382   4.914   3.553   1.896
 9495SOL     OW29383   6.376   2.083   3.696
 9495SOL    HW129384   6.402   2.056   3.789
 9495SOL    HW229385   6.343   2.003   3.646
 9496SOL     OW29386   6.527   3.960   1.614
 9496SOL    HW129387   6.474   3.875   1.607
 9496SOL    HW229388   6.464   4.037   1.622
 9497SOL     OW29389   5.987   6.319   6.179
 9497SOL    HW129390   6.050   6.243   6.196
 9497SOL    HW229391   5.987   6.381   6.258
 9498SOL     OW29392   4.432   6.933   4.205
 9498SOL    HW129393   4.411   6.835   4.209
 9498SOL    HW229394   4.511   6.953   4.264
 9499SOL     OW29395   2.247   5.467   6.467
 9499SOL    HW129396   2.238   5.404   6.391
 9499SOL    HW229397   2.340   5.502   6.472
 9500SOL     OW29398   5.222   0.226   0.698
 9500SOL    HW129399   5.136   0.175   0.700
 9500SOL    HW229400   5.225   0.289   0.776
 9501SOL     OW29401   3.349   1.041   4.685
 9501SOL    HW129402   3.377   1.092   4.604
 9501SOL    HW229403   3.426   1.034   4.749
 9502SOL     OW29404   5.368   2.589   5.089
 9502SOL    HW129405   5.414   2.631   5.011
 9502SOL    HW229406   5.351   2.492   5.071
 9503SOL     OW29407   0.433   1.575   1.433
 9503SOL    HW129408   0.482   1.498   1.393
 9503SOL    HW229409   0.483   1.608   1.514
 9504SOL     OW29410   0.412   2.766   0.723
 9504SOL    HW129411   0.408   2.669   0.746
 9504SOL    HW229412   0.339   2.788   0.659
 9505SOL     OW29413   4.973   4.418   3.554
 9505SOL    HW129414   4.963   4.496   3.616
 9505SOL    HW229415   4.883   4.392   3.519
 9506SOL     OW29416   0.862   2.209   6.501
 9506SOL    HW129417   0.934   2.272   6.529
 9506SOL    HW229418   0.865   2.195   6.402
 9507SOL     OW29419   0.916   2.106   3.305
 9507SOL    HW129420   0.830   2.054   3.305
 9507SOL    HW229421   0.964   2.091   3.219
 9508SOL     OW29422   6.275   2.567   0.869
 9508SOL    HW129423   6.356   2.511   0.848
 9508SOL    HW229424   6.215   2.570   0.789
 9509SOL     OW29425   0.764   1.352   4.065
 9509SOL    HW129426   0.817   1.378   3.984
 9509SOL    HW229427   0.798   1.265   4.101
 9510SOL     OW29428   1.540   3.433   3.247
 9510SOL    HW129429   1.499   3.367   3.310
 9510SOL    HW229430   1.468   3.485   3.202
 9511SOL     OW29431   0.902   0.533   0.534
 9511SOL    HW129432   0.928   0.512   0.440
 9511SOL    HW229433   0.804   0.553   0.538
 9512SOL     OW29434   5.969   1.723   1.775
 9512SOL    HW129435   5.948   1.626   1.781
 9512SOL    HW229436   5.976   1.762   1.867
 9513SOL     OW29437   2.284   3.934   6.681
 9513SOL    HW129438   2.236   3.925   6.768
 9513SOL    HW229439   2.373   3.976   6.696
 9514SOL     OW29440   2.414   5.234   6.006
 9514SOL    HW129441   2.506   5.231   6.045
 9514SOL    HW229442   2.404   5.163   5.937
 9515SOL     OW29443   2.216   5.645   1.049
 9515SOL    HW129444   2.142   5.707   1.025
 9515SOL    HW229445   2.183   5.574   1.110
 9516SOL     OW29446   5.339   4.390   5.161
 9516SOL    HW129447   5.359   4.398   5.258
 9516SOL    HW229448   5.378   4.306   5.125
 9517SOL     OW29449   1.375   5.114   1.175
 9517SOL    HW129450   1.406   5.144   1.266
 9517SOL    HW229451   1.443   5.141   1.107
 9518SOL     OW29452   2.467   2.556   6.974
 9518SOL    HW129453   2.405   2.624   7.012
 9518SOL    HW229454   2.491   2.490   0.023
 9519SOL     OW29455   3.963   3.380   4.936
 9519SOL    HW129456   4.021   3.373   4.855
 9519SOL    HW229457   4.015   3.423   5.010
 9520SOL     OW29458   1.436   1.564   3.492
 9520SOL    HW129459   1.409   1.646   3.442
 9520SOL    HW229460   1.517   1.584   3.548
 9521SOL     OW29461   4.885   5.370   1.478
 9521SOL    HW129462   4.982   5.388   1.492
 9521SOL    HW229463   4.843   5.340   1.564
 9522SOL     OW29464   3.440   5.535   1.227
 9522SOL    HW129465   3.475   5.471   1.295
 9522SOL    HW229466   3.366   5.589   1.267
 9523SOL     OW29467   2.671   4.755   5.212
 9523SOL    HW129468   2.714   4.691   5.148
 9523SOL    HW229469   2.581   4.782   5.178
 9524SOL     OW29470   3.584   3.051   0.750
 9524SOL    HW129471   3.621   3.136   0.711
 9524SOL    HW229472   3.562   3.065   0.847
 9525SOL     OW29473   2.384   2.343   5.636
 9525SOL    HW129474   2.325   2.315   5.560
 9525SOL    HW229475   2.455   2.405   5.601
 9526SOL     OW29476   6.761   4.968   1.678
 9526SOL    HW129477   6.751   4.870   1.694
 9526SOL    HW229478   6.730   4.989   1.585
 9527SOL     OW29479   0.184   0.512   4.247
 9527SOL    HW129480   0.097   0.476   4.281
 9527SOL    HW229481   0.217   0.453   4.173
 9528SOL     OW29482   7.018   1.522   0.377
 9528SOL    HW129483   0.037   1.602   0.333
 9528SOL    HW229484   0.040   1.439   0.343
 9529SOL     OW29485   6.245   3.505   6.758
 9529SOL    HW129486   6.247   3.590   6.705
 9529SOL    HW229487   6.255   3.427   6.696
 9530SOL     OW29488   1.547   4.379   2.535
 9530SOL    HW129489   1.570   4.339   2.446
 9530SOL    HW229490   1.448   4.381   2.545
 9531SOL     OW29491   4.247   5.026   2.819
 9531SOL    HW129492   4.262   5.075   2.905
 9531SOL    HW229493   4.321   5.046   2.756
 9532SOL     OW29494   6.598   6.784   1.297
 9532SOL    HW129495   6.694   6.766   1.277
 9532SOL    HW229496   6.557   6.703   1.340
 9533SOL     OW29497   0.119   5.857   5.587
 9533SOL    HW129498   0.068   5.934   5.624
 9533SOL    HW229499   0.063   5.809   5.519
 9534SOL     OW29500   0.465   4.175   4.915
 9534SOL    HW129501   0.403   4.109   4.956
 9534SOL    HW229502   0.493   4.243   4.983
 9535SOL     OW29503   1.948   1.256   6.583
 9535SOL    HW129504   1.991   1.232   6.496
 9535SOL    HW229505   1.944   1.356   6.591
 9536SOL     OW29506   2.599   4.115   5.657
 9536SOL    HW129507   2.533   4.185   5.631
 9536SOL    HW229508   2.675   4.114   5.592
 9537SOL     OW29509   2.731   6.720   3.311
 9537SOL    HW129510   2.649   6.777   3.314
 9537SOL    HW229511   2.764   6.713   3.217
 9538SOL     OW29512   5.571   2.294   3.666
 9538SOL    HW129513   5.517   2.277   3.748
 9538SOL    HW229514   5.665   2.261   3.680
 9539SOL     OW29515   2.746   3.680   5.252
 9539SOL    HW129516   2.699   3.760   5.288
 9539SOL    HW229517   2.707   3.597   5.292
 9540SOL     OW29518   5.677   4.216   4.419
 9540SOL    HW129519   5.593   4.162   4.410
 9540SOL    HW229520   5.730   4.208   4.335
 9541SOL     OW29521   4.187   0.534   5.522
 9541SOL    HW129522   4.141   0.446   5.508
 9541SOL    HW229523   4.286   0.521   5.519
 9542SOL     OW29524   5.147   4.658   4.605
 9542SOL    HW129525   5.201   4.684   4.525
 9542SOL    HW229526   5.180   4.571   4.641
 9543SOL     OW29527   3.744   0.661   5.184
 9543SOL    HW129528   3.802   0.639   5.262
 9543SOL    HW229529   3.783   0.738   5.134
 9544SOL     OW29530   6.671   1.911   3.680
 9544SOL    HW129531   6.689   1.886   3.585
 9544SOL    HW229532   6.583   1.873   3.708
 9545SOL     OW29533   6.038   5.517   4.169
 9545SOL    HW129534   5.973   5.544   4.239
 9545SOL    HW229535   6.120   5.479   4.213
 9546SOL     OW29536   3.804   2.090   5.312
 9546SOL    HW129537   3.782   2.187   5.311
 9546SOL    HW229538   3.791   2.054   5.404
 9547SOL     OW29539   1.982   6.344   4.455
 9547SOL    HW129540   1.957   6.350   4.551
 9547SOL    HW229541   1.903   6.314   4.402
 9548SOL     OW29542   6.466   5.263   6.258
 9548SOL    HW129543   6.452   5.352   6.217
 9548SOL    HW229544   6.455   5.192   6.189
 9549SOL     OW29545   2.630   2.755   1.317
 9549SOL    HW129546   2.596   2.673   1.271
 9549SOL    HW229547   2.727   2.767   1.295
 9550SOL     OW29548   0.761   1.698   0.300
 9550SOL    HW129549   0.776   1.601   0.280
 9550SOL    HW229550   0.794   1.718   0.392
 9551SOL     OW29551   5.786   1.243   4.833
 9551SOL    HW129552   5.705   1.261   4.888
 9551SOL    HW229553   5.768   1.166   4.771
 9552SOL     OW29554   1.475   6.804   3.451
 9552SOL    HW129555   1.466   6.892   3.499
 9552SOL    HW229556   1.563   6.763   3.473
 9553SOL     OW29557   6.632   3.870   6.499
 9553SOL    HW129558   6.593   3.780   6.515
 9553SOL    HW229559   6.642   3.918   6.587
 9554SOL     OW29560   1.900   0.188   1.197
 9554SOL    HW129561   1.950   0.220   1.116
 9554SOL    HW229562   1.802   0.182   1.175
 9555SOL     OW29563   1.082   1.047   2.937
 9555SOL    HW129564   1.095   0.960   2.984
 9555SOL    HW229565   1.168   1.075   2.894
 9556SOL     OW29566   1.478   2.713   2.348
 9556SOL    HW129567   1.573   2.718   2.377
 9556SOL    HW229568   1.427   2.792   2.382
 9557SOL     OW29569   0.414   0.352   2.566
 9557SOL    HW129570   0.382   0.349   2.472
 9557SOL    HW229571   0.336   0.368   2.628
 9558SOL     OW29572   6.108   6.800   4.642
 9558SOL    HW129573   6.130   6.742   4.720
 9558SOL    HW229574   6.182   6.795   4.574
 9559SOL     OW29575   0.358   4.383   1.071
 9559SOL    HW129576   0.443   4.329   1.077
 9559SOL    HW229577   0.377   4.477   1.099
 9560SOL     OW29578   1.513   1.908   3.573
 9560SOL    HW129579   1.557   1.820   3.592
 9560SOL    HW229580   1.543   1.975   3.641
 9561SOL     OW29581   1.619   6.595   0.141
 9561SOL    HW129582   1.632   6.496   0.149
 9561SOL    HW229583   1.700   6.637   0.101
 9562SOL     OW29584   3.554   0.129   5.769
 9562SOL    HW129585   3.559   0.167   5.861
 9562SOL    HW229586   3.577   0.031   5.772
 9563SOL     OW29587   6.257   0.199   0.927
 9563SOL    HW129588   6.192   0.154   0.865
 9563SOL    HW229589   6.340   0.223   0.877
 9564SOL     OW29590   2.733   0.221   6.947
 9564SOL    HW129591   2.741   0.209   0.024
 9564SOL    HW229592   2.640   0.198   6.919
 9565SOL     OW29593   4.064   6.534   4.571
 9565SOL    HW129594   3.969   6.507   4.558
 9565SOL    HW229595   4.096   6.502   4.660
 9566SOL     OW29596   1.717   5.188   0.233
 9566SOL    HW129597   1.813   5.183   0.261
 9566SOL    HW229598   1.688   5.284   0.229
 9567SOL     OW29599   5.634   4.495   6.695
 9567SOL    HW129600   5.670   4.515   6.604
 9567SOL    HW229601   5.546   4.449   6.686
 9568SOL     OW29602   4.879   2.475   6.243
 9568SOL    HW129603   4.966   2.427   6.253
 9568SOL    HW229604   4.821   2.427   6.178
 9569SOL     OW29605   0.295   1.519   2.997
 9569SOL    HW129606   0.283   1.420   2.989
 9569SOL    HW229607   0.211   1.559   3.034
 9570SOL     OW29608   1.114   3.296   2.310
 9570SOL    HW129609   1.194   3.337   2.265
 9570SOL    HW229610   1.065   3.239   2.245
 9571SOL     OW29611   2.778   3.767   6.764
 9571SOL    HW129612   2.700   3.721   6.805
 9571SOL    HW229613   2.825   3.821   6.833
 9572SOL     OW29614   1.907   5.685   1.986
 9572SOL    HW129615   1.862   5.597   1.998
 9572SOL    HW229616   1.838   5.756   1.968
 9573SOL     OW29617   1.064   0.715   6.636
 9573SOL    HW129618   1.071   0.660   6.553
 9573SOL    HW229619   1.135   0.688   6.701
 9574SOL     OW29620   4.091   3.653   4.144
 9574SOL    HW129621   4.060   3.609   4.228
 9574SOL    HW229622   4.052   3.745   4.138
 9575SOL     OW29623   6.478   1.227   1.535
 9575SOL    HW129624   6.413   1.293   1.574
 9575SOL    HW229625   6.478   1.144   1.591
 9576SOL     OW29626   2.251   0.440   2.073
 9576SOL    HW129627   2.174   0.463   2.133
 9576SOL    HW229628   2.329   0.411   2.128
 9577SOL     OW29629   1.135   0.589   4.741
 9577SOL    HW129630   1.213   0.599   4.803
 9577SOL    HW229631   1.166   0.551   4.654
 9578SOL     OW29632   0.772   3.718   3.186
 9578SOL    HW129633   0.707   3.765   3.126
 9578SOL    HW229634   0.784   3.771   3.270
 9579SOL     OW29635   1.834   5.167   2.787
 9579SOL    HW129636   1.831   5.265   2.768
 9579SOL    HW229637   1.869   5.118   2.706
 9580SOL     OW29638   3.845   3.030   0.916
 9580SOL    HW129639   3.942   3.031   0.941
 9580SOL    HW229640   3.829   2.958   0.848
 9581SOL     OW29641   0.641   5.219   6.478
 9581SOL    HW129642   0.593   5.279   6.414
 9581SOL    HW229643   0.703   5.159   6.429
 9582SOL     OW29644   4.900   4.972   4.930
 9582SOL    HW129645   4.972   4.923   4.978
 9582SOL    HW229646   4.825   4.910   4.908
 9583SOL     OW29647   3.907   4.792   1.274
 9583SOL    HW129648   3.879   4.857   1.203
 9583SOL    HW229649   3.972   4.837   1.335
 9584SOL     OW29650   6.592   6.275   0.023
 9584SOL    HW129651   6.528   6.204   7.015
 9584SOL    HW229652   6.548   6.331   0.094
 9585SOL     OW29653   5.906   0.061   4.202
 9585SOL    HW129654   5.920   0.044   4.299
 9585SOL    HW229655   5.893   0.159   4.187
 9586SOL     OW29656   5.701   4.208   2.634
 9586SOL    HW129657   5.620   4.197   2.691
 9586SOL    HW229658   5.700   4.140   2.561
 9587SOL     OW29659   6.844   1.191   2.305
 9587SOL    HW129660   6.801   1.105   2.334
 9587SOL    HW229661   6.779   1.266   2.318
 9588SOL     OW29662   0.578   1.669   2.500
 9588SOL    HW129663   0.549   1.723   2.580
 9588SOL    HW229664   0.664   1.623   2.521
 9589SOL     OW29665   2.318   5.364   5.621
 9589SOL    HW129666   2.259   5.434   5.580
 9589SOL    HW229667   2.264   5.307   5.683
 9590SOL     OW29668   0.425   3.983   2.225
 9590SOL    HW129669   0.387   3.936   2.305
 9590SOL    HW229670   0.523   3.966   2.219
 9591SOL     OW29671   3.012   6.205   6.619
 9591SOL    HW129672   2.984   6.226   6.713
 9591SOL    HW229673   3.103   6.163   6.621
 9592SOL     OW29674   3.694   4.189   1.326
 9592SOL    HW129675   3.772   4.143   1.368
 9592SOL    HW229676   3.630   4.121   1.291
 9593SOL     OW29677   6.658   6.892   4.527
 9593SOL    HW129678   6.744   6.933   4.557
 9593SOL    HW229679   6.650   6.799   4.565
 9594SOL     OW29680   1.596   6.220   2.788
 9594SOL    HW129681   1.657   6.295   2.813
 9594SOL    HW229682   1.522   6.255   2.730
 9595SOL     OW29683   2.037   4.479   4.995
 9595SOL    HW129684   2.090   4.562   4.978
 9595SOL    HW229685   1.993   4.486   5.084
 9596SOL     OW29686   0.027   6.155   0.416
 9596SOL    HW129687   0.064   6.120   0.502
 9596SOL    HW229688   6.965   6.105   0.393
 9597SOL     OW29689   0.379   4.795   0.813
 9597SOL    HW129690   0.336   4.853   0.744
 9597SOL    HW229691   0.442   4.731   0.768
 9598SOL     OW29692   1.122   3.670   5.145
 9598SOL    HW129693   1.045   3.714   5.098
 9598SOL    HW229694   1.171   3.612   5.080
 9599SOL     OW29695   3.593   0.421   5.407
 9599SOL    HW129696   3.514   0.432   5.346
 9599SOL    HW229697   3.677   0.445   5.359
 9600SOL     OW29698   2.572   6.963   0.404
 9600SOL    HW129699   2.637   6.887   0.409
 9600SOL    HW229700   2.591   0.006   0.477
 9601SOL     OW29701   6.420   3.687   0.489
 9601SOL    HW129702   6.380   3.611   0.438
 9601SOL    HW229703   6.520   3.679   0.487
 9602SOL     OW29704   6.844   4.813   6.629
 9602SOL    HW129705   6.840   4.781   6.534
 9602SOL    HW229706   6.931   4.786   6.670
 9603SOL     OW29707   3.412   1.059   5.175
 9603SOL    HW129708   3.446   0.979   5.223
 9603SOL    HW229709   3.439   1.055   5.079
 9604SOL     OW29710   4.681   0.660   0.487
 9604SOL    HW129711   4.743   0.618   0.554
 9604SOL    HW229712   4.696   0.619   0.397
 9605SOL     OW29713   0.940   4.810   4.812
 9605SOL    HW129714   0.913   4.719   4.778
 9605SOL    HW229715   1.028   4.835   4.773
 9606SOL     OW29716   1.370   6.011   5.560
 9606SOL    HW129717   1.462   5.980   5.539
 9606SOL    HW229718   1.370   6.059   5.648
 9607SOL     OW29719   1.421   2.414   1.912
 9607SOL    HW129720   1.416   2.449   2.005
 9607SOL    HW229721   1.335   2.369   1.889
 9608SOL     OW29722   6.662   6.565   2.026
 9608SOL    HW129723   6.624   6.555   1.934
 9608SOL    HW229724   6.624   6.647   2.069
 9609SOL     OW29725   2.293   3.966   6.222
 9609SOL    HW129726   2.280   3.872   6.255
 9609SOL    HW229727   2.265   3.973   6.127
 9610SOL     OW29728   1.962   4.702   3.867
 9610SOL    HW129729   1.917   4.736   3.950
 9610SOL    HW229730   1.906   4.629   3.828
 9611SOL     OW29731   0.260   0.024   0.171
 9611SOL    HW129732   0.324   6.973   0.195
 9611SOL    HW229733   0.246   0.025   0.072
 9612SOL     OW29734   6.555   3.211   1.648
 9612SOL    HW129735   6.536   3.220   1.550
 9612SOL    HW229736   6.540   3.299   1.693
 9613SOL     OW29737   4.003   6.714   3.269
 9613SOL    HW129738   3.987   6.692   3.366
 9613SOL    HW229739   3.916   6.736   3.225
 9614SOL     OW29740   4.044   2.645   0.859
 9614SOL    HW129741   3.985   2.703   0.802
 9614SOL    HW229742   4.110   2.597   0.800
 9615SOL     OW29743   0.805   6.929   2.075
 9615SOL    HW129744   0.758   6.848   2.041
 9615SOL    HW229745   0.739   6.989   2.120
 9616SOL     OW29746   4.492   3.372   0.768
 9616SOL    HW129747   4.463   3.369   0.673
 9616SOL    HW229748   4.524   3.464   0.791
 9617SOL     OW29749   0.923   3.849   4.381
 9617SOL    HW129750   0.951   3.855   4.477
 9617SOL    HW229751   0.910   3.942   4.345
 9618SOL     OW29752   4.371   0.249   6.256
 9618SOL    HW129753   4.470   0.242   6.239
 9618SOL    HW229754   4.355   0.254   6.354
 9619SOL     OW29755   1.132   0.298   0.365
 9619SOL    HW129756   1.136   0.292   0.265
 9619SOL    HW229757   1.039   0.283   0.396
 9620SOL     OW29758   5.716   1.825   6.697
 9620SOL    HW129759   5.762   1.769   6.765
 9620SOL    HW229760   5.699   1.916   6.734
 9621SOL     OW29761   1.565   1.414   3.061
 9621SOL    HW129762   1.495   1.468   3.107
 9621SOL    HW229763   1.570   1.323   3.102
 9622SOL     OW29764   5.883   1.141   6.759
 9622SOL    HW129765   5.864   1.043   6.759
 9622SOL    HW229766   5.811   1.189   6.708
 9623SOL     OW29767   3.802   5.085   5.483
 9623SOL    HW129768   3.743   5.155   5.444
 9623SOL    HW229769   3.866   5.127   5.547
 9624SOL     OW29770   5.752   4.369   3.615
 9624SOL    HW129771   5.747   4.278   3.575
 9624SOL    HW229772   5.762   4.362   3.714
 9625SOL     OW29773   5.326   5.229   7.015
 9625SOL    HW129774   5.265   5.307   0.006
 9625SOL    HW229775   5.295   5.152   0.048
 9626SOL     OW29776   2.704   6.146   6.000
 9626SOL    HW129777   2.754   6.064   6.027
 9626SOL    HW229778   2.708   6.214   6.074
 9627SOL     OW29779   6.629   4.321   4.450
 9627SOL    HW129780   6.711   4.318   4.393
 9627SOL    HW229781   6.592   4.414   4.450
 9628SOL     OW29782   5.959   4.302   0.374
 9628SOL    HW129783   6.035   4.367   0.360
 9628SOL    HW229784   5.922   4.275   0.286
 9629SOL     OW29785   6.337   6.224   2.570
 9629SOL    HW129786   6.301   6.170   2.646
 9629SOL    HW229787   6.396   6.167   2.514
 9630SOL     OW29788   6.888   5.957   5.162
 9630SOL    HW129789   6.878   5.944   5.063
 9630SOL    HW229790   6.856   6.049   5.186
 9631SOL     OW29791   5.395   1.416   0.565
 9631SOL    HW129792   5.481   1.393   0.519
 9631SOL    HW229793   5.326   1.438   0.497
 9632SOL     OW29794   2.209   5.661   1.530
 9632SOL    HW129795   2.155   5.696   1.606
 9632SOL    HW229796   2.257   5.579   1.559
 9633SOL     OW29797   3.871   4.193   0.376
 9633SOL    HW129798   3.880   4.166   0.472
 9633SOL    HW229799   3.774   4.205   0.354
 9634SOL     OW29800   6.847   6.377   3.909
 9634SOL    HW129801   6.794   6.308   3.958
 9634SOL    HW229802   6.828   6.467   3.949
 9635SOL     OW29803   2.348   4.555   5.335
 9635SOL    HW129804   2.348   4.584   5.430
 9635SOL    HW229805   2.389   4.464   5.328
 9636SOL     OW29806   4.463   1.932   6.433
 9636SOL    HW129807   4.374   1.952   6.474
 9636SOL    HW229808   4.521   2.013   6.436
 9637SOL     OW29809   3.499   2.427   0.231
 9637SOL    HW129810   3.577   2.437   0.170
 9637SOL    HW229811   3.524   2.369   0.309
 9638SOL     OW29812   0.210   2.918   5.613
 9638SOL    HW129813   0.267   3.000   5.612
 9638SOL    HW229814   0.262   2.840   5.577
 9639SOL     OW29815   4.158   2.205   2.366
 9639SOL    HW129816   4.243   2.167   2.401
 9639SOL    HW229817   4.179   2.284   2.307
 9640SOL     OW29818   3.272   0.612   2.800
 9640SOL    HW129819   3.250   0.555   2.879
 9640SOL    HW229820   3.361   0.586   2.763
 9641SOL     OW29821   5.658   5.482   1.516
 9641SOL    HW129822   5.668   5.452   1.611
 9641SOL    HW229823   5.634   5.404   1.459
 9642SOL     OW29824   1.548   5.437   4.305
 9642SOL    HW129825   1.567   5.394   4.393
 9642SOL    HW229826   1.552   5.368   4.232
 9643SOL     OW29827   5.188   4.302   3.661
 9643SOL    HW129828   5.269   4.338   3.615
 9643SOL    HW229829   5.109   4.360   3.640
 9644SOL     OW29830   0.835   5.330   5.427
 9644SOL    HW129831   0.805   5.424   5.412
 9644SOL    HW229832   0.877   5.294   5.344
 9645SOL     OW29833   3.072   4.886   4.459
 9645SOL    HW129834   2.993   4.825   4.460
 9645SOL    HW229835   3.053   4.966   4.401
 9646SOL     OW29836   2.368   4.803   1.831
 9646SOL    HW129837   2.287   4.753   1.800
 9646SOL    HW229838   2.342   4.896   1.858
 9647SOL     OW29839   0.264   6.309   2.672
 9647SOL    HW129840   0.276   6.275   2.579
 9647SOL    HW229841   0.249   6.408   2.670
 9648SOL     OW29842   3.891   2.254   6.854
 9648SOL    HW129843   3.891   2.238   6.756
 9648SOL    HW229844   3.885   2.166   6.902
 9649SOL     OW29845   1.963   4.182   6.891
 9649SOL    HW129846   2.028   4.237   6.839
 9649SOL    HW229847   1.949   4.095   6.845
 9650SOL     OW29848   4.489   4.747   3.473
 9650SOL    HW129849   4.543   4.674   3.514
 9650SOL    HW229850   4.401   4.710   3.442
 9651SOL     OW29851   5.283   1.362   1.280
 9651SOL    HW129852   5.352   1.290   1.276
 9651SOL    HW229853   5.273   1.404   1.190
 9652SOL     OW29854   1.205   4.848   1.685
 9652SOL    HW129855   1.282   4.864   1.623
 9652SOL    HW229856   1.123   4.892   1.649
 9653SOL     OW29857   5.179   5.565   4.882
 9653SOL    HW129858   5.161   5.491   4.816
 9653SOL    HW229859   5.093   5.593   4.925
 9654SOL     OW29860   3.412   3.170   2.793
 9654SOL    HW129861   3.328   3.222   2.811
 9654SOL    HW229862   3.490   3.232   2.791
 9655SOL     OW29863   0.361   1.566   0.317
 9655SOL    HW129864   0.350   1.513   0.401
 9655SOL    HW229865   0.443   1.623   0.324
 9656SOL     OW29866   4.275   2.261   0.752
 9656SOL    HW129867   4.308   2.225   0.839
 9656SOL    HW229868   4.218   2.191   0.708
 9657SOL     OW29869   5.696   3.184   2.815
 9657SOL    HW129870   5.729   3.168   2.722
 9657SOL    HW229871   5.685   3.282   2.830
 9658SOL     OW29872   5.436   2.038   2.451
 9658SOL    HW129873   5.535   2.047   2.460
 9658SOL    HW229874   5.410   1.943   2.463
 9659SOL     OW29875   0.175   3.547   0.412
 9659SOL    HW129876   0.259   3.492   0.412
 9659SOL    HW229877   0.124   3.530   0.328
 9660SOL     OW29878   0.413   6.990   2.818
 9660SOL    HW129879   0.378   6.973   2.726
 9660SOL    HW229880   0.490   6.929   2.837
 9661SOL     OW29881   3.501   6.067   1.315
 9661SOL    HW129882   3.541   6.156   1.293
 9661SOL    HW229883   3.485   6.062   1.414
 9662SOL     OW29884   3.799   3.249   5.583
 9662SOL    HW129885   3.822   3.286   5.672
 9662SOL    HW229886   3.882   3.241   5.527
 9663SOL     OW29887   6.196   6.410   2.431
 9663SOL    HW129888   6.242   6.339   2.484
 9663SOL    HW229889   6.259   6.447   2.363
 9664SOL     OW29890   5.799   5.699   4.615
 9664SOL    HW129891   5.813   5.719   4.518
 9664SOL    HW229892   5.812   5.601   4.631
 9665SOL     OW29893   6.075   5.746   6.462
 9665SOL    HW129894   6.150   5.804   6.432
 9665SOL    HW229895   6.110   5.653   6.479
 9666SOL     OW29896   6.339   3.818   2.348
 9666SOL    HW129897   6.406   3.850   2.281
 9666SOL    HW229898   6.381   3.751   2.409
 9667SOL     OW29899   4.087   3.003   6.391
 9667SOL    HW129900   4.107   2.967   6.482
 9667SOL    HW229901   4.141   3.086   6.376
 9668SOL     OW29902   6.895   0.696   6.003
 9668SOL    HW129903   6.981   0.746   6.012
 9668SOL    HW229904   6.911   0.599   6.021
 9669SOL     OW29905   1.854   6.805   2.259
 9669SOL    HW129906   1.903   6.727   2.298
 9669SOL    HW229907   1.920   6.874   2.228
 9670SOL     OW29908   6.858   4.952   5.723
 9670SOL    HW129909   6.770   4.993   5.745
 9670SOL    HW229910   6.851   4.903   5.636
 9671SOL     OW29911   6.903   4.211   0.005
 9671SOL    HW129912   6.843   4.288   7.005
 9671SOL    HW229913   6.998   4.243   0.011
 9672SOL     OW29914   1.812   5.575   3.279
 9672SOL    HW129915   1.730   5.598   3.227
 9672SOL    HW229916   1.787   5.526   3.362
 9673SOL     OW29917   4.631   3.523   1.163
 9673SOL    HW129918   4.557   3.542   1.227
 9673SOL    HW229919   4.613   3.570   1.076
 9674SOL     OW29920   3.441   6.905   3.267
 9674SOL    HW129921   3.411   6.901   3.172
 9674SOL    HW229922   3.488   6.820   3.291
 9675SOL     OW29923   5.313   2.705   6.782
 9675SOL    HW129924   5.384   2.636   6.795
 9675SOL    HW229925   5.223   2.662   6.790
 9676SOL     OW29926   2.038   3.309   5.887
 9676SOL    HW129927   2.058   3.229   5.944
 9676SOL    HW229928   2.089   3.388   5.922
 9677SOL     OW29929   0.159   5.589   4.558
 9677SOL    HW129930   0.212   5.589   4.642
 9677SOL    HW229931   0.070   5.630   4.574
 9678SOL     OW29932   2.963   3.783   3.728
 9678SOL    HW129933   2.877   3.744   3.693
 9678SOL    HW229934   3.036   3.716   3.719
 9679SOL     OW29935   3.343   1.141   3.143
 9679SOL    HW129936   3.387   1.129   3.054
 9679SOL    HW229937   3.244   1.150   3.129
 9680SOL     OW29938   4.483   0.943   3.279
 9680SOL    HW129939   4.506   1.010   3.208
 9680SOL    HW229940   4.386   0.949   3.300
 9681SOL     OW29941   3.075   1.785   0.777
 9681SOL    HW129942   3.167   1.820   0.799
 9681SOL    HW229943   3.084   1.699   0.727
 9682SOL     OW29944   4.813   3.981   4.062
 9682SOL    HW129945   4.755   4.062   4.066
 9682SOL    HW229946   4.869   3.976   4.144
 9683SOL     OW29947   3.102   5.856   1.615
 9683SOL    HW129948   3.065   5.768   1.586
 9683SOL    HW229949   3.177   5.841   1.680
 9684SOL     OW29950   0.465   3.235   6.604
 9684SOL    HW129951   0.543   3.284   6.643
 9684SOL    HW229952   0.435   3.163   6.667
 9685SOL     OW29953   3.760   4.459   1.309
 9685SOL    HW129954   3.736   4.362   1.306
 9685SOL    HW229955   3.676   4.514   1.307
 9686SOL     OW29956   0.493   2.442   0.051
 9686SOL    HW129957   0.487   2.523   7.014
 9686SOL    HW229958   0.435   2.457   0.132
 9687SOL     OW29959   1.535   0.652   4.028
 9687SOL    HW129960   1.606   0.582   4.036
 9687SOL    HW229961   1.445   0.609   4.036
 9688SOL     OW29962   0.957   3.164   1.678
 9688SOL    HW129963   0.936   3.072   1.647
 9688SOL    HW229964   1.025   3.160   1.752
 9689SOL     OW29965   1.022   4.527   5.929
 9689SOL    HW129966   1.039   4.621   5.899
 9689SOL    HW229967   0.973   4.529   6.016
 9690SOL     OW29968   5.817   5.104   6.826
 9690SOL    HW129969   5.728   5.080   6.864
 9690SOL    HW229970   5.857   5.024   6.781
 9691SOL     OW29971   3.536   5.264   1.332
 9691SOL    HW129972   3.517   5.206   1.253
 9691SOL    HW229973   3.478   5.236   1.409
 9692SOL     OW29974   3.906   6.008   2.356
 9692SOL    HW129975   3.872   6.077   2.293
 9692SOL    HW229976   3.914   5.920   2.309
 9693SOL     OW29977   5.381   4.262   2.278
 9693SOL    HW129978   5.368   4.164   2.296
 9693SOL    HW229979   5.476   4.287   2.296
 9694SOL     OW29980   2.984   0.970   0.767
 9694SOL    HW129981   2.980   0.871   0.780
 9694SOL    HW229982   3.059   1.007   0.823
 9695SOL     OW29983   6.479   3.159   3.256
 9695SOL    HW129984   6.543   3.084   3.269
 9695SOL    HW229985   6.506   3.237   3.312
 9696SOL     OW29986   5.391   3.104   1.167
 9696SOL    HW129987   5.376   3.200   1.144
 9696SOL    HW229988   5.405   3.052   1.082
 9697SOL     OW29989   0.401   4.805   6.929
 9697SOL    HW129990   0.347   4.849   6.858
 9697SOL    HW229991   0.344   4.793   7.011
 9698SOL     OW29992   4.838   1.779   5.884
 9698SOL    HW129993   4.827   1.774   5.785
 9698SOL    HW229994   4.934   1.795   5.907
 9699SOL     OW29995   6.409   5.400   6.783
 9699SOL    HW129996   6.309   5.407   6.773
 9699SOL    HW229997   6.443   5.331   6.719
 9700SOL     OW29998   4.951   5.673   5.054
 9700SOL    HW129999   5.000   5.689   5.140
 9700SOL    HW230000   4.886   5.747   5.039
 9701SOL     OW30001   4.541   4.783   5.692
 9701SOL    HW130002   4.599   4.827   5.623
 9701SOL    HW230003   4.596   4.763   5.773
 9702SOL     OW30004   4.519   0.779   6.438
 9702SOL    HW130005   4.615   0.765   6.463
 9702SOL    HW230006   4.501   0.877   6.429
 9703SOL     OW30007   4.855   3.541   3.811
 9703SOL    HW130008   4.842   3.457   3.758
 9703SOL    HW230009   4.855   3.520   3.908
 9704SOL     OW30010   3.460   0.210   1.770
 9704SOL    HW130011   3.552   0.203   1.731
 9704SOL    HW230012   3.414   0.122   1.764
 9705SOL     OW30013   5.380   4.328   5.664
 9705SOL    HW130014   5.437   4.395   5.710
 9705SOL    HW230015   5.437   4.263   5.614
 9706SOL     OW30016   2.051   3.334   1.028
 9706SOL    HW130017   2.137   3.293   0.999
 9706SOL    HW230018   2.046   3.428   0.994
 9707SOL     OW30019   6.144   4.893   2.284
 9707SOL    HW130020   6.144   4.908   2.382
 9707SOL    HW230021   6.223   4.937   2.242
 9708SOL     OW30022   1.575   1.843   4.327
 9708SOL    HW130023   1.560   1.889   4.415
 9708SOL    HW230024   1.555   1.746   4.337
 9709SOL     OW30025   5.207   5.995   2.856
 9709SOL    HW130026   5.116   5.984   2.895
 9709SOL    HW230027   5.265   5.918   2.882
 9710SOL     OW30028   0.258   1.718   1.256
 9710SOL    HW130029   0.315   1.651   1.304
 9710SOL    HW230030   0.208   1.673   1.182
 9711SOL     OW30031   3.286   5.509   6.339
 9711SOL    HW130032   3.261   5.531   6.433
 9711SOL    HW230033   3.234   5.430   6.308
 9712SOL     OW30034   5.479   3.770   6.423
 9712SOL    HW130035   5.401   3.708   6.420
 9712SOL    HW230036   5.498   3.804   6.331
 9713SOL     OW30037   1.384   4.937   2.943
 9713SOL    HW130038   1.300   4.936   2.997
 9713SOL    HW230039   1.362   4.919   2.847
 9714SOL     OW30040   4.499   6.562   6.327
 9714SOL    HW130041   4.438   6.550   6.405
 9714SOL    HW230042   4.449   6.546   6.242
 9715SOL     OW30043   5.922   4.160   6.766
 9715SOL    HW130044   5.963   4.082   6.812
 9715SOL    HW230045   5.832   4.179   6.805
 9716SOL     OW30046   3.968   4.536   6.679
 9716SOL    HW130047   3.936   4.559   6.587
 9716SOL    HW230048   3.945   4.611   6.742
 9717SOL     OW30049   5.803   5.942   6.143
 9717SOL    HW130050   5.877   5.880   6.117
 9717SOL    HW230051   5.739   5.894   6.203
 9718SOL     OW30052   4.732   3.261   0.131
 9718SOL    HW130053   4.775   3.296   0.048
 9718SOL    HW230054   4.694   3.170   0.113
 9719SOL     OW30055   6.426   1.042   5.576
 9719SOL    HW130056   6.485   1.122   5.590
 9719SOL    HW230057   6.406   1.000   5.664
 9720SOL     OW30058   0.056   5.129   1.991
 9720SOL    HW130059   0.076   5.227   1.980
 9720SOL    HW230060   0.049   5.107   2.088
 9721SOL     OW30061   0.104   1.736   0.251
 9721SOL    HW130062   0.176   1.671   0.227
 9721SOL    HW230063   0.137   1.796   0.324
 9722SOL     OW30064   4.780   0.558   4.494
 9722SOL    HW130065   4.700   0.543   4.436
 9722SOL    HW230066   4.828   0.640   4.464
 9723SOL     OW30067   2.857   6.996   2.964
 9723SOL    HW130068   2.869   6.898   2.947
 9723SOL    HW230069   2.919   0.003   3.037
 9724SOL     OW30070   1.249   4.127   0.407
 9724SOL    HW130071   1.180   4.176   0.354
 9724SOL    HW230072   1.208   4.047   0.451
 9725SOL     OW30073   4.649   4.986   6.112
 9725SOL    HW130074   4.585   5.060   6.132
 9725SOL    HW230075   4.741   5.012   6.139
 9726SOL     OW30076   5.234   1.460   3.967
 9726SOL    HW130077   5.209   1.399   4.042
 9726SOL    HW230078   5.271   1.406   3.891
 9727SOL     OW30079   1.264   2.824   6.832
 9727SOL    HW130080   1.266   2.724   6.837
 9727SOL    HW230081   1.320   2.854   6.754
 9728SOL     OW30082   1.050   0.490   5.654
 9728SOL    HW130083   0.961   0.448   5.668
 9728SOL    HW230084   1.118   0.420   5.635
 9729SOL     OW30085   0.949   4.289   3.116
 9729SOL    HW130086   0.892   4.333   3.186
 9729SOL    HW230087   1.045   4.312   3.132
 9730SOL     OW30088   1.241   3.900   3.680
 9730SOL    HW130089   1.171   3.849   3.730
 9730SOL    HW230090   1.331   3.880   3.719
 9731SOL     OW30091   4.962   4.443   1.024
 9731SOL    HW130092   4.937   4.347   1.013
 9731SOL    HW230093   5.002   4.456   1.115
 9732SOL     OW30094   6.837   5.318   2.608
 9732SOL    HW130095   6.885   5.389   2.558
 9732SOL    HW230096   6.739   5.332   2.601
 9733SOL     OW30097   5.788   5.468   0.260
 9733SOL    HW130098   5.746   5.421   0.182
 9733SOL    HW230099   5.885   5.445   0.264
 9734SOL     OW30100   6.618   1.779   1.258
 9734SOL    HW130101   6.633   1.704   1.193
 9734SOL    HW230102   6.579   1.744   1.342
 9735SOL     OW30103   2.123   3.637   3.933
 9735SOL    HW130104   2.143   3.540   3.952
 9735SOL    HW230105   2.029   3.657   3.958
 9736SOL     OW30106   6.219   2.211   6.533
 9736SOL    HW130107   6.131   2.206   6.486
 9736SOL    HW230108   6.273   2.129   6.512
 9737SOL     OW30109   5.234   3.433   3.400
 9737SOL    HW130110   5.318   3.462   3.446
 9737SOL    HW230111   5.156   3.443   3.462
 9738SOL     OW30112   2.041   0.673   0.567
 9738SOL    HW130113   2.039   0.715   0.658
 9738SOL    HW230114   2.133   0.678   0.530
 9739SOL     OW30115   5.908   5.562   1.525
 9739SOL    HW130116   5.917   5.638   1.460
 9739SOL    HW230117   5.817   5.522   1.515
 9740SOL     OW30118   6.837   1.554   3.616
 9740SOL    HW130119   6.888   1.549   3.530
 9740SOL    HW230120   6.745   1.518   3.602
 9741SOL     OW30121   4.007   1.404   2.638
 9741SOL    HW130122   3.999   1.494   2.595
 9741SOL    HW230123   3.917   1.364   2.648
 9742SOL     OW30124   4.271   1.101   0.633
 9742SOL    HW130125   4.281   1.002   0.640
 9742SOL    HW230126   4.324   1.134   0.554
 9743SOL     OW30127   0.018   3.066   4.726
 9743SOL    HW130128   0.082   2.991   4.710
 9743SOL    HW230129   0.068   3.152   4.727
 9744SOL     OW30130   1.579   6.814   2.202
 9744SOL    HW130131   1.676   6.802   2.225
 9744SOL    HW230132   1.568   6.895   2.144
 9745SOL     OW30133   5.337   2.903   6.604
 9745SOL    HW130134   5.378   2.858   6.524
 9745SOL    HW230135   5.311   2.834   6.671
 9746SOL     OW30136   6.620   0.147   5.288
 9746SOL    HW130137   6.536   0.145   5.341
 9746SOL    HW230138   6.598   0.141   5.190
 9747SOL     OW30139   2.597   0.903   1.617
 9747SOL    HW130140   2.577   0.887   1.521
 9747SOL    HW230141   2.627   0.997   1.630
 9748SOL     OW30142   7.021   0.895   3.431
 9748SOL    HW130143   0.072   0.934   3.487
 9748SOL    HW230144   0.038   0.862   3.345
 9749SOL     OW30145   2.504   0.157   4.427
 9749SOL    HW130146   2.574   0.173   4.358
 9749SOL    HW230147   2.548   0.123   4.511
 9750SOL     OW30148   5.931   4.160   2.811
 9750SOL    HW130149   5.869   4.177   2.734
 9750SOL    HW230150   5.896   4.206   2.892
 9751SOL     OW30151   1.822   1.165   0.236
 9751SOL    HW130152   1.786   1.234   0.174
 9751SOL    HW230153   1.907   1.197   0.276
 9752SOL     OW30154   4.544   2.028   5.245
 9752SOL    HW130155   4.633   1.989   5.219
 9752SOL    HW230156   4.475   2.001   5.178
 9753SOL     OW30157   6.474   5.666   6.345
 9753SOL    HW130158   6.546   5.723   6.304
 9753SOL    HW230159   6.442   5.600   6.277
 9754SOL     OW30160   2.062   0.752   0.097
 9754SOL    HW130161   2.108   0.709   0.020
 9754SOL    HW230162   1.965   0.727   0.097
 9755SOL     OW30163   3.271   3.703   4.319
 9755SOL    HW130164   3.233   3.611   4.328
 9755SOL    HW230165   3.226   3.765   4.384
 9756SOL     OW30166   6.035   3.525   0.140
 9756SOL    HW130167   6.023   3.568   0.229
 9756SOL    HW230168   6.064   3.594   0.073
 9757SOL     OW30169   5.645   3.967   3.991
 9757SOL    HW130170   5.738   3.968   4.029
 9757SOL    HW230171   5.627   3.879   3.949
 9758SOL     OW30172   2.464   6.907   6.862
 9758SOL    HW130173   2.454   6.808   6.849
 9758SOL    HW230174   2.488   6.925   6.957
 9759SOL     OW30175   1.357   0.115   0.393
 9759SOL    HW130176   1.286   0.184   0.408
 9759SOL    HW230177   1.322   0.046   0.330
 9760SOL     OW30178   4.857   3.002   5.332
 9760SOL    HW130179   4.871   2.945   5.251
 9760SOL    HW230180   4.871   2.946   5.414
 9761SOL     OW30181   6.669   1.396   2.333
 9761SOL    HW130182   6.659   1.462   2.407
 9761SOL    HW230183   6.599   1.413   2.264
 9762SOL     OW30184   3.427   1.299   4.222
 9762SOL    HW130185   3.404   1.352   4.140
 9762SOL    HW230186   3.526   1.287   4.226
 9763SOL     OW30187   4.988   1.495   1.983
 9763SOL    HW130188   4.913   1.561   1.990
 9763SOL    HW230189   4.982   1.429   2.058
 9764SOL     OW30190   0.221   2.712   3.199
 9764SOL    HW130191   0.185   2.805   3.193
 9764SOL    HW230192   0.247   2.692   3.294
 9765SOL     OW30193   6.778   0.216   3.388
 9765SOL    HW130194   6.766   0.220   3.289
 9765SOL    HW230195   6.747   0.302   3.429
 9766SOL     OW30196   3.344   6.994   2.128
 9766SOL    HW130197   3.421   6.932   2.120
 9766SOL    HW230198   3.367   0.060   2.086
 9767SOL     OW30199   4.381   0.482   4.886
 9767SOL    HW130200   4.394   0.564   4.831
 9767SOL    HW230201   4.291   0.443   4.867
 9768SOL     OW30202   6.304   1.301   2.254
 9768SOL    HW130203   6.390   1.340   2.220
 9768SOL    HW230204   6.310   1.290   2.354
 9769SOL     OW30205   4.216   1.253   3.290
 9769SOL    HW130206   4.229   1.157   3.269
 9769SOL    HW230207   4.146   1.291   3.230
 9770SOL     OW30208   5.045   0.880   6.399
 9770SOL    HW130209   5.056   0.920   6.308
 9770SOL    HW230210   5.010   0.787   6.391
 9771SOL     OW30211   2.427   6.062   0.243
 9771SOL    HW130212   2.367   6.081   0.165
 9771SOL    HW230213   2.518   6.100   0.226
 9772SOL     OW30214   1.923   6.387   1.806
 9772SOL    HW130215   1.881   6.409   1.718
 9772SOL    HW230216   1.868   6.427   1.880
 9773SOL     OW30217   5.118   5.717   3.912
 9773SOL    HW130218   5.163   5.773   3.842
 9773SOL    HW230219   5.019   5.730   3.906
 9774SOL     OW30220   0.299   4.950   1.881
 9774SOL    HW130221   0.388   4.972   1.841
 9774SOL    HW230222   0.287   5.004   1.964
 9775SOL     OW30223   2.519   0.525   3.230
 9775SOL    HW130224   2.444   0.466   3.199
 9775SOL    HW230225   2.517   0.530   3.330
 9776SOL     OW30226   1.501   4.088   4.693
 9776SOL    HW130227   1.578   4.060   4.637
 9776SOL    HW230228   1.531   4.102   4.787
 9777SOL     OW30229   6.741   6.128   0.428
 9777SOL    HW130230   6.748   6.167   0.336
 9777SOL    HW230231   6.652   6.085   0.439
 9778SOL     OW30232   0.112   1.071   4.020
 9778SOL    HW130233   0.085   1.123   4.101
 9778SOL    HW230234   0.148   0.982   4.047
 9779SOL     OW30235   1.207   1.441   4.227
 9779SOL    HW130236   1.112   1.420   4.249
 9779SOL    HW230237   1.247   1.367   4.173
 9780SOL     OW30238   2.571   2.079   1.270
 9780SOL    HW130239   2.659   2.111   1.303
 9780SOL    HW230240   2.567   1.979   1.275
 9781SOL     OW30241   2.156   3.675   4.253
 9781SOL    HW130242   2.204   3.608   4.310
 9781SOL    HW230243   2.146   3.640   4.160
 9782SOL     OW30244   0.072   1.553   1.097
 9782SOL    HW130245   7.011   1.547   1.040
 9782SOL    HW230246   0.098   1.461   1.127
 9783SOL     OW30247   4.283   2.237   2.960
 9783SOL    HW130248   4.366   2.184   2.976
 9783SOL    HW230249   4.261   2.237   2.863
 9784SOL     OW30250   3.685   1.681   4.660
 9784SOL    HW130251   3.739   1.758   4.625
 9784SOL    HW230252   3.745   1.602   4.673
 9785SOL     OW30253   0.470   2.640   6.372
 9785SOL    HW130254   0.475   2.651   6.471
 9785SOL    HW230255   0.410   2.710   6.333
 9786SOL     OW30256   2.255   4.507   0.397
 9786SOL    HW130257   2.218   4.422   0.360
 9786SOL    HW230258   2.189   4.549   0.459
 9787SOL     OW30259   4.281   3.970   1.730
 9787SOL    HW130260   4.237   3.929   1.810
 9787SOL    HW230261   4.342   4.044   1.760
 9788SOL     OW30262   0.440   1.001   3.892
 9788SOL    HW130263   0.417   0.904   3.903
 9788SOL    HW230264   0.536   1.009   3.863
 9789SOL     OW30265   1.232   5.391   0.721
 9789SOL    HW130266   1.144   5.429   0.752
 9789SOL    HW230267   1.305   5.457   0.740
 9790SOL     OW30268   6.434   4.687   6.767
 9790SOL    HW130269   6.422   4.785   6.776
 9790SOL    HW230270   6.384   4.639   6.839
 9791SOL     OW30271   0.899   1.385   2.279
 9791SOL    HW130272   0.983   1.409   2.327
 9791SOL    HW230273   0.891   1.441   2.197
 9792SOL     OW30274   4.479   4.822   0.951
 9792SOL    HW130275   4.460   4.814   1.049
 9792SOL    HW230276   4.412   4.883   0.909
 9793SOL     OW30277   4.505   6.544   2.981
 9793SOL    HW130278   4.527   6.464   2.926
 9793SOL    HW230279   4.417   6.582   2.951
 9794SOL     OW30280   0.005   4.763   0.673
 9794SOL    HW130281   6.937   4.727   0.700
 9794SOL    HW230282   0.077   4.704   0.708
 9795SOL     OW30283   2.210   1.794   4.547
 9795SOL    HW130284   2.216   1.778   4.448
 9795SOL    HW230285   2.296   1.766   4.590
 9796SOL     OW30286   3.793   2.346   1.467
 9796SOL    HW130287   3.867   2.351   1.534
 9796SOL    HW230288   3.831   2.357   1.375
 9797SOL     OW30289   2.469   5.643   6.502
 9797SOL    HW130290   2.429   5.725   6.542
 9797SOL    HW230291   2.505   5.584   6.575
 9798SOL     OW30292   2.927   0.806   2.026
 9798SOL    HW130293   2.853   0.818   1.961
 9798SOL    HW230294   2.993   0.880   2.016
 9799SOL     OW30295   3.558   2.916   4.624
 9799SOL    HW130296   3.550   2.916   4.724
 9799SOL    HW230297   3.643   2.961   4.598
 9800SOL     OW30298   3.861   6.021   4.692
 9800SOL    HW130299   3.899   6.040   4.783
 9800SOL    HW230300   3.768   5.986   4.701
 9801SOL     OW30301   4.633   4.323   6.516
 9801SOL    HW130302   4.571   4.309   6.593
 9801SOL    HW230303   4.669   4.416   6.518
 9802SOL     OW30304   0.049   3.562   1.063
 9802SOL    HW130305   0.034   3.469   1.096
 9802SOL    HW230306   0.144   3.571   1.031
 9803SOL     OW30307   0.838   2.018   6.702
 9803SOL    HW130308   0.879   2.060   6.783
 9803SOL    HW230309   0.846   2.080   6.624
 9804SOL     OW30310   1.685   6.927   2.608
 9804SOL    HW130311   1.636   6.965   2.687
 9804SOL    HW230312   1.632   6.944   2.525
 9805SOL     OW30313   1.535   0.008   4.417
 9805SOL    HW130314   1.623   0.053   4.402
 9805SOL    HW230315   1.464   0.077   4.434
 9806SOL     OW30316   1.313   1.065   0.192
 9806SOL    HW130317   1.367   1.072   0.108
 9806SOL    HW230318   1.293   0.969   0.211
 9807SOL     OW30319   2.767   4.433   0.573
 9807SOL    HW130320   2.825   4.352   0.577
 9807SOL    HW230321   2.678   4.409   0.535
 9808SOL     OW30322   4.030   0.135   5.198
 9808SOL    HW130323   3.962   0.156   5.268
 9808SOL    HW230324   4.106   0.201   5.203
 9809SOL     OW30325   0.826   2.703   6.596
 9809SOL    HW130326   0.736   2.675   6.631
 9809SOL    HW230327   0.889   2.714   6.673
 9810SOL     OW30328   1.969   2.826   3.697
 9810SOL    HW130329   1.916   2.802   3.778
 9810SOL    HW230330   1.957   2.755   3.627
 9811SOL     OW30331   5.302   4.851   3.534
 9811SOL    HW130332   5.316   4.759   3.497
 9811SOL    HW230333   5.335   4.918   3.468
 9812SOL     OW30334   3.578   2.234   5.641
 9812SOL    HW130335   3.484   2.230   5.607
 9812SOL    HW230336   3.621   2.144   5.634
 9813SOL     OW30337   5.839   1.268   0.634
 9813SOL    HW130338   5.883   1.203   0.572
 9813SOL    HW230339   5.908   1.333   0.668
 9814SOL     OW30340   6.937   0.309   6.791
 9814SOL    HW130341   6.957   0.403   6.818
 9814SOL    HW230342   6.959   0.247   6.867
 9815SOL     OW30343   5.425   4.385   3.552
 9815SOL    HW130344   5.380   4.459   3.502
 9815SOL    HW230345   5.475   4.423   3.629
 9816SOL     OW30346   6.991   1.279   5.913
 9816SOL    HW130347   0.005   1.361   5.868
 9816SOL    HW230348   7.020   1.279   6.009
 9817SOL     OW30349   3.209   6.914   2.791
 9817SOL    HW130350   3.122   6.961   2.778
 9817SOL    HW230351   3.195   6.815   2.791
 9818SOL     OW30352   1.543   1.267   5.023
 9818SOL    HW130353   1.562   1.365   5.014
 9818SOL    HW230354   1.619   1.214   4.985
 9819SOL     OW30355   4.790   2.931   3.695
 9819SOL    HW130356   4.802   2.840   3.655
 9819SOL    HW230357   4.795   2.924   3.795
 9820SOL     OW30358   4.324   3.553   6.373
 9820SOL    HW130359   4.376   3.494   6.313
 9820SOL    HW230360   4.226   3.545   6.352
 9821SOL     OW30361   5.358   0.754   0.004
 9821SOL    HW130362   5.303   0.703   6.960
 9821SOL    HW230363   5.314   0.842   0.023
 9822SOL     OW30364   2.851   6.086   3.750
 9822SOL    HW130365   2.905   6.148   3.807
 9822SOL    HW230366   2.906   6.006   3.727
 9823SOL     OW30367   2.449   0.798   0.043
 9823SOL    HW130368   2.526   0.803   0.107
 9823SOL    HW230369   2.483   0.815   6.972
 9824SOL     OW30370   2.056   5.150   4.274
 9824SOL    HW130371   2.095   5.094   4.347
 9824SOL    HW230372   2.130   5.198   4.227
 9825SOL     OW30373   5.309   5.904   4.416
 9825SOL    HW130374   5.303   5.857   4.504
 9825SOL    HW230375   5.339   5.839   4.346
 9826SOL     OW30376   4.016   5.591   5.713
 9826SOL    HW130377   4.059   5.549   5.793
 9826SOL    HW230378   3.919   5.606   5.731
 9827SOL     OW30379   1.512   4.250   3.686
 9827SOL    HW130380   1.420   4.244   3.647
 9827SOL    HW230381   1.508   4.234   3.785
 9828SOL     OW30382   2.731   2.049   5.356
 9828SOL    HW130383   2.828   2.071   5.345
 9828SOL    HW230384   2.721   1.971   5.417
 9829SOL     OW30385   4.398   4.923   6.244
 9829SOL    HW130386   4.415   4.986   6.320
 9829SOL    HW230387   4.481   4.913   6.189
 9830SOL     OW30388   5.240   1.418   1.904
 9830SOL    HW130389   5.253   1.324   1.937
 9830SOL    HW230390   5.142   1.440   1.905
 9831SOL     OW30391   1.104   4.945   2.295
 9831SOL    HW130392   1.023   5.001   2.276
 9831SOL    HW230393   1.076   4.856   2.331
 9832SOL     OW30394   5.071   5.103   2.740
 9832SOL    HW130395   4.998   5.077   2.677
 9832SOL    HW230396   5.145   5.036   2.734
 9833SOL     OW30397   3.488   3.321   4.335
 9833SOL    HW130398   3.577   3.360   4.310
 9833SOL    HW230399   3.500   3.227   4.366
 9834SOL     OW30400   2.496   4.277   5.304
 9834SOL    HW130401   2.457   4.237   5.386
 9834SOL    HW230402   2.515   4.205   5.237
 9835SOL     OW30403   4.001   4.015   4.828
 9835SOL    HW130404   4.092   4.021   4.869
 9835SOL    HW230405   4.009   4.018   4.728
 9836SOL     OW30406   6.633   4.248   3.547
 9836SOL    HW130407   6.609   4.203   3.633
 9836SOL    HW230408   6.723   4.291   3.556
 9837SOL     OW30409   3.888   0.603   2.241
 9837SOL    HW130410   3.865   0.692   2.280
 9837SOL    HW230411   3.838   0.531   2.291
 9838SOL     OW30412   1.771   6.510   0.655
 9838SOL    HW130413   1.768   6.532   0.558
 9838SOL    HW230414   1.681   6.526   0.695
 9839SOL     OW30415   5.779   6.521   3.730
 9839SOL    HW130416   5.836   6.592   3.772
 9839SOL    HW230417   5.827   6.434   3.731
 9840SOL     OW30418   5.884   1.701   1.189
 9840SOL    HW130419   5.804   1.642   1.188
 9840SOL    HW230420   5.858   1.792   1.221
 9841SOL     OW30421   1.616   4.008   5.533
 9841SOL    HW130422   1.682   3.936   5.511
 9841SOL    HW230423   1.574   3.989   5.622
 9842SOL     OW30424   3.901   2.785   1.468
 9842SOL    HW130425   3.945   2.873   1.447
 9842SOL    HW230426   3.810   2.783   1.427
 9843SOL     OW30427   0.180   0.420   2.064
 9843SOL    HW130428   0.089   0.380   2.065
 9843SOL    HW230429   0.207   0.438   1.970
 9844SOL     OW30430   6.631   1.265   3.182
 9844SOL    HW130431   6.631   1.296   3.277
 9844SOL    HW230432   6.572   1.184   3.174
 9845SOL     OW30433   1.772   2.542   3.810
 9845SOL    HW130434   1.799   2.623   3.863
 9845SOL    HW230435   1.854   2.488   3.789
 9846SOL     OW30436   3.606   2.053   1.204
 9846SOL    HW130437   3.656   2.010   1.129
 9846SOL    HW230438   3.587   2.148   1.180
 9847SOL     OW30439   3.795   2.921   2.928
 9847SOL    HW130440   3.715   2.861   2.934
 9847SOL    HW230441   3.820   2.952   3.020
 9848SOL     OW30442   3.516   4.118   4.887
 9848SOL    HW130443   3.434   4.063   4.902
 9848SOL    HW230444   3.559   4.090   4.801
 9849SOL     OW30445   0.593   0.138   5.935
 9849SOL    HW130446   0.647   0.129   5.852
 9849SOL    HW230447   0.597   0.052   5.987
 9850SOL     OW30448   6.006   0.319   3.870
 9850SOL    HW130449   6.043   0.328   3.778
 9850SOL    HW230450   6.076   0.347   3.937
 9851SOL     OW30451   0.372   6.849   4.207
 9851SOL    HW130452   0.469   6.845   4.184
 9851SOL    HW230453   0.327   6.764   4.177
 9852SOL     OW30454   3.237   1.760   4.257
 9852SOL    HW130455   3.270   1.843   4.212
 9852SOL    HW230456   3.293   1.741   4.338
 9853SOL     OW30457   5.433   3.282   5.087
 9853SOL    HW130458   5.507   3.348   5.071
 9853SOL    HW230459   5.458   3.224   5.164
 9854SOL     OW30460   6.715   5.945   4.261
 9854SOL    HW130461   6.659   5.923   4.182
 9854SOL    HW230462   6.663   6.004   4.323
 9855SOL     OW30463   1.959   3.393   1.645
 9855SOL    HW130464   1.988   3.478   1.690
 9855SOL    HW230465   1.996   3.315   1.695
 9856SOL     OW30466   4.773   4.225   4.779
 9856SOL    HW130467   4.831   4.261   4.705
 9856SOL    HW230468   4.701   4.292   4.800
 9857SOL     OW30469   4.776   2.904   2.564
 9857SOL    HW130470   4.738   2.910   2.656
 9857SOL    HW230471   4.803   2.995   2.533
 9858SOL     OW30472   6.322   6.575   0.995
 9858SOL    HW130473   6.227   6.547   0.993
 9858SOL    HW230474   6.338   6.636   1.073
 9859SOL     OW30475   5.976   5.886   2.523
 9859SOL    HW130476   5.909   5.816   2.549
 9859SOL    HW230477   5.945   5.975   2.554
 9860SOL     OW30478   1.911   2.291   4.170
 9860SOL    HW130479   1.836   2.260   4.112
 9860SOL    HW230480   1.877   2.308   4.262
 9861SOL     OW30481   2.918   0.544   2.919
 9861SOL    HW130482   2.819   0.551   2.930
 9861SOL    HW230483   2.956   0.636   2.904
 9862SOL     OW30484   2.788   3.391   0.192
 9862SOL    HW130485   2.784   3.296   0.162
 9862SOL    HW230486   2.855   3.441   0.137
 9863SOL     OW30487   3.361   6.585   1.741
 9863SOL    HW130488   3.416   6.511   1.704
 9863SOL    HW230489   3.377   6.592   1.840
 9864SOL     OW30490   3.008   0.182   3.822
 9864SOL    HW130491   3.025   0.130   3.739
 9864SOL    HW230492   3.083   0.245   3.839
 9865SOL     OW30493   1.051   0.012   4.620
 9865SOL    HW130494   1.054   6.952   4.678
 9865SOL    HW230495   1.118   0.003   4.546
 9866SOL     OW30496   5.357   4.654   6.109
 9866SOL    HW130497   5.403   4.577   6.066
 9866SOL    HW230498   5.258   4.643   6.100
 9867SOL     OW30499   0.018   1.889   1.231
 9867SOL    HW130500   0.079   1.945   1.176
 9867SOL    HW230501   0.071   1.816   1.276
 9868SOL     OW30502   0.524   3.189   4.346
 9868SOL    HW130503   0.573   3.271   4.377
 9868SOL    HW230504   0.426   3.204   4.356
 9869SOL     OW30505   0.428   2.371   1.453
 9869SOL    HW130506   0.502   2.394   1.517
 9869SOL    HW230507   0.353   2.329   1.504
 9870SOL     OW30508   4.544   5.145   3.052
 9870SOL    HW130509   4.641   5.123   3.065
 9870SOL    HW230510   4.491   5.103   3.126
 9871SOL     OW30511   6.451   4.481   5.905
 9871SOL    HW130512   6.533   4.526   5.940
 9871SOL    HW230513   6.414   4.533   5.828
 9872SOL     OW30514   3.457   5.807   5.012
 9872SOL    HW130515   3.497   5.895   5.038
 9872SOL    HW230516   3.448   5.749   5.093
 9873SOL     OW30517   2.534   2.099   0.694
 9873SOL    HW130518   2.570   2.027   0.753
 9873SOL    HW230519   2.606   2.128   0.630
 9874SOL     OW30520   6.262   3.007   5.605
 9874SOL    HW130521   6.174   2.961   5.589
 9874SOL    HW230522   6.277   3.014   5.704
 9875SOL     OW30523   6.200   6.001   1.886
 9875SOL    HW130524   6.210   5.903   1.907
 9875SOL    HW230525   6.149   6.045   1.960
 9876SOL     OW30526   5.263   6.984   4.165
 9876SOL    HW130527   5.342   6.952   4.216
 9876SOL    HW230528   5.290   0.037   4.104
 9877SOL     OW30529   6.512   4.764   4.209
 9877SOL    HW130530   6.478   4.845   4.257
 9877SOL    HW230531   6.553   4.700   4.275
 9878SOL     OW30532   3.044   3.340   6.000
 9878SOL    HW130533   3.085   3.424   6.035
 9878SOL    HW230534   3.059   3.266   6.065
 9879SOL     OW30535   5.320   5.479   5.748
 9879SOL    HW130536   5.352   5.574   5.742
 9879SOL    HW230537   5.262   5.468   5.829
 9880SOL     OW30538   3.351   0.991   0.533
 9880SOL    HW130539   3.302   0.975   0.619
 9880SOL    HW230540   3.330   0.917   0.469
 9881SOL     OW30541   0.100   1.419   5.086
 9881SOL    HW130542   0.186   1.471   5.086
 9881SOL    HW230543   0.057   1.425   5.176
 9882SOL     OW30544   2.217   3.747   5.834
 9882SOL    HW130545   2.300   3.714   5.878
 9882SOL    HW230546   2.224   3.737   5.735
 9883SOL     OW30547   1.190   6.410   1.005
 9883SOL    HW130548   1.110   6.464   0.979
 9883SOL    HW230549   1.185   6.320   0.961
 9884SOL     OW30550   4.747   1.382   0.920
 9884SOL    HW130551   4.820   1.445   0.894
 9884SOL    HW230552   4.785   1.310   0.978
 9885SOL     OW30553   0.159   3.292   4.724
 9885SOL    HW130554   0.182   3.378   4.678
 9885SOL    HW230555   0.192   3.295   4.818
 9886SOL     OW30556   1.169   5.349   1.080
 9886SOL    HW130557   1.227   5.413   1.030
 9886SOL    HW230558   1.165   5.262   1.032
 9887SOL     OW30559   4.314   6.751   0.150
 9887SOL    HW130560   4.292   6.654   0.161
 9887SOL    HW230561   4.260   6.805   0.215
 9888SOL     OW30562   5.022   5.165   3.208
 9888SOL    HW130563   5.027   5.245   3.268
 9888SOL    HW230564   5.058   5.189   3.118
 9889SOL     OW30565   6.338   4.315   1.417
 9889SOL    HW130566   6.405   4.374   1.371
 9889SOL    HW230567   6.296   4.254   1.349
 9890SOL     OW30568   0.796   2.147   1.295
 9890SOL    HW130569   0.867   2.106   1.352
 9890SOL    HW230570   0.707   2.137   1.340
 9891SOL     OW30571   6.019   3.540   1.259
 9891SOL    HW130572   6.072   3.621   1.233
 9891SOL    HW230573   6.000   3.484   1.178
 9892SOL     OW30574   1.316   5.555   3.013
 9892SOL    HW130575   1.231   5.558   3.065
 9892SOL    HW230576   1.314   5.478   2.950
 9893SOL     OW30577   6.371   0.519   1.896
 9893SOL    HW130578   6.356   0.526   1.994
 9893SOL    HW230579   6.299   0.465   1.854
 9894SOL     OW30580   2.686   2.361   6.113
 9894SOL    HW130581   2.729   2.445   6.144
 9894SOL    HW230582   2.664   2.303   6.191
 9895SOL     OW30583   5.252   3.067   6.084
 9895SOL    HW130584   5.285   3.108   5.999
 9895SOL    HW230585   5.190   3.130   6.130
 9896SOL     OW30586   5.177   1.454   0.173
 9896SOL    HW130587   5.140   1.537   0.214
 9896SOL    HW230588   5.116   1.377   0.193
 9897SOL     OW30589   5.183   6.735   2.783
 9897SOL    HW130590   5.095   6.690   2.797
 9897SOL    HW230591   5.227   6.699   2.700
 9898SOL     OW30592   0.752   4.573   5.615
 9898SOL    HW130593   0.712   4.600   5.702
 9898SOL    HW230594   0.684   4.524   5.561
 9899SOL     OW30595   0.272   5.202   2.672
 9899SOL    HW130596   0.325   5.279   2.635
 9899SOL    HW230597   0.281   5.201   2.772
 9900SOL     OW30598   2.156   3.551   2.686
 9900SOL    HW130599   2.208   3.568   2.602
 9900SOL    HW230600   2.063   3.521   2.661
 9901SOL     OW30601   2.644   0.804   0.239
 9901SOL    HW130602   2.736   0.824   0.206
 9901SOL    HW230603   2.631   0.846   0.329
 9902SOL     OW30604   4.192   3.656   1.303
 9902SOL    HW130605   4.211   3.753   1.286
 9902SOL    HW230606   4.123   3.624   1.239
 9903SOL     OW30607   5.562   0.856   1.618
 9903SOL    HW130608   5.656   0.824   1.606
 9903SOL    HW230609   5.504   0.781   1.649
 9904SOL     OW30610   0.372   3.427   6.441
 9904SOL    HW130611   0.394   3.367   6.518
 9904SOL    HW230612   0.307   3.382   6.380
 9905SOL     OW30613   1.645   0.585   6.414
 9905SOL    HW130614   1.673   0.567   6.509
 9905SOL    HW230615   1.680   0.675   6.386
 9906SOL     OW30616   1.890   4.160   0.318
 9906SOL    HW130617   1.850   4.070   0.299
 9906SOL    HW230618   1.890   4.214   0.234
 9907SOL     OW30619   1.369   0.985   2.561
 9907SOL    HW130620   1.334   1.056   2.621
 9907SOL    HW230621   1.439   1.023   2.501
 9908SOL     OW30622   1.048   3.336   5.883
 9908SOL    HW130623   1.097   3.376   5.805
 9908SOL    HW230624   0.961   3.384   5.895
 9909SOL     OW30625   3.911   0.888   2.912
 9909SOL    HW130626   3.924   0.983   2.885
 9909SOL    HW230627   3.901   0.882   3.011
 9910SOL     OW30628   1.262   5.164   1.429
 9910SOL    HW130629   1.311   5.159   1.516
 9910SOL    HW230630   1.209   5.248   1.425
 9911SOL     OW30631   3.741   5.602   2.366
 9911SOL    HW130632   3.671   5.573   2.301
 9911SOL    HW230633   3.696   5.638   2.448
 9912SOL     OW30634   4.574   1.273   2.092
 9912SOL    HW130635   4.594   1.369   2.112
 9912SOL    HW230636   4.622   1.246   2.009
 9913SOL     OW30637   6.163   2.827   1.704
 9913SOL    HW130638   6.240   2.772   1.733
 9913SOL    HW230639   6.188   2.878   1.621
 9914SOL     OW30640   0.327   6.876   5.055
 9914SOL    HW130641   0.236   6.849   5.086
 9914SOL    HW230642   0.323   6.905   4.960
 9915SOL     OW30643   5.352   2.828   4.031
 9915SOL    HW130644   5.419   2.898   4.005
 9915SOL    HW230645   5.358   2.811   4.129
 9916SOL     OW30646   1.817   2.220   3.277
 9916SOL    HW130647   1.725   2.184   3.263
 9916SOL    HW230648   1.812   2.317   3.302
 9917SOL     OW30649   3.337   3.573   4.655
 9917SOL    HW130650   3.273   3.638   4.615
 9917SOL    HW230651   3.291   3.524   4.730
 9918SOL     OW30652   0.927   2.696   1.674
 9918SOL    HW130653   0.957   2.771   1.732
 9918SOL    HW230654   0.852   2.647   1.719
 9919SOL     OW30655   2.448   5.937   2.232
 9919SOL    HW130656   2.399   6.020   2.208
 9919SOL    HW230657   2.466   5.935   2.330
 9920SOL     OW30658   4.450   0.583   2.764
 9920SOL    HW130659   4.481   0.501   2.811
 9920SOL    HW230660   4.470   0.576   2.666
 9921SOL     OW30661   4.288   0.040   4.648
 9921SOL    HW130662   4.287   0.080   4.557
 9921SOL    HW230663   4.347   0.094   4.708
 9922SOL     OW30664   4.860   4.668   1.599
 9922SOL    HW130665   4.931   4.657   1.529
 9922SOL    HW230666   4.879   4.606   1.675
 9923SOL     OW30667   6.417   3.233   0.229
 9923SOL    HW130668   6.360   3.252   0.149
 9923SOL    HW230669   6.438   3.135   0.233
 9924SOL     OW30670   4.787   1.389   3.192
 9924SOL    HW130671   4.716   1.380   3.122
 9924SOL    HW230672   4.777   1.476   3.239
 9925SOL     OW30673   1.296   4.960   3.691
 9925SOL    HW130674   1.312   4.886   3.625
 9925SOL    HW230675   1.373   4.964   3.755
 9926SOL     OW30676   3.663   2.813   0.614
 9926SOL    HW130677   3.578   2.765   0.635
 9926SOL    HW230678   3.659   2.906   0.652
 9927SOL     OW30679   1.097   1.443   1.215
 9927SOL    HW130680   1.050   1.385   1.282
 9927SOL    HW230681   1.179   1.482   1.257
 9928SOL     OW30682   5.478   3.958   3.146
 9928SOL    HW130683   5.521   4.048   3.142
 9928SOL    HW230684   5.482   3.916   3.055
 9929SOL     OW30685   2.924   3.801   4.565
 9929SOL    HW130686   2.853   3.797   4.495
 9929SOL    HW230687   2.962   3.709   4.578
 9930SOL     OW30688   0.683   0.387   6.038
 9930SOL    HW130689   0.700   0.351   6.130
 9930SOL    HW230690   0.601   0.345   6.000
 9931SOL     OW30691   6.842   5.598   3.883
 9931SOL    HW130692   6.902   5.556   3.814
 9931SOL    HW230693   6.761   5.541   3.895
 9932SOL     OW30694   2.516   1.792   6.042
 9932SOL    HW130695   2.577   1.781   5.963
 9932SOL    HW230696   2.489   1.702   6.076
 9933SOL     OW30697   1.740   0.738   3.840
 9933SOL    HW130698   1.653   0.712   3.882
 9933SOL    HW230699   1.750   0.693   3.752
 9934SOL     OW30700   6.250   1.988   0.066
 9934SOL    HW130701   6.328   1.929   0.043
 9934SOL    HW230702   6.182   1.983   7.014
 9935SOL     OW30703   3.435   0.635   0.797
 9935SOL    HW130704   3.349   0.670   0.760
 9935SOL    HW230705   3.507   0.644   0.727
 9936SOL     OW30706   6.565   4.985   0.708
 9936SOL    HW130707   6.531   4.973   0.801
 9936SOL    HW230708   6.500   4.944   0.644
 9937SOL     OW30709   1.205   1.165   2.264
 9937SOL    HW130710   1.126   1.159   2.203
 9937SOL    HW230711   1.213   1.080   2.316
 9938SOL     OW30712   5.795   6.492   4.450
 9938SOL    HW130713   5.874   6.541   4.413
 9938SOL    HW230714   5.816   6.394   4.455
 9939SOL     OW30715   3.054   2.860   0.570
 9939SOL    HW130716   2.974   2.905   0.531
 9939SOL    HW230717   3.125   2.852   0.500
 9940SOL     OW30718   1.347   0.426   2.768
 9940SOL    HW130719   1.315   0.350   2.712
 9940SOL    HW230720   1.270   0.488   2.788
 9941SOL     OW30721   2.665   5.733   5.421
 9941SOL    HW130722   2.578   5.767   5.384
 9941SOL    HW230723   2.649   5.654   5.479
 9942SOL     OW30724   4.308   5.657   2.400
 9942SOL    HW130725   4.262   5.632   2.315
 9942SOL    HW230726   4.240   5.668   2.473
 9943SOL     OW30727   1.186   4.557   6.576
 9943SOL    HW130728   1.228   4.491   6.638
 9943SOL    HW230729   1.189   4.648   6.617
 9944SOL     OW30730   0.869   4.757   6.312
 9944SOL    HW130731   0.902   4.810   6.390
 9944SOL    HW230732   0.943   4.743   6.247
 9945SOL     OW30733   5.195   4.571   6.588
 9945SOL    HW130734   5.184   4.625   6.671
 9945SOL    HW230735   5.258   4.617   6.525
 9946SOL     OW30736   6.750   0.271   3.129
 9946SOL    HW130737   6.723   0.340   3.062
 9946SOL    HW230738   6.792   0.194   3.082
 9947SOL     OW30739   3.179   1.891   4.551
 9947SOL    HW130740   3.241   1.845   4.488
 9947SOL    HW230741   3.104   1.829   4.576
 9948SOL     OW30742   6.744   5.190   5.181
 9948SOL    HW130743   6.822   5.147   5.137
 9948SOL    HW230744   6.751   5.181   5.280
 9949SOL     OW30745   0.405   4.818   3.578
 9949SOL    HW130746   0.414   4.912   3.545
 9949SOL    HW230747   0.467   4.758   3.525
 9950SOL     OW30748   6.712   5.612   6.949
 9950SOL    HW130749   6.616   5.637   6.932
 9950SOL    HW230750   6.716   5.546   0.002
 9951SOL     OW30751   1.574   2.166   3.229
 9951SOL    HW130752   1.500   2.108   3.195
 9951SOL    HW230753   1.542   2.221   3.305
 9952SOL     OW30754   1.776   3.641   0.783
 9952SOL    HW130755   1.741   3.732   0.807
 9952SOL    HW230756   1.700   3.576   0.778
 9953SOL     OW30757   5.661   2.529   3.904
 9953SOL    HW130758   5.714   2.506   3.986
 9953SOL    HW230759   5.706   2.491   3.824
 9954SOL     OW30760   0.973   0.367   4.434
 9954SOL    HW130761   0.941   0.316   4.514
 9954SOL    HW230762   1.044   0.432   4.463
 9955SOL     OW30763   3.626   3.472   6.706
 9955SOL    HW130764   3.548   3.409   6.705
 9955SOL    HW230765   3.613   3.539   6.778
 9956SOL     OW30766   0.644   4.046   3.123
 9956SOL    HW130767   0.718   4.084   3.068
 9956SOL    HW230768   0.599   3.973   3.072
 9957SOL     OW30769   6.133   0.769   2.685
 9957SOL    HW130770   6.123   0.689   2.625
 9957SOL    HW230771   6.090   0.750   2.773
 9958SOL     OW30772   2.476   6.336   6.567
 9958SOL    HW130773   2.424   6.251   6.578
 9958SOL    HW230774   2.574   6.314   6.561
 9959SOL     OW30775   4.099   3.667   3.275
 9959SOL    HW130776   4.057   3.652   3.185
 9959SOL    HW230777   4.150   3.753   3.273
 9960SOL     OW30778   1.029   6.849   2.236
 9960SOL    HW130779   0.965   6.914   2.194
 9960SOL    HW230780   1.100   6.825   2.170
 9961SOL     OW30781   1.547   5.192   3.389
 9961SOL    HW130782   1.447   5.187   3.385
 9961SOL    HW230783   1.580   5.138   3.465
 9962SOL     OW30784   4.165   0.331   2.541
 9962SOL    HW130785   4.156   0.367   2.448
 9962SOL    HW230786   4.103   0.380   2.602
 9963SOL     OW30787   2.624   2.520   5.667
 9963SOL    HW130788   2.590   2.486   5.755
 9963SOL    HW230789   2.661   2.444   5.614
 9964SOL     OW30790   4.297   4.983   5.887
 9964SOL    HW130791   4.288   4.899   5.942
 9964SOL    HW230792   4.310   4.959   5.791
 9965SOL     OW30793   3.524   5.014   5.485
 9965SOL    HW130794   3.618   5.030   5.455
 9965SOL    HW230795   3.501   4.917   5.475
 9966SOL     OW30796   2.013   5.314   1.853
 9966SOL    HW130797   2.071   5.381   1.900
 9966SOL    HW230798   1.918   5.343   1.857
 9967SOL     OW30799   4.831   5.598   2.066
 9967SOL    HW130800   4.745   5.619   2.113
 9967SOL    HW230801   4.811   5.563   1.975
 9968SOL     OW30802   3.179   5.588   6.593
 9968SOL    HW130803   3.120   5.664   6.619
 9968SOL    HW230804   3.262   5.589   6.649
 9969SOL     OW30805   0.711   2.852   3.893
 9969SOL    HW130806   0.680   2.774   3.839
 9969SOL    HW230807   0.638   2.920   3.898
 9970SOL     OW30808   6.604   4.305   2.418
 9970SOL    HW130809   6.627   4.351   2.333
 9970SOL    HW230810   6.564   4.370   2.482
 9971SOL     OW30811   2.533   4.365   0.432
 9971SOL    HW130812   2.461   4.433   0.414
 9971SOL    HW230813   2.560   4.322   0.346
 9972SOL     OW30814   3.521   4.522   0.638
 9972SOL    HW130815   3.451   4.545   0.570
 9972SOL    HW230816   3.517   4.424   0.658
 9973SOL     OW30817   4.040   1.623   4.819
 9973SOL    HW130818   4.030   1.640   4.721
 9973SOL    HW230819   4.082   1.534   4.834
 9974SOL     OW30820   6.520   3.623   3.554
 9974SOL    HW130821   6.441   3.684   3.556
 9974SOL    HW230822   6.604   3.677   3.564
 9975SOL     OW30823   0.159   4.572   0.040
 9975SOL    HW130824   0.203   4.640   0.099
 9975SOL    HW230825   0.068   4.603   0.015
 9976SOL     OW30826   6.242   5.066   5.586
 9976SOL    HW130827   6.150   5.056   5.549
 9976SOL    HW230828   6.308   5.028   5.522
 9977SOL     OW30829   6.433   4.809   5.626
 9977SOL    HW130830   6.436   4.856   5.537
 9977SOL    HW230831   6.513   4.749   5.634
 9978SOL     OW30832   6.182   1.153   4.304
 9978SOL    HW130833   6.181   1.228   4.238
 9978SOL    HW230834   6.162   1.189   4.395
 9979SOL     OW30835   6.919   4.836   6.173
 9979SOL    HW130836   7.002   4.799   6.215
 9979SOL    HW230837   6.839   4.813   6.230
 9980SOL     OW30838   1.599   0.630   6.756
 9980SOL    HW130839   1.577   0.533   6.762
 9980SOL    HW230840   1.678   0.642   6.697
 9981SOL     OW30841   2.290   2.009   1.005
 9981SOL    HW130842   2.330   2.099   0.988
 9981SOL    HW230843   2.363   1.940   1.004
 9982SOL     OW30844   1.000   1.753   3.192
 9982SOL    HW130845   1.074   1.771   3.126
 9982SOL    HW230846   0.933   1.691   3.150
 9983SOL     OW30847   0.968   1.226   1.569
 9983SOL    HW130848   0.992   1.323   1.559
 9983SOL    HW230849   0.995   1.176   1.487
 9984SOL     OW30850   0.515   0.400   0.739
 9984SOL    HW130851   0.537   0.305   0.717
 9984SOL    HW230852   0.460   0.404   0.822
 9985SOL     OW30853   3.216   0.248   0.977
 9985SOL    HW130854   3.176   0.190   0.907
 9985SOL    HW230855   3.316   0.243   0.972
 9986SOL     OW30856   4.694   4.206   6.257
 9986SOL    HW130857   4.677   4.242   6.349
 9986SOL    HW230858   4.670   4.109   6.255
 9987SOL     OW30859   5.564   2.143   2.159
 9987SOL    HW130860   5.610   2.055   2.166
 9987SOL    HW230861   5.468   2.134   2.187
 9988SOL     OW30862   0.238   5.170   4.576
 9988SOL    HW130863   0.325   5.127   4.602
 9988SOL    HW230864   0.208   5.231   4.650
 9989SOL     OW30865   5.271   3.508   2.869
 9989SOL    HW130866   5.224   3.426   2.901
 9989SOL    HW230867   5.315   3.490   2.781
 9990SOL     OW30868   2.277   6.860   3.138
 9990SOL    HW130869   2.355   6.916   3.111
 9990SOL    HW230870   2.309   6.776   3.182
 9991SOL     OW30871   1.169   3.127   5.190
 9991SOL    HW130872   1.114   3.208   5.211
 9991SOL    HW230873   1.243   3.118   5.257
 9992SOL     OW30874   4.603   3.442   0.256
 9992SOL    HW130875   4.661   3.366   0.226
 9992SOL    HW230876   4.541   3.467   0.181
 9993SOL     OW30877   4.068   6.272   2.661
 9993SOL    HW130878   4.112   6.223   2.585
 9993SOL    HW230879   4.043   6.364   2.631
 9994SOL     OW30880   6.452   4.381   3.950
 9994SOL    HW130881   6.495   4.323   4.019
 9994SOL    HW230882   6.514   4.456   3.927
 9995SOL     OW30883   3.480   0.058   2.928
 9995SOL    HW130884   3.392   0.051   2.881
 9995SOL    HW230885   3.528   0.140   2.896
 9996SOL     OW30886   3.244   2.582   1.179
 9996SOL    HW130887   3.241   2.489   1.215
 9996SOL    HW230888   3.173   2.594   1.111
 9997SOL     OW30889   4.616   1.434   1.217
 9997SOL    HW130890   4.652   1.434   1.124
 9997SOL    HW230891   4.676   1.490   1.276
 9998SOL     OW30892   5.609   3.531   2.434
 9998SOL    HW130893   5.709   3.538   2.428
 9998SOL    HW230894   5.572   3.517   2.342
 9999SOL     OW30895   6.409   5.076   4.940
 9999SOL    HW130896   6.378   5.147   4.876
 9999SOL    HW230897   6.372   4.988   4.911
10000SOL     OW30898   6.311   1.745   6.550
10000SOL    HW130899   6.242   1.725   6.481
10000SOL    HW230900   6.390   1.685   6.537
10001SOL     OW30901   5.225   0.450   1.788
10001SOL    HW130902   5.146   0.393   1.767
10001SOL    HW230903   5.202   0.514   1.862
10002SOL     OW30904   1.364   1.014   1.389
10002SOL    HW130905   1.368   1.113   1.376
10002SOL    HW230906   1.451   0.980   1.422
10003SOL     OW30907   3.848   2.109   3.174
10003SOL    HW130908   3.768   2.154   3.214
10003SOL    HW230909   3.818   2.031   3.120
10004SOL     OW30910   5.658   3.228   4.922
10004SOL    HW130911   5.587   3.158   4.932
10004SOL    HW230912   5.707   3.213   4.835
10005SOL     OW30913   4.576   5.459   3.029
10005SOL    HW130914   4.561   5.408   2.944
10005SOL    HW230915   4.580   5.396   3.106
10006SOL     OW30916   5.076   0.950   4.546
10006SOL    HW130917   5.042   0.858   4.528
10006SOL    HW230918   5.146   0.973   4.478
10007SOL     OW30919   0.791   4.458   4.919
10007SOL    HW130920   0.812   4.448   4.822
10007SOL    HW230921   0.869   4.499   4.966
10008SOL     OW30922   4.290   1.272   3.553
10008SOL    HW130923   4.383   1.241   3.576
10008SOL    HW230924   4.279   1.269   3.453
10009SOL     OW30925   1.606   3.314   2.305
10009SOL    HW130926   1.623   3.219   2.332
10009SOL    HW230927   1.689   3.353   2.265
10010SOL     OW30928   2.028   6.538   0.286
10010SOL    HW130929   2.013   6.629   0.248
10010SOL    HW230930   2.122   6.510   0.269
10011SOL     OW30931   1.018   3.076   5.764
10011SOL    HW130932   1.017   3.175   5.782
10011SOL    HW230933   1.093   3.034   5.814
10012SOL     OW30934   4.936   6.919   2.710
10012SOL    HW130935   4.971   6.988   2.773
10012SOL    HW230936   4.963   6.828   2.742
10013SOL     OW30937   2.133   1.833   5.019
10013SOL    HW130938   2.188   1.754   4.993
10013SOL    HW230939   2.193   1.911   5.038
10014SOL     OW30940   7.007   2.031   0.835
10014SOL    HW130941   6.998   2.130   0.822
10014SOL    HW230942   0.074   2.000   0.801
10015SOL     OW30943   3.277   4.498   0.465
10015SOL    HW130944   3.303   4.595   0.469
10015SOL    HW230945   3.182   4.488   0.494
10016SOL     OW30946   1.857   6.911   4.659
10016SOL    HW130947   1.765   6.873   4.652
10016SOL    HW230948   1.918   6.865   4.594
10017SOL     OW30949   1.929   1.787   2.218
10017SOL    HW130950   1.882   1.729   2.285
10017SOL    HW230951   1.960   1.871   2.262
10018SOL     OW30952   6.065   5.314   6.087
10018SOL    HW130953   6.099   5.259   6.011
10018SOL    HW230954   6.137   5.375   6.120
10019SOL     OW30955   0.888   2.378   3.304
10019SOL    HW130956   0.865   2.283   3.282
10019SOL    HW230957   0.917   2.383   3.400
10020SOL     OW30958   0.453   1.415   0.950
10020SOL    HW130959   0.385   1.476   0.908
10020SOL    HW230960   0.409   1.362   1.022
10021SOL     OW30961   0.819   2.962   2.062
10021SOL    HW130962   0.730   2.916   2.061
10021SOL    HW230963   0.805   3.061   2.062
10022SOL     OW30964   3.410   6.968   0.956
10022SOL    HW130965   3.408   6.962   0.857
10022SOL    HW230966   3.497   7.007   0.986
10023SOL     OW30967   1.875   5.732   5.731
10023SOL    HW130968   1.970   5.754   5.755
10023SOL    HW230969   1.831   5.687   5.809
10024SOL     OW30970   2.005   6.752   1.670
10024SOL    HW130971   1.919   6.743   1.721
10024SOL    HW230972   2.043   6.843   1.685
10025SOL     OW30973   1.573   1.660   1.264
10025SOL    HW130974   1.596   1.750   1.301
10025SOL    HW230975   1.617   1.648   1.175
10026SOL     OW30976   4.388   6.221   3.577
10026SOL    HW130977   4.310   6.261   3.625
10026SOL    HW230978   4.423   6.286   3.510
10027SOL     OW30979   0.673   4.874   4.788
10027SOL    HW130980   0.643   4.802   4.852
10027SOL    HW230981   0.773   4.878   4.788
10028SOL     OW30982   1.314   2.016   1.772
10028SOL    HW130983   1.323   1.927   1.727
10028SOL    HW230984   1.404   2.047   1.804
10029SOL     OW30985   3.193   1.828   3.722
10029SOL    HW130986   3.189   1.805   3.625
10029SOL    HW230987   3.278   1.793   3.761
10030SOL     OW30988   2.529   6.706   4.345
10030SOL    HW130989   2.466   6.650   4.399
10030SOL    HW230990   2.540   6.665   4.255
10031SOL     OW30991   5.814   4.747   3.893
10031SOL    HW130992   5.833   4.784   3.803
10031SOL    HW230993   5.794   4.649   3.885
10032SOL     OW30994   3.308   0.579   5.097
10032SOL    HW130995   3.282   0.545   5.187
10032SOL    HW230996   3.278   0.515   5.027
10033SOL     OW30997   4.994   2.377   3.926
10033SOL    HW130998   4.930   2.453   3.914
10033SOL    HW230999   4.946   2.291   3.908
10034SOL     OW31000   3.469   0.045   3.958
10034SOL    HW131001   3.536   0.080   4.024
10034SOL    HW231002   3.437   0.119   3.900
10035SOL     OW31003   0.242   4.390   1.971
10035SOL    HW131004   0.316   4.453   1.944
10035SOL    HW231005   0.216   4.333   1.893
10036SOL     OW31006   5.845   1.182   1.037
10036SOL    HW131007   5.937   1.214   1.011
10036SOL    HW231008   5.782   1.200   0.961
10037SOL     OW31009   6.310   1.360   1.001
10037SOL    HW131010   6.224   1.315   0.977
10037SOL    HW231011   6.290   1.449   1.042
10038SOL     OW31012   3.988   1.574   6.700
10038SOL    HW131013   3.954   1.497   6.754
10038SOL    HW231014   4.042   1.539   6.623
10039SOL     OW31015   3.297   0.478   4.152
10039SOL    HW131016   3.299   0.565   4.202
10039SOL    HW231017   3.227   0.419   4.191
10040SOL     OW31018   4.123   5.711   6.101
10040SOL    HW131019   4.155   5.685   6.192
10040SOL    HW231020   4.199   5.753   6.050
10041SOL     OW31021   4.419   5.754   6.525
10041SOL    HW131022   4.431   5.709   6.613
10041SOL    HW231023   4.503   5.802   6.500
10042SOL     OW31024   0.932   1.690   4.612
10042SOL    HW131025   1.016   1.741   4.593
10042SOL    HW231026   0.906   1.704   4.708
10043SOL     OW31027   6.254   1.786   4.639
10043SOL    HW131028   6.230   1.867   4.587
10043SOL    HW231029   6.308   1.813   4.720
10044SOL     OW31030   3.201   1.385   5.185
10044SOL    HW131031   3.182   1.297   5.228
10044SOL    HW231032   3.288   1.420   5.219
10045SOL     OW31033   4.485   6.995   3.934
10045SOL    HW131034   4.466   6.981   4.032
10045SOL    HW231035   4.485   6.907   3.888
10046SOL     OW31036   2.386   3.893   1.227
10046SOL    HW131037   2.402   3.808   1.277
10046SOL    HW231038   2.452   3.962   1.256
10047SOL     OW31039   6.846   3.827   5.433
10047SOL    HW131040   6.859   3.728   5.425
10047SOL    HW231041   6.758   3.852   5.393
10048SOL     OW31042   6.325   0.953   2.629
10048SOL    HW131043   6.385   0.948   2.709
10048SOL    HW231044   6.252   0.885   2.638
10049SOL     OW31045   0.362   1.015   6.621
10049SOL    HW131046   0.360   1.082   6.547
10049SOL    HW231047   0.406   1.055   6.701
10050SOL     OW31048   5.654   3.642   5.514
10050SOL    HW131049   5.591   3.645   5.436
10050SOL    HW231050   5.717   3.566   5.504
10051SOL     OW31051   5.705   3.473   5.897
10051SOL    HW131052   5.677   3.552   5.842
10051SOL    HW231053   5.640   3.460   5.972
10052SOL     OW31054   1.767   1.986   2.915
10052SOL    HW131055   1.830   1.997   2.992
10052SOL    HW231056   1.697   1.919   2.937
10053SOL     OW31057   4.210   5.602   3.024
10053SOL    HW131058   4.167   5.518   3.055
10053SOL    HW231059   4.213   5.667   3.100
10054SOL     OW31060   5.739   5.825   6.391
10054SOL    HW131061   5.687   5.773   6.458
10054SOL    HW231062   5.836   5.800   6.397
10055SOL     OW31063   5.668   1.636   4.913
10055SOL    HW131064   5.571   1.626   4.890
10055SOL    HW231065   5.683   1.724   4.959
10056SOL     OW31066   5.468   4.272   3.092
10056SOL    HW131067   5.509   4.222   3.016
10056SOL    HW231068   5.449   4.366   3.064
10057SOL     OW31069   4.392   2.485   5.541
10057SOL    HW131070   4.395   2.430   5.625
10057SOL    HW231071   4.362   2.578   5.564
10058SOL     OW31072   0.081   3.509   4.983
10058SOL    HW131073   0.095   3.543   5.076
10058SOL    HW231074   0.023   3.428   4.986
10059SOL     OW31075   6.617   0.645   0.836
10059SOL    HW131076   6.617   0.679   0.930
10059SOL    HW231077   6.706   0.663   0.794
10060SOL     OW31078   1.971   2.907   2.027
10060SOL    HW131079   1.887   2.960   2.040
10060SOL    HW231080   1.981   2.882   1.931
10061SOL     OW31081   4.403   0.892   3.862
10061SOL    HW131082   4.468   0.833   3.909
10061SOL    HW231083   4.411   0.878   3.763
10062SOL     OW31084   6.186   0.469   4.070
10062SOL    HW131085   6.173   0.476   4.169
10062SOL    HW231086   6.176   0.560   4.028
10063SOL     OW31087   2.546   0.944   4.011
10063SOL    HW131088   2.606   0.972   4.086
10063SOL    HW231089   2.593   0.960   3.924
10064SOL     OW31090   4.865   0.018   6.979
10064SOL    HW131091   4.857   0.030   0.056
10064SOL    HW231092   4.844   6.945   6.956
10065SOL     OW31093   3.565   0.294   2.890
10065SOL    HW131094   3.558   0.318   2.986
10065SOL    HW231095   3.539   0.372   2.833
10066SOL     OW31096   0.251   2.860   4.426
10066SOL    HW131097   0.321   2.926   4.397
10066SOL    HW231098   0.162   2.904   4.428
10067SOL     OW31099   0.600   4.135   5.335
10067SOL    HW131100   0.645   4.152   5.422
10067SOL    HW231101   0.613   4.214   5.275
10068SOL     OW31102   0.061   3.478   3.470
10068SOL    HW131103   0.094   3.511   3.382
10068SOL    HW231104   6.992   3.516   3.488
10069SOL     OW31105   3.278   5.332   2.335
10069SOL    HW131106   3.198   5.329   2.395
10069SOL    HW231107   3.271   5.260   2.266
10070SOL     OW31108   0.269   6.161   5.257
10070SOL    HW131109   0.226   6.243   5.295
10070SOL    HW231110   0.287   6.175   5.160
10071SOL     OW31111   6.547   5.924   5.037
10071SOL    HW131112   6.590   5.940   4.949
10071SOL    HW231113   6.449   5.942   5.030
10072SOL     OW31114   6.297   6.463   4.334
10072SOL    HW131115   6.331   6.371   4.313
10072SOL    HW231116   6.336   6.495   4.420
10073SOL     OW31117   6.171   5.098   4.282
10073SOL    HW131118   6.106   5.145   4.341
10073SOL    HW231119   6.125   5.068   4.199
10074SOL     OW31120   1.875   0.225   5.277
10074SOL    HW131121   1.826   0.213   5.191
10074SOL    HW231122   1.946   0.154   5.285
10075SOL     OW31123   1.704   2.545   2.657
10075SOL    HW131124   1.686   2.615   2.587
10075SOL    HW231125   1.715   2.457   2.612
10076SOL     OW31126   6.215   6.249   3.477
10076SOL    HW131127   6.129   6.205   3.451
10076SOL    HW231128   6.292   6.195   3.442
10077SOL     OW31129   4.299   3.158   6.545
10077SOL    HW131130   4.389   3.200   6.540
10077SOL    HW231131   4.309   3.061   6.569
10078SOL     OW31132   0.075   5.685   3.581
10078SOL    HW131133   0.170   5.693   3.550
10078SOL    HW231134   0.070   5.615   3.653
10079SOL     OW31135   5.562   3.063   3.365
10079SOL    HW131136   5.626   3.130   3.326
10079SOL    HW231137   5.476   3.067   3.315
10080SOL     OW31138   4.456   0.217   5.442
10080SOL    HW131139   4.380   0.158   5.415
10080SOL    HW231140   4.446   0.306   5.398
10081SOL     OW31141   6.961   0.777   7.016
10081SOL    HW131142   6.861   0.775   0.003
10081SOL    HW231143   6.989   0.866   6.980
10082SOL     OW31144   0.082   5.388   1.729
10082SOL    HW131145   0.142   5.368   1.807
10082SOL    HW231146   7.009   5.379   1.757
10083SOL     OW31147   4.123   0.458   3.429
10083SOL    HW131148   4.202   0.448   3.489
10083SOL    HW231149   4.039   0.436   3.481
10084SOL     OW31150   2.015   0.594   6.400
10084SOL    HW131151   2.115   0.593   6.392
10084SOL    HW231152   1.974   0.548   6.321
10085SOL     OW31153   2.788   6.052   0.634
10085SOL    HW131154   2.720   5.980   0.620
10085SOL    HW231155   2.880   6.013   0.624
10086SOL     OW31156   5.349   6.443   1.953
10086SOL    HW131157   5.259   6.457   1.911
10086SOL    HW231158   5.339   6.390   2.036
10087SOL     OW31159   6.527   5.970   4.054
10087SOL    HW131160   6.520   5.885   4.002
10087SOL    HW231161   6.449   6.029   4.033
10088SOL     OW31162   6.554   0.029   2.096
10088SOL    HW131163   6.579   0.106   2.155
10088SOL    HW231164   6.580   6.966   2.141
10089SOL     OW31165   2.538   2.034   3.233
10089SOL    HW131166   2.496   1.944   3.243
10089SOL    HW231167   2.598   2.052   3.311
10090SOL     OW31168   0.576   4.967   1.838
10090SOL    HW131169   0.597   5.063   1.819
10090SOL    HW231170   0.626   4.937   1.919
10091SOL     OW31171   6.988   5.195   6.358
10091SOL    HW131172   6.942   5.161   6.276
10091SOL    HW231173   0.051   5.240   6.333
10092SOL     OW31174   2.517   2.768   5.620
10092SOL    HW131175   2.542   2.676   5.648
10092SOL    HW231176   2.568   2.793   5.538
10093SOL     OW31177   4.578   3.184   5.843
10093SOL    HW131178   4.614   3.108   5.898
10093SOL    HW231179   4.629   3.191   5.758
10094SOL     OW31180   3.251   5.654   1.407
10094SOL    HW131181   3.304   5.726   1.362
10094SOL    HW231182   3.312   5.590   1.454
10095SOL     OW31183   5.747   1.892   4.187
10095SOL    HW131184   5.787   1.849   4.267
10095SOL    HW231185   5.681   1.830   4.144
10096SOL     OW31186   3.878   5.551   3.358
10096SOL    HW131187   3.944   5.620   3.330
10096SOL    HW231188   3.802   5.548   3.293
10097SOL     OW31189   1.435   2.186   0.084
10097SOL    HW131190   1.440   2.106   0.144
10097SOL    HW231191   1.365   2.170   0.014
10098SOL     OW31192   3.075   0.262   5.440
10098SOL    HW131193   3.031   0.194   5.498
10098SOL    HW231194   3.060   0.239   5.344
10099SOL     OW31195   0.988   4.982   1.567
10099SOL    HW131196   1.034   5.014   1.484
10099SOL    HW231197   0.914   4.920   1.542
10100SOL     OW31198   4.835   5.878   6.057
10100SOL    HW131199   4.762   5.861   5.990
10100SOL    HW231200   4.809   5.837   6.145
10101SOL     OW31201   5.983   2.921   1.899
10101SOL    HW131202   6.016   2.999   1.952
10101SOL    HW231203   6.049   2.900   1.827
10102SOL     OW31204   0.072   1.170   2.165
10102SOL    HW131205   7.009   1.143   2.211
10102SOL    HW231206   0.084   1.269   2.172
10103SOL     OW31207   2.772   0.190   5.431
10103SOL    HW131208   2.725   0.278   5.443
10103SOL    HW231209   2.760   0.134   5.513
10104SOL     OW31210   1.185   1.990   4.994
10104SOL    HW131211   1.204   2.046   5.074
10104SOL    HW231212   1.137   1.907   5.022
10105SOL     OW31213   1.982   0.860   6.501
10105SOL    HW131214   1.940   0.862   6.592
10105SOL    HW231215   1.988   0.765   6.470
10106SOL     OW31216   4.173   6.618   1.016
10106SOL    HW131217   4.103   6.634   0.947
10106SOL    HW231218   4.227   6.538   0.991
10107SOL     OW31219   5.276   1.744   5.245
10107SOL    HW131220   5.210   1.693   5.300
10107SOL    HW231221   5.275   1.840   5.273
10108SOL     OW31222   6.762   0.807   0.488
10108SOL    HW131223   6.828   0.826   0.415
10108SOL    HW231224   6.699   0.735   0.458
10109SOL     OW31225   6.956   1.093   0.078
10109SOL    HW131226   6.899   1.093   0.159
10109SOL    HW231227   6.899   1.110   7.019
10110SOL     OW31228   5.316   5.090   4.241
10110SOL    HW131229   5.230   5.141   4.250
10110SOL    HW231230   5.296   4.993   4.231
10111SOL     OW31231   5.959   3.252   4.200
10111SOL    HW131232   6.012   3.314   4.258
10111SOL    HW231233   6.020   3.199   4.142
10112SOL     OW31234   5.944   3.700   3.819
10112SOL    HW131235   5.876   3.696   3.893
10112SOL    HW231236   5.928   3.781   3.764
10113SOL     OW31237   4.048   0.113   6.979
10113SOL    HW131238   4.019   0.111   0.053
10113SOL    HW231239   4.147   0.099   6.975
10114SOL     OW31240   3.923   2.123   2.505
10114SOL    HW131241   3.850   2.104   2.439
10114SOL    HW231242   3.998   2.172   2.460
10115SOL     OW31243   4.292   1.446   5.309
10115SOL    HW131244   4.226   1.520   5.314
10115SOL    HW231245   4.319   1.418   5.402
10116SOL     OW31246   1.266   0.544   0.293
10116SOL    HW131247   1.340   0.519   0.356
10116SOL    HW231248   1.181   0.499   0.322
10117SOL     OW31249   6.832   6.191   6.094
10117SOL    HW131250   6.818   6.281   6.135
10117SOL    HW231251   6.872   6.129   6.161
10118SOL     OW31252   2.379   4.533   3.636
10118SOL    HW131253   2.362   4.442   3.676
10118SOL    HW231254   2.338   4.537   3.545
10119SOL     OW31255   6.660   5.144   4.429
10119SOL    HW131256   6.742   5.199   4.414
10119SOL    HW231257   6.583   5.204   4.452
10120SOL     OW31258   1.996   3.371   4.398
10120SOL    HW131259   2.044   3.455   4.421
10120SOL    HW231260   1.940   3.385   4.316
10121SOL     OW31261   5.637   4.188   6.571
10121SOL    HW131262   5.688   4.208   6.655
10121SOL    HW231263   5.664   4.252   6.499
10122SOL     OW31264   5.523   2.907   3.062
10122SOL    HW131265   5.599   2.972   3.067
10122SOL    HW231266   5.514   2.859   3.149
10123SOL     OW31267   5.515   5.948   0.648
10123SOL    HW131268   5.601   5.899   0.633
10123SOL    HW231269   5.468   5.960   0.561
10124SOL     OW31270   1.588   4.789   0.407
10124SOL    HW131271   1.629   4.849   0.476
10124SOL    HW231272   1.641   4.793   0.323
10125SOL     OW31273   2.072   1.734   0.946
10125SOL    HW131274   2.048   1.822   0.906
10125SOL    HW231275   2.049   1.735   1.044
10126SOL     OW31276   0.141   7.009   0.535
10126SOL    HW131277   0.125   0.061   0.600
10126SOL    HW231278   0.054   6.974   0.501
10127SOL     OW31279   2.124   3.987   0.464
10127SOL    HW131280   2.138   3.922   0.389
10127SOL    HW231281   2.027   3.988   0.489
10128SOL     OW31282   3.449   0.903   6.479
10128SOL    HW131283   3.408   0.894   6.388
10128SOL    HW231284   3.547   0.889   6.473
10129SOL     OW31285   6.620   1.602   3.182
10129SOL    HW131286   6.594   1.541   3.257
10129SOL    HW231287   6.570   1.688   3.189
10130SOL     OW31288   1.205   3.439   1.259
10130SOL    HW131289   1.147   3.357   1.264
10130SOL    HW231290   1.188   3.487   1.173
10131SOL     OW31291   2.122   6.796   4.214
10131SOL    HW131292   2.162   6.724   4.157
10131SOL    HW231293   2.193   6.837   4.271
10132SOL     OW31294   2.336   0.330   3.211
10132SOL    HW131295   2.238   0.308   3.213
10132SOL    HW231296   2.386   0.264   3.267
10133SOL     OW31297   4.835   6.332   1.202
10133SOL    HW131298   4.904   6.386   1.153
10133SOL    HW231299   4.748   6.380   1.200
10134SOL     OW31300   6.363   1.208   2.503
10134SOL    HW131301   6.345   1.121   2.549
10134SOL    HW231302   6.383   1.279   2.571
10135SOL     OW31303   5.008   3.116   3.919
10135SOL    HW131304   5.055   3.038   3.962
10135SOL    HW231305   4.912   3.115   3.945
10136SOL     OW31306   5.026   1.757   2.190
10136SOL    HW131307   5.011   1.676   2.247
10136SOL    HW231308   4.964   1.830   2.220
10137SOL     OW31309   0.689   4.206   4.731
10137SOL    HW131310   0.617   4.195   4.801
10137SOL    HW231311   0.732   4.117   4.714
10138SOL     OW31312   5.193   3.868   0.548
10138SOL    HW131313   5.174   3.842   0.453
10138SOL    HW231314   5.130   3.819   0.609
10139SOL     OW31315   3.145   3.005   3.850
10139SOL    HW131316   3.185   2.933   3.795
10139SOL    HW231317   3.099   3.072   3.791
10140SOL     OW31318   0.356   6.059   0.130
10140SOL    HW131319   0.287   6.110   0.080
10140SOL    HW231320   0.434   6.119   0.150
10141SOL     OW31321   4.488   0.917   5.314
10141SOL    HW131322   4.532   0.994   5.360
10141SOL    HW231323   4.445   0.858   5.383
10142SOL     OW31324   5.957   6.584   5.650
10142SOL    HW131325   5.883   6.517   5.658
10142SOL    HW231326   5.919   6.675   5.639
10143SOL     OW31327   5.579   2.140   0.763
10143SOL    HW131328   5.659   2.118   0.819
10143SOL    HW231329   5.561   2.064   0.700
10144SOL     OW31330   4.189   0.071   6.148
10144SOL    HW131331   4.187   0.081   6.049
10144SOL    HW231332   4.239   0.149   6.188
10145SOL     OW31333   3.311   5.844   2.848
10145SOL    HW131334   3.366   5.924   2.823
10145SOL    HW231335   3.229   5.874   2.896
10146SOL     OW31336   5.315   4.414   4.617
10146SOL    HW131337   5.265   4.330   4.596
10146SOL    HW231338   5.407   4.409   4.579
10147SOL     OW31339   4.681   3.921   6.289
10147SOL    HW131340   4.728   3.959   6.369
10147SOL    HW231341   4.666   3.824   6.303
10148SOL     OW31342   5.412   4.758   6.949
10148SOL    HW131343   5.318   4.734   6.926
10148SOL    HW231344   5.453   4.686   7.005
10149SOL     OW31345   5.710   3.529   1.231
10149SOL    HW131346   5.646   3.468   1.279
10149SOL    HW231347   5.804   3.507   1.257
10150SOL     OW31348   4.219   2.824   1.555
10150SOL    HW131349   4.154   2.776   1.613
10150SOL    HW231350   4.169   2.880   1.488
10151SOL     OW31351   1.025   6.732   6.941
10151SOL    HW131352   1.004   6.828   6.926
10151SOL    HW231353   1.003   6.679   6.859
10152SOL     OW31354   0.026   6.159   3.564
10152SOL    HW131355   0.044   6.134   3.659
10152SOL    HW231356   0.051   6.255   3.550
10153SOL     OW31357   4.777   6.189   3.763
10153SOL    HW131358   4.856   6.180   3.823
10153SOL    HW231359   4.766   6.285   3.735
10154SOL     OW31360   3.834   6.571   4.844
10154SOL    HW131361   3.825   6.616   4.756
10154SOL    HW231362   3.760   6.504   4.854
10155SOL     OW31363   5.074   2.130   6.435
10155SOL    HW131364   5.069   2.189   6.354
10155SOL    HW231365   5.168   2.130   6.470
10156SOL     OW31366   5.705   0.553   1.942
10156SOL    HW131367   5.622   0.530   1.992
10156SOL    HW231368   5.774   0.588   2.005
10157SOL     OW31369   0.222   2.190   0.541
10157SOL    HW131370   0.215   2.289   0.551
10157SOL    HW231371   0.236   2.149   0.632
10158SOL     OW31372   6.085   6.382   1.075
10158SOL    HW131373   6.150   6.305   1.078
10158SOL    HW231374   6.045   6.388   0.984
10159SOL     OW31375   3.680   2.534   1.736
10159SOL    HW131376   3.713   2.465   1.801
10159SOL    HW231377   3.746   2.545   1.662
10160SOL     OW31378   1.380   3.255   3.392
10160SOL    HW131379   1.318   3.243   3.470
10160SOL    HW231380   1.377   3.174   3.334
10161SOL     OW31381   3.515   4.442   0.044
10161SOL    HW131382   3.501   4.502   6.988
10161SOL    HW231383   3.427   4.406   0.076
10162SOL     OW31384   2.988   5.195   0.566
10162SOL    HW131385   2.975   5.130   0.641
10162SOL    HW231386   2.905   5.199   0.511
10163SOL     OW31387   0.405   3.956   6.966
10163SOL    HW131388   0.306   3.949   6.959
10163SOL    HW231389   0.433   3.936   0.038
10164SOL     OW31390   6.261   3.537   4.998
10164SOL    HW131391   6.304   3.550   5.088
10164SOL    HW231392   6.204   3.617   4.977
10165SOL     OW31393   6.715   1.881   3.424
10165SOL    HW131394   6.680   1.972   3.405
10165SOL    HW231395   6.766   1.847   3.345
10166SOL     OW31396   2.511   1.713   1.663
10166SOL    HW131397   2.584   1.749   1.604
10166SOL    HW231398   2.422   1.727   1.620
10167SOL     OW31399   0.519   5.439   0.490
10167SOL    HW131400   0.547   5.510   0.426
10167SOL    HW231401   0.600   5.399   0.533
10168SOL     OW31402   6.775   2.157   5.888
10168SOL    HW131403   6.840   2.111   5.828
10168SOL    HW231404   6.744   2.242   5.846
10169SOL     OW31405   0.338   3.971   3.800
10169SOL    HW131406   0.312   3.881   3.835
10169SOL    HW231407   0.437   3.984   3.813
10170SOL     OW31408   6.637   4.989   6.560
10170SOL    HW131409   6.702   4.923   6.597
10170SOL    HW231410   6.675   5.032   6.478
10171SOL     OW31411   0.768   3.142   5.144
10171SOL    HW131412   0.796   3.074   5.077
10171SOL    HW231413   0.715   3.098   5.216
10172SOL     OW31414   1.073   6.014   4.367
10172SOL    HW131415   1.028   5.932   4.333
10172SOL    HW231416   1.027   6.045   4.450
10173SOL     OW31417   1.696   2.864   0.613
10173SOL    HW131418   1.751   2.882   0.694
10173SOL    HW231419   1.631   2.790   0.631
10174SOL     OW31420   5.178   4.885   3.771
10174SOL    HW131421   5.225   4.879   3.683
10174SOL    HW231422   5.113   4.962   3.769
10175SOL     OW31423   5.104   2.704   3.456
10175SOL    HW131424   5.147   2.614   3.461
10175SOL    HW231425   5.144   2.756   3.380
10176SOL     OW31426   0.019   3.036   5.456
10176SOL    HW131427   0.076   3.011   5.535
10176SOL    HW231428   0.074   3.030   5.373
10177SOL     OW31429   1.683   0.931   0.485
10177SOL    HW131430   1.724   1.020   0.464
10177SOL    HW231431   1.587   0.943   0.511
10178SOL     OW31432   0.625   0.714   0.205
10178SOL    HW131433   0.712   0.698   0.158
10178SOL    HW231434   0.588   0.626   0.236
10179SOL     OW31435   0.354   3.035   6.741
10179SOL    HW131436   0.389   2.954   6.694
10179SOL    HW231437   0.355   3.019   6.840
10180SOL     OW31438   4.747   0.578   0.226
10180SOL    HW131439   4.767   0.664   0.178
10180SOL    HW231440   4.798   0.504   0.182
10181SOL     OW31441   0.356   2.511   1.223
10181SOL    HW131442   0.358   2.609   1.239
10181SOL    HW231443   0.382   2.463   1.307
10182SOL     OW31444   5.051   0.793   0.214
10182SOL    HW131445   5.076   0.731   0.139
10182SOL    HW231446   5.070   0.748   0.301
10183SOL     OW31447   5.917   2.483   5.433
10183SOL    HW131448   5.901   2.549   5.360
10183SOL    HW231449   5.861   2.508   5.513
10184SOL     OW31450   4.322   2.285   6.341
10184SOL    HW131451   4.307   2.374   6.297
10184SOL    HW231452   4.399   2.293   6.405
10185SOL     OW31453   6.088   6.375   1.980
10185SOL    HW131454   6.037   6.362   1.894
10185SOL    HW231455   6.069   6.299   2.041
10186SOL     OW31456   5.289   4.186   4.464
10186SOL    HW131457   5.191   4.177   4.480
10186SOL    HW231458   5.306   4.262   4.401
10187SOL     OW31459   0.935   4.201   6.660
10187SOL    HW131460   0.886   4.117   6.681
10187SOL    HW231461   0.984   4.190   6.573
10188SOL     OW31462   3.328   5.208   6.734
10188SOL    HW131463   3.393   5.139   6.705
10188SOL    HW231464   3.284   5.179   6.819
10189SOL     OW31465   0.607   1.092   6.040
10189SOL    HW131466   0.523   1.103   5.986
10189SOL    HW231467   0.621   0.996   6.062
10190SOL     OW31468   4.166   2.612   1.337
10190SOL    HW131469   4.114   2.665   1.404
10190SOL    HW231470   4.203   2.530   1.381
10191SOL     OW31471   5.021   5.138   6.850
10191SOL    HW131472   4.995   5.104   6.941
10191SOL    HW231473   5.053   5.061   6.794
10192SOL     OW31474   3.796   0.857   5.019
10192SOL    HW131475   3.748   0.842   4.932
10192SOL    HW231476   3.883   0.903   5.001
10193SOL     OW31477   3.110   3.581   2.764
10193SOL    HW131478   3.043   3.571   2.838
10193SOL    HW231479   3.170   3.659   2.783
10194SOL     OW31480   4.666   0.399   4.960
10194SOL    HW131481   4.701   0.453   4.883
10194SOL    HW231482   4.568   0.385   4.950
10195SOL     OW31483   6.534   6.817   0.595
10195SOL    HW131484   6.537   6.762   0.679
10195SOL    HW231485   6.624   6.814   0.551
10196SOL     OW31486   4.332   2.017   4.065
10196SOL    HW131487   4.253   2.015   4.126
10196SOL    HW231488   4.411   2.055   4.114
10197SOL     OW31489   5.226   2.296   4.426
10197SOL    HW131490   5.244   2.304   4.328
10197SOL    HW231491   5.181   2.209   4.445
10198SOL     OW31492   3.645   0.013   1.454
10198SOL    HW131493   3.551   0.034   1.426
10198SOL    HW231494   3.661   0.051   1.545
10199SOL     OW31495   1.007   1.949   0.354
10199SOL    HW131496   1.057   1.898   0.285
10199SOL    HW231497   0.970   2.033   0.314
10200SOL     OW31498   5.051   3.256   5.675
10200SOL    HW131499   5.042   3.236   5.577
10200SOL    HW231500   5.065   3.354   5.688
10201SOL     OW31501   0.874   6.281   0.557
10201SOL    HW131502   0.902   6.349   0.624
10201SOL    HW231503   0.776   6.262   0.568
10202SOL     OW31504   2.186   4.534   0.096
10202SOL    HW131505   2.107   4.578   0.138
10202SOL    HW231506   2.270   4.576   0.131
10203SOL     OW31507   6.936   2.878   1.823
10203SOL    HW131508   6.968   2.971   1.806
10203SOL    HW231509   7.008   2.826   1.868
10204SOL     OW31510   3.756   5.839   6.921
10204SOL    HW131511   3.779   5.929   6.885
10204SOL    HW231512   3.732   5.778   6.846
10205SOL     OW31513   3.170   1.216   2.181
10205SOL    HW131514   3.243   1.280   2.206
10205SOL    HW231515   3.084   1.265   2.172
10206SOL     OW31516   6.407   6.963   6.567
10206SOL    HW131517   6.375   6.934   6.657
10206SOL    HW231518   6.374   6.900   6.497
10207SOL     OW31519   2.098   1.761   6.863
10207SOL    HW131520   2.195   1.772   6.839
10207SOL    HW231521   2.090   1.699   6.942
10208SOL     OW31522   6.434   4.931   3.605
10208SOL    HW131523   6.463   4.877   3.684
10208SOL    HW231524   6.394   4.870   3.537
10209SOL     OW31525   0.065   6.898   6.284
10209SOL    HW131526   7.020   6.973   6.293
10209SOL    HW231527   0.134   6.906   6.355
10210SOL     OW31528   5.334   6.492   1.085
10210SOL    HW131529   5.321   6.561   1.156
10210SOL    HW231530   5.425   6.502   1.045
10211SOL     OW31531   4.006   6.028   4.943
10211SOL    HW131532   3.953   6.112   4.958
10211SOL    HW231533   4.103   6.052   4.931
10212SOL     OW31534   6.860   6.720   5.064
10212SOL    HW131535   6.837   6.753   4.973
10212SOL    HW231536   6.777   6.713   5.120
10213SOL     OW31537   5.352   3.165   2.365
10213SOL    HW131538   5.371   3.067   2.363
10213SOL    HW231539   5.283   3.184   2.435
10214SOL     OW31540   1.012   1.811   1.899
10214SOL    HW131541   0.934   1.759   1.934
10214SOL    HW231542   1.039   1.773   1.810
10215SOL     OW31543   3.062   3.199   3.687
10215SOL    HW131544   3.141   3.250   3.722
10215SOL    HW231545   3.021   3.249   3.611
10216SOL     OW31546   0.770   0.170   1.086
10216SOL    HW131547   0.796   0.221   1.004
10216SOL    HW231548   0.675   0.192   1.110
10217SOL     OW31549   2.185   2.362   3.437
10217SOL    HW131550   2.262   2.353   3.501
10217SOL    HW231551   2.116   2.294   3.459
10218SOL     OW31552   1.671   0.925   1.726
10218SOL    HW131553   1.571   0.925   1.731
10218SOL    HW231554   1.707   0.842   1.768
10219SOL     OW31555   0.044   3.202   2.446
10219SOL    HW131556   6.989   3.259   2.473
10219SOL    HW231557   0.094   3.173   2.528
10220SOL     OW31558   4.152   1.536   0.889
10220SOL    HW131559   4.149   1.596   0.968
10220SOL    HW231560   4.246   1.531   0.854
10221SOL     OW31561   1.823   3.765   4.618
10221SOL    HW131562   1.760   3.687   4.614
10221SOL    HW231563   1.847   3.784   4.713
10222SOL     OW31564   2.567   3.419   5.788
10222SOL    HW131565   2.597   3.400   5.695
10222SOL    HW231566   2.638   3.389   5.852
10223SOL     OW31567   2.107   5.868   6.535
10223SOL    HW131568   2.060   5.917   6.463
10223SOL    HW231569   2.041   5.820   6.592
10224SOL     OW31570   6.930   1.802   5.281
10224SOL    HW131571   6.996   1.856   5.228
10224SOL    HW231572   6.839   1.815   5.243
10225SOL     OW31573   2.102   6.336   5.959
10225SOL    HW131574   2.116   6.348   6.057
10225SOL    HW231575   2.190   6.343   5.912
10226SOL     OW31576   2.442   0.682   6.611
10226SOL    HW131577   2.364   0.741   6.631
10226SOL    HW231578   2.409   0.594   6.576
10227SOL     OW31579   5.166   4.411   0.660
10227SOL    HW131580   5.205   4.377   0.746
10227SOL    HW231581   5.166   4.337   0.592
10228SOL     OW31582   0.938   6.426   1.802
10228SOL    HW131583   0.948   6.525   1.791
10228SOL    HW231584   0.863   6.394   1.744
10229SOL     OW31585   1.451   1.572   4.349
10229SOL    HW131586   1.375   1.506   4.345
10229SOL    HW231587   1.537   1.524   4.331
10230SOL     OW31588   6.573   6.960   2.908
10230SOL    HW131589   6.484   6.984   2.868
10230SOL    HW231590   6.566   6.873   2.956
10231SOL     OW31591   6.331   5.382   5.374
10231SOL    HW131592   6.404   5.354   5.436
10231SOL    HW231593   6.320   5.314   5.301
10232SOL     OW31594   2.784   1.150   4.463
10232SOL    HW131595   2.841   1.084   4.512
10232SOL    HW231596   2.721   1.194   4.527
10233SOL     OW31597   4.765   3.379   5.314
10233SOL    HW131598   4.779   3.411   5.407
10233SOL    HW231599   4.733   3.454   5.257
10234SOL     OW31600   5.751   0.120   6.851
10234SOL    HW131601   5.776   0.183   6.924
10234SOL    HW231602   5.831   0.066   6.824
10235SOL     OW31603   3.575   3.007   0.429
10235SOL    HW131604   3.570   2.940   0.503
10235SOL    HW231605   3.483   3.036   0.403
10236SOL     OW31606   2.065   0.844   1.521
10236SOL    HW131607   2.145   0.822   1.464
10236SOL    HW231608   2.055   0.944   1.526
10237SOL     OW31609   6.779   4.404   0.463
10237SOL    HW131610   6.813   4.443   0.378
10237SOL    HW231611   6.856   4.370   0.518
10238SOL     OW31612   3.405   4.133   2.739
10238SOL    HW131613   3.373   4.148   2.833
10238SOL    HW231614   3.327   4.106   2.682
10239SOL     OW31615   2.270   4.689   5.571
10239SOL    HW131616   2.259   4.644   5.660
10239SOL    HW231617   2.324   4.772   5.582
10240SOL     OW31618   1.697   4.778   2.637
10240SOL    HW131619   1.723   4.734   2.552
10240SOL    HW231620   1.632   4.851   2.619
10241SOL     OW31621   6.821   0.410   2.287
10241SOL    HW131622   6.880   0.333   2.264
10241SOL    HW231623   6.873   0.476   2.342
10242SOL     OW31624   6.886   1.576   0.909
10242SOL    HW131625   6.881   1.675   0.923
10242SOL    HW231626   6.857   1.554   0.816
10243SOL     OW31627   1.555   4.960   1.843
10243SOL    HW131628   1.547   5.011   1.928
10243SOL    HW231629   1.643   4.913   1.840
10244SOL     OW31630   1.467   4.101   0.914
10244SOL    HW131631   1.538   4.169   0.894
10244SOL    HW231632   1.452   4.097   1.013
10245SOL     OW31633   2.804   4.861   0.587
10245SOL    HW131634   2.741   4.910   0.527
10245SOL    HW231635   2.752   4.814   0.659
10246SOL     OW31636   3.323   4.057   3.008
10246SOL    HW131637   3.302   3.976   3.063
10246SOL    HW231638   3.397   4.109   3.051
10247SOL     OW31639   6.803   4.504   5.752
10247SOL    HW131640   6.890   4.516   5.704
10247SOL    HW231641   6.821   4.495   5.850
10248SOL     OW31642   2.306   0.198   2.430
10248SOL    HW131643   2.246   0.277   2.419
10248SOL    HW231644   2.251   0.114   2.427
10249SOL     OW31645   3.177   0.098   6.613
10249SOL    HW131646   3.214   0.129   6.526
10249SOL    HW231647   3.237   0.029   6.652
10250SOL     OW31648   6.524   2.845   1.533
10250SOL    HW131649   6.431   2.877   1.517
10250SOL    HW231650   6.561   2.889   1.615
10251SOL     OW31651   3.026   1.411   4.977
10251SOL    HW131652   3.055   1.482   4.913
10251SOL    HW231653   3.103   1.384   5.034
10252SOL     OW31654   4.333   4.702   0.158
10252SOL    HW131655   4.377   4.782   0.199
10252SOL    HW231656   4.269   4.732   0.087
10253SOL     OW31657   2.547   5.842   0.597
10253SOL    HW131658   2.473   5.808   0.539
10253SOL    HW231659   2.617   5.771   0.605
10254SOL     OW31660   4.508   0.692   4.745
10254SOL    HW131661   4.599   0.651   4.742
10254SOL    HW231662   4.492   0.746   4.662
10255SOL     OW31663   2.135   6.681   1.128
10255SOL    HW131664   2.051   6.726   1.098
10255SOL    HW231665   2.154   6.706   1.223
10256SOL     OW31666   6.220   1.118   1.743
10256SOL    HW131667   6.286   1.052   1.706
10256SOL    HW231668   6.223   1.115   1.842
10257SOL     OW31669   2.193   5.027   4.438
10257SOL    HW131670   2.162   4.983   4.523
10257SOL    HW231671   2.291   5.042   4.443
10258SOL     OW31672   3.034   1.166   3.714
10258SOL    HW131673   3.056   1.188   3.619
10258SOL    HW231674   3.118   1.143   3.763
10259SOL     OW31675   0.593   4.372   2.995
10259SOL    HW131676   0.663   4.325   3.049
10259SOL    HW231677   0.504   4.328   3.009
10260SOL     OW31678   0.511   1.364   4.160
10260SOL    HW131679   0.470   1.273   4.159
10260SOL    HW231680   0.605   1.359   4.126
10261SOL     OW31681   6.913   6.172   3.087
10261SOL    HW131682   6.844   6.139   3.023
10261SOL    HW231683   6.883   6.156   3.180
10262SOL     OW31684   1.633   6.728   4.653
10262SOL    HW131685   1.548   6.729   4.705
10262SOL    HW231686   1.620   6.678   4.567
10263SOL     OW31687   5.413   0.681   6.357
10263SOL    HW131688   5.336   0.682   6.294
10263SOL    HW231689   5.380   0.690   6.451
10264SOL     OW31690   5.993   1.699   6.004
10264SOL    HW131691   5.930   1.774   6.025
10264SOL    HW231692   6.012   1.698   5.906
10265SOL     OW31693   2.269   2.451   3.183
10265SOL    HW131694   2.219   2.411   3.260
10265SOL    HW231695   2.217   2.438   3.099
10266SOL     OW31696   3.450   2.874   4.221
10266SOL    HW131697   3.402   2.894   4.306
10266SOL    HW231698   3.542   2.913   4.224
10267SOL     OW31699   0.169   1.697   6.881
10267SOL    HW131700   0.187   1.790   6.916
10267SOL    HW231701   0.184   1.631   6.955
10268SOL     OW31702   5.765   5.241   2.323
10268SOL    HW131703   5.748   5.234   2.421
10268SOL    HW231704   5.778   5.337   2.299
10269SOL     OW31705   0.496   3.272   0.050
10269SOL    HW131706   0.513   3.201   0.118
10269SOL    HW231707   0.421   3.243   7.012
10270SOL     OW31708   2.823   4.758   3.325
10270SOL    HW131709   2.771   4.819   3.265
10270SOL    HW231710   2.761   4.692   3.367
10271SOL     OW31711   3.698   2.464   0.029
10271SOL    HW131712   3.737   2.412   6.975
10271SOL    HW231713   3.771   2.511   0.079
10272SOL     OW31714   0.577   0.783   4.745
10272SOL    HW131715   0.516   0.745   4.676
10272SOL    HW231716   0.523   0.833   4.814
10273SOL     OW31717   3.493   5.817   2.257
10273SOL    HW131718   3.571   5.816   2.319
10273SOL    HW231719   3.470   5.723   2.231
10274SOL     OW31720   6.750   5.287   4.143
10274SOL    HW131721   6.758   5.305   4.241
10274SOL    HW231722   6.715   5.195   4.128
10275SOL     OW31723   0.947   0.050   1.878
10275SOL    HW131724   0.941   0.140   1.922
10275SOL    HW231725   0.931   7.000   1.947
10276SOL     OW31726   5.975   5.061   5.465
10276SOL    HW131727   5.920   5.027   5.389
10276SOL    HW231728   5.980   5.160   5.461
10277SOL     OW31729   2.230   5.565   3.962
10277SOL    HW131730   2.157   5.509   4.002
10277SOL    HW231731   2.268   5.625   4.032
10278SOL     OW31732   0.036   0.665   4.536
10278SOL    HW131733   7.002   0.639   4.615
10278SOL    HW231734   0.111   0.600   4.527
10279SOL     OW31735   2.973   5.034   4.126
10279SOL    HW131736   2.916   5.057   4.206
10279SOL    HW231737   2.999   5.119   4.080
10280SOL     OW31738   0.555   4.181   1.013
10280SOL    HW131739   0.624   4.110   1.002
10280SOL    HW231740   0.593   4.269   0.987
10281SOL     OW31741   6.091   1.195   2.742
10281SOL    HW131742   6.156   1.206   2.817
10281SOL    HW231743   6.035   1.278   2.734
10282SOL     OW31744   5.628   4.783   4.176
10282SOL    HW131745   5.590   4.730   4.251
10282SOL    HW231746   5.630   4.880   4.201
10283SOL     OW31747   1.210   3.850   1.288
10283SOL    HW131748   1.242   3.855   1.193
10283SOL    HW231749   1.132   3.912   1.299
10284SOL     OW31750   5.420   2.969   5.732
10284SOL    HW131751   5.352   2.966   5.659
10284SOL    HW231752   5.493   2.902   5.713
10285SOL     OW31753   5.434   0.743   1.976
10285SOL    HW131754   5.452   0.695   1.891
10285SOL    HW231755   5.464   0.687   2.053
10286SOL     OW31756   2.832   1.865   3.693
10286SOL    HW131757   2.875   1.880   3.604
10286SOL    HW231758   2.903   1.865   3.764
10287SOL     OW31759   2.510   6.524   1.122
10287SOL    HW131760   2.445   6.590   1.084
10287SOL    HW231761   2.462   6.442   1.152
10288SOL     OW31762   4.257   5.753   3.232
10288SOL    HW131763   4.233   5.700   3.313
10288SOL    HW231764   4.357   5.762   3.226
10289SOL     OW31765   2.444   6.834   1.821
10289SOL    HW131766   2.504   6.849   1.742
10289SOL    HW231767   2.499   6.831   1.905
10290SOL     OW31768   2.889   3.356   2.245
10290SOL    HW131769   2.858   3.279   2.301
10290SOL    HW231770   2.923   3.429   2.304
10291SOL     OW31771   3.392   1.952   3.455
10291SOL    HW131772   3.390   1.996   3.365
10291SOL    HW231773   3.326   1.877   3.456
10292SOL     OW31774   1.215   0.025   4.902
10292SOL    HW131775   1.221   7.000   4.991
10292SOL    HW231776   1.129   0.075   4.897
10293SOL     OW31777   1.789   4.929   3.197
10293SOL    HW131778   1.875   4.879   3.188
10293SOL    HW231779   1.792   4.985   3.280
10294SOL     OW31780   5.459   3.406   2.206
10294SOL    HW131781   5.445   3.315   2.246
10294SOL    HW231782   5.370   3.448   2.189
10295SOL     OW31783   5.277   3.971   6.082
10295SOL    HW131784   5.238   3.956   6.173
10295SOL    HW231785   5.248   4.059   6.046
10296SOL     OW31786   4.774   2.797   6.865
10296SOL    HW131787   4.800   2.763   6.775
10296SOL    HW231788   4.690   2.750   6.895
10297SOL     OW31789   2.013   6.804   6.633
10297SOL    HW131790   1.934   6.773   6.579
10297SOL    HW231791   2.008   6.904   6.644
10298SOL     OW31792   3.477   4.943   1.709
10298SOL    HW131793   3.515   4.876   1.773
10298SOL    HW231794   3.541   4.957   1.633
10299SOL     OW31795   4.809   5.109   3.000
10299SOL    HW131796   4.840   5.049   3.074
10299SOL    HW231797   4.875   5.183   2.988
10300SOL     OW31798   1.032   4.099   3.355
10300SOL    HW131799   1.129   4.105   3.331
10300SOL    HW231800   0.978   4.138   3.280
10301SOL     OW31801   5.627   2.332   4.407
10301SOL    HW131802   5.592   2.305   4.496
10301SOL    HW231803   5.628   2.252   4.346
10302SOL     OW31804   1.386   6.437   3.699
10302SOL    HW131805   1.476   6.408   3.732
10302SOL    HW231806   1.392   6.457   3.601
10303SOL     OW31807   1.767   6.006   2.945
10303SOL    HW131808   1.730   5.990   2.853
10303SOL    HW231809   1.693   6.034   3.006
10304SOL     OW31810   5.020   0.370   2.041
10304SOL    HW131811   5.082   0.446   2.025
10304SOL    HW231812   4.927   0.404   2.052
10305SOL     OW31813   0.753   4.329   7.008
10305SOL    HW131814   0.778   4.236   0.014
10305SOL    HW231815   0.735   4.331   6.910
10306SOL     OW31816   4.539   6.257   6.799
10306SOL    HW131817   4.543   6.331   6.867
10306SOL    HW231818   4.576   6.173   6.839
10307SOL     OW31819   2.389   1.887   5.187
10307SOL    HW131820   2.379   1.947   5.107
10307SOL    HW231821   2.351   1.933   5.267
10308SOL     OW31822   2.352   4.612   4.296
10308SOL    HW131823   2.290   4.534   4.299
10308SOL    HW231824   2.414   4.603   4.218
10309SOL     OW31825   5.705   1.407   4.644
10309SOL    HW131826   5.690   1.498   4.684
10309SOL    HW231827   5.756   1.351   4.709
10310SOL     OW31828   3.739   3.001   1.701
10310SOL    HW131829   3.647   2.964   1.692
10310SOL    HW231830   3.768   3.041   1.614
10311SOL     OW31831   1.162   6.389   0.236
10311SOL    HW131832   1.161   6.433   0.326
10311SOL    HW231833   1.147   6.458   0.166
10312SOL     OW31834   2.672   6.359   1.584
10312SOL    HW131835   2.733   6.415   1.529
10312SOL    HW231836   2.628   6.416   1.654
10313SOL     OW31837   4.871   0.206   1.000
10313SOL    HW131838   4.848   0.217   1.096
10313SOL    HW231839   4.792   0.172   0.950
10314SOL     OW31840   6.550   6.994   2.442
10314SOL    HW131841   6.472   6.932   2.448
10314SOL    HW231842   6.520   0.060   2.406
10315SOL     OW31843   6.487   6.003   4.720
10315SOL    HW131844   6.486   5.910   4.682
10315SOL    HW231845   6.393   6.034   4.733
10316SOL     OW31846   6.489   2.766   4.860
10316SOL    HW131847   6.485   2.813   4.949
10316SOL    HW231848   6.396   2.741   4.832
10317SOL     OW31849   3.112   5.507   5.914
10317SOL    HW131850   3.103   5.534   6.009
10317SOL    HW231851   3.089   5.584   5.854
10318SOL     OW31852   5.681   5.323   6.685
10318SOL    HW131853   5.706   5.233   6.719
10318SOL    HW231854   5.765   5.376   6.668
10319SOL     OW31855   1.447   2.377   5.596
10319SOL    HW131856   1.428   2.280   5.611
10319SOL    HW231857   1.488   2.389   5.506
10320SOL     OW31858   1.151   0.590   2.842
10320SOL    HW131859   1.223   0.646   2.882
10320SOL    HW231860   1.084   0.567   2.912
10321SOL     OW31861   4.647   1.013   2.751
10321SOL    HW131862   4.648   1.103   2.708
10321SOL    HW231863   4.554   0.987   2.774
10322SOL     OW31864   6.800   5.741   6.699
10322SOL    HW131865   6.716   5.723   6.649
10322SOL    HW231866   6.790   5.710   6.793
10323SOL     OW31867   6.558   3.331   6.392
10323SOL    HW131868   6.630   3.366   6.332
10323SOL    HW231869   6.481   3.301   6.337
10324SOL     OW31870   3.250   2.915   3.165
10324SOL    HW131871   3.199   2.936   3.082
10324SOL    HW231872   3.207   2.960   3.243
10325SOL     OW31873   0.251   3.734   3.109
10325SOL    HW131874   0.264   3.764   3.203
10325SOL    HW231875   0.167   3.774   3.072
10326SOL     OW31876   3.846   3.879   0.359
10326SOL    HW131877   3.813   3.940   0.431
10326SOL    HW231878   3.928   3.918   0.317
10327SOL     OW31879   2.620   2.326   1.954
10327SOL    HW131880   2.715   2.331   1.925
10327SOL    HW231881   2.613   2.360   2.048
10328SOL     OW31882   6.452   2.608   1.414
10328SOL    HW131883   6.353   2.601   1.418
10328SOL    HW231884   6.484   2.668   1.487
10329SOL     OW31885   3.882   0.354   3.199
10329SOL    HW131886   3.943   0.280   3.227
10329SOL    HW231887   3.934   0.439   3.191
10330SOL     OW31888   3.762   5.956   1.902
10330SOL    HW131889   3.695   5.994   1.966
10330SOL    HW231890   3.854   5.967   1.939
10331SOL     OW31891   6.941   0.545   4.326
10331SOL    HW131892   6.973   0.618   4.385
10331SOL    HW231893   6.879   0.582   4.257
10332SOL     OW31894   5.977   1.730   0.874
10332SOL    HW131895   5.880   1.712   0.892
10332SOL    HW231896   6.033   1.668   0.928
10333SOL     OW31897   6.589   4.603   4.416
10333SOL    HW131898   6.546   4.651   4.491
10333SOL    HW231899   6.675   4.648   4.391
10334SOL     OW31900   2.630   5.998   4.230
10334SOL    HW131901   2.656   6.061   4.157
10334SOL    HW231902   2.712   5.952   4.266
10335SOL     OW31903   2.609   4.842   6.747
10335SOL    HW131904   2.522   4.796   6.729
10335SOL    HW231905   2.600   4.899   6.829
10336SOL     OW31906   5.991   0.450   2.990
10336SOL    HW131907   6.065   0.487   3.046
10336SOL    HW231908   6.006   0.352   2.974
10337SOL     OW31909   6.757   6.193   5.554
10337SOL    HW131910   6.672   6.141   5.550
10337SOL    HW231911   6.745   6.272   5.613
10338SOL     OW31912   2.063   6.327   1.465
10338SOL    HW131913   2.158   6.348   1.439
10338SOL    HW231914   2.011   6.412   1.472
10339SOL     OW31915   2.603   5.569   0.410
10339SOL    HW131916   2.510   5.579   0.447
10339SOL    HW231917   2.667   5.617   0.470
10340SOL     OW31918   0.762   5.712   0.708
10340SOL    HW131919   0.752   5.777   0.784
10340SOL    HW231920   0.695   5.735   0.637
10341SOL     OW31921   2.107   3.244   2.053
10341SOL    HW131922   2.150   3.333   2.069
10341SOL    HW231923   2.080   3.238   1.957
10342SOL     OW31924   0.873   6.335   5.277
10342SOL    HW131925   0.953   6.275   5.279
10342SOL    HW231926   0.849   6.356   5.183
10343SOL     OW31927   1.671   4.280   0.816
10343SOL    HW131928   1.732   4.227   0.758
10343SOL    HW231929   1.694   4.377   0.808
10344SOL     OW31930   4.259   3.468   1.780
10344SOL    HW131931   4.344   3.441   1.736
10344SOL    HW231932   4.211   3.534   1.723
10345SOL     OW31933   1.562   1.134   6.561
10345SOL    HW131934   1.617   1.081   6.497
10345SOL    HW231935   1.518   1.210   6.512
10346SOL     OW31936   6.007   0.906   0.781
10346SOL    HW131937   6.054   0.967   0.717
10346SOL    HW231938   6.074   0.849   0.828
10347SOL     OW31939   5.589   2.705   2.403
10347SOL    HW131940   5.509   2.758   2.433
10347SOL    HW231941   5.612   2.638   2.473
10348SOL     OW31942   6.602   1.412   7.006
10348SOL    HW131943   6.664   1.471   0.037
10348SOL    HW231944   6.536   1.468   6.957
10349SOL     OW31945   6.493   1.308   0.762
10349SOL    HW131946   6.446   1.321   0.850
10349SOL    HW231947   6.570   1.245   0.775
10350SOL     OW31948   2.185   5.986   5.447
10350SOL    HW131949   2.174   6.035   5.534
10350SOL    HW231950   2.172   6.051   5.371
10351SOL     OW31951   5.143   4.843   6.307
10351SOL    HW131952   5.231   4.878   6.276
10351SOL    HW231953   5.137   4.848   6.407
10352SOL     OW31954   5.461   2.241   0.133
10352SOL    HW131955   5.466   2.168   0.065
10352SOL    HW231956   5.550   2.286   0.140
10353SOL     OW31957   5.988   2.220   4.948
10353SOL    HW131958   6.083   2.251   4.954
10353SOL    HW231959   5.977   2.159   4.870
10354SOL     OW31960   6.874   2.315   1.882
10354SOL    HW131961   6.820   2.298   1.965
10354SOL    HW231962   6.836   2.262   1.806
10355SOL     OW31963   1.672   0.523   1.253
10355SOL    HW131964   1.682   0.623   1.251
10355SOL    HW231965   1.586   0.497   1.209
10356SOL     OW31966   0.111   3.947   5.258
10356SOL    HW131967   0.027   3.970   5.307
10356SOL    HW231968   0.190   3.980   5.311
10357SOL     OW31969   3.569   2.640   5.909
10357SOL    HW131970   3.561   2.702   5.988
10357SOL    HW231971   3.595   2.693   5.828
10358SOL     OW31972   6.650   3.225   3.686
10358SOL    HW131973   6.612   3.134   3.671
10358SOL    HW231974   6.732   3.236   3.628
10359SOL     OW31975   5.178   1.243   2.242
10359SOL    HW131976   5.113   1.309   2.279
10359SOL    HW231977   5.129   1.172   2.192
10360SOL     OW31978   4.621   5.914   1.811
10360SOL    HW131979   4.555   5.839   1.813
10360SOL    HW231980   4.659   5.926   1.903
10361SOL     OW31981   2.803   1.067   3.124
10361SOL    HW131982   2.770   0.972   3.127
10361SOL    HW231983   2.756   1.120   3.195
10362SOL     OW31984   0.244   5.502   2.942
10362SOL    HW131985   0.164   5.444   2.928
10362SOL    HW231986   0.225   5.594   2.907
10363SOL     OW31987   5.114   2.538   1.160
10363SOL    HW131988   5.085   2.578   1.247
10363SOL    HW231989   5.164   2.606   1.107
10364SOL     OW31990   3.552   3.828   1.744
10364SOL    HW131991   3.588   3.917   1.771
10364SOL    HW231992   3.559   3.818   1.645
10365SOL     OW31993   4.839   3.904   5.856
10365SOL    HW131994   4.874   3.986   5.901
10365SOL    HW231995   4.742   3.916   5.835
10366SOL     OW31996   3.509   6.589   4.031
10366SOL    HW131997   3.601   6.621   4.052
10366SOL    HW231998   3.452   6.668   4.005
10367SOL     OW31999   0.264   1.927   2.031
10367SOL    HW132000   0.292   2.006   2.085
10367SOL    HW232001   0.338   1.901   1.969
10368SOL     OW32002   2.350   1.313   2.676
10368SOL    HW132003   2.301   1.398   2.664
10368SOL    HW232004   2.448   1.332   2.686
10369SOL     OW32005   2.760   6.864   5.446
10369SOL    HW132006   2.691   6.897   5.382
10369SOL    HW232007   2.753   6.913   5.533
10370SOL     OW32008   6.232   1.041   5.365
10370SOL    HW132009   6.288   1.013   5.443
10370SOL    HW232010   6.292   1.065   5.288
10371SOL     OW32011   1.745   6.164   4.382
10371SOL    HW132012   1.795   6.079   4.394
10371SOL    HW232013   1.728   6.207   4.471
10372SOL     OW32014   2.249   1.556   6.557
10372SOL    HW132015   2.155   1.548   6.590
10372SOL    HW232016   2.312   1.529   6.630
10373SOL     OW32017   1.595   6.293   4.928
10373SOL    HW132018   1.561   6.313   4.836
10373SOL    HW232019   1.649   6.208   4.925
10374SOL     OW32020   2.847   0.637   3.866
10374SOL    HW132021   2.886   0.711   3.812
10374SOL    HW232022   2.911   0.610   3.937
10375SOL     OW32023   2.063   2.283   6.183
10375SOL    HW132024   2.110   2.363   6.220
10375SOL    HW232025   2.110   2.200   6.213
10376SOL     OW32026   1.058   5.695   3.589
10376SOL    HW132027   1.020   5.692   3.681
10376SOL    HW232028   1.011   5.629   3.531
10377SOL     OW32029   0.208   0.739   2.716
10377SOL    HW132030   0.247   0.831   2.719
10377SOL    HW232031   0.112   0.742   2.745
10378SOL     OW32032   5.972   5.746   6.020
10378SOL    HW132033   6.006   5.772   5.930
10378SOL    HW232034   5.918   5.663   6.012
10379SOL     OW32035   2.924   5.980   4.046
10379SOL    HW132036   3.018   5.979   4.082
10379SOL    HW232037   2.878   5.896   4.074
10380SOL     OW32038   0.776   2.663   4.904
10380SOL    HW132039   0.697   2.685   4.846
10380SOL    HW232040   0.851   2.631   4.847
10381SOL     OW32041   4.144   4.229   0.932
10381SOL    HW132042   4.130   4.193   0.840
10381SOL    HW232043   4.080   4.305   0.948
10382SOL     OW32044   1.779   5.432   1.772
10382SOL    HW132045   1.766   5.347   1.721
10382SOL    HW232046   1.804   5.505   1.708
10383SOL     OW32047   1.020   4.063   1.355
10383SOL    HW132048   1.001   4.133   1.286
10383SOL    HW232049   1.015   4.104   1.446
10384SOL     OW32050   6.691   0.322   0.989
10384SOL    HW132051   6.684   0.381   1.069
10384SOL    HW232052   6.776   0.341   0.940
10385SOL     OW32053   4.323   5.930   6.040
10385SOL    HW132054   4.332   6.027   6.061
10385SOL    HW232055   4.402   5.881   6.078
10386SOL     OW32056   6.687   1.674   5.571
10386SOL    HW132057   6.616   1.637   5.512
10386SOL    HW232058   6.651   1.752   5.622
10387SOL     OW32059   4.433   1.800   2.439
10387SOL    HW132060   4.411   1.705   2.463
10387SOL    HW232061   4.489   1.840   2.512
10388SOL     OW32062   1.660   5.840   1.973
10388SOL    HW132063   1.590   5.869   1.907
10388SOL    HW232064   1.624   5.764   2.028
10389SOL     OW32065   6.244   5.737   0.973
10389SOL    HW132066   6.337   5.773   0.965
10389SOL    HW232067   6.225   5.716   1.069
10390SOL     OW32068   1.773   2.896   1.190
10390SOL    HW132069   1.819   2.878   1.103
10390SOL    HW232070   1.683   2.936   1.172
10391SOL     OW32071   0.179   6.636   3.324
10391SOL    HW132072   0.211   6.668   3.235
10391SOL    HW232073   0.124   6.553   3.312
10392SOL     OW32074   6.276   4.632   5.741
10392SOL    HW132075   6.202   4.634   5.673
10392SOL    HW232076   6.345   4.700   5.716
10393SOL     OW32077   2.012   2.439   3.774
10393SOL    HW132078   2.087   2.491   3.731
10393SOL    HW232079   2.030   2.341   3.764
10394SOL     OW32080   2.005   5.775   5.359
10394SOL    HW132081   1.968   5.711   5.426
10394SOL    HW232082   2.088   5.818   5.396
10395SOL     OW32083   0.149   0.819   2.027
10395SOL    HW132084   0.239   0.775   2.024
10395SOL    HW232085   0.081   0.753   2.057
10396SOL     OW32086   3.578   1.305   3.310
10396SOL    HW132087   3.604   1.246   3.386
10396SOL    HW232088   3.500   1.265   3.262
10397SOL     OW32089   2.866   1.429   4.610
10397SOL    HW132090   2.965   1.415   4.612
10397SOL    HW232091   2.834   1.433   4.515
10398SOL     OW32092   5.151   2.651   0.434
10398SOL    HW132093   5.164   2.585   0.361
10398SOL    HW232094   5.167   2.607   0.522
10399SOL     OW32095   4.859   2.515   4.768
10399SOL    HW132096   4.919   2.439   4.744
10399SOL    HW232097   4.891   2.557   4.853
10400SOL     OW32098   4.193   5.852   0.190
10400SOL    HW132099   4.116   5.821   0.134
10400SOL    HW232100   4.251   5.773   0.212
10401SOL     OW32101   0.027   6.884   2.014
10401SOL    HW132102   0.108   6.932   2.047
10401SOL    HW232103   0.005   6.809   2.077
10402SOL     OW32104   7.006   1.529   5.324
10402SOL    HW132105   7.006   1.628   5.310
10402SOL    HW232106   6.959   1.507   5.409
10403SOL     OW32107   4.165   1.894   2.886
10403SOL    HW132108   4.117   1.973   2.923
10403SOL    HW232109   4.244   1.924   2.832
10404SOL     OW32110   6.475   6.456   4.047
10404SOL    HW132111   6.559   6.494   4.010
10404SOL    HW232112   6.409   6.529   4.063
10405SOL     OW32113   1.020   5.760   4.732
10405SOL    HW132114   1.060   5.686   4.786
10405SOL    HW232115   1.048   5.752   4.637
10406SOL     OW32116   2.343   2.970   5.424
10406SOL    HW132117   2.418   2.989   5.360
10406SOL    HW232118   2.256   2.996   5.382
10407SOL     OW32119   2.418   0.142   0.065
10407SOL    HW132120   2.453   0.188   7.005
10407SOL    HW232121   2.350   0.074   0.039
10408SOL     OW32122   4.034   6.761   1.952
10408SOL    HW132123   4.049   6.859   1.954
10408SOL    HW232124   4.074   6.719   2.034
10409SOL     OW32125   6.827   4.135   0.797
10409SOL    HW132126   6.878   4.196   0.857
10409SOL    HW232127   6.840   4.163   0.702
10410SOL     OW32128   5.542   3.022   2.020
10410SOL    HW132129   5.523   3.013   1.922
10410SOL    HW232130   5.462   2.992   2.072
10411SOL     OW32131   3.243   6.006   4.063
10411SOL    HW132132   3.326   5.975   4.109
10411SOL    HW232133   3.223   5.945   3.986
10412SOL     OW32134   0.066   1.013   6.809
10412SOL    HW132135   0.121   1.092   6.783
10412SOL    HW232136   6.997   1.042   6.839
10413SOL     OW32137   6.510   2.395   1.950
10413SOL    HW132138   6.525   2.296   1.955
10413SOL    HW232139   6.585   2.437   1.900
10414SOL     OW32140   3.531   5.024   6.020
10414SOL    HW132141   3.557   5.000   5.927
10414SOL    HW232142   3.464   5.099   6.018
10415SOL     OW32143   1.642   4.519   4.010
10415SOL    HW132144   1.562   4.515   3.951
10415SOL    HW232145   1.629   4.590   4.079
10416SOL     OW32146   5.730   6.615   5.415
10416SOL    HW132147   5.648   6.573   5.376
10416SOL    HW232148   5.788   6.651   5.341
10417SOL     OW32149   4.419   5.180   4.627
10417SOL    HW132150   4.437   5.106   4.692
10417SOL    HW232151   4.353   5.244   4.666
10418SOL     OW32152   0.058   4.193   6.063
10418SOL    HW132153   0.094   4.130   6.132
10418SOL    HW232154   6.992   4.229   6.093
10419SOL     OW32155   3.595   6.917   6.254
10419SOL    HW132156   3.521   6.850   6.245
10419SOL    HW232157   3.579   6.974   6.335
10420SOL     OW32158   0.194   4.324   4.429
10420SOL    HW132159   0.184   4.424   4.428
10420SOL    HW232160   0.269   4.299   4.490
10421SOL     OW32161   1.705   3.863   4.238
10421SOL    HW132162   1.690   3.774   4.194
10421SOL    HW232163   1.803   3.878   4.250
10422SOL     OW32164   6.716   3.145   6.104
10422SOL    HW132165   6.690   3.239   6.129
10422SOL    HW232166   6.805   3.147   6.057
10423SOL     OW32167   5.399   5.216   5.718
10423SOL    HW132168   5.367   5.151   5.787
10423SOL    HW232169   5.359   5.306   5.737
10424SOL     OW32170   3.918   3.277   0.685
10424SOL    HW132171   3.916   3.225   0.599
10424SOL    HW232172   3.828   3.272   0.729
10425SOL     OW32173   0.807   6.641   2.383
10425SOL    HW132174   0.892   6.688   2.362
10425SOL    HW232175   0.773   6.594   2.301
10426SOL     OW32176   5.301   4.986   6.785
10426SOL    HW132177   5.345   5.063   6.831
10426SOL    HW232178   5.311   4.904   6.840
10427SOL     OW32179   4.952   0.948   6.896
10427SOL    HW132180   4.890   0.921   6.970
10427SOL    HW232181   4.904   1.010   6.834
10428SOL     OW32182   3.091   1.042   4.059
10428SOL    HW132183   3.168   1.068   4.001
10428SOL    HW232184   3.065   1.119   4.117
10429SOL     OW32185   7.001   4.136   2.783
10429SOL    HW132186   6.902   4.135   2.770
10429SOL    HW232187   0.020   4.204   2.722
10430SOL     OW32188   3.895   6.662   5.103
10430SOL    HW132189   3.925   6.753   5.130
10430SOL    HW232190   3.885   6.659   5.003
10431SOL     OW32191   2.470   6.154   3.869
10431SOL    HW132192   2.388   6.120   3.915
10431SOL    HW232193   2.443   6.210   3.790
10432SOL     OW32194   6.293   0.720   4.878
10432SOL    HW132195   6.322   0.815   4.882
10432SOL    HW232196   6.215   0.711   4.815
10433SOL     OW32197   0.631   6.806   2.897
10433SOL    HW132198   0.575   6.746   2.954
10433SOL    HW232199   0.707   6.755   2.857
10434SOL     OW32200   3.187   6.435   2.870
10434SOL    HW132201   3.120   6.364   2.886
10434SOL    HW232202   3.272   6.394   2.835
10435SOL     OW32203   1.554   2.439   5.356
10435SOL    HW132204   1.612   2.513   5.322
10435SOL    HW232205   1.596   2.351   5.335
10436SOL     OW32206   6.051   4.661   5.262
10436SOL    HW132207   6.137   4.667   5.210
10436SOL    HW232208   5.974   4.678   5.200
10437SOL     OW32209   5.602   4.426   5.807
10437SOL    HW132210   5.579   4.397   5.900
10437SOL    HW232211   5.679   4.371   5.773
10438SOL     OW32212   0.750   5.573   6.121
10438SOL    HW132213   0.759   5.536   6.213
10438SOL    HW232214   0.657   5.557   6.087
10439SOL     OW32215   4.773   1.408   4.827
10439SOL    HW132216   4.786   1.390   4.730
10439SOL    HW232217   4.687   1.458   4.841
10440SOL     OW32218   0.624   6.925   0.477
10440SOL    HW132219   0.697   6.958   0.537
10440SOL    HW232220   0.535   6.948   0.517
10441SOL     OW32221   3.725   1.765   1.178
10441SOL    HW132222   3.674   1.698   1.124
10441SOL    HW232223   3.709   1.749   1.275
10442SOL     OW32224   4.107   6.462   5.466
10442SOL    HW132225   4.122   6.364   5.462
10442SOL    HW232226   4.194   6.509   5.479
10443SOL     OW32227   5.046   2.324   3.223
10443SOL    HW132228   4.974   2.371   3.274
10443SOL    HW232229   5.019   2.229   3.207
10444SOL     OW32230   3.774   5.280   3.432
10444SOL    HW132231   3.838   5.351   3.400
10444SOL    HW232232   3.746   5.224   3.354
10445SOL     OW32233   0.569   5.042   3.467
10445SOL    HW132234   0.569   5.136   3.502
10445SOL    HW232235   0.560   5.043   3.368
10446SOL     OW32236   2.368   3.134   6.435
10446SOL    HW132237   2.396   3.227   6.409
10446SOL    HW232238   2.448   3.084   6.468
10447SOL     OW32239   0.643   1.185   3.065
10447SOL    HW132240   0.664   1.193   2.968
10447SOL    HW232241   0.727   1.170   3.116
10448SOL     OW32242   4.558   0.315   2.454
10448SOL    HW132243   4.484   0.305   2.520
10448SOL    HW232244   4.594   0.408   2.459
10449SOL     OW32245   1.518   5.598   6.109
10449SOL    HW132246   1.519   5.510   6.154
10449SOL    HW232247   1.593   5.655   6.143
10450SOL     OW32248   0.537   1.325   0.268
10450SOL    HW132249   0.599   1.249   0.290
10450SOL    HW232250   0.493   1.356   0.351
10451SOL     OW32251   1.919   6.270   3.082
10451SOL    HW132252   2.012   6.305   3.073
10451SOL    HW232253   1.920   6.187   3.137
10452SOL     OW32254   6.111   3.107   2.652
10452SOL    HW132255   6.166   3.188   2.630
10452SOL    HW232256   6.018   3.135   2.677
10453SOL     OW32257   5.721   0.029   1.387
10453SOL    HW132258   5.809   0.007   1.346
10453SOL    HW232259   5.674   6.967   1.414
10454SOL     OW32260   5.026   2.853   6.956
10454SOL    HW132261   4.932   2.822   6.942
10454SOL    HW232262   5.070   2.795   0.004
10455SOL     OW32263   6.838   6.188   3.389
10455SOL    HW132264   6.855   6.285   3.370
10455SOL    HW232265   6.913   6.151   3.443
10456SOL     OW32266   1.470   5.361   0.431
10456SOL    HW132267   1.403   5.287   0.430
10456SOL    HW232268   1.487   5.392   0.338
10457SOL     OW32269   3.640   3.314   0.723
10457SOL    HW132270   3.626   3.396   0.779
10457SOL    HW232271   3.665   3.341   0.630
10458SOL     OW32272   6.236   0.180   6.182
10458SOL    HW132273   6.333   0.175   6.206
10458SOL    HW232274   6.207   0.276   6.185
10459SOL     OW32275   4.542   6.101   1.051
10459SOL    HW132276   4.573   6.006   1.054
10459SOL    HW232277   4.499   6.125   1.138
10460SOL     OW32278   1.014   4.265   1.876
10460SOL    HW132279   0.937   4.326   1.891
10460SOL    HW232280   1.100   4.315   1.891
10461SOL     OW32281   5.569   5.018   5.152
10461SOL    HW132282   5.482   5.007   5.104
10461SOL    HW232283   5.552   5.055   5.243
10462SOL     OW32284   5.069   1.871   3.420
10462SOL    HW132285   5.037   1.777   3.423
10462SOL    HW232286   5.165   1.875   3.449
10463SOL     OW32287   4.393   2.646   5.943
10463SOL    HW132288   4.307   2.659   5.895
10463SOL    HW232289   4.431   2.556   5.921
10464SOL     OW32290   6.688   6.768   1.598
10464SOL    HW132291   6.755   6.842   1.610
10464SOL    HW232292   6.607   6.804   1.551
10465SOL     OW32293   6.449   5.695   0.769
10465SOL    HW132294   6.529   5.648   0.806
10465SOL    HW232295   6.479   5.767   0.706
10466SOL     OW32296   4.377   5.026   5.615
10466SOL    HW132297   4.432   4.942   5.613
10466SOL    HW232298   4.295   5.014   5.560
10467SOL     OW32299   2.509   2.257   0.281
10467SOL    HW132300   2.464   2.171   0.306
10467SOL    HW232301   2.444   2.314   0.230
10468SOL     OW32302   3.766   5.201   3.143
10468SOL    HW132303   3.796   5.108   3.165
10468SOL    HW232304   3.706   5.199   3.063
10469SOL     OW32305   4.104   4.507   5.620
10469SOL    HW132306   4.113   4.441   5.694
10469SOL    HW232307   4.045   4.470   5.549
10470SOL     OW32308   1.861   2.737   3.994
10470SOL    HW132309   1.800   2.695   4.061
10470SOL    HW232310   1.911   2.812   4.036
10471SOL     OW32311   3.222   0.750   0.657
10471SOL    HW132312   3.161   0.746   0.737
10471SOL    HW232313   3.175   0.713   0.578
10472SOL     OW32314   3.310   5.956   0.634
10472SOL    HW132315   3.397   5.982   0.593
10472SOL    HW232316   3.323   5.932   0.730
10473SOL     OW32317   6.457   0.193   6.829
10473SOL    HW132318   6.492   0.144   6.909
10473SOL    HW232319   6.474   0.138   6.747
10474SOL     OW32320   4.020   1.281   4.223
10474SOL    HW132321   4.118   1.300   4.219
10474SOL    HW232322   3.971   1.365   4.247
10475SOL     OW32323   4.628   6.643   1.349
10475SOL    HW132324   4.678   6.730   1.350
10475SOL    HW232325   4.580   6.631   1.436
10476SOL     OW32326   6.937   6.820   0.112
10476SOL    HW132327   6.934   6.864   0.022
10476SOL    HW232328   6.954   6.722   0.100
10477SOL     OW32329   6.705   0.378   4.128
10477SOL    HW132330   6.733   0.473   4.117
10477SOL    HW232331   6.734   0.326   4.048
10478SOL     OW32332   6.302   0.765   0.443
10478SOL    HW132333   6.393   0.729   0.464
10478SOL    HW232334   6.233   0.715   0.495
10479SOL     OW32335   0.068   1.687   3.002
10479SOL    HW132336   6.999   1.700   2.962
10479SOL    HW232337   0.079   1.746   3.081
10480SOL     OW32338   0.345   0.863   1.596
10480SOL    HW132339   0.263   0.822   1.555
10480SOL    HW232340   0.317   0.922   1.672
10481SOL     OW32341   2.340   6.909   4.351
10481SOL    HW132342   2.366   6.985   4.410
10481SOL    HW232343   2.406   6.834   4.363
10482SOL     OW32344   6.397   4.923   4.564
10482SOL    HW132345   6.473   4.872   4.606
10482SOL    HW232346   6.413   4.932   4.466
10483SOL     OW32347   6.402   4.855   0.491
10483SOL    HW132348   6.428   4.851   0.394
10483SOL    HW232349   6.351   4.939   0.509
10484SOL     OW32350   6.346   1.913   2.048
10484SOL    HW132351   6.318   1.990   2.106
10484SOL    HW232352   6.309   1.927   1.955
10485SOL     OW32353   3.178   3.914   0.520
10485SOL    HW132354   3.191   3.932   0.618
10485SOL    HW232355   3.233   3.835   0.493
10486SOL     OW32356   0.445   0.519   0.346
10486SOL    HW132357   0.482   0.550   0.433
10486SOL    HW232358   0.361   0.467   0.361
10487SOL     OW32359   4.830   1.156   1.088
10487SOL    HW132360   4.851   1.231   1.150
10487SOL    HW232361   4.825   1.070   1.140
10488SOL     OW32362   3.139   0.860   6.002
10488SOL    HW132363   3.091   0.934   5.955
10488SOL    HW232364   3.085   0.776   5.995
10489SOL     OW32365   0.476   6.863   5.510
10489SOL    HW132366   0.446   6.826   5.597
10489SOL    HW232367   0.518   6.791   5.455
10490SOL     OW32368   5.595   1.582   1.274
10490SOL    HW132369   5.602   1.672   1.317
10490SOL    HW232370   5.545   1.589   1.188
10491SOL     OW32371   2.259   2.542   6.570
10491SOL    HW132372   2.354   2.522   6.595
10491SOL    HW232373   2.230   2.626   6.616
10492SOL     OW32374   5.588   4.980   6.888
10492SOL    HW132375   5.613   4.971   6.984
10492SOL    HW232376   5.538   4.899   6.859
10493SOL     OW32377   3.338   0.500   2.155
10493SOL    HW132378   3.299   0.491   2.247
10493SOL    HW232379   3.394   0.583   2.151
10494SOL     OW32380   5.316   4.086   5.343
10494SOL    HW132381   5.284   4.018   5.410
10494SOL    HW232382   5.319   4.044   5.252
10495SOL     OW32383   1.845   6.921   1.318
10495SOL    HW132384   1.853   6.883   1.410
10495SOL    HW232385   1.800   7.010   1.322
10496SOL     OW32386   6.744   3.682   6.115
10496SOL    HW132387   6.832   3.728   6.105
10496SOL    HW232388   6.745   3.628   6.199
10497SOL     OW32389   2.030   6.991   2.174
10497SOL    HW132390   1.982   6.961   2.092
10497SOL    HW232391   2.107   0.028   2.148
10498SOL     OW32392   4.581   5.128   0.924
10498SOL    HW132393   4.619   5.206   0.875
10498SOL    HW232394   4.537   5.066   0.859
10499SOL     OW32395   4.233   6.990   2.207
10499SOL    HW132396   4.166   0.016   2.262
10499SOL    HW232397   4.200   6.984   2.112
10500SOL     OW32398   5.932   1.200   6.150
10500SOL    HW132399   5.913   1.276   6.088
10500SOL    HW232400   5.966   1.122   6.098
10501SOL     OW32401   2.191   5.512   1.975
10501SOL    HW132402   2.275   5.476   1.933
10501SOL    HW232403   2.206   5.608   2.001
10502SOL     OW32404   2.509   1.379   2.085
10502SOL    HW132405   2.536   1.454   2.025
10502SOL    HW232406   2.568   1.378   2.166
10503SOL     OW32407   4.360   2.794   0.909
10503SOL    HW132408   4.385   2.721   0.845
10503SOL    HW232409   4.442   2.828   0.954
10504SOL     OW32410   1.307   1.921   6.050
10504SOL    HW132411   1.405   1.922   6.030
10504SOL    HW232412   1.267   1.838   6.011
10505SOL     OW32413   5.158   4.961   0.979
10505SOL    HW132414   5.146   4.970   0.880
10505SOL    HW232415   5.103   4.884   1.012
10506SOL     OW32416   6.755   4.768   0.718
10506SOL    HW132417   6.707   4.847   0.755
10506SOL    HW232418   6.700   4.727   0.645
10507SOL     OW32419   2.107   6.851   0.231
10507SOL    HW132420   2.197   6.840   0.272
10507SOL    HW232421   2.117   6.879   0.135
10508SOL     OW32422   6.255   6.007   4.974
10508SOL    HW132423   6.266   5.913   4.944
10508SOL    HW232424   6.158   6.032   4.972
10509SOL     OW32425   0.464   5.413   4.276
10509SOL    HW132426   0.450   5.336   4.337
10509SOL    HW232427   0.425   5.496   4.317
10510SOL     OW32428   4.531   5.482   6.703
10510SOL    HW132429   4.612   5.540   6.713
10510SOL    HW232430   4.455   5.522   6.755
10511SOL     OW32431   3.434   1.023   2.151
10511SOL    HW132432   3.512   0.969   2.121
10511SOL    HW232433   3.359   0.962   2.177
10512SOL     OW32434   4.259   0.433   6.468
10512SOL    HW132435   4.319   0.483   6.531
10512SOL    HW232436   4.188   0.386   6.520
10513SOL     OW32437   5.885   2.216   4.513
10513SOL    HW132438   5.943   2.251   4.439
10513SOL    HW232439   5.791   2.248   4.500
10514SOL     OW32440   0.274   3.102   1.288
10514SOL    HW132441   0.193   3.058   1.327
10514SOL    HW232442   0.311   3.169   1.353
10515SOL     OW32443   0.552   3.497   3.516
10515SOL    HW132444   0.609   3.569   3.477
10515SOL    HW232445   0.504   3.532   3.597
10516SOL     OW32446   4.460   1.280   0.825
10516SOL    HW132447   4.549   1.237   0.816
10516SOL    HW232448   4.407   1.266   0.742
10517SOL     OW32449   0.617   3.124   1.817
10517SOL    HW132450   0.667   3.159   1.896
10517SOL    HW232451   0.578   3.200   1.765
10518SOL     OW32452   0.503   5.998   0.367
10518SOL    HW132453   0.601   5.998   0.349
10518SOL    HW232454   0.472   6.092   0.382
10519SOL     OW32455   3.242   3.655   0.448
10519SOL    HW132456   3.268   3.649   0.545
10519SOL    HW232457   3.206   3.567   0.418
10520SOL     OW32458   0.293   2.525   6.002
10520SOL    HW132459   0.247   2.499   5.917
10520SOL    HW232460   0.380   2.571   5.980
10521SOL     OW32461   5.883   6.154   1.540
10521SOL    HW132462   5.840   6.092   1.474
10521SOL    HW232463   5.948   6.102   1.596
10522SOL     OW32464   1.051   0.683   5.428
10522SOL    HW132465   1.028   0.623   5.504
10522SOL    HW232466   0.999   0.768   5.436
10523SOL     OW32467   1.139   4.787   3.270
10523SOL    HW132468   1.181   4.877   3.258
10523SOL    HW232469   1.039   4.797   3.271
10524SOL     OW32470   1.749   0.163   4.377
10524SOL    HW132471   1.763   0.192   4.472
10524SOL    HW232472   1.826   0.193   4.321
10525SOL     OW32473   4.284   6.597   6.140
10525SOL    HW132474   4.226   6.553   6.072
10525SOL    HW232475   4.264   6.560   6.230
10526SOL     OW32476   2.110   6.786   3.863
10526SOL    HW132477   2.049   6.864   3.873
10526SOL    HW232478   2.076   6.710   3.919
10527SOL     OW32479   1.142   1.013   5.360
10527SOL    HW132480   1.063   0.963   5.394
10527SOL    HW232481   1.166   1.085   5.425
10528SOL     OW32482   1.720   3.084   5.958
10528SOL    HW132483   1.803   3.033   5.979
10528SOL    HW232484   1.673   3.042   5.881
10529SOL     OW32485   3.129   5.806   4.280
10529SOL    HW132486   3.209   5.807   4.221
10529SOL    HW232487   3.100   5.712   4.295
10530SOL     OW32488   1.843   0.591   6.617
10530SOL    HW132489   1.886   0.589   6.707
10530SOL    HW232490   1.911   0.570   6.547
10531SOL     OW32491   0.994   2.707   4.512
10531SOL    HW132492   0.962   2.659   4.430
10531SOL    HW232493   0.979   2.806   4.500
10532SOL     OW32494   1.149   6.446   6.260
10532SOL    HW132495   1.098   6.396   6.191
10532SOL    HW232496   1.190   6.527   6.218
10533SOL     OW32497   2.863   6.562   3.966
10533SOL    HW132498   2.893   6.560   3.870
10533SOL    HW232499   2.869   6.469   4.004
10534SOL     OW32500   6.312   6.242   1.440
10534SOL    HW132501   6.277   6.325   1.396
10534SOL    HW232502   6.371   6.267   1.517
10535SOL     OW32503   1.544   2.234   1.559
10535SOL    HW132504   1.445   2.241   1.574
10535SOL    HW232505   1.588   2.197   1.641
10536SOL     OW32506   4.639   0.550   3.835
10536SOL    HW132507   4.686   0.608   3.768
10536SOL    HW232508   4.693   0.546   3.919
10537SOL     OW32509   3.897   5.812   3.806
10537SOL    HW132510   3.960   5.810   3.728
10537SOL    HW232511   3.942   5.855   3.884
10538SOL     OW32512   5.820   2.818   0.890
10538SOL    HW132513   5.836   2.726   0.925
10538SOL    HW232514   5.875   2.884   0.942
10539SOL     OW32515   0.608   4.600   6.927
10539SOL    HW132516   0.533   4.665   6.937
10539SOL    HW232517   0.642   4.603   6.833
10540SOL     OW32518   1.671   1.945   5.123
10540SOL    HW132519   1.757   1.947   5.072
10540SOL    HW232520   1.605   2.006   5.080
10541SOL     OW32521   3.085   4.050   1.965
10541SOL    HW132522   3.146   4.128   1.976
10541SOL    HW232523   3.128   3.968   2.003
10542SOL     OW32524   0.026   0.242   5.210
10542SOL    HW132525   0.020   0.318   5.145
10542SOL    HW232526   0.115   0.197   5.200
10543SOL     OW32527   0.138   1.659   4.259
10543SOL    HW132528   0.218   1.646   4.317
10543SOL    HW232529   0.165   1.708   4.176
10544SOL     OW32530   2.610   6.895   1.603
10544SOL    HW132531   2.707   6.897   1.580
10544SOL    HW232532   2.560   6.957   1.543
10545SOL     OW32533   0.735   2.051   1.951
10545SOL    HW132534   0.665   2.089   1.891
10545SOL    HW232535   0.747   1.954   1.932
10546SOL     OW32536   2.015   1.156   0.743
10546SOL    HW132537   2.009   1.240   0.690
10546SOL    HW232538   1.946   1.091   0.711
10547SOL     OW32539   5.412   3.232   2.751
10547SOL    HW132540   5.504   3.232   2.789
10547SOL    HW232541   5.406   3.302   2.679
10548SOL     OW32542   5.520   4.661   3.941
10548SOL    HW132543   5.572   4.708   4.012
10548SOL    HW232544   5.532   4.708   3.853
10549SOL     OW32545   0.758   6.946   1.695
10549SOL    HW132546   0.765   6.851   1.725
10549SOL    HW232547   0.822   7.002   1.748
10550SOL     OW32548   4.767   6.465   3.656
10550SOL    HW132549   4.766   6.560   3.624
10550SOL    HW232550   4.773   6.404   3.577
10551SOL     OW32551   1.753   2.679   6.607
10551SOL    HW132552   1.681   2.609   6.604
10551SOL    HW232553   1.791   2.691   6.515
10552SOL     OW32554   3.613   0.322   6.045
10552SOL    HW132555   3.577   0.375   5.968
10552SOL    HW232556   3.694   0.368   6.082
10553SOL     OW32557   0.582   4.307   2.004
10553SOL    HW132558   0.520   4.314   2.082
10553SOL    HW232559   0.556   4.229   1.947
10554SOL     OW32560   5.556   4.598   0.258
10554SOL    HW132561   5.557   4.500   0.276
10554SOL    HW232562   5.462   4.629   0.244
10555SOL     OW32563   1.615   2.653   6.963
10555SOL    HW132564   1.667   2.739   6.956
10555SOL    HW232565   1.678   2.576   6.962
10556SOL     OW32566   1.886   1.651   4.993
10556SOL    HW132567   1.950   1.619   4.924
10556SOL    HW232568   1.910   1.745   5.020
10557SOL     OW32569   2.302   2.830   3.370
10557SOL    HW132570   2.267   2.922   3.386
10557SOL    HW232571   2.227   2.771   3.341
10558SOL     OW32572   4.309   0.347   3.863
10558SOL    HW132573   4.213   0.322   3.861
10558SOL    HW232574   4.364   0.274   3.822
10559SOL     OW32575   4.734   0.333   1.489
10559SOL    HW132576   4.701   0.426   1.507
10559SOL    HW232577   4.701   0.272   1.562
10560SOL     OW32578   3.869   6.254   2.892
10560SOL    HW132579   3.935   6.320   2.927
10560SOL    HW232580   3.886   6.238   2.795
10561SOL     OW32581   3.291   3.410   1.772
10561SOL    HW132582   3.297   3.510   1.771
10561SOL    HW232583   3.375   3.371   1.736
10562SOL     OW32584   4.653   4.653   0.230
10562SOL    HW132585   4.585   4.627   0.298
10562SOL    HW232586   4.625   4.620   0.140
10563SOL     OW32587   0.864   1.851   3.787
10563SOL    HW132588   0.876   1.815   3.694
10563SOL    HW232589   0.766   1.858   3.807
10564SOL     OW32590   5.860   6.057   2.282
10564SOL    HW132591   5.886   6.086   2.374
10564SOL    HW232592   5.789   5.986   2.288
10565SOL     OW32593   0.420   6.740   5.747
10565SOL    HW132594   0.427   6.642   5.729
10565SOL    HW232595   0.341   6.758   5.807
10566SOL     OW32596   3.335   1.895   6.317
10566SOL    HW132597   3.385   1.809   6.323
10566SOL    HW232598   3.241   1.877   6.288
10567SOL     OW32599   2.935   2.223   4.788
10567SOL    HW132600   2.866   2.189   4.852
10567SOL    HW232601   3.022   2.234   4.836
10568SOL     OW32602   5.924   3.249   1.373
10568SOL    HW132603   5.940   3.163   1.422
10568SOL    HW232604   5.896   3.319   1.438
10569SOL     OW32605   5.991   2.039   2.022
10569SOL    HW132606   6.065   2.084   2.072
10569SOL    HW232607   5.941   2.106   1.969
10570SOL     OW32608   0.600   5.886   3.485
10570SOL    HW132609   0.689   5.931   3.477
10570SOL    HW232610   0.584   5.859   3.580
10571SOL     OW32611   0.275   4.228   5.700
10571SOL    HW132612   0.292   4.270   5.611
10571SOL    HW232613   0.235   4.296   5.761
10572SOL     OW32614   6.308   4.232   3.778
10572SOL    HW132615   6.356   4.299   3.835
10572SOL    HW232616   6.364   4.149   3.770
10573SOL     OW32617   4.738   0.574   5.156
10573SOL    HW132618   4.713   0.501   5.093
10573SOL    HW232619   4.802   0.538   5.224
10574SOL     OW32620   1.700   1.456   4.337
10574SOL    HW132621   1.752   1.416   4.262
10574SOL    HW232622   1.763   1.482   4.410
10575SOL     OW32623   6.879   1.663   4.270
10575SOL    HW132624   6.879   1.707   4.180
10575SOL    HW232625   6.967   1.680   4.315
10576SOL     OW32626   0.294   5.638   4.809
10576SOL    HW132627   0.343   5.723   4.790
10576SOL    HW232628   0.341   5.589   4.883
10577SOL     OW32629   1.768   4.480   0.161
10577SOL    HW132630   1.697   4.501   0.228
10577SOL    HW232631   1.845   4.434   0.207
10578SOL     OW32632   4.849   1.278   2.802
10578SOL    HW132633   4.844   1.186   2.841
10578SOL    HW232634   4.777   1.288   2.734
10579SOL     OW32635   4.463   2.656   1.261
10579SOL    HW132636   4.375   2.622   1.229
10579SOL    HW232637   4.461   2.664   1.361
10580SOL     OW32638   6.947   0.175   6.379
10580SOL    HW132639   0.001   0.225   6.340
10580SOL    HW232640   6.861   0.218   6.352
10581SOL     OW32641   6.586   0.025   3.538
10581SOL    HW132642   6.656   0.091   3.511
10581SOL    HW232643   6.584   6.971   3.472
10582SOL     OW32644   5.143   4.610   5.839
10582SOL    HW132645   5.111   4.643   5.928
10582SOL    HW232646   5.132   4.510   5.835
10583SOL     OW32647   4.077   0.744   3.826
10583SOL    HW132648   4.154   0.788   3.872
10583SOL    HW232649   3.992   0.774   3.869
10584SOL     OW32650   6.476   0.291   0.805
10584SOL    HW132651   6.505   0.210   0.754
10584SOL    HW232652   6.553   0.326   0.859
10585SOL     OW32653   2.110   1.821   5.448
10585SOL    HW132654   2.166   1.902   5.428
10585SOL    HW232655   2.170   1.741   5.452
10586SOL     OW32656   6.852   5.348   4.401
10586SOL    HW132657   6.827   5.424   4.461
10586SOL    HW232658   6.949   5.328   4.411
10587SOL     OW32659   6.502   4.639   0.100
10587SOL    HW132660   6.507   4.577   0.178
10587SOL    HW232661   6.470   4.589   0.020
10588SOL     OW32662   1.298   3.431   4.239
10588SOL    HW132663   1.355   3.442   4.320
10588SOL    HW232664   1.336   3.485   4.164
10589SOL     OW32665   6.052   0.843   4.375
10589SOL    HW132666   6.135   0.805   4.333
10589SOL    HW232667   6.022   0.923   4.322
10590SOL     OW32668   0.831   0.314   1.654
10590SOL    HW132669   0.861   0.232   1.704
10590SOL    HW232670   0.819   0.291   1.558
10591SOL     OW32671   2.082   2.299   6.773
10591SOL    HW132672   2.072   2.398   6.775
10591SOL    HW232673   1.992   2.256   6.772
10592SOL     OW32674   5.190   3.470   2.451
10592SOL    HW132675   5.120   3.403   2.477
10592SOL    HW232676   5.156   3.527   2.376
10593SOL     OW32677   2.326   6.418   0.415
10593SOL    HW132678   2.377   6.349   0.466
10593SOL    HW232679   2.273   6.474   0.479
10594SOL     OW32680   4.922   0.762   2.462
10594SOL    HW132681   4.880   0.852   2.454
10594SOL    HW232682   4.896   0.707   2.382
10595SOL     OW32683   4.925   6.180   6.752
10595SOL    HW132684   5.025   6.185   6.742
10595SOL    HW232685   4.900   6.088   6.781
10596SOL     OW32686   4.405   6.945   0.414
10596SOL    HW132687   4.314   6.910   0.390
10596SOL    HW232688   4.472   6.871   0.407
10597SOL     OW32689   3.510   0.977   5.516
10597SOL    HW132690   3.506   0.919   5.435
10597SOL    HW232691   3.491   0.921   5.597
10598SOL     OW32692   3.409   2.701   6.995
10598SOL    HW132693   3.386   2.648   6.914
10598SOL    HW232694   3.507   2.719   6.998
10599SOL     OW32695   5.121   3.328   5.958
10599SOL    HW132696   5.092   3.271   5.882
10599SOL    HW232697   5.041   3.366   6.004
10600SOL     OW32698   2.658   2.472   0.789
10600SOL    HW132699   2.559   2.470   0.804
10600SOL    HW232700   2.677   2.479   0.691
10601SOL     OW32701   2.117   4.724   4.882
10601SOL    HW132702   2.035   4.768   4.917
10601SOL    HW232703   2.101   4.692   4.789
10602SOL     OW32704   3.110   1.013   1.998
10602SOL    HW132705   3.158   1.060   1.924
10602SOL    HW232706   3.117   1.068   2.082
10603SOL     OW32707   3.743   6.718   3.157
10603SOL    HW132708   3.675   6.771   3.105
10603SOL    HW232709   3.705   6.693   3.246
10604SOL     OW32710   6.054   5.339   5.461
10604SOL    HW132711   6.149   5.355   5.488
10604SOL    HW232712   6.049   5.328   5.362
10605SOL     OW32713   1.466   6.402   6.864
10605SOL    HW132714   1.477   6.447   6.775
10605SOL    HW232715   1.368   6.396   6.886
10606SOL     OW32716   6.759   0.919   2.406
10606SOL    HW132717   6.823   0.842   2.414
10606SOL    HW232718   6.727   0.926   2.312
10607SOL     OW32719   4.150   4.938   5.484
10607SOL    HW132720   4.063   4.891   5.473
10607SOL    HW232721   4.133   5.036   5.494
10608SOL     OW32722   5.768   2.702   5.829
10608SOL    HW132723   5.860   2.718   5.794
10608SOL    HW232724   5.702   2.749   5.771
10609SOL     OW32725   2.335   6.412   0.021
10609SOL    HW132726   2.395   6.354   6.987
10609SOL    HW232727   2.243   6.413   7.003
10610SOL     OW32728   0.749   2.165   5.030
10610SOL    HW132729   0.674   2.230   5.013
10610SOL    HW232730   0.789   2.183   5.120
10611SOL     OW32731   3.173   4.234   6.609
10611SOL    HW132732   3.095   4.257   6.551
10611SOL    HW232733   3.218   4.152   6.574
10612SOL     OW32734   3.483   1.487   4.616
10612SOL    HW132735   3.565   1.544   4.607
10612SOL    HW232736   3.475   1.456   4.711
10613SOL     OW32737   5.640   6.115   5.535
10613SOL    HW132738   5.589   6.103   5.621
10613SOL    HW232739   5.716   6.051   5.532
10614SOL     OW32740   5.830   1.794   4.667
10614SOL    HW132741   5.847   1.893   4.660
10614SOL    HW232742   5.894   1.754   4.732
10615SOL     OW32743   4.234   0.062   5.462
10615SOL    HW132744   4.164   0.033   5.527
10615SOL    HW232745   4.266   7.004   5.410
10616SOL     OW32746   3.213   6.752   0.860
10616SOL    HW132747   3.157   6.701   0.795
10616SOL    HW232748   3.180   6.846   0.866
10617SOL     OW32749   3.207   3.250   1.509
10617SOL    HW132750   3.134   3.186   1.486
10617SOL    HW232751   3.218   3.255   1.608
10618SOL     OW32752   0.778   3.690   6.263
10618SOL    HW132753   0.795   3.669   6.167
10618SOL    HW232754   0.734   3.612   6.307
10619SOL     OW32755   6.799   4.215   2.164
10619SOL    HW132756   6.780   4.187   2.070
10619SOL    HW232757   6.760   4.306   2.179
10620SOL     OW32758   1.085   5.911   4.965
10620SOL    HW132759   1.033   5.876   5.043
10620SOL    HW232760   1.051   5.869   4.881
10621SOL     OW32761   0.903   5.764   1.708
10621SOL    HW132762   0.847   5.829   1.760
10621SOL    HW232763   0.961   5.712   1.771
10622SOL     OW32764   5.216   1.999   1.462
10622SOL    HW132765   5.263   1.911   1.478
10622SOL    HW232766   5.259   2.070   1.517
10623SOL     OW32767   6.852   4.624   5.139
10623SOL    HW132768   6.918   4.576   5.081
10623SOL    HW232769   6.778   4.563   5.165
10624SOL     OW32770   0.747   3.096   4.706
10624SOL    HW132771   0.794   3.070   4.790
10624SOL    HW232772   0.742   3.196   4.700
10625SOL     OW32773   0.257   4.238   0.835
10625SOL    HW132774   0.179   4.179   0.853
10625SOL    HW232775   0.277   4.293   0.916
10626SOL     OW32776   2.443   3.241   0.799
10626SOL    HW132777   2.378   3.204   0.866
10626SOL    HW232778   2.536   3.214   0.824
10627SOL     OW32779   5.561   6.881   0.527
10627SOL    HW132780   5.580   6.967   0.479
10627SOL    HW232781   5.462   6.870   0.536
10628SOL     OW32782   5.493   6.358   0.149
10628SOL    HW132783   5.401   6.335   0.117
10628SOL    HW232784   5.560   6.330   0.080
10629SOL     OW32785   2.342   4.802   5.188
10629SOL    HW132786   2.339   4.706   5.215
10629SOL    HW232787   2.334   4.808   5.089
10630SOL     OW32788   6.339   1.808   3.684
10630SOL    HW132789   6.299   1.823   3.594
10630SOL    HW232790   6.296   1.728   3.727
10631SOL     OW32791   2.497   5.187   4.963
10631SOL    HW132792   2.510   5.101   4.915
10631SOL    HW232793   2.549   5.186   5.049
10632SOL     OW32794   5.783   1.877   3.731
10632SOL    HW132795   5.846   1.810   3.771
10632SOL    HW232796   5.831   1.931   3.663
10633SOL     OW32797   2.865   2.793   1.227
10633SOL    HW132798   2.843   2.747   1.141
10633SOL    HW232799   2.932   2.865   1.210
10634SOL     OW32800   3.287   5.101   0.910
10634SOL    HW132801   3.367   5.054   0.949
10634SOL    HW232802   3.301   5.200   0.913
10635SOL     OW32803   2.414   2.872   1.093
10635SOL    HW132804   2.349   2.798   1.076
10635SOL    HW232805   2.500   2.834   1.125
10636SOL     OW32806   1.308   1.833   1.487
10636SOL    HW132807   1.243   1.886   1.433
10636SOL    HW232808   1.401   1.853   1.457
10637SOL     OW32809   2.432   4.695   6.311
10637SOL    HW132810   2.481   4.610   6.326
10637SOL    HW232811   2.495   4.772   6.322
10638SOL     OW32812   6.377   5.697   2.792
10638SOL    HW132813   6.360   5.655   2.881
10638SOL    HW232814   6.449   5.645   2.744
10639SOL     OW32815   0.829   3.075   3.613
10639SOL    HW132816   0.831   3.114   3.705
10639SOL    HW232817   0.742   3.026   3.600
10640SOL     OW32818   3.804   0.195   5.366
10640SOL    HW132819   3.872   0.259   5.401
10640SOL    HW232820   3.749   0.240   5.296
10641SOL     OW32821   2.293   2.024   1.749
10641SOL    HW132822   2.307   2.072   1.663
10641SOL    HW232823   2.353   2.063   1.819
10642SOL     OW32824   6.351   2.639   1.818
10642SOL    HW132825   6.419   2.684   1.876
10642SOL    HW232826   6.319   2.556   1.863
10643SOL     OW32827   1.664   5.213   5.288
10643SOL    HW132828   1.748   5.163   5.312
10643SOL    HW232829   1.688   5.296   5.238
10644SOL     OW32830   5.272   3.001   3.018
10644SOL    HW132831   5.215   2.954   3.086
10644SOL    HW232832   5.357   2.949   3.004
10645SOL     OW32833   2.169   2.250   4.710
10645SOL    HW132834   2.215   2.162   4.720
10645SOL    HW232835   2.234   2.317   4.674
10646SOL     OW32836   6.955   0.703   6.314
10646SOL    HW132837   6.962   0.787   6.369
10646SOL    HW232838   6.893   0.639   6.359
10647SOL     OW32839   2.802   5.479   4.836
10647SOL    HW132840   2.853   5.395   4.856
10647SOL    HW232841   2.865   5.549   4.801
10648SOL     OW32842   5.513   4.381   6.057
10648SOL    HW132843   5.464   4.294   6.058
10648SOL    HW232844   5.554   4.397   6.147
10649SOL     OW32845   6.995   4.569   2.394
10649SOL    HW132846   0.023   4.654   2.412
10649SOL    HW232847   0.025   4.492   2.431
10650SOL     OW32848   1.234   6.860   3.877
10650SOL    HW132849   1.139   6.874   3.847
10650SOL    HW232850   1.251   6.762   3.890
10651SOL     OW32851   5.465   6.107   6.223
10651SOL    HW132852   5.550   6.142   6.262
10651SOL    HW232853   5.458   6.009   6.239
10652SOL     OW32854   3.554   6.824   5.827
10652SOL    HW132855   3.571   6.729   5.804
10652SOL    HW232856   3.626   6.856   5.889
10653SOL     OW32857   4.511   4.444   4.189
10653SOL    HW132858   4.474   4.516   4.131
10653SOL    HW232859   4.575   4.484   4.255
10654SOL     OW32860   5.141   0.979   0.542
10654SOL    HW132861   5.045   0.982   0.571
10654SOL    HW232862   5.199   1.014   0.616
10655SOL     OW32863   2.360   5.406   0.773
10655SOL    HW132864   2.328   5.500   0.764
10655SOL    HW232865   2.285   5.343   0.753
10656SOL     OW32866   6.734   2.424   2.517
10656SOL    HW132867   6.784   2.369   2.584
10656SOL    HW232868   6.648   2.379   2.495
10657SOL     OW32869   6.554   6.913   6.032
10657SOL    HW132870   6.457   6.907   6.008
10657SOL    HW232871   6.565   6.907   6.131
10658SOL     OW32872   6.061   4.282   5.407
10658SOL    HW132873   6.024   4.230   5.484
10658SOL    HW232874   6.078   4.220   5.330
10659SOL     OW32875   6.810   6.066   1.118
10659SOL    HW132876   6.797   6.101   1.211
10659SOL    HW232877   6.741   6.106   1.058
10660SOL     OW32878   5.361   4.355   6.657
10660SOL    HW132879   5.369   4.270   6.605
10660SOL    HW232880   5.331   4.428   6.595
10661SOL     OW32881   1.302   0.348   2.127
10661SOL    HW132882   1.262   0.353   2.035
10661SOL    HW232883   1.245   0.399   2.191
10662SOL     OW32884   5.667   7.000   2.944
10662SOL    HW132885   5.596   0.038   2.906
10662SOL    HW232886   5.632   6.907   2.948
10663SOL     OW32887   0.598   1.112   1.559
10663SOL    HW132888   0.566   1.139   1.469
10663SOL    HW232889   0.551   1.166   1.629
10664SOL     OW32890   0.327   4.735   5.367
10664SOL    HW132891   0.349   4.797   5.292
10664SOL    HW232892   0.272   4.659   5.333
10665SOL     OW32893   1.302   1.173   0.593
10665SOL    HW132894   1.236   1.148   0.522
10665SOL    HW232895   1.363   1.095   0.610
10666SOL     OW32896   3.089   4.121   1.494
10666SOL    HW132897   3.147   4.083   1.566
10666SOL    HW232898   2.995   4.129   1.528
10667SOL     OW32899   3.601   3.600   5.445
10667SOL    HW132900   3.659   3.520   5.427
10667SOL    HW232901   3.525   3.601   5.380
10668SOL     OW32902   1.939   0.834   4.911
10668SOL    HW132903   1.942   0.826   4.812
10668SOL    HW232904   1.928   0.930   4.937
10669SOL     OW32905   5.656   6.708   1.046
10669SOL    HW132906   5.651   6.624   0.992
10669SOL    HW232907   5.739   6.708   1.101
10670SOL     OW32908   5.265   3.459   5.217
10670SOL    HW132909   5.305   3.381   5.169
10670SOL    HW232910   5.327   3.487   5.291
10671SOL     OW32911   2.596   2.482   3.371
10671SOL    HW132912   2.541   2.544   3.314
10671SOL    HW232913   2.663   2.435   3.314
10672SOL     OW32914   6.299   2.626   0.334
10672SOL    HW132915   6.202   2.605   0.328
10672SOL    HW232916   6.351   2.559   0.281
10673SOL     OW32917   1.451   1.064   6.987
10673SOL    HW132918   1.539   1.111   6.994
10673SOL    HW232919   1.410   1.084   6.898
10674SOL     OW32920   3.340   3.665   1.816
10674SOL    HW132921   3.325   3.671   1.915
10674SOL    HW232922   3.421   3.718   1.791
10675SOL     OW32923   1.780   6.727   6.498
10675SOL    HW132924   1.716   6.715   6.573
10675SOL    HW232925   1.747   6.798   6.436
10676SOL     OW32926   6.505   6.244   6.436
10676SOL    HW132927   6.429   6.237   6.501
10676SOL    HW232928   6.521   6.155   6.394
10677SOL     OW32929   0.897   0.834   2.566
10677SOL    HW132930   0.889   0.859   2.662
10677SOL    HW232931   0.983   0.871   2.529
10678SOL     OW32932   3.242   5.704   4.005
10678SOL    HW132933   3.331   5.676   3.969
10678SOL    HW232934   3.174   5.635   3.982
10679SOL     OW32935   4.664   5.895   6.520
10679SOL    HW132936   4.666   5.981   6.469
10679SOL    HW232937   4.658   5.914   6.618
10680SOL     OW32938   2.631   1.583   3.354
10680SOL    HW132939   2.638   1.628   3.443
10680SOL    HW232940   2.654   1.648   3.281
10681SOL     OW32941   1.023   3.493   6.955
10681SOL    HW132942   0.979   3.407   6.930
10681SOL    HW232943   1.088   3.477   0.007
10682SOL     OW32944   1.948   1.199   4.256
10682SOL    HW132945   1.936   1.268   4.185
10682SOL    HW232946   2.021   1.227   4.318
10683SOL     OW32947   3.289   2.017   4.120
10683SOL    HW132948   3.309   2.034   4.023
10683SOL    HW232949   3.193   2.040   4.138
10684SOL     OW32950   5.272   4.064   1.152
10684SOL    HW132951   5.262   4.073   1.251
10684SOL    HW232952   5.282   3.968   1.128
10685SOL     OW32953   0.482   6.160   2.727
10685SOL    HW132954   0.399   6.212   2.748
10685SOL    HW232955   0.493   6.152   2.628
10686SOL     OW32956   1.616   4.735   6.589
10686SOL    HW132957   1.657   4.662   6.535
10686SOL    HW232958   1.595   4.813   6.530
10687SOL     OW32959   6.880   5.674   2.038
10687SOL    HW132960   6.962   5.661   1.983
10687SOL    HW232961   6.800   5.641   1.987
10688SOL     OW32962   5.827   4.320   3.014
10688SOL    HW132963   5.746   4.323   3.072
10688SOL    HW232964   5.890   4.392   3.041
10689SOL     OW32965   0.630   6.746   3.827
10689SOL    HW132966   0.656   6.824   3.769
10689SOL    HW232967   0.531   6.735   3.825
10690SOL     OW32968   6.987   6.573   2.904
10690SOL    HW132969   0.037   6.525   2.954
10690SOL    HW232970   6.973   6.664   2.943
10691SOL     OW32971   0.631   1.781   2.246
10691SOL    HW132972   0.611   1.729   2.329
10691SOL    HW232973   0.680   1.865   2.271
10692SOL     OW32974   3.072   5.048   2.449
10692SOL    HW132975   3.032   4.986   2.517
10692SOL    HW232976   3.016   5.048   2.366
10693SOL     OW32977   2.851   0.245   0.544
10693SOL    HW132978   2.850   0.146   0.551
10693SOL    HW232979   2.777   0.283   0.600
10694SOL     OW32980   5.247   6.585   1.601
10694SOL    HW132981   5.225   6.573   1.698
10694SOL    HW232982   5.232   6.680   1.574
10695SOL     OW32983   5.504   2.228   3.055
10695SOL    HW132984   5.562   2.258   2.979
10695SOL    HW232985   5.413   2.266   3.044
10696SOL     OW32986   6.426   3.990   3.750
10696SOL    HW132987   6.524   4.006   3.757
10696SOL    HW232988   6.391   3.959   3.839
10697SOL     OW32989   0.518   5.564   4.651
10697SOL    HW132990   0.485   5.493   4.713
10697SOL    HW232991   0.616   5.551   4.634
10698SOL     OW32992   3.791   5.345   4.908
10698SOL    HW132993   3.863   5.330   4.841
10698SOL    HW232994   3.821   5.413   4.974
10699SOL     OW32995   4.036   2.758   1.740
10699SOL    HW132996   4.006   2.809   1.821
10699SOL    HW232997   3.960   2.748   1.677
10700SOL     OW32998   0.537   0.131   0.689
10700SOL    HW132999   0.631   0.098   0.693
10700SOL    HW233000   0.477   0.055   0.663
10701SOL     OW33001   3.069   5.688   0.053
10701SOL    HW133002   3.132   5.743   7.020
10701SOL    HW233003   3.087   5.591   0.039
10702SOL     OW33004   5.898   2.411   2.252
10702SOL    HW133005   5.925   2.368   2.166
10702SOL    HW233006   5.871   2.506   2.235
10703SOL     OW33007   3.117   3.043   4.113
10703SOL    HW133008   3.115   3.015   4.017
10703SOL    HW233009   3.179   2.984   4.164
10704SOL     OW33010   5.926   5.504   1.189
10704SOL    HW133011   5.827   5.495   1.191
10704SOL    HW233012   5.954   5.587   1.238
10705SOL     OW33013   6.308   4.270   2.326
10705SOL    HW133014   6.362   4.325   2.262
10705SOL    HW233015   6.262   4.330   2.391
10706SOL     OW33016   4.404   6.581   2.237
10706SOL    HW133017   4.430   6.664   2.288
10706SOL    HW233018   4.364   6.515   2.300
10707SOL     OW33019   0.393   7.011   3.893
10707SOL    HW133020   0.406   7.002   3.795
10707SOL    HW233021   0.460   0.054   3.930
10708SOL     OW33022   4.591   0.572   2.475
10708SOL    HW133023   4.590   0.592   2.377
10708SOL    HW233024   4.619   0.654   2.526
10709SOL     OW33025   6.194   0.188   4.989
10709SOL    HW133026   6.208   0.089   4.978
10709SOL    HW233027   6.273   0.228   5.035
10710SOL     OW33028   0.159   6.458   4.412
10710SOL    HW133029   0.255   6.483   4.400
10710SOL    HW233030   0.111   6.533   4.458
10711SOL     OW33031   1.666   6.509   3.354
10711SOL    HW133032   1.750   6.557   3.379
10711SOL    HW233033   1.646   6.525   3.257
10712SOL     OW33034   2.656   1.149   1.679
10712SOL    HW133035   2.617   1.169   1.769
10712SOL    HW233036   2.752   1.176   1.678
10713SOL     OW33037   0.597   3.567   2.072
10713SOL    HW133038   0.666   3.630   2.107
10713SOL    HW233039   0.639   3.506   2.004
10714SOL     OW33040   6.626   3.852   5.743
10714SOL    HW133041   6.719   3.889   5.740
10714SOL    HW233042   6.587   3.869   5.834
10715SOL     OW33043   4.806   6.976   2.998
10715SOL    HW133044   4.891   6.985   3.051
10715SOL    HW233045   4.760   6.891   3.022
10716SOL     OW33046   6.345   2.481   4.634
10716SOL    HW133047   6.426   2.523   4.593
10716SOL    HW233048   6.358   2.471   4.732
10717SOL     OW33049   1.367   2.795   0.699
10717SOL    HW133050   1.319   2.857   0.637
10717SOL    HW233051   1.300   2.737   0.746
10718SOL     OW33052   0.151   3.255   6.296
10718SOL    HW133053   0.060   3.266   6.335
10718SOL    HW233054   0.160   3.163   6.258
10719SOL     OW33055   4.638   5.999   0.112
10719SOL    HW133056   4.654   5.918   0.055
10719SOL    HW233057   4.653   5.976   0.208
10720SOL     OW33058   6.732   2.887   5.725
10720SOL    HW133059   6.788   2.805   5.734
10720SOL    HW233060   6.759   2.936   5.642
10721SOL     OW33061   6.350   3.591   5.273
10721SOL    HW133062   6.407   3.519   5.313
10721SOL    HW233063   6.385   3.680   5.301
10722SOL     OW33064   6.611   3.625   0.810
10722SOL    HW133065   6.640   3.540   0.767
10722SOL    HW233066   6.690   3.685   0.824
10723SOL     OW33067   6.814   3.695   0.093
10723SOL    HW133068   6.804   3.598   0.112
10723SOL    HW233069   6.825   3.745   0.180
10724SOL     OW33070   4.412   0.852   6.740
10724SOL    HW133071   4.422   0.923   6.809
10724SOL    HW233072   4.391   0.894   6.651
10725SOL     OW33073   6.879   5.152   3.830
10725SOL    HW133074   6.976   5.146   3.852
10725SOL    HW233075   6.864   5.119   3.736
10726SOL     OW33076   6.031   6.109   5.753
10726SOL    HW133077   6.024   6.137   5.657
10726SOL    HW233078   5.940   6.112   5.795
10727SOL     OW33079   1.085   5.088   3.592
10727SOL    HW133080   1.171   5.043   3.616
10727SOL    HW233081   1.031   5.103   3.675
10728SOL     OW33082   6.480   6.158   1.765
10728SOL    HW133083   6.411   6.176   1.835
10728SOL    HW233084   6.496   6.059   1.759
10729SOL     OW33085   6.222   0.883   2.978
10729SOL    HW133086   6.154   0.897   2.906
10729SOL    HW233087   6.182   0.829   3.052
10730SOL     OW33088   2.693   0.380   1.247
10730SOL    HW133089   2.710   0.407   1.152
10730SOL    HW233090   2.721   0.454   1.309
10731SOL     OW33091   2.209   5.693   6.202
10731SOL    HW133092   2.298   5.735   6.182
10731SOL    HW233093   2.205   5.669   6.299
10732SOL     OW33094   5.501   6.248   2.662
10732SOL    HW133095   5.402   6.238   2.671
10732SOL    HW233096   5.524   6.344   2.653
10733SOL     OW33097   5.728   2.089   6.780
10733SOL    HW133098   5.705   2.173   6.731
10733SOL    HW233099   5.702   2.098   6.877
10734SOL     OW33100   1.292   0.313   6.781
10734SOL    HW133101   1.200   0.330   6.745
10734SOL    HW233102   1.317   0.385   6.845
10735SOL     OW33103   1.951   5.116   2.524
10735SOL    HW133104   2.045   5.137   2.552
10735SOL    HW233105   1.951   5.031   2.471
10736SOL     OW33106   0.652   1.057   3.737
10736SOL    HW133107   0.724   1.125   3.752
10736SOL    HW233108   0.636   1.046   3.639
10737SOL     OW33109   1.348   1.764   0.450
10737SOL    HW133110   1.436   1.767   0.498
10737SOL    HW233111   1.361   1.800   0.357
10738SOL     OW33112   2.594   0.564   2.074
10738SOL    HW133113   2.649   0.498   2.125
10738SOL    HW233114   2.551   0.519   1.996
10739SOL     OW33115   0.504   1.061   1.999
10739SOL    HW133116   0.516   0.973   2.046
10739SOL    HW233117   0.466   1.128   2.064
10740SOL     OW33118   1.433   4.265   6.318
10740SOL    HW133119   1.498   4.290   6.390
10740SOL    HW233120   1.414   4.167   6.323
10741SOL     OW33121   0.549   1.018   3.482
10741SOL    HW133122   0.489   1.060   3.415
10741SOL    HW233123   0.644   1.034   3.457
10742SOL     OW33124   6.224   0.376   1.714
10742SOL    HW133125   6.229   0.278   1.696
10742SOL    HW233126   6.248   0.426   1.631
10743SOL     OW33127   2.472   2.402   3.587
10743SOL    HW133128   2.391   2.459   3.599
10743SOL    HW233129   2.528   2.437   3.512
10744SOL     OW33130   3.464   1.758   2.700
10744SOL    HW133131   3.479   1.827   2.629
10744SOL    HW233132   3.465   1.802   2.790
10745SOL     OW33133   0.493   4.716   0.466
10745SOL    HW133134   0.531   4.730   0.557
10745SOL    HW233135   0.469   4.619   0.454
10746SOL     OW33136   1.739   3.988   1.735
10746SOL    HW133137   1.663   3.939   1.777
10746SOL    HW233138   1.708   4.031   1.650
10747SOL     OW33139   4.761   1.641   3.288
10747SOL    HW133140   4.830   1.642   3.360
10747SOL    HW233141   4.722   1.732   3.277
10748SOL     OW33142   5.207   0.099   1.255
10748SOL    HW133143   5.303   0.090   1.231
10748SOL    HW233144   5.170   0.182   1.212
10749SOL     OW33145   0.277   4.551   2.575
10749SOL    HW133146   0.267   4.485   2.500
10749SOL    HW233147   0.369   4.544   2.613
10750SOL     OW33148   4.006   5.906   4.054
10750SOL    HW133149   3.931   5.966   4.083
10750SOL    HW233150   4.000   5.819   4.102
10751SOL     OW33151   1.064   3.794   5.373
10751SOL    HW133152   0.967   3.814   5.361
10751SOL    HW233153   1.100   3.748   5.292
10752SOL     OW33154   6.520   3.845   6.066
10752SOL    HW133155   6.585   3.769   6.075
10752SOL    HW233156   6.431   3.818   6.103
10753SOL     OW33157   5.447   0.645   3.620
10753SOL    HW133158   5.382   0.586   3.571
10753SOL    HW233159   5.538   0.634   3.580
10754SOL     OW33160   2.145   1.887   3.315
10754SOL    HW133161   2.239   1.879   3.349
10754SOL    HW233162   2.135   1.832   3.232
10755SOL     OW33163   0.433   1.965   0.847
10755SOL    HW133164   0.515   1.976   0.792
10755SOL    HW233165   0.459   1.937   0.940
10756SOL     OW33166   6.130   4.284   6.950
10756SOL    HW133167   6.099   4.348   6.880
10756SOL    HW233168   6.133   4.192   6.912
10757SOL     OW33169   0.121   3.316   0.730
10757SOL    HW133170   0.032   3.303   0.775
10757SOL    HW233171   0.183   3.362   0.793
10758SOL     OW33172   1.788   6.053   4.904
10758SOL    HW133173   1.718   5.984   4.884
10758SOL    HW233174   1.861   6.011   4.958
10759SOL     OW33175   1.961   2.967   0.082
10759SOL    HW133176   1.873   2.929   0.051
10759SOL    HW233177   1.967   2.959   0.182
10760SOL     OW33178   7.001   0.478   0.618
10760SOL    HW133179   0.043   0.402   0.605
10760SOL    HW233180   0.016   0.561   0.577
10761SOL     OW33181   0.978   2.164   5.990
10761SOL    HW133182   0.947   2.144   6.083
10761SOL    HW233183   1.071   2.201   5.993
10762SOL     OW33184   4.375   1.599   4.836
10762SOL    HW133185   4.433   1.536   4.784
10762SOL    HW233186   4.327   1.548   4.907
10763SOL     OW33187   4.571   6.211   0.584
10763SOL    HW133188   4.515   6.237   0.662
10763SOL    HW233189   4.614   6.122   0.601
10764SOL     OW33190   5.645   1.545   5.584
10764SOL    HW133191   5.618   1.578   5.493
10764SOL    HW233192   5.744   1.542   5.590
10765SOL     OW33193   5.909   2.538   1.274
10765SOL    HW133194   5.937   2.626   1.312
10765SOL    HW233195   5.825   2.508   1.318
10766SOL     OW33196   3.221   3.401   0.163
10766SOL    HW133197   3.288   3.351   0.107
10766SOL    HW233198   3.234   3.376   0.259
10767SOL     OW33199   1.544   0.245   0.131
10767SOL    HW133200   1.505   0.165   0.086
10767SOL    HW233201   1.537   0.236   0.230
10768SOL     OW33202   5.276   5.446   0.866
10768SOL    HW133203   5.254   5.394   0.783
10768SOL    HW233204   5.193   5.461   0.919
10769SOL     OW33205   1.956   4.761   4.333
10769SOL    HW133206   2.037   4.807   4.369
10769SOL    HW233207   1.962   4.663   4.354
10770SOL     OW33208   5.362   6.950   4.599
10770SOL    HW133209   5.295   6.876   4.606
10770SOL    HW233210   5.415   6.956   4.683
10771SOL     OW33211   4.440   6.891   4.956
10771SOL    HW133212   4.474   6.965   4.898
10771SOL    HW233213   4.477   6.901   5.048
10772SOL     OW33214   6.279   6.645   4.072
10772SOL    HW133215   6.282   6.745   4.074
10772SOL    HW233216   6.241   6.611   4.158
10773SOL     OW33217   6.502   5.230   6.579
10773SOL    HW133218   6.557   5.146   6.569
10773SOL    HW233219   6.488   5.272   6.489
10774SOL     OW33220   1.599   1.943   6.972
10774SOL    HW133221   1.694   1.955   6.943
10774SOL    HW233222   1.538   1.980   6.902
10775SOL     OW33223   0.498   3.813   1.141
10775SOL    HW133224   0.523   3.772   1.229
10775SOL    HW233225   0.580   3.847   1.095
10776SOL     OW33226   1.352   6.311   0.695
10776SOL    HW133227   1.271   6.290   0.750
10776SOL    HW233228   1.411   6.231   0.690
10777SOL     OW33229   3.928   6.755   4.207
10777SOL    HW133230   4.021   6.790   4.211
10777SOL    HW233231   3.865   6.831   4.189
10778SOL     OW33232   5.535   6.192   5.153
10778SOL    HW133233   5.530   6.240   5.241
10778SOL    HW233234   5.533   6.094   5.168
10779SOL     OW33235   6.146   4.936   3.450
10779SOL    HW133236   6.196   5.018   3.421
10779SOL    HW233237   6.210   4.866   3.480
10780SOL     OW33238   1.108   6.891   2.899
10780SOL    HW133239   1.156   6.957   2.957
10780SOL    HW233240   1.019   6.928   2.873
10781SOL     OW33241   3.965   1.436   3.527
10781SOL    HW133242   3.905   1.414   3.451
10781SOL    HW233243   4.053   1.390   3.514
10782SOL     OW33244   6.807   2.112   3.828
10782SOL    HW133245   6.763   2.027   3.798
10782SOL    HW233246   6.795   2.123   3.926
10783SOL     OW33247   1.107   3.145   3.640
10783SOL    HW133248   1.013   3.116   3.622
10783SOL    HW233249   1.111   3.189   3.730
10784SOL     OW33250   2.731   0.474   2.411
10784SOL    HW133251   2.792   0.458   2.333
10784SOL    HW233252   2.772   0.438   2.494
10785SOL     OW33253   0.798   4.854   0.896
10785SOL    HW133254   0.830   4.947   0.917
10785SOL    HW233255   0.867   4.788   0.926
10786SOL     OW33256   4.947   3.336   1.658
10786SOL    HW133257   4.974   3.341   1.754
10786SOL    HW233258   4.870   3.272   1.648
10787SOL     OW33259   3.034   2.167   4.529
10787SOL    HW133260   3.073   2.086   4.573
10787SOL    HW233261   3.000   2.230   4.599
10788SOL     OW33262   1.795   4.488   0.506
10788SOL    HW133263   1.726   4.504   0.436
10788SOL    HW233264   1.802   4.389   0.524
10789SOL     OW33265   5.859   1.902   0.532
10789SOL    HW133266   5.917   1.949   0.465
10789SOL    HW233267   5.903   1.903   0.621
10790SOL     OW33268   1.130   0.675   3.805
10790SOL    HW133269   1.056   0.642   3.864
10790SOL    HW233270   1.170   0.598   3.755
10791SOL     OW33271   0.611   1.115   1.249
10791SOL    HW133272   0.699   1.105   1.204
10791SOL    HW233273   0.552   1.038   1.226
10792SOL     OW33274   3.802   3.315   1.650
10792SOL    HW133275   3.899   3.298   1.630
10792SOL    HW233276   3.749   3.312   1.566
10793SOL     OW33277   5.263   2.792   4.302
10793SOL    HW133278   5.173   2.831   4.283
10793SOL    HW233279   5.252   2.702   4.346
10794SOL     OW33280   3.077   4.070   2.908
10794SOL    HW133281   3.017   4.150   2.901
10794SOL    HW233282   3.168   4.100   2.937
10795SOL     OW33283   6.557   3.759   3.932
10795SOL    HW133284   6.464   3.790   3.946
10795SOL    HW233285   6.564   3.662   3.955
10796SOL     OW33286   5.290   6.399   6.905
10796SOL    HW133287   5.207   6.443   6.939
10796SOL    HW233288   5.351   6.468   6.865
10797SOL     OW33289   4.469   2.215   0.947
10797SOL    HW133290   4.491   2.308   0.919
10797SOL    HW233291   4.548   2.175   0.994
10798SOL     OW33292   2.336   6.783   0.607
10798SOL    HW133293   2.279   6.701   0.606
10798SOL    HW233294   2.305   6.846   0.535
10799SOL     OW33295   3.482   1.276   2.090
10799SOL    HW133296   3.476   1.178   2.105
10799SOL    HW233297   3.456   1.324   2.174
10800SOL     OW33298   1.165   0.279   0.093
10800SOL    HW133299   1.105   0.349   0.055
10800SOL    HW233300   1.260   0.302   0.071
10801SOL     OW33301   0.885   0.015   5.097
10801SOL    HW133302   0.955   0.071   5.052
10801SOL    HW233303   0.794   0.052   5.077
10802SOL     OW33304   2.181   3.270   4.629
10802SOL    HW133305   2.088   3.307   4.628
10802SOL    HW233306   2.247   3.343   4.644
10803SOL     OW33307   4.483   4.307   5.290
10803SOL    HW133308   4.569   4.329   5.244
10803SOL    HW233309   4.406   4.337   5.234
10804SOL     OW33310   6.975   3.954   1.529
10804SOL    HW133311   6.909   4.020   1.492
10804SOL    HW233312   6.928   3.866   1.545
10805SOL     OW33313   3.021   6.630   6.415
10805SOL    HW133314   3.105   6.682   6.407
10805SOL    HW233315   3.010   6.597   6.509
10806SOL     OW33316   4.983   4.454   6.407
10806SOL    HW133317   4.939   4.365   6.415
10806SOL    HW233318   5.043   4.469   6.486
10807SOL     OW33319   2.542   6.926   3.295
10807SOL    HW133320   2.543   6.934   3.195
10807SOL    HW233321   2.542   7.017   3.336
10808SOL     OW33322   6.654   3.972   6.763
10808SOL    HW133323   6.621   3.898   6.821
10808SOL    HW233324   6.616   4.059   6.795
10809SOL     OW33325   2.264   6.279   3.678
10809SOL    HW133326   2.249   6.212   3.605
10809SOL    HW233327   2.264   6.371   3.640
10810SOL     OW33328   1.427   0.115   4.764
10810SOL    HW133329   1.483   0.034   4.750
10810SOL    HW233330   1.353   0.094   4.827
10811SOL     OW33331   4.683   4.898   5.494
10811SOL    HW133332   4.783   4.906   5.495
10811SOL    HW233333   4.642   4.985   5.469
10812SOL     OW33334   0.748   3.362   2.574
10812SOL    HW133335   0.706   3.373   2.664
10812SOL    HW233336   0.709   3.429   2.510
10813SOL     OW33337   1.544   6.110   6.997
10813SOL    HW133338   1.633   6.120   0.019
10813SOL    HW233339   1.472   6.142   0.037
10814SOL     OW33340   1.664   6.739   6.753
10814SOL    HW133341   1.668   6.839   6.747
10814SOL    HW233342   1.709   6.709   6.838
10815SOL     OW33343   5.025   4.780   2.856
10815SOL    HW133344   5.033   4.832   2.941
10815SOL    HW233345   4.941   4.727   2.857
10816SOL     OW33346   1.396   1.829   2.027
10816SOL    HW133347   1.333   1.774   2.082
10816SOL    HW233348   1.361   1.922   2.020
10817SOL     OW33349   5.295   0.110   2.427
10817SOL    HW133350   5.245   0.148   2.349
10817SOL    HW233351   5.390   0.140   2.423
10818SOL     OW33352   4.496   4.180   5.519
10818SOL    HW133353   4.484   4.198   5.421
10818SOL    HW233354   4.592   4.161   5.538
10819SOL     OW33355   6.759   4.451   7.011
10819SOL    HW133356   6.752   4.473   0.087
10819SOL    HW233357   6.756   4.535   6.957
10820SOL     OW33358   5.801   5.715   4.350
10820SOL    HW133359   5.782   5.797   4.296
10820SOL    HW233360   5.717   5.662   4.361
10821SOL     OW33361   5.584   6.558   1.875
10821SOL    HW133362   5.524   6.517   1.944
10821SOL    HW233363   5.593   6.656   1.893
10822SOL     OW33364   0.933   2.680   2.934
10822SOL    HW133365   0.843   2.673   2.977
10822SOL    HW233366   0.970   2.772   2.947
10823SOL     OW33367   1.536   5.092   2.097
10823SOL    HW133368   1.635   5.077   2.099
10823SOL    HW233369   1.513   5.169   2.156
10824SOL     OW33370   5.028   0.121   3.893
10824SOL    HW133371   4.945   0.078   3.858
10824SOL    HW233372   5.108   0.070   3.860
10825SOL     OW33373   2.917   0.532   6.508
10825SOL    HW133374   2.843   0.490   6.560
10825SOL    HW233375   2.995   0.469   6.503
10826SOL     OW33376   0.480   3.511   3.868
10826SOL    HW133377   0.499   3.592   3.812
10826SOL    HW233378   0.521   3.524   3.959
10827SOL     OW33379   5.841   3.794   4.564
10827SOL    HW133380   5.935   3.771   4.539
10827SOL    HW233381   5.835   3.808   4.663
10828SOL     OW33382   1.019   5.496   2.097
10828SOL    HW133383   1.002   5.398   2.103
10828SOL    HW233384   1.061   5.528   2.182
10829SOL     OW33385   3.604   2.314   0.472
10829SOL    HW133386   3.662   2.389   0.504
10829SOL    HW233387   3.649   2.226   0.492
10830SOL     OW33388   5.329   2.055   3.849
10830SOL    HW133389   5.298   2.150   3.840
10830SOL    HW233390   5.421   2.047   3.811
10831SOL     OW33391   4.007   5.988   1.967
10831SOL    HW133392   4.006   6.085   1.943
10831SOL    HW233393   4.090   5.967   2.018
10832SOL     OW33394   0.235   2.126   0.786
10832SOL    HW133395   0.226   2.197   0.856
10832SOL    HW233396   0.317   2.071   0.804
10833SOL     OW33397   1.400   1.090   3.438
10833SOL    HW133398   1.321   1.063   3.383
10833SOL    HW233399   1.370   1.112   3.530
10834SOL     OW33400   1.553   2.286   6.284
10834SOL    HW133401   1.559   2.339   6.199
10834SOL    HW233402   1.634   2.305   6.340
10835SOL     OW33403   6.231   1.759   1.033
10835SOL    HW133404   6.328   1.735   1.027
10835SOL    HW233405   6.177   1.678   1.052
10836SOL     OW33406   6.545   1.130   4.855
10836SOL    HW133407   6.597   1.158   4.774
10836SOL    HW233408   6.462   1.184   4.863
10837SOL     OW33409   0.277   5.069   0.385
10837SOL    HW133410   0.230   5.030   0.306
10837SOL    HW233411   0.267   5.169   0.384
10838SOL     OW33412   6.022   6.156   4.909
10838SOL    HW133413   5.941   6.125   4.959
10838SOL    HW233414   6.006   6.149   4.811
10839SOL     OW33415   3.458   3.283   0.385
10839SOL    HW133416   3.424   3.221   0.315
10839SOL    HW233417   3.554   3.304   0.367
10840SOL     OW33418   3.954   5.483   1.291
10840SOL    HW133419   4.022   5.504   1.361
10840SOL    HW233420   3.924   5.567   1.246
10841SOL     OW33421   3.736   6.579   0.327
10841SOL    HW133422   3.643   6.600   0.296
10841SOL    HW233423   3.743   6.482   0.348
10842SOL     OW33424   5.359   3.373   1.101
10842SOL    HW133425   5.260   3.374   1.084
10842SOL    HW233426   5.408   3.379   1.014
10843SOL     OW33427   0.935   2.268   1.903
10843SOL    HW133428   1.014   2.208   1.911
10843SOL    HW233429   0.854   2.215   1.880
10844SOL     OW33430   0.239   0.079   4.107
10844SOL    HW133431   0.272   0.045   4.195
10844SOL    HW233432   0.282   0.027   4.033
10845SOL     OW33433   3.155   0.740   0.052
10845SOL    HW133434   3.138   0.833   0.018
10845SOL    HW233435   3.069   0.700   0.084
10846SOL     OW33436   4.786   3.259   0.595
10846SOL    HW133437   4.692   3.227   0.599
10846SOL    HW233438   4.787   3.359   0.599
10847SOL     OW33439   3.556   2.838   6.390
10847SOL    HW133440   3.645   2.859   6.349
10847SOL    HW233441   3.514   2.762   6.340
10848SOL     OW33442   3.283   2.007   6.578
10848SOL    HW133443   3.267   1.951   6.497
10848SOL    HW233444   3.220   2.084   6.579
10849SOL     OW33445   2.468   4.583   2.988
10849SOL    HW133446   2.514   4.590   3.077
10849SOL    HW233447   2.442   4.488   2.971
10850SOL     OW33448   4.196   6.196   0.038
10850SOL    HW133449   4.146   6.275   0.073
10850SOL    HW233450   4.262   6.165   0.107
10851SOL     OW33451   3.183   2.802   6.597
10851SOL    HW133452   3.235   2.859   6.535
10851SOL    HW233453   3.150   2.856   6.674
10852SOL     OW33454   0.134   6.270   6.551
10852SOL    HW133455   0.141   6.285   6.453
10852SOL    HW233456   0.048   6.223   6.572
10853SOL     OW33457   3.558   1.593   5.814
10853SOL    HW133458   3.584   1.504   5.850
10853SOL    HW233459   3.461   1.592   5.789
10854SOL     OW33460   6.105   6.209   5.519
10854SOL    HW133461   6.015   6.246   5.497
10854SOL    HW233462   6.136   6.150   5.443
10855SOL     OW33463   3.010   6.295   1.996
10855SOL    HW133464   2.914   6.303   1.968
10855SOL    HW233465   3.069   6.337   1.927
10856SOL     OW33466   6.093   1.513   2.391
10856SOL    HW133467   6.085   1.415   2.370
10856SOL    HW233468   6.162   1.526   2.462
10857SOL     OW33469   5.560   3.481   3.755
10857SOL    HW133470   5.617   3.436   3.824
10857SOL    HW233471   5.570   3.434   3.667
10858SOL     OW33472   1.000   2.443   6.573
10858SOL    HW133473   1.008   2.406   6.666
10858SOL    HW233474   0.938   2.521   6.574
10859SOL     OW33475   2.131   3.893   4.057
10859SOL    HW133476   2.180   3.819   4.010
10859SOL    HW233477   2.153   3.890   4.155
10860SOL     OW33478   6.644   1.380   6.200
10860SOL    HW133479   6.627   1.291   6.242
10860SOL    HW233480   6.604   1.382   6.108
10861SOL     OW33481   3.954   3.024   2.570
10861SOL    HW133482   3.916   2.936   2.597
10861SOL    HW233483   3.983   3.074   2.651
10862SOL     OW33484   3.030   1.552   6.398
10862SOL    HW133485   3.113   1.502   6.423
10862SOL    HW233486   3.013   1.623   6.467
10863SOL     OW33487   4.257   0.375   2.292
10863SOL    HW133488   4.215   0.396   2.204
10863SOL    HW233489   4.343   0.326   2.278
10864SOL     OW33490   2.442   5.047   0.710
10864SOL    HW133491   2.480   5.139   0.698
10864SOL    HW233492   2.482   5.005   0.791
10865SOL     OW33493   5.502   1.642   3.744
10865SOL    HW133494   5.447   1.722   3.768
10865SOL    HW233495   5.536   1.652   3.650
10866SOL     OW33496   4.932   5.244   0.754
10866SOL    HW133497   4.988   5.311   0.803
10866SOL    HW233498   4.984   5.159   0.744
10867SOL     OW33499   3.268   4.433   0.191
10867SOL    HW133500   3.168   4.423   0.184
10867SOL    HW233501   3.291   4.474   0.279
10868SOL     OW33502   1.641   2.064   3.765
10868SOL    HW133503   1.601   1.993   3.824
10868SOL    HW233504   1.736   2.040   3.744
10869NA      NA33505   0.238   2.363   6.146
10870NA      NA33506   4.482   4.572   5.191
10871NA      NA33507   2.335   4.444   2.216
10872NA      NA33508   4.883   3.939   3.822
10873NA      NA33509   4.273   2.440   5.316
10874NA      NA33510   3.235   4.517   1.586
10875NA      NA33511   0.785   4.566   0.072
10876NA      NA33512   3.703   3.779   2.315
10877NA      NA33513   4.843   5.014   1.266
10878NA      NA33514   3.551   0.269   5.586
10879NA      NA33515   6.241   5.547   0.811
10880NA      NA33516   2.175   0.526   5.097
10881NA      NA33517   4.156   4.800   1.704
10882NA      NA33518   4.075   2.637   1.108
   7.02187   7.02187   7.02187
