Generated by trjconv : CNT in water t= 307.00000
33518
    1C        C    1   2.845   2.773   4.752
    1C        C    2   2.902   2.724   4.871
    1C        C    3   2.839   2.774   4.986
    1C        C    4   2.847   2.770   4.261
    1C        C    5   2.897   2.727   4.386
    1C        C    6   2.844   2.773   4.508
    1C        C    7   3.015   2.647   4.627
    1C        C    8   2.895   2.722   4.630
    1C        C    9   3.079   2.608   4.747
    1C        C   10   3.010   2.633   4.867
    1C        C   11   3.180   2.491   4.977
    1C        C   12   3.063   2.568   4.980
    1C        C   13   2.851   2.774   3.776
    1C        C   14   2.903   2.721   3.896
    1C        C   15   2.847   2.771   4.016
    1C        C   16   3.020   2.648   4.141
    1C        C   17   2.902   2.727   4.139
    1C        C   18   3.083   2.619   4.264
    1C        C   19   3.015   2.649   4.385
    1C        C   20   3.208   2.557   4.507
    1C        C   21   3.079   2.613   4.506
    1C        C   22   3.283   2.542   4.626
    1C        C   23   3.212   2.557   4.748
    1C        C   24   3.413   2.490   4.868
    1C        C   25   3.271   2.509   4.868
    1C        C   26   3.491   2.481   4.983
    1C        C   27   2.854   2.775   3.287
    1C        C   28   2.907   2.726   3.408
    1C        C   29   2.854   2.774   3.531
    1C        C   30   3.019   2.644   3.651
    1C        C   31   2.903   2.725   3.654
    1C        C   32   3.079   2.605   3.773
    1C        C   33   3.019   2.640   3.896
    1C        C   34   3.212   2.558   4.021
    1C        C   35   3.080   2.609   4.020
    1C        C   36   3.280   2.535   4.143
    1C        C   37   3.212   2.561   4.264
    1C        C   38   3.417   2.510   4.382
    1C        C   39   3.279   2.539   4.386
    1C        C   40   3.489   2.504   4.503
    1C        C   41   3.421   2.514   4.627
    1C        C   42   3.632   2.482   4.746
    1C        C   43   3.490   2.490   4.748
    1C        C   44   3.705   2.494   4.865
    1C        C   45   3.630   2.490   4.984
    1C        C   46   2.838   2.756   2.796
    1C        C   47   2.899   2.719   2.918
    1C        C   48   2.849   2.769   3.040
    1C        C   49   3.019   2.646   3.162
    1C        C   50   2.901   2.725   3.164
    1C        C   51   3.081   2.607   3.283
    1C        C   52   3.023   2.645   3.406
    1C        C   53   3.211   2.553   3.529
    1C        C   54   3.082   2.610   3.529
    1C        C   55   3.280   2.535   3.651
    1C        C   56   3.210   2.554   3.772
    1C        C   57   3.414   2.507   3.896
    1C        C   58   3.276   2.539   3.897
    1C        C   59   3.486   2.498   4.017
    1C        C   60   3.418   2.504   4.140
    1C        C   61   3.631   2.500   4.259
    1C        C   62   3.490   2.499   4.261
    1C        C   63   3.701   2.515   4.381
    1C        C   64   3.630   2.506   4.503
    1C        C   65   3.835   2.549   4.623
    1C        C   66   3.702   2.503   4.625
    1C        C   67   3.907   2.565   4.744
    1C        C   68   3.842   2.530   4.864
    1C        C   69   4.052   2.579   4.977
    1C        C   70   3.921   2.530   4.979
    1C        C   71   2.827   2.742   2.309
    1C        C   72   2.888   2.702   2.430
    1C        C   73   2.837   2.751   2.552
    1C        C   74   3.009   2.629   2.675
    1C        C   75   2.892   2.709   2.675
    1C        C   76   3.074   2.598   2.797
    1C        C   77   3.013   2.635   2.918
    1C        C   78   3.209   2.552   3.042
    1C        C   79   3.078   2.606   3.040
    1C        C   80   3.278   2.531   3.164
    1C        C   81   3.213   2.556   3.286
    1C        C   82   3.418   2.502   3.404
    1C        C   83   3.280   2.530   3.408
    1C        C   84   3.487   2.492   3.527
    1C        C   85   3.419   2.508   3.650
    1C        C   86   3.628   2.501   3.774
    1C        C   87   3.486   2.501   3.775
    1C        C   88   3.698   2.516   3.895
    1C        C   89   3.627   2.504   4.017
    1C        C   90   3.835   2.554   4.136
    1C        C   91   3.701   2.509   4.137
    1C        C   92   3.903   2.577   4.258
    1C        C   93   3.838   2.550   4.380
    1C        C   94   4.031   2.637   4.500
    1C        C   95   3.904   2.575   4.503
    1C        C   96   4.091   2.674   4.623
    1C        C   97   4.034   2.629   4.744
    1C        C   98   4.190   2.765   4.864
    1C        C   99   4.106   2.650   4.865
    1C        C  100   4.222   2.841   4.978
    1C        C  101   2.821   2.734   2.071
    1C        C  102   2.991   2.598   2.189
    1C        C  103   2.876   2.684   2.190
    1C        C  104   3.066   2.585   2.309
    1C        C  105   3.008   2.627   2.431
    1C        C  106   3.201   2.539   2.553
    1C        C  107   3.071   2.594   2.553
    1C        C  108   3.274   2.531   2.673
    1C        C  109   3.208   2.552   2.796
    1C        C  110   3.413   2.503   2.916
    1C        C  111   3.274   2.530   2.919
    1C        C  112   3.486   2.496   3.036
    1C        C  113   3.416   2.503   3.159
    1C        C  114   3.629   2.493   3.282
    1C        C  115   3.488   2.497   3.281
    1C        C  116   3.697   2.505   3.405
    1C        C  117   3.628   2.499   3.528
    1C        C  118   3.834   2.542   3.648
    1C        C  119   3.698   2.505   3.651
    1C        C  120   3.902   2.568   3.769
    1C        C  121   3.835   2.550   3.892
    1C        C  122   4.030   2.638   4.014
    1C        C  123   3.904   2.573   4.014
    1C        C  124   4.089   2.675   4.136
    1C        C  125   4.031   2.637   4.259
    1C        C  126   4.201   2.767   4.379
    1C        C  127   4.095   2.674   4.380
    1C        C  128   4.245   2.822   4.502
    1C        C  129   4.198   2.766   4.623
    1C        C  130   4.328   2.935   4.742
    1C        C  131   4.248   2.817   4.745
    1C        C  132   4.354   3.006   4.860
    1C        C  133   4.295   2.960   4.979
    1C        C  134   3.176   2.475   2.081
    1C        C  135   3.042   2.518   2.082
    1C        C  136   3.260   2.482   2.193
    1C        C  137   3.195   2.524   2.311
    1C        C  138   3.406   2.486   2.430
    1C        C  139   3.267   2.510   2.431
    1C        C  140   3.482   2.487   2.550
    1C        C  141   3.412   2.498   2.672
    1C        C  142   3.625   2.498   2.791
    1C        C  143   3.483   2.495   2.794
    1C        C  144   3.695   2.507   2.913
    1C        C  145   3.627   2.497   3.036
    1C        C  146   3.833   2.542   3.156
    1C        C  147   3.697   2.502   3.159
    1C        C  148   3.898   2.564   3.280
    1C        C  149   3.835   2.536   3.403
    1C        C  150   4.026   2.627   3.525
    1C        C  151   3.902   2.559   3.525
    1C        C  152   4.086   2.670   3.645
    1C        C  153   4.028   2.632   3.769
    1C        C  154   4.195   2.765   3.887
    1C        C  155   4.086   2.676   3.890
    1C        C  156   4.242   2.816   4.010
    1C        C  157   4.197   2.767   4.135
    1C        C  158   4.345   2.921   4.254
    1C        C  159   4.251   2.816   4.256
    1C        C  160   4.384   2.980   4.376
    1C        C  161   4.334   2.931   4.499
    1C        C  162   4.442   3.115   4.617
    1C        C  163   4.373   2.991   4.620
    1C        C  164   4.472   3.184   4.737
    1C        C  165   4.438   3.120   4.858
    1C        C  166   4.522   3.319   4.974
    1C        C  167   4.482   3.186   4.974
    1C        C  168   3.477   2.443   2.076
    1C        C  169   3.399   2.459   2.191
    1C        C  170   3.619   2.469   2.307
    1C        C  171   3.476   2.469   2.309
    1C        C  172   3.693   2.487   2.426
    1C        C  173   3.623   2.492   2.549
    1C        C  174   3.833   2.539   2.666
    1C        C  175   3.696   2.504   2.669
    1C        C  176   3.898   2.562   2.788
    1C        C  177   3.833   2.537   2.911
    1C        C  178   4.026   2.625   3.035
    1C        C  179   3.901   2.560   3.034
    1C        C  180   4.089   2.659   3.157
    1C        C  181   4.027   2.622   3.279
    1C        C  182   4.195   2.750   3.401
    1C        C  183   4.083   2.664   3.401
    1C        C  184   4.247   2.804   3.521
    1C        C  185   4.196   2.759   3.644
    1C        C  186   4.341   2.917   3.767
    1C        C  187   4.250   2.809   3.765
    1C        C  188   4.378   2.977   3.889
    1C        C  189   4.333   2.924   4.012
    1C        C  190   4.447   3.108   4.129
    1C        C  191   4.378   2.984   4.132
    1C        C  192   4.471   3.175   4.252
    1C        C  193   4.439   3.110   4.373
    1C        C  194   4.509   3.314   4.494
    1C        C  195   4.463   3.180   4.494
    1C        C  196   4.525   3.387   4.613
    1C        C  197   4.517   3.318   4.737
    1C        C  198   4.553   3.535   4.852
    1C        C  199   4.538   3.393   4.856
    1C        C  200   4.581   3.616   4.967
    1C        C  201   3.615   2.419   2.080
    1C        C  202   3.834   2.505   2.182
    1C        C  203   3.696   2.466   2.188
    1C        C  204   3.901   2.538   2.303
    1C        C  205   3.831   2.515   2.424
    1C        C  206   4.026   2.614   2.544
    1C        C  207   3.900   2.550   2.542
    1C        C  208   4.085   2.655   2.666
    1C        C  209   4.025   2.625   2.791
    1C        C  210   4.200   2.745   2.910
    1C        C  211   4.085   2.664   2.913
    1C        C  212   4.251   2.794   3.032
    1C        C  213   4.196   2.751   3.155
    1C        C  214   4.338   2.907   3.275
    1C        C  215   4.245   2.800   3.278
    1C        C  216   4.372   2.970   3.397
    1C        C  217   4.335   2.915   3.521
    1C        C  218   4.437   3.102   3.639
    1C        C  219   4.378   2.974   3.642
    1C        C  220   4.462   3.168   3.761
    1C        C  221   4.440   3.104   3.885
    1C        C  222   4.509   3.308   4.005
    1C        C  223   4.471   3.171   4.005
    1C        C  224   4.516   3.381   4.126
    1C        C  225   4.502   3.312   4.249
    1C        C  226   4.511   3.525   4.368
    1C        C  227   4.514   3.383   4.371
    1C        C  228   4.515   3.597   4.489
    1C        C  229   4.533   3.528   4.611
    1C        C  230   4.501   3.744   4.728
    1C        C  231   4.532   3.605   4.730
    1C        C  232   4.493   3.819   4.847
    1C        C  233   4.539   3.749   4.960
    1C        C  234   4.018   2.611   2.064
    1C        C  235   3.897   2.542   2.063
    1C        C  236   4.089   2.645   2.179
    1C        C  237   4.027   2.604   2.299
    1C        C  238   4.195   2.738   2.421
    1C        C  239   4.084   2.650   2.420
    1C        C  240   4.251   2.786   2.541
    1C        C  241   4.196   2.742   2.664
    1C        C  242   4.335   2.902   2.786
    1C        C  243   4.250   2.789   2.785
    1C        C  244   4.371   2.964   2.908
    1C        C  245   4.337   2.906   3.032
    1C        C  246   4.436   3.095   3.151
    1C        C  247   4.379   2.966   3.153
    1C        C  248   4.460   3.162   3.273
    1C        C  249   4.432   3.098   3.396
    1C        C  250   4.493   3.304   3.516
    1C        C  251   4.457   3.168   3.516
    1C        C  252   4.501   3.373   3.639
    1C        C  253   4.497   3.305   3.763
    1C        C  254   4.519   3.519   3.878
    1C        C  255   4.515   3.378   3.883
    1C        C  256   4.520   3.590   4.000
    1C        C  257   4.520   3.522   4.124
    1C        C  258   4.492   3.734   4.244
    1C        C  259   4.514   3.595   4.245
    1C        C  260   4.475   3.806   4.364
    1C        C  261   4.494   3.736   4.486
    1C        C  262   4.430   3.943   4.607
    1C        C  263   4.477   3.810   4.605
    1C        C  264   4.400   4.011   4.727
    1C        C  265   4.432   3.946   4.848
    1C        C  266   4.322   4.135   4.960
    1C        C  267   4.394   4.016   4.964
    1C        C  268   4.264   2.775   2.064
    1C        C  269   4.200   2.732   2.181
    1C        C  270   4.346   2.893   2.301
    1C        C  271   4.253   2.785   2.301
    1C        C  272   4.383   2.957   2.422
    1C        C  273   4.340   2.895   2.542
    1C        C  274   4.436   3.086   2.664
    1C        C  275   4.377   2.957   2.663
    1C        C  276   4.470   3.153   2.783
    1C        C  277   4.440   3.088   2.905
    1C        C  278   4.500   3.292   3.025
    1C        C  279   4.463   3.156   3.026
    1C        C  280   4.515   3.364   3.145
    1C        C  281   4.499   3.298   3.269
    1C        C  282   4.518   3.511   3.391
    1C        C  283   4.506   3.370   3.391
    1C        C  284   4.516   3.583   3.512
    1C        C  285   4.512   3.514   3.635
    1C        C  286   4.496   3.729   3.754
    1C        C  287   4.514   3.589   3.755
    1C        C  288   4.477   3.796   3.877
    1C        C  289   4.499   3.730   4.000
    1C        C  290   4.424   3.931   4.118
    1C        C  291   4.481   3.802   4.120
    1C        C  292   4.396   3.997   4.240
    1C        C  293   4.427   3.939   4.365
    1C        C  294   4.325   4.128   4.479
    1C        C  295   4.400   4.008   4.485
    1C        C  296   4.285   4.190   4.599
    1C        C  297   4.322   4.130   4.722
    1C        C  298   4.199   4.313   4.841
    1C        C  299   4.285   4.199   4.841
    1C        C  300   4.173   4.407   4.946
    1C        C  301   4.356   2.879   2.062
    1C        C  302   4.465   3.071   2.177
    1C        C  303   4.394   2.946   2.179
    1C        C  304   4.487   3.142   2.298
    1C        C  305   4.457   3.077   2.420
    1C        C  306   4.505   3.284   2.538
    1C        C  307   4.472   3.147   2.542
    1C        C  308   4.514   3.358   2.658
    1C        C  309   4.504   3.290   2.781
    1C        C  310   4.519   3.503   2.901
    1C        C  311   4.514   3.362   2.903
    1C        C  312   4.511   3.574   3.022
    1C        C  313   4.511   3.505   3.145
    1C        C  314   4.493   3.718   3.266
    1C        C  315   4.510   3.577   3.267
    1C        C  316   4.478   3.790   3.386
    1C        C  317   4.497   3.723   3.509
    1C        C  318   4.428   3.925   3.629
    1C        C  319   4.481   3.794   3.629
    1C        C  320   4.395   3.990   3.750
    1C        C  321   4.426   3.927   3.873
    1C        C  322   4.312   4.108   3.992
    1C        C  323   4.389   3.990   3.994
    1C        C  324   4.273   4.168   4.115
    1C        C  325   4.320   4.115   4.237
    1C        C  326   4.185   4.285   4.356
    1C        C  327   4.285   4.184   4.356
    1C        C  328   4.136   4.340   4.477
    1C        C  329   4.191   4.296   4.599
    1C        C  330   4.025   4.435   4.713
    1C        C  331   4.140   4.352   4.718
    1C        C  332   3.972   4.498   4.828
    1C        C  333   4.056   4.484   4.940
    1C        C  334   4.549   3.268   2.061
    1C        C  335   4.538   3.128   2.068
    1C        C  336   4.537   3.350   2.174
    1C        C  337   4.517   3.281   2.296
    1C        C  338   4.522   3.496   2.413
    1C        C  339   4.520   3.355   2.416
    1C        C  340   4.521   3.569   2.533
    1C        C  341   4.520   3.499   2.656
    1C        C  342   4.501   3.712   2.776
    1C        C  343   4.514   3.572   2.777
    1C        C  344   4.482   3.783   2.897
    1C        C  345   4.494   3.715   3.020
    1C        C  346   4.427   3.916   3.137
    1C        C  347   4.476   3.783   3.142
    1C        C  348   4.394   3.981   3.258
    1C        C  349   4.425   3.921   3.383
    1C        C  350   4.322   4.105   3.506
    1C        C  351   4.398   3.987   3.505
    1C        C  352   4.274   4.164   3.625
    1C        C  353   4.319   4.109   3.747
    1C        C  354   4.182   4.272   3.867
    1C        C  355   4.275   4.166   3.869
    1C        C  356   4.129   4.322   3.988
    1C        C  357   4.176   4.270   4.111
    1C        C  358   4.014   4.407   4.234
    1C        C  359   4.127   4.322   4.233
    1C        C  360   3.955   4.456   4.353
    1C        C  361   4.023   4.424   4.473
    1C        C  362   3.829   4.522   4.592
    1C        C  363   3.958   4.465   4.592
    1C        C  364   3.762   4.553   4.712
    1C        C  365   3.840   4.549   4.830
    1C        C  366   3.632   4.592   4.951
    1C        C  367   3.770   4.576   4.949
    1C        C  368   4.505   3.566   2.058
    1C        C  369   4.529   3.491   2.174
    1C        C  370   4.506   3.709   2.294
    1C        C  371   4.524   3.569   2.292
    1C        C  372   4.487   3.779   2.414
    1C        C  373   4.501   3.709   2.536
    1C        C  374   4.427   3.912   2.652
    1C        C  375   4.481   3.782   2.655
    1C        C  376   4.391   3.975   2.773
    1C        C  377   4.431   3.915   2.895
    1C        C  378   4.318   4.096   3.014
    1C        C  379   4.404   3.984   3.016
    1C        C  380   4.270   4.147   3.136
    1C        C  381   4.317   4.099   3.260
    1C        C  382   4.179   4.259   3.378
    1C        C  383   4.276   4.157   3.383
    1C        C  384   4.123   4.309   3.498
    1C        C  385   4.175   4.265   3.622
    1C        C  386   4.008   4.393   3.746
    1C        C  387   4.125   4.314   3.745
    1C        C  388   3.949   4.435   3.868
    1C        C  389   4.014   4.403   3.989
    1C        C  390   3.820   4.490   4.109
    1C        C  391   3.949   4.431   4.111
    1C        C  392   3.754   4.524   4.229
    1C        C  393   3.825   4.511   4.350
    1C        C  394   3.618   4.561   4.473
    1C        C  395   3.756   4.531   4.472
    1C        C  396   3.548   4.573   4.595
    1C        C  397   3.622   4.569   4.716
    1C        C  398   3.412   4.553   4.837
    1C        C  399   3.551   4.581   4.837
    1C        C  400   3.345   4.511   4.952
    1C        C  401   4.501   3.705   2.057
    1C        C  402   4.454   3.918   2.167
    1C        C  403   4.491   3.782   2.174
    1C        C  404   4.413   3.978   2.288
    1C        C  405   4.436   3.911   2.411
    1C        C  406   4.323   4.096   2.527
    1C        C  407   4.404   3.980   2.530
    1C        C  408   4.277   4.153   2.648
    1C        C  409   4.319   4.096   2.770
    1C        C  410   4.171   4.248   2.889
    1C        C  411   4.275   4.153   2.892
    1C        C  412   4.120   4.295   3.012
    1C        C  413   4.173   4.250   3.135
    1C        C  414   4.002   4.377   3.255
    1C        C  415   4.123   4.303   3.256
    1C        C  416   3.941   4.414   3.377
    1C        C  417   4.005   4.386   3.500
    1C        C  418   3.815   4.475   3.621
    1C        C  419   3.946   4.423   3.623
    1C        C  420   3.747   4.500   3.743
    1C        C  421   3.815   4.481   3.865
    1C        C  422   3.611   4.535   3.989
    1C        C  423   3.750   4.507   3.988
    1C        C  424   3.541   4.545   4.112
    1C        C  425   3.615   4.549   4.232
    1C        C  426   3.402   4.548   4.357
    1C        C  427   3.543   4.558   4.353
    1C        C  428   3.330   4.548   4.479
    1C        C  429   3.408   4.560   4.596
    1C        C  430   3.197   4.524   4.724
    1C        C  431   3.337   4.549   4.718
    1C        C  432   3.128   4.498   4.845
    1C        C  433   3.207   4.491   4.960
    1C        C  434   4.385   4.126   2.055
    1C        C  435   4.440   3.997   2.053
    1C        C  436   4.303   4.166   2.166
    1C        C  437   4.335   4.097   2.286
    1C        C  438   4.177   4.247   2.403
    1C        C  439   4.280   4.151   2.404
    1C        C  440   4.121   4.297   2.523
    1C        C  441   4.178   4.253   2.645
    1C        C  442   3.999   4.369   2.769
    1C        C  443   4.120   4.296   2.766
    1C        C  444   3.937   4.403   2.892
    1C        C  445   4.004   4.377   3.013
    1C        C  446   3.811   4.470   3.133
    1C        C  447   3.941   4.415   3.134
    1C        C  448   3.744   4.493   3.255
    1C        C  449   3.810   4.469   3.378
    1C        C  450   3.606   4.525   3.500
    1C        C  451   3.744   4.495   3.500
    1C        C  452   3.540   4.536   3.624
    1C        C  453   3.610   4.531   3.747
    1C        C  454   3.397   4.542   3.868
    1C        C  455   3.538   4.542   3.868
    1C        C  456   3.331   4.532   3.992
    1C        C  457   3.401   4.533   4.115
    1C        C  458   3.190   4.510   4.237
    1C        C  459   3.329   4.533   4.237
    1C        C  460   3.123   4.492   4.360
    1C        C  461   3.192   4.518   4.481
    1C        C  462   3.000   4.436   4.605
    1C        C  463   3.125   4.501   4.605
    1C        C  464   2.931   4.403   4.724
    1C        C  465   2.996   4.442   4.845
    1C        C  466   2.809   4.336   4.964
    1C        C  467   2.912   4.431   4.960
    1C        C  468   4.125   4.284   2.040
    1C        C  469   4.185   4.246   2.161
    1C        C  470   4.002   4.366   2.282
    1C        C  471   4.123   4.292   2.281
    1C        C  472   3.941   4.407   2.402
    1C        C  473   4.001   4.372   2.525
    1C        C  474   3.808   4.462   2.644
    1C        C  475   3.938   4.406   2.647
    1C        C  476   3.742   4.484   2.766
    1C        C  477   3.809   4.462   2.889
    1C        C  478   3.604   4.517   3.012
    1C        C  479   3.743   4.490   3.010
    1C        C  480   3.533   4.529   3.133
    1C        C  481   3.605   4.520   3.254
    1C        C  482   3.396   4.536   3.380
    1C        C  483   3.537   4.532   3.377
    1C        C  484   3.324   4.530   3.502
    1C        C  485   3.399   4.538   3.622
    1C        C  486   3.190   4.511   3.747
    1C        C  487   3.328   4.538   3.744
    1C        C  488   3.124   4.482   3.869
    1C        C  489   3.194   4.498   3.991
    1C        C  490   3.000   4.417   4.117
    1C        C  491   3.125   4.482   4.114
    1C        C  492   2.942   4.382   4.241
    1C        C  493   2.997   4.429   4.363
    1C        C  494   2.832   4.300   4.486
    1C        C  495   2.936   4.395   4.486
    1C        C  496   2.776   4.254   4.607
    1C        C  497   2.820   4.314   4.727
    1C        C  498   2.669   4.166   4.848
    1C        C  499   2.759   4.274   4.848
    1C        C  500   2.603   4.115   4.961
    1C        C  501   4.004   4.352   2.044
    1C        C  502   3.815   4.465   2.158
    1C        C  503   3.940   4.399   2.159
    1C        C  504   3.743   4.483   2.278
    1C        C  505   3.808   4.454   2.400
    1C        C  506   3.602   4.510   2.523
    1C        C  507   3.741   4.483   2.521
    1C        C  508   3.533   4.515   2.646
    1C        C  509   3.603   4.506   2.768
    1C        C  510   3.392   4.529   2.888
    1C        C  511   3.533   4.521   2.890
    1C        C  512   3.321   4.521   3.010
    1C        C  513   3.392   4.531   3.132
    1C        C  514   3.189   4.499   3.257
    1C        C  515   3.326   4.531   3.257
    1C        C  516   3.121   4.473   3.379
    1C        C  517   3.186   4.499   3.502
    1C        C  518   2.998   4.415   3.628
    1C        C  519   3.123   4.481   3.627
    1C        C  520   2.945   4.373   3.752
    1C        C  521   3.002   4.412   3.875
    1C        C  522   2.833   4.283   3.999
    1C        C  523   2.939   4.377   3.997
    1C        C  524   2.786   4.234   4.123
    1C        C  525   2.832   4.293   4.242
    1C        C  526   2.696   4.134   4.366
    1C        C  527   2.779   4.249   4.365
    1C        C  528   2.654   4.078   4.489
    1C        C  529   2.688   4.143   4.610
    1C        C  530   2.580   3.962   4.733
    1C        C  531   2.642   4.090   4.732
    1C        C  532   2.540   3.904   4.856
    1C        C  533   2.524   4.000   4.961
    1C        C  534   3.617   4.552   2.037
    1C        C  535   3.753   4.518   2.044
    1C        C  536   3.536   4.537   2.154
    1C        C  537   3.605   4.519   2.277
    1C        C  538   3.394   4.522   2.401
    1C        C  539   3.535   4.524   2.400
    1C        C  540   3.322   4.521   2.522
    1C        C  541   3.392   4.523   2.645
    1C        C  542   3.182   4.488   2.767
    1C        C  543   3.320   4.519   2.767
    1C        C  544   3.115   4.471   2.890
    1C        C  545   3.182   4.495   3.012
    1C        C  546   2.998   4.401   3.136
    1C        C  547   3.121   4.471   3.137
    1C        C  548   2.940   4.366   3.260
    1C        C  549   2.997   4.406   3.383
    1C        C  550   2.829   4.285   3.508
    1C        C  551   2.936   4.377   3.507
    1C        C  552   2.779   4.238   3.631
    1C        C  553   2.834   4.285   3.753
    1C        C  554   2.695   4.125   3.876
    1C        C  555   2.783   4.236   3.875
    1C        C  556   2.656   4.067   3.999
    1C        C  557   2.699   4.123   4.121
    1C        C  558   2.593   3.945   4.248
    1C        C  559   2.660   4.069   4.246
    1C        C  560   2.568   3.881   4.372
    1C        C  561   2.591   3.952   4.492
    1C        C  562   2.522   3.752   4.618
    1C        C  563   2.565   3.887   4.614
    1C        C  564   2.512   3.684   4.741
    1C        C  565   2.520   3.762   4.860
    1C        C  566   2.534   3.549   4.975
    1C        C  567   2.533   3.688   4.978
    1C        C  568   3.328   4.471   2.044
    1C        C  569   3.396   4.513   2.158
    1C        C  570   3.186   4.471   2.282
    1C        C  571   3.322   4.514   2.280
    1C        C  572   3.118   4.457   2.405
    1C        C  573   3.185   4.487   2.526
    1C        C  574   2.986   4.402   2.648
    1C        C  575   3.114   4.462   2.645
    1C        C  576   2.929   4.366   2.771
    1C        C  577   2.991   4.404   2.892
    1C        C  578   2.824   4.276   3.019
    1C        C  579   2.935   4.363   3.016
    1C        C  580   2.780   4.222   3.142
    1C        C  581   2.832   4.275   3.262
    1C        C  582   2.697   4.117   3.388
    1C        C  583   2.784   4.228   3.387
    1C        C  584   2.666   4.056   3.512
    1C        C  585   2.697   4.122   3.633
    1C        C  586   2.601   3.934   3.758
    1C        C  587   2.661   4.061   3.755
    1C        C  588   2.574   3.871   3.882
    1C        C  589   2.594   3.940   4.004
    1C        C  590   2.535   3.739   4.128
    1C        C  591   2.569   3.876   4.127
    1C        C  592   2.519   3.672   4.252
    1C        C  593   2.532   3.744   4.373
    1C        C  594   2.506   3.538   4.496
    1C        C  595   2.518   3.679   4.497
    1C        C  596   2.512   3.468   4.619
    1C        C  597   2.512   3.542   4.740
    1C        C  598   2.533   3.329   4.864
    1C        C  599   2.525   3.470   4.860
    1C        C  600   2.527   3.252   4.982
    1C        C  601   3.193   4.442   2.042
    1C        C  602   2.984   4.394   2.159
    1C        C  603   3.119   4.442   2.161
    1C        C  604   2.930   4.357   2.286
    1C        C  605   2.989   4.400   2.407
    1C        C  606   2.818   4.271   2.530
    1C        C  607   2.923   4.366   2.527
    1C        C  608   2.772   4.223   2.654
    1C        C  609   2.821   4.274   2.776
    1C        C  610   2.687   4.112   2.898
    1C        C  611   2.770   4.226   2.898
    1C        C  612   2.652   4.053   3.022
    1C        C  613   2.692   4.112   3.144
    1C        C  614   2.592   3.929   3.269
    1C        C  615   2.652   4.057   3.268
    1C        C  616   2.570   3.864   3.393
    1C        C  617   2.602   3.930   3.514
    1C        C  618   2.534   3.731   3.641
    1C        C  619   2.574   3.867   3.637
    1C        C  620   2.526   3.662   3.764
    1C        C  621   2.532   3.735   3.884
    1C        C  622   2.510   3.526   4.010
    1C        C  623   2.523   3.667   4.007
    1C        C  624   2.517   3.457   4.134
    1C        C  625   2.515   3.531   4.254
    1C        C  626   2.544   3.324   4.379
    1C        C  627   2.510   3.462   4.377
    1C        C  628   2.562   3.257   4.502
    1C        C  629   2.537   3.330   4.621
    1C        C  630   2.596   3.125   4.745
    1C        C  631   2.552   3.260   4.743
    1C        C  632   2.620   3.057   4.867
    1C        C  633   2.552   3.114   4.980
    1C        C  634   2.785   4.306   2.056
    1C        C  635   2.891   4.398   2.051
    1C        C  636   2.757   4.226   2.167
    1C        C  637   2.821   4.266   2.287
    1C        C  638   2.686   4.103   2.409
    1C        C  639   2.770   4.216   2.409
    1C        C  640   2.650   4.048   2.534
    1C        C  641   2.683   4.112   2.656
    1C        C  642   2.591   3.921   2.777
    1C        C  643   2.645   4.051   2.777
    1C        C  644   2.567   3.855   2.900
    1C        C  645   2.595   3.924   3.021
    1C        C  646   2.533   3.727   3.152
    1C        C  647   2.570   3.864   3.146
    1C        C  648   2.511   3.659   3.274
    1C        C  649   2.526   3.729   3.395
    1C        C  650   2.509   3.521   3.519
    1C        C  651   2.518   3.662   3.519
    1C        C  652   2.513   3.451   3.642
    1C        C  653   2.518   3.521   3.764
    1C        C  654   2.532   3.314   3.890
    1C        C  655   2.513   3.454   3.889
    1C        C  656   2.553   3.249   4.014
    1C        C  657   2.536   3.317   4.136
    1C        C  658   2.612   3.120   4.259
    1C        C  659   2.561   3.252   4.258
    1C        C  660   2.639   3.057   4.383
    1C        C  661   2.608   3.124   4.504
    1C        C  662   2.706   2.937   4.627
    1C        C  663   2.631   3.057   4.626
    1C        C  664   2.747   2.876   4.748
    1C        C  665   2.703   2.940   4.867
    1C        C  666   2.742   2.873   4.983
    1C        C  667   2.683   4.023   2.053
    1C        C  668   2.689   4.102   2.168
    1C        C  669   2.597   3.908   2.292
    1C        C  670   2.647   4.041   2.288
    1C        C  671   2.567   3.847   2.416
    1C        C  672   2.590   3.920   2.534
    1C        C  673   2.519   3.720   2.661
    1C        C  674   2.561   3.854   2.656
    1C        C  675   2.512   3.650   2.783
    1C        C  676   2.531   3.719   2.905
    1C        C  677   2.506   3.515   3.033
    1C        C  678   2.523   3.655   3.031
    1C        C  679   2.506   3.445   3.156
    1C        C  680   2.499   3.518   3.277
    1C        C  681   2.523   3.307   3.405
    1C        C  682   2.502   3.446   3.399
    1C        C  683   2.537   3.237   3.528
    1C        C  684   2.525   3.310   3.648
    1C        C  685   2.584   3.105   3.772
    1C        C  686   2.542   3.240   3.770
    1C        C  687   2.632   3.052   3.894
    1C        C  688   2.606   3.118   4.016
    1C        C  689   2.711   2.932   4.139
    1C        C  690   2.638   3.053   4.138
    1C        C  691   2.758   2.880   4.261
    1C        C  692   2.712   2.936   4.383
    1C        C  693   2.755   2.883   4.506
    1C        C  694   2.629   3.893   2.056
    1C        C  695   2.532   3.701   2.179
    1C        C  696   2.585   3.832   2.174
    1C        C  697   2.514   3.633   2.301
    1C        C  698   2.526   3.712   2.418
    1C        C  699   2.491   3.505   2.545
    1C        C  700   2.505   3.646   2.541
    1C        C  701   2.502   3.436   2.668
    1C        C  702   2.502   3.509   2.789
    1C        C  703   2.527   3.301   2.912
    1C        C  704   2.506   3.441   2.912
    1C        C  705   2.546   3.237   3.037
    1C        C  706   2.532   3.306   3.159
    1C        C  707   2.597   3.108   3.282
    1C        C  708   2.547   3.240   3.283
    1C        C  709   2.626   3.046   3.406
    1C        C  710   2.598   3.110   3.529
    1C        C  711   2.712   2.934   3.650
    1C        C  712   2.623   3.044   3.651
    1C        C  713   2.756   2.879   3.772
    1C        C  714   2.714   2.936   3.895
    1C        C  715   2.753   2.876   4.016
    1C        C  716   2.452   3.499   2.068
    1C        C  717   2.494   3.632   2.064
    1C        C  718   2.459   3.419   2.187
    1C        C  719   2.479   3.495   2.305
    1C        C  720   2.509   3.287   2.426
    1C        C  721   2.489   3.427   2.428
    1C        C  722   2.535   3.223   2.549
    1C        C  723   2.523   3.296   2.670
    1C        C  724   2.592   3.096   2.796
    1C        C  725   2.540   3.228   2.792
    1C        C  726   2.620   3.034   2.919
    1C        C  727   2.594   3.104   3.039
    1C        C  728   2.707   2.924   3.162
    1C        C  729   2.631   3.043   3.161
    1C        C  730   2.759   2.880   3.286
    1C        C  731   2.711   2.933   3.408
    1C        C  732   2.756   2.875   3.529
    1C        C  733   2.487   3.197   2.074
    1C        C  734   2.487   3.279   2.187
    1C        C  735   2.569   3.077   2.308
    1C        C  736   2.517   3.210   2.308
    1C        C  737   2.608   3.019   2.430
    1C        C  738   2.582   3.090   2.549
    1C        C  739   2.693   2.913   2.673
    1C        C  740   2.615   3.031   2.673
    1C        C  741   2.742   2.860   2.794
    1C        C  742   2.702   2.919   2.916
    1C        C  743   2.748   2.867   3.040
    1C        C  744   2.542   3.069   2.072
    1C        C  745   2.682   2.897   2.186
    1C        C  746   2.599   3.011   2.186
    1C        C  747   2.726   2.843   2.309
    1C        C  748   2.691   2.904   2.431
    1C        C  749   2.738   2.852   2.554
    1C        C  750   2.729   2.838   2.068
    1C        C  751   3.649   2.293   2.010
    1C        O  752   3.673   2.189   2.077
    1C        O  753   3.641   2.283   1.871
    1C        C  754   4.641   3.043   2.006
    1C        O  755   4.642   3.001   1.888
    1C        O  756   4.772   3.045   2.057
    1C        C  757   4.459   4.224   1.972
    1C        O  758   4.527   4.319   2.019
    1C        O  759   4.450   4.219   1.833
    1C        C  760   3.572   4.597   1.903
    1C        O  761   3.550   4.720   1.887
    1C        O  762   3.578   4.525   1.783
    1C        C  763   2.862   4.513   1.962
    1C        O  764   2.860   4.497   1.837
    1C        O  765   2.797   4.631   1.996
    1C        C  766   2.332   3.489   1.981
    1C        O  767   2.345   3.454   1.860
    1C        O  768   2.198   3.501   2.018
    1C        C  769   4.686   3.583   5.066
    1C        O  770   4.650   3.555   5.184
    1C        O  771   4.800   3.516   5.020
    1C        C  772   4.281   4.462   5.031
    1C        O  773   4.298   4.427   5.151
    1C        O  774   4.350   4.580   4.997
    1C        C  775   4.142   2.511   5.073
    1C        O  776   4.204   2.406   5.041
    1C        O  777   4.139   2.540   5.210
    1C        C  778   2.877   4.545   5.048
    1C        O  779   2.829   4.652   5.001
    1C        O  780   2.924   4.560   5.179
    1C        C  781   2.443   3.044   5.050
    1C        O  782   2.326   3.052   5.003
    1C        O  783   2.464   2.951   5.151
    1C        C  784   2.384   4.016   5.006
    1C        O  785   2.275   3.986   4.950
    1C        O  786   2.370   4.019   5.146
    1C        C  787   2.956   2.445   1.986
    1C        O  788   2.966   2.450   1.861
    1C        O  789   2.901   2.323   2.023
    1C        C  790   3.159   2.359   5.039
    1C        O  791   3.128   2.269   4.956
    1C        O  792   3.233   2.323   5.153
    1C        H  793   4.274   3.026   5.060
    1C        H  794   4.179   2.816   5.072
    1C        H  795   4.502   3.132   5.064
    1C        H  796   4.530   3.369   5.068
    1C        H  797   4.545   3.803   5.052
    1C        H  798   4.424   3.978   5.059
    1C        H  799   4.247   4.146   5.036
    1C        H  800   4.035   4.550   5.022
    1C        H  801   3.823   4.629   5.025
    1C        H  802   3.608   4.657   5.032
    1C        H  803   3.406   4.450   5.016
    1C        H  804   3.162   4.494   5.057
    1C        H  805   3.897   2.462   5.059
    1C        H  806   3.678   2.450   5.071
    1C        H  807   3.006   2.573   5.070
    1C        H  808   3.457   2.419   5.063
    1C        H  809   2.861   2.724   5.078
    1C        H  810   2.734   2.928   5.074
    1C        H  811   2.493   3.299   5.072
    1C        H  812   2.548   3.502   5.070
    1C        H  813   2.597   3.734   5.051
    1C        H  814   2.623   4.163   5.055
    1C        H  815   2.782   4.302   5.062
    1C        H  816   2.701   2.881   1.974
    1C        H  817   2.853   2.695   1.977
    1C        H  818   3.225   2.500   1.989
    1C        H  819   3.437   2.487   1.987
    1C        H  820   3.864   2.490   1.975
    1C        H  821   4.068   2.611   1.969
    1C        H  822   4.291   2.694   2.000
    1C        H  823   4.396   2.908   1.967
    1C        H  824   4.593   3.303   1.970
    1C        H  825   4.463   3.520   1.971
    1C        H  826   4.447   3.740   1.972
    1C        H  827   3.815   4.564   1.971
    1C        H  828   3.946   4.352   1.954
    1C        H  829   4.162   4.244   1.948
    1C        H  830   4.496   3.968   1.966
    1C        H  831   2.662   3.824   1.981
    1C        H  832   2.743   4.043   1.966
    1C        H  833   2.741   4.270   1.965
    1C        H  834   3.375   4.464   1.948
    1C        H  835   3.152   4.408   1.949
    1C        H  836   2.510   3.000   1.996
    1C        H  837   2.417   3.222   1.996
    1C        H  838   2.527   3.667   1.968
    2V3OU   H29  839   2.808   3.555   3.243
    2V3OU   C27  840   2.793   3.502   3.341
    2V3OU   H27  841   2.733   3.568   3.408
    2V3OU   H28  842   2.740   3.405   3.323
    2V3OU   O11  843   2.918   3.475   3.405
    2V3OU   C15  844   2.930   3.402   3.522
    2V3OU   C13  845   3.058   3.375   3.574
    2V3OU   C14  846   3.085   3.267   3.659
    2V3OU   C16  847   2.985   3.183   3.708
    2V3OU    H6  848   2.994   3.107   3.787
    2V3OU   C12  849   3.217   3.237   3.717
    2V3OU    O2  850   3.239   3.139   3.791
    2V3OU   C10  851   3.327   3.310   3.652
    2V3OU    C8  852   3.460   3.271   3.667
    2V3OU   O10  853   3.489   3.151   3.724
    2V3OU   H26  854   3.402   3.119   3.756
    2V3OU    C6  855   3.568   3.353   3.624
    2V3OU    C5  856   3.540   3.470   3.555
    2V3OU    C4  857   3.705   3.295   3.620
    2V3OU    H4  858   3.725   3.229   3.709
    2V3OU    H5  859   3.713   3.229   3.528
    2V3OU    C2  860   3.819   3.398   3.616
    2V3OU    O6  861   3.804   3.478   3.734
    2V3OU   H21  862   3.764   3.558   3.696
    2V3OU    C3  863   3.781   3.495   3.504
    2V3OU    H2  864   3.856   3.577   3.498
    2V3OU    H3  865   3.782   3.442   3.406
    2V3OU   C25  866   3.949   3.324   3.587
    2V3OU    O7  867   3.989   3.302   3.473
    2V3OU   C26  868   4.031   3.286   3.710
    2V3OU   H22  869   4.061   3.381   3.759
    2V3OU   H23  870   4.122   3.230   3.678
    2V3OU    O8  871   3.968   3.207   3.809
    2V3OU   H24  872   3.930   3.265   3.877
    2V3OU    C1  873   3.649   3.569   3.525
    2V3OU    H1  874   3.626   3.625   3.429
    2V3OU    O3  875   3.661   3.659   3.635
    2V3OU   C19  876   3.618   3.795   3.619
    2V3OU    H9  877   3.520   3.806   3.565
    2V3OU    O4  878   3.718   3.852   3.538
    2V3OU   C20  879   3.847   3.873   3.596
    2V3OU   H10  880   3.896   3.772   3.609
    2V3OU   C24  881   3.615   3.859   3.758
    2V3OU   H16  882   3.550   3.794   3.822
    2V3OU   H17  883   3.566   3.959   3.747
    2V3OU   C23  884   3.752   3.878   3.822
    2V3OU   H15  885   3.793   3.774   3.846
    2V3OU    N1  886   3.739   3.955   3.944
    2V3OU   H19  887   3.812   3.926   4.007
    2V3OU   H20  888   3.647   3.934   3.977
    2V3OU   C21  889   3.853   3.950   3.728
    2V3OU   H11  890   3.951   3.931   3.780
    2V3OU    O5  891   3.841   4.092   3.736
    2V3OU   H18  892   3.778   4.105   3.809
    2V3OU   C22  893   3.912   3.945   3.479
    2V3OU   H12  894   3.867   4.046   3.462
    2V3OU   H13  895   3.907   3.882   3.387
    2V3OU   H14  896   4.021   3.960   3.502
    2V3OU   C11  897   3.165   3.476   3.559
    2V3OU    O1  898   3.134   3.593   3.528
    2V3OU    C9  899   3.304   3.427   3.576
    2V3OU    C7  900   3.405   3.506   3.523
    2V3OU    O9  901   3.384   3.615   3.441
    2V3OU   H25  902   3.288   3.622   3.432
    2V3OU   C17  903   2.832   3.321   3.581
    2V3OU    H7  904   2.733   3.353   3.548
    2V3OU   C18  905   2.856   3.216   3.669
    2V3OU    H8  906   2.788   3.170   3.743
    3SOL     OW  907   3.037   5.133   6.277
    3SOL    HW1  908   3.087   5.154   6.361
    3SOL    HW2  909   2.963   5.199   6.264
    4SOL     OW  910   6.775   7.017   0.773
    4SOL    HW1  911   6.767   7.022   0.673
    4SOL    HW2  912   6.871   6.999   0.798
    5SOL     OW  913   4.786   2.258   2.197
    5SOL    HW1  914   4.838   2.301   2.271
    5SOL    HW2  915   4.809   2.303   2.110
    6SOL     OW  916   4.425   1.949   2.147
    6SOL    HW1  917   4.499   2.002   2.190
    6SOL    HW2  918   4.424   1.969   2.049
    7SOL     OW  919   0.786   4.672   3.710
    7SOL    HW1  920   0.750   4.672   3.804
    7SOL    HW2  921   0.875   4.717   3.709
    8SOL     OW  922   2.472   2.417   5.829
    8SOL    HW1  923   2.424   2.338   5.869
    8SOL    HW2  924   2.567   2.392   5.811
    9SOL     OW  925   6.069   2.601   5.617
    9SOL    HW1  926   6.091   2.688   5.661
    9SOL    HW2  927   5.992   2.558   5.663
   10SOL     OW  928   3.230   5.205   5.187
   10SOL    HW1  929   3.321   5.167   5.205
   10SOL    HW2  930   3.196   5.171   5.099
   11SOL     OW  931   2.088   1.450   6.029
   11SOL    HW1  932   2.049   1.520   5.970
   11SOL    HW2  933   2.017   1.411   6.088
   12SOL     OW  934   3.066   4.976   3.731
   12SOL    HW1  935   3.113   4.934   3.809
   12SOL    HW2  936   3.019   5.059   3.761
   13SOL     OW  937   3.503   6.668   3.994
   13SOL    HW1  938   3.587   6.721   3.978
   13SOL    HW2  939   3.472   6.629   3.908
   14SOL     OW  940   4.162   5.019   6.002
   14SOL    HW1  941   4.238   5.053   6.059
   14SOL    HW2  942   4.115   4.945   6.050
   15SOL     OW  943   0.869   6.124   0.804
   15SOL    HW1  944   0.907   6.032   0.792
   15SOL    HW2  945   0.779   6.129   0.760
   16SOL     OW  946   5.281   2.763   6.560
   16SOL    HW1  947   5.324   2.673   6.567
   16SOL    HW2  948   5.288   2.811   6.647
   17SOL     OW  949   5.269   6.546   6.909
   17SOL    HW1  950   5.274   6.592   6.820
   17SOL    HW2  951   5.212   6.601   6.971
   18SOL     OW  952   3.024   1.050   5.029
   18SOL    HW1  953   2.971   1.123   5.072
   18SOL    HW2  954   3.037   0.975   5.094
   19SOL     OW  955   0.193   2.311   2.222
   19SOL    HW1  956   0.284   2.272   2.234
   19SOL    HW2  957   0.166   2.305   2.126
   20SOL     OW  958   4.758   2.445   5.495
   20SOL    HW1  959   4.757   2.431   5.594
   20SOL    HW2  960   4.693   2.518   5.471
   21SOL     OW  961   2.721   0.924   2.829
   21SOL    HW1  962   2.646   0.858   2.827
   21SOL    HW2  963   2.719   0.978   2.745
   22SOL     OW  964   1.295   6.062   0.135
   22SOL    HW1  965   1.286   6.160   0.148
   22SOL    HW2  966   1.392   6.038   0.127
   23SOL     OW  967   4.033   5.323   2.069
   23SOL    HW1  968   4.031   5.225   2.049
   23SOL    HW2  969   3.941   5.353   2.094
   24SOL     OW  970   3.685   0.523   2.557
   24SOL    HW1  971   3.623   0.579   2.502
   24SOL    HW2  972   3.770   0.573   2.572
   25SOL     OW  973   2.482   6.748   3.823
   25SOL    HW1  974   2.476   6.798   3.737
   25SOL    HW2  975   2.570   6.766   3.867
   26SOL     OW  976   6.606   2.027   0.450
   26SOL    HW1  977   6.582   1.962   0.378
   26SOL    HW2  978   6.705   2.038   0.454
   27SOL     OW  979   1.658   1.405   1.705
   27SOL    HW1  980   1.615   1.317   1.683
   27SOL    HW2  981   1.753   1.390   1.734
   28SOL     OW  982   1.540   0.507   4.957
   28SOL    HW1  983   1.552   0.605   4.941
   28SOL    HW2  984   1.446   0.481   4.935
   29SOL     OW  985   6.389   1.822   1.386
   29SOL    HW1  986   6.355   1.824   1.292
   29SOL    HW2  987   6.368   1.733   1.427
   30SOL     OW  988   4.621   0.702   4.547
   30SOL    HW1  989   4.636   0.625   4.484
   30SOL    HW2  990   4.648   0.787   4.502
   31SOL     OW  991   0.283   2.483   6.401
   31SOL    HW1  992   0.243   2.433   6.478
   31SOL    HW2  993   0.315   2.572   6.432
   32SOL     OW  994   0.917   1.735   2.325
   32SOL    HW1  995   0.932   1.652   2.378
   32SOL    HW2  996   0.825   1.734   2.286
   33SOL     OW  997   0.809   4.893   5.086
   33SOL    HW1  998   0.877   4.826   5.055
   33SOL    HW2  999   0.719   4.867   5.052
   34SOL     OW 1000   2.873   5.883   4.628
   34SOL    HW1 1001   2.841   5.828   4.705
   34SOL    HW2 1002   2.959   5.928   4.652
   35SOL     OW 1003   4.299   2.330   5.687
   35SOL    HW1 1004   4.382   2.371   5.726
   35SOL    HW2 1005   4.234   2.311   5.760
   36SOL     OW 1006   4.133   2.317   4.148
   36SOL    HW1 1007   4.164   2.325   4.243
   36SOL    HW2 1008   4.207   2.343   4.087
   37SOL     OW 1009   1.811   1.859   5.159
   37SOL    HW1 1010   1.894   1.895   5.202
   37SOL    HW2 1011   1.742   1.843   5.230
   38SOL     OW 1012   1.529   4.819   1.688
   38SOL    HW1 1013   1.493   4.912   1.675
   38SOL    HW2 1014   1.612   4.807   1.633
   39SOL     OW 1015   6.248   5.084   6.181
   39SOL    HW1 1016   6.206   5.145   6.247
   39SOL    HW2 1017   6.290   5.137   6.108
   40SOL     OW 1018   3.546   2.481   0.349
   40SOL    HW1 1019   3.580   2.390   0.371
   40SOL    HW2 1020   3.585   2.511   0.262
   41SOL     OW 1021   6.169   3.514   3.552
   41SOL    HW1 1022   6.245   3.577   3.534
   41SOL    HW2 1023   6.205   3.423   3.574
   42SOL     OW 1024   3.582   6.220   4.554
   42SOL    HW1 1025   3.501   6.234   4.497
   42SOL    HW2 1026   3.556   6.225   4.651
   43SOL     OW 1027   4.738   1.135   5.310
   43SOL    HW1 1028   4.675   1.211   5.327
   43SOL    HW2 1029   4.704   1.081   5.234
   44SOL     OW 1030   5.490   2.562   5.368
   44SOL    HW1 1031   5.444   2.474   5.386
   44SOL    HW2 1032   5.587   2.553   5.388
   45SOL     OW 1033   4.578   5.336   1.721
   45SOL    HW1 1034   4.638   5.345   1.642
   45SOL    HW2 1035   4.632   5.306   1.800
   46SOL     OW 1036   0.923   2.429   3.903
   46SOL    HW1 1037   0.825   2.416   3.888
   46SOL    HW2 1038   0.947   2.394   3.994
   47SOL     OW 1039   4.329   4.213   1.159
   47SOL    HW1 1040   4.325   4.125   1.206
   47SOL    HW2 1041   4.387   4.276   1.211
   48SOL     OW 1042   6.611   2.514   6.688
   48SOL    HW1 1043   6.692   2.570   6.705
   48SOL    HW2 1044   6.550   2.519   6.767
   49SOL     OW 1045   5.779   2.666   1.829
   49SOL    HW1 1046   5.751   2.757   1.859
   49SOL    HW2 1047   5.823   2.672   1.739
   50SOL     OW 1048   6.369   1.053   5.479
   50SOL    HW1 1049   6.367   1.150   5.454
   50SOL    HW2 1050   6.276   1.021   5.495
   51SOL     OW 1051   2.005   6.499   3.189
   51SOL    HW1 1052   2.094   6.543   3.200
   51SOL    HW2 1053   2.011   6.428   3.118
   52SOL     OW 1054   5.444   3.466   1.644
   52SOL    HW1 1055   5.450   3.415   1.730
   52SOL    HW2 1056   5.406   3.557   1.661
   53SOL     OW 1057   4.608   1.316   3.696
   53SOL    HW1 1058   4.620   1.412   3.724
   53SOL    HW2 1059   4.696   1.277   3.672
   54SOL     OW 1060   5.698   6.542   1.313
   54SOL    HW1 1061   5.709   6.487   1.230
   54SOL    HW2 1062   5.788   6.562   1.351
   55SOL     OW 1063   2.149   2.880   5.107
   55SOL    HW1 1064   2.241   2.913   5.087
   55SOL    HW2 1065   2.085   2.919   5.041
   56SOL     OW 1066   0.291   1.069   0.947
   56SOL    HW1 1067   0.260   1.158   0.980
   56SOL    HW2 1068   0.391   1.065   0.949
   57SOL     OW 1069   4.267   0.960   1.455
   57SOL    HW1 1070   4.335   1.006   1.397
   57SOL    HW2 1071   4.196   0.921   1.397
   58SOL     OW 1072   0.321   6.619   5.844
   58SOL    HW1 1073   0.388   6.571   5.788
   58SOL    HW2 1074   0.243   6.559   5.861
   59SOL     OW 1075   6.983   3.564   6.028
   59SOL    HW1 1076   7.001   3.583   6.124
   59SOL    HW2 1077   6.897   3.607   6.001
   60SOL     OW 1078   5.016   2.910   4.113
   60SOL    HW1 1079   4.947   2.976   4.140
   60SOL    HW2 1080   5.085   2.955   4.056
   61SOL     OW 1081   0.067   1.343   4.720
   61SOL    HW1 1082   0.120   1.402   4.660
   61SOL    HW2 1083   6.997   1.347   4.693
   62SOL     OW 1084   2.027   1.480   2.065
   62SOL    HW1 1085   2.103   1.531   2.023
   62SOL    HW2 1086   1.945   1.538   2.066
   63SOL     OW 1087   3.582   0.533   4.327
   63SOL    HW1 1088   3.602   0.626   4.359
   63SOL    HW2 1089   3.553   0.477   4.404
   64SOL     OW 1090   0.310   2.750   6.284
   64SOL    HW1 1091   0.231   2.765   6.225
   64SOL    HW2 1092   0.365   2.675   6.247
   65SOL     OW 1093   0.132   5.333   5.839
   65SOL    HW1 1094   0.131   5.370   5.932
   65SOL    HW2 1095   0.052   5.367   5.789
   66SOL     OW 1096   3.490   0.492   3.309
   66SOL    HW1 1097   3.438   0.449   3.235
   66SOL    HW2 1098   3.586   0.499   3.281
   67SOL     OW 1099   0.553   3.138   6.265
   67SOL    HW1 1100   0.483   3.132   6.195
   67SOL    HW2 1101   0.556   3.052   6.317
   68SOL     OW 1102   0.473   1.888   6.766
   68SOL    HW1 1103   0.405   1.960   6.778
   68SOL    HW2 1104   0.427   1.801   6.752
   69SOL     OW 1105   1.161   2.551   5.650
   69SOL    HW1 1106   1.250   2.576   5.611
   69SOL    HW2 1107   1.088   2.584   5.591
   70SOL     OW 1108   5.091   4.790   4.495
   70SOL    HW1 1109   5.118   4.763   4.403
   70SOL    HW2 1110   5.086   4.890   4.500
   71SOL     OW 1111   4.894   2.253   3.522
   71SOL    HW1 1112   4.849   2.212   3.602
   71SOL    HW2 1113   4.987   2.278   3.546
   72SOL     OW 1114   0.964   1.223   3.045
   72SOL    HW1 1115   0.899   1.191   3.113
   72SOL    HW2 1116   0.915   1.268   2.970
   73SOL     OW 1117   3.500   0.229   0.695
   73SOL    HW1 1118   3.480   0.300   0.763
   73SOL    HW2 1119   3.430   0.231   0.624
   74SOL     OW 1120   3.339   1.293   0.117
   74SOL    HW1 1121   3.239   1.300   0.119
   74SOL    HW2 1122   3.365   1.199   0.095
   75SOL     OW 1123   4.363   1.307   1.712
   75SOL    HW1 1124   4.353   1.398   1.672
   75SOL    HW2 1125   4.301   1.243   1.666
   76SOL     OW 1126   3.336   3.226   6.817
   76SOL    HW1 1127   3.407   3.157   6.833
   76SOL    HW2 1128   3.252   3.198   6.864
   77SOL     OW 1129   1.427   0.058   3.177
   77SOL    HW1 1130   1.451   0.029   3.084
   77SOL    HW2 1131   1.383   0.148   3.172
   78SOL     OW 1132   4.849   1.500   0.963
   78SOL    HW1 1133   4.752   1.491   0.940
   78SOL    HW2 1134   4.892   1.567   0.903
   79SOL     OW 1135   2.882   6.358   1.652
   79SOL    HW1 1136   2.879   6.270   1.699
   79SOL    HW2 1137   2.838   6.428   1.708
   80SOL     OW 1138   3.970   1.863   4.249
   80SOL    HW1 1139   3.893   1.838   4.307
   80SOL    HW2 1140   3.948   1.843   4.154
   81SOL     OW 1141   1.941   6.772   1.860
   81SOL    HW1 1142   1.890   6.702   1.810
   81SOL    HW2 1143   1.886   6.856   1.865
   82SOL     OW 1144   5.771   5.922   1.449
   82SOL    HW1 1145   5.725   5.973   1.376
   82SOL    HW2 1146   5.711   5.848   1.480
   83SOL     OW 1147   0.638   0.937   6.600
   83SOL    HW1 1148   0.719   0.879   6.606
   83SOL    HW2 1149   0.656   1.026   6.642
   84SOL     OW 1150   5.735   3.677   3.259
   84SOL    HW1 1151   5.832   3.653   3.248
   84SOL    HW2 1152   5.714   3.757   3.203
   85SOL     OW 1153   1.570   1.198   3.314
   85SOL    HW1 1154   1.565   1.292   3.349
   85SOL    HW2 1155   1.655   1.156   3.345
   86SOL     OW 1156   6.930   1.384   6.842
   86SOL    HW1 1157   6.897   1.461   6.788
   86SOL    HW2 1158   6.914   1.401   6.939
   87SOL     OW 1159   4.196   4.059   0.970
   87SOL    HW1 1160   4.259   4.109   1.029
   87SOL    HW2 1161   4.162   3.979   1.019
   88SOL     OW 1162   3.360   2.359   6.048
   88SOL    HW1 1163   3.344   2.424   5.974
   88SOL    HW2 1164   3.354   2.266   6.012
   89SOL     OW 1165   3.044   2.707   6.849
   89SOL    HW1 1166   3.026   2.616   6.810
   89SOL    HW2 1167   3.135   2.737   6.822
   90SOL     OW 1168   3.547   5.315   2.760
   90SOL    HW1 1169   3.595   5.228   2.760
   90SOL    HW2 1170   3.603   5.384   2.806
   91SOL     OW 1171   6.457   4.292   5.913
   91SOL    HW1 1172   6.432   4.282   6.009
   91SOL    HW2 1173   6.553   4.321   5.906
   92SOL     OW 1174   4.762   4.615   0.505
   92SOL    HW1 1175   4.825   4.679   0.462
   92SOL    HW2 1176   4.735   4.649   0.595
   93SOL     OW 1177   3.378   2.955   7.024
   93SOL    HW1 1178   3.427   2.984   0.080
   93SOL    HW2 1179   3.425   2.989   6.943
   94SOL     OW 1180   2.905   5.389   6.626
   94SOL    HW1 1181   2.916   5.340   6.713
   94SOL    HW2 1182   2.865   5.479   6.644
   95SOL     OW 1183   2.036   1.369   3.483
   95SOL    HW1 1184   1.979   1.421   3.419
   95SOL    HW2 1185   2.093   1.432   3.536
   96SOL     OW 1186   4.239   5.794   5.523
   96SOL    HW1 1187   4.223   5.849   5.441
   96SOL    HW2 1188   4.282   5.707   5.498
   97SOL     OW 1189   2.088   3.796   5.242
   97SOL    HW1 1190   2.165   3.825   5.299
   97SOL    HW2 1191   2.121   3.758   5.156
   98SOL     OW 1192   1.001   1.561   0.325
   98SOL    HW1 1193   0.941   1.613   0.386
   98SOL    HW2 1194   0.947   1.520   0.252
   99SOL     OW 1195   3.841   3.639   2.005
   99SOL    HW1 1196   3.926   3.637   2.056
   99SOL    HW2 1197   3.836   3.560   1.945
  100SOL     OW 1198   6.865   6.967   4.080
  100SOL    HW1 1199   6.916   7.000   4.001
  100SOL    HW2 1200   6.788   6.911   4.049
  101SOL     OW 1201   0.145   5.096   2.240
  101SOL    HW1 1202   0.236   5.079   2.277
  101SOL    HW2 1203   0.153   5.140   2.150
  102SOL     OW 1204   3.290   5.643   2.258
  102SOL    HW1 1205   3.307   5.550   2.226
  102SOL    HW2 1206   3.245   5.696   2.186
  103SOL     OW 1207   2.261   2.385   2.409
  103SOL    HW1 1208   2.228   2.304   2.458
  103SOL    HW2 1209   2.212   2.466   2.442
  104SOL     OW 1210   1.637   5.441   2.411
  104SOL    HW1 1211   1.548   5.479   2.387
  104SOL    HW2 1212   1.709   5.505   2.385
  105SOL     OW 1213   6.110   1.102   6.504
  105SOL    HW1 1214   6.199   1.077   6.465
  105SOL    HW2 1215   6.061   1.019   6.532
  106SOL     OW 1216   3.761   6.040   3.492
  106SOL    HW1 1217   3.818   5.990   3.427
  106SOL    HW2 1218   3.702   5.975   3.540
  107SOL     OW 1219   0.273   0.943   0.259
  107SOL    HW1 1220   0.198   0.921   0.321
  107SOL    HW2 1221   0.326   1.019   0.296
  108SOL     OW 1222   4.112   6.389   6.379
  108SOL    HW1 1223   4.091   6.294   6.357
  108SOL    HW2 1224   4.084   6.408   6.474
  109SOL     OW 1225   2.647   1.037   2.594
  109SOL    HW1 1226   2.676   1.090   2.514
  109SOL    HW2 1227   2.547   1.028   2.593
  110SOL     OW 1228   3.434   5.013   4.412
  110SOL    HW1 1229   3.460   5.011   4.315
  110SOL    HW2 1230   3.348   5.064   4.422
  111SOL     OW 1231   1.799   1.477   3.924
  111SOL    HW1 1232   1.704   1.504   3.909
  111SOL    HW2 1233   1.859   1.538   3.872
  112SOL     OW 1234   4.540   5.924   0.563
  112SOL    HW1 1235   4.536   5.860   0.486
  112SOL    HW2 1236   4.510   5.878   0.646
  113SOL     OW 1237   1.421   6.086   3.224
  113SOL    HW1 1238   1.402   6.027   3.302
  113SOL    HW2 1239   1.436   6.030   3.142
  114SOL     OW 1240   1.333   6.492   2.082
  114SOL    HW1 1241   1.412   6.502   2.022
  114SOL    HW2 1242   1.299   6.398   2.077
  115SOL     OW 1243   5.340   6.924   2.927
  115SOL    HW1 1244   5.265   6.871   2.887
  115SOL    HW2 1245   5.333   6.922   3.027
  116SOL     OW 1246   0.332   5.603   1.176
  116SOL    HW1 1247   0.279   5.626   1.258
  116SOL    HW2 1248   0.387   5.521   1.194
  117SOL     OW 1249   0.855   0.739   0.518
  117SOL    HW1 1250   0.951   0.757   0.497
  117SOL    HW2 1251   0.839   0.756   0.615
  118SOL     OW 1252   1.389   1.790   2.789
  118SOL    HW1 1253   1.339   1.704   2.780
  118SOL    HW2 1254   1.325   1.863   2.816
  119SOL     OW 1255   0.105   0.386   6.747
  119SOL    HW1 1256   0.122   0.481   6.719
  119SOL    HW2 1257   0.130   0.325   6.672
  120SOL     OW 1258   5.376   0.734   4.347
  120SOL    HW1 1259   5.323   0.664   4.395
  120SOL    HW2 1260   5.343   0.743   4.253
  121SOL     OW 1261   1.418   3.992   0.415
  121SOL    HW1 1262   1.511   3.957   0.429
  121SOL    HW2 1263   1.354   3.939   0.470
  122SOL     OW 1264   1.443   3.445   0.647
  122SOL    HW1 1265   1.453   3.528   0.593
  122SOL    HW2 1266   1.483   3.459   0.738
  123SOL     OW 1267   1.216   1.226   2.046
  123SOL    HW1 1268   1.174   1.151   1.996
  123SOL    HW2 1269   1.268   1.283   1.983
  124SOL     OW 1270   3.238   2.305   0.569
  124SOL    HW1 1271   3.244   2.400   0.537
  124SOL    HW2 1272   3.143   2.274   0.563
  125SOL     OW 1273   3.552   2.646   0.553
  125SOL    HW1 1274   3.554   2.595   0.468
  125SOL    HW2 1275   3.468   2.626   0.603
  126SOL     OW 1276   3.607   2.975   3.032
  126SOL    HW1 1277   3.610   3.075   3.042
  126SOL    HW2 1278   3.610   2.932   3.122
  127SOL     OW 1279   0.082   5.543   6.355
  127SOL    HW1 1280   0.062   5.463   6.410
  127SOL    HW2 1281   0.133   5.516   6.274
  128SOL     OW 1282   5.090   3.178   1.332
  128SOL    HW1 1283   5.123   3.266   1.366
  128SOL    HW2 1284   4.991   3.172   1.346
  129SOL     OW 1285   2.848   3.660   0.143
  129SOL    HW1 1286   2.805   3.586   0.194
  129SOL    HW2 1287   2.821   3.653   0.047
  130SOL     OW 1288   6.765   0.472   4.601
  130SOL    HW1 1289   6.838   0.486   4.669
  130SOL    HW2 1290   6.796   0.405   4.534
  131SOL     OW 1291   5.114   0.343   3.940
  131SOL    HW1 1292   5.198   0.292   3.925
  131SOL    HW2 1293   5.135   0.430   3.985
  132SOL     OW 1294   2.929   2.627   1.087
  132SOL    HW1 1295   2.916   2.700   1.155
  132SOL    HW2 1296   3.015   2.642   1.038
  133SOL     OW 1297   5.336   0.539   3.895
  133SOL    HW1 1298   5.325   0.442   3.874
  133SOL    HW2 1299   5.412   0.577   3.842
  134SOL     OW 1300   6.832   0.437   3.199
  134SOL    HW1 1301   6.753   0.427   3.259
  134SOL    HW2 1302   6.916   0.433   3.253
  135SOL     OW 1303   5.167   3.668   4.439
  135SOL    HW1 1304   5.198   3.664   4.345
  135SOL    HW2 1305   5.068   3.685   4.441
  136SOL     OW 1306   1.958   5.314   5.006
  136SOL    HW1 1307   1.997   5.405   5.019
  136SOL    HW2 1308   1.970   5.260   5.090
  137SOL     OW 1309   4.224   1.336   3.802
  137SOL    HW1 1310   4.271   1.273   3.863
  137SOL    HW2 1311   4.232   1.429   3.838
  138SOL     OW 1312   0.812   4.166   3.069
  138SOL    HW1 1313   0.870   4.154   2.988
  138SOL    HW2 1314   0.866   4.148   3.151
  139SOL     OW 1315   1.955   5.860   5.575
  139SOL    HW1 1316   1.954   5.923   5.652
  139SOL    HW2 1317   2.026   5.888   5.510
  140SOL     OW 1318   1.558   6.560   4.117
  140SOL    HW1 1319   1.639   6.589   4.067
  140SOL    HW2 1320   1.511   6.488   4.066
  141SOL     OW 1321   6.918   2.927   5.572
  141SOL    HW1 1322   6.955   2.843   5.611
  141SOL    HW2 1323   6.823   2.913   5.545
  142SOL     OW 1324   2.055   3.604   2.203
  142SOL    HW1 1325   2.124   3.573   2.137
  142SOL    HW2 1326   2.059   3.545   2.284
  143SOL     OW 1327   5.396   6.060   1.052
  143SOL    HW1 1328   5.417   6.084   0.957
  143SOL    HW2 1329   5.447   6.120   1.114
  144SOL     OW 1330   2.073   4.532   5.318
  144SOL    HW1 1331   2.138   4.493   5.384
  144SOL    HW2 1332   2.004   4.464   5.295
  145SOL     OW 1333   2.386   5.498   1.200
  145SOL    HW1 1334   2.411   5.401   1.200
  145SOL    HW2 1335   2.458   5.550   1.154
  146SOL     OW 1336   5.009   0.635   0.097
  146SOL    HW1 1337   5.023   0.734   0.086
  146SOL    HW2 1338   4.938   0.604   0.033
  147SOL     OW 1339   5.342   1.077   5.901
  147SOL    HW1 1340   5.253   1.086   5.856
  147SOL    HW2 1341   5.404   1.147   5.866
  148SOL     OW 1342   0.636   5.471   1.399
  148SOL    HW1 1343   0.600   5.559   1.430
  148SOL    HW2 1344   0.609   5.456   1.304
  149SOL     OW 1345   3.429   1.940   4.987
  149SOL    HW1 1346   3.398   1.846   4.976
  149SOL    HW2 1347   3.392   1.996   4.913
  150SOL     OW 1348   5.242   0.536   6.408
  150SOL    HW1 1349   5.173   0.600   6.443
  150SOL    HW2 1350   5.228   0.521   6.311
  151SOL     OW 1351   3.972   0.791   2.099
  151SOL    HW1 1352   3.978   0.813   2.197
  151SOL    HW2 1353   3.881   0.814   2.065
  152SOL     OW 1354   0.187   1.964   0.061
  152SOL    HW1 1355   0.225   1.886   0.012
  152SOL    HW2 1356   0.169   2.038   7.023
  153SOL     OW 1357   3.141   6.655   2.943
  153SOL    HW1 1358   3.071   6.590   2.915
  153SOL    HW2 1359   3.224   6.606   2.970
  154SOL     OW 1360   0.321   3.288   0.721
  154SOL    HW1 1361   0.236   3.320   0.763
  154SOL    HW2 1362   0.361   3.215   0.776
  155SOL     OW 1363   0.899   0.792   3.128
  155SOL    HW1 1364   0.939   0.863   3.185
  155SOL    HW2 1365   0.969   0.752   3.069
  156SOL     OW 1366   6.740   0.302   6.897
  156SOL    HW1 1367   6.781   0.393   6.901
  156SOL    HW2 1368   6.757   0.262   6.807
  157SOL     OW 1369   5.576   3.531   0.501
  157SOL    HW1 1370   5.515   3.494   0.572
  157SOL    HW2 1371   5.530   3.606   0.454
  158SOL     OW 1372   1.910   2.561   1.103
  158SOL    HW1 1373   1.968   2.481   1.119
  158SOL    HW2 1374   1.836   2.563   1.170
  159SOL     OW 1375   4.056   5.044   1.379
  159SOL    HW1 1376   4.119   5.007   1.311
  159SOL    HW2 1377   4.033   4.973   1.445
  160SOL     OW 1378   5.988   0.411   0.748
  160SOL    HW1 1379   6.020   0.438   0.657
  160SOL    HW2 1380   6.043   0.457   0.817
  161SOL     OW 1381   1.654   0.265   2.571
  161SOL    HW1 1382   1.639   0.263   2.472
  161SOL    HW2 1383   1.716   0.191   2.598
  162SOL     OW 1384   3.307   6.184   6.775
  162SOL    HW1 1385   3.207   6.187   6.767
  162SOL    HW2 1386   3.348   6.214   6.689
  163SOL     OW 1387   0.657   5.777   2.644
  163SOL    HW1 1388   0.693   5.823   2.725
  163SOL    HW2 1389   0.641   5.680   2.665
  164SOL     OW 1390   0.927   3.463   2.732
  164SOL    HW1 1391   0.967   3.502   2.649
  164SOL    HW2 1392   0.917   3.364   2.720
  165SOL     OW 1393   5.522   5.501   7.016
  165SOL    HW1 1394   5.571   5.468   0.070
  165SOL    HW2 1395   5.490   5.595   0.006
  166SOL     OW 1396   0.280   3.764   1.909
  166SOL    HW1 1397   0.261   3.745   2.005
  166SOL    HW2 1398   0.358   3.710   1.879
  167SOL     OW 1399   6.413   1.592   6.366
  167SOL    HW1 1400   6.359   1.526   6.314
  167SOL    HW2 1401   6.492   1.546   6.407
  168SOL     OW 1402   4.156   2.263   1.296
  168SOL    HW1 1403   4.187   2.354   1.324
  168SOL    HW2 1404   4.146   2.205   1.376
  169SOL     OW 1405   5.615   2.498   6.770
  169SOL    HW1 1406   5.640   2.549   6.687
  169SOL    HW2 1407   5.653   2.405   6.764
  170SOL     OW 1408   0.047   5.721   2.450
  170SOL    HW1 1409   0.015   5.696   2.542
  170SOL    HW2 1410   6.996   5.718   2.387
  171SOL     OW 1411   2.480   4.474   0.396
  171SOL    HW1 1412   2.572   4.472   0.357
  171SOL    HW2 1413   2.424   4.405   0.351
  172SOL     OW 1414   5.667   2.050   3.040
  172SOL    HW1 1415   5.694   1.989   3.114
  172SOL    HW2 1416   5.590   2.107   3.070
  173SOL     OW 1417   5.719   1.508   4.872
  173SOL    HW1 1418   5.646   1.456   4.828
  173SOL    HW2 1419   5.700   1.606   4.864
  174SOL     OW 1420   4.643   5.244   3.367
  174SOL    HW1 1421   4.710   5.317   3.355
  174SOL    HW2 1422   4.592   5.232   3.282
  175SOL     OW 1423   3.303   0.957   0.959
  175SOL    HW1 1424   3.359   0.954   0.877
  175SOL    HW2 1425   3.341   1.024   1.023
  176SOL     OW 1426   5.267   5.010   2.386
  176SOL    HW1 1427   5.282   4.964   2.474
  176SOL    HW2 1428   5.266   4.942   2.313
  177SOL     OW 1429   4.964   3.356   4.686
  177SOL    HW1 1430   4.882   3.314   4.724
  177SOL    HW2 1431   4.948   3.380   4.590
  178SOL     OW 1432   2.996   4.805   5.491
  178SOL    HW1 1433   2.946   4.720   5.510
  178SOL    HW2 1434   3.013   4.812   5.393
  179SOL     OW 1435   4.236   0.336   6.698
  179SOL    HW1 1436   4.257   0.310   6.792
  179SOL    HW2 1437   4.138   0.323   6.681
  180SOL     OW 1438   2.332   6.980   0.667
  180SOL    HW1 1439   2.352   6.951   0.760
  180SOL    HW2 1440   2.234   6.968   0.649
  181SOL     OW 1441   3.036   3.308   5.814
  181SOL    HW1 1442   2.973   3.385   5.805
  181SOL    HW2 1443   3.107   3.315   5.744
  182SOL     OW 1444   4.037   2.443   6.351
  182SOL    HW1 1445   4.127   2.400   6.359
  182SOL    HW2 1446   4.006   2.475   6.440
  183SOL     OW 1447   3.477   2.147   3.791
  183SOL    HW1 1448   3.416   2.093   3.734
  183SOL    HW2 1449   3.570   2.112   3.784
  184SOL     OW 1450   0.344   6.653   3.318
  184SOL    HW1 1451   0.423   6.603   3.352
  184SOL    HW2 1452   0.371   6.709   3.240
  185SOL     OW 1453   1.332   1.328   5.035
  185SOL    HW1 1454   1.347   1.234   5.067
  185SOL    HW2 1455   1.333   1.329   4.935
  186SOL     OW 1456   5.612   0.934   4.445
  186SOL    HW1 1457   5.552   0.872   4.396
  186SOL    HW2 1458   5.579   0.947   4.539
  187SOL     OW 1459   5.629   6.906   2.173
  187SOL    HW1 1460   5.565   6.965   2.124
  187SOL    HW2 1461   5.723   6.932   2.150
  188SOL     OW 1462   0.473   3.252   3.785
  188SOL    HW1 1463   0.450   3.343   3.821
  188SOL    HW2 1464   0.550   3.260   3.721
  189SOL     OW 1465   1.707   4.787   6.660
  189SOL    HW1 1466   1.647   4.867   6.665
  189SOL    HW2 1467   1.761   4.791   6.575
  190SOL     OW 1468   6.256   4.548   6.104
  190SOL    HW1 1469   6.243   4.535   6.006
  190SOL    HW2 1470   6.338   4.603   6.120
  191SOL     OW 1471   6.518   1.294   6.700
  191SOL    HW1 1472   6.542   1.239   6.781
  191SOL    HW2 1473   6.482   1.382   6.729
  192SOL     OW 1474   0.352   4.696   1.457
  192SOL    HW1 1475   0.298   4.686   1.374
  192SOL    HW2 1476   0.418   4.620   1.463
  193SOL     OW 1477   5.212   4.044   5.166
  193SOL    HW1 1478   5.211   4.034   5.265
  193SOL    HW2 1479   5.288   3.991   5.128
  194SOL     OW 1480   3.515   6.117   3.407
  194SOL    HW1 1481   3.472   6.179   3.472
  194SOL    HW2 1482   3.606   6.093   3.439
  195SOL     OW 1483   1.782   1.080   3.423
  195SOL    HW1 1484   1.815   0.997   3.377
  195SOL    HW2 1485   1.823   1.086   3.514
  196SOL     OW 1486   3.114   0.069   6.596
  196SOL    HW1 1487   3.145   7.019   6.652
  196SOL    HW2 1488   3.182   0.141   6.598
  197SOL     OW 1489   2.922   6.885   0.519
  197SOL    HW1 1490   2.838   6.932   0.492
  197SOL    HW2 1491   3.000   6.946   0.505
  198SOL     OW 1492   4.719   6.839   2.169
  198SOL    HW1 1493   4.718   6.928   2.124
  198SOL    HW2 1494   4.690   6.768   2.104
  199SOL     OW 1495   6.676   1.176   3.048
  199SOL    HW1 1496   6.584   1.212   3.038
  199SOL    HW2 1497   6.711   1.197   3.139
  200SOL     OW 1498   0.919   4.235   1.906
  200SOL    HW1 1499   0.893   4.221   2.002
  200SOL    HW2 1500   0.857   4.184   1.847
  201SOL     OW 1501   4.758   6.897   6.473
  201SOL    HW1 1502   4.782   6.862   6.563
  201SOL    HW2 1503   4.662   6.927   6.473
  202SOL     OW 1504   5.708   0.263   5.725
  202SOL    HW1 1505   5.752   0.293   5.809
  202SOL    HW2 1506   5.626   0.318   5.709
  203SOL     OW 1507   5.109   2.183   4.775
  203SOL    HW1 1508   5.144   2.102   4.728
  203SOL    HW2 1509   5.152   2.265   4.738
  204SOL     OW 1510   6.897   1.182   6.657
  204SOL    HW1 1511   6.900   1.252   6.728
  204SOL    HW2 1512   6.950   1.102   6.686
  205SOL     OW 1513   0.853   1.023   2.131
  205SOL    HW1 1514   0.892   1.048   2.220
  205SOL    HW2 1515   0.835   1.106   2.079
  206SOL     OW 1516   0.366   5.091   2.677
  206SOL    HW1 1517   0.369   5.048   2.767
  206SOL    HW2 1518   0.438   5.160   2.671
  207SOL     OW 1519   4.265   0.424   4.481
  207SOL    HW1 1520   4.263   0.385   4.573
  207SOL    HW2 1521   4.292   0.354   4.415
  208SOL     OW 1522   5.079   3.974   5.679
  208SOL    HW1 1523   5.046   3.879   5.681
  208SOL    HW2 1524   5.162   3.982   5.735
  209SOL     OW 1525   1.132   5.140   4.911
  209SOL    HW1 1526   1.068   5.152   4.987
  209SOL    HW2 1527   1.148   5.042   4.897
  210SOL     OW 1528   4.726   2.260   1.533
  210SOL    HW1 1529   4.726   2.162   1.554
  210SOL    HW2 1530   4.706   2.313   1.615
  211SOL     OW 1531   1.296   6.297   4.399
  211SOL    HW1 1532   1.345   6.380   4.376
  211SOL    HW2 1533   1.215   6.287   4.340
  212SOL     OW 1534   2.127   4.622   2.124
  212SOL    HW1 1535   2.156   4.716   2.109
  212SOL    HW2 1536   2.107   4.579   2.036
  213SOL     OW 1537   3.680   0.861   6.272
  213SOL    HW1 1538   3.707   0.769   6.243
  213SOL    HW2 1539   3.756   0.925   6.257
  214SOL     OW 1540   3.820   6.090   2.059
  214SOL    HW1 1541   3.766   6.072   2.141
  214SOL    HW2 1542   3.877   6.011   2.037
  215SOL     OW 1543   3.142   4.090   1.922
  215SOL    HW1 1544   3.112   4.178   1.959
  215SOL    HW2 1545   3.151   4.096   1.823
  216SOL     OW 1546   1.759   6.341   4.914
  216SOL    HW1 1547   1.736   6.272   4.846
  216SOL    HW2 1548   1.681   6.355   4.975
  217SOL     OW 1549   2.371   2.253   4.061
  217SOL    HW1 1550   2.423   2.177   4.100
  217SOL    HW2 1551   2.324   2.222   3.978
  218SOL     OW 1552   0.707   3.294   4.511
  218SOL    HW1 1553   0.694   3.248   4.424
  218SOL    HW2 1554   0.804   3.316   4.524
  219SOL     OW 1555   3.351   6.581   6.501
  219SOL    HW1 1556   3.281   6.562   6.433
  219SOL    HW2 1557   3.313   6.639   6.573
  220SOL     OW 1558   3.655   6.611   6.540
  220SOL    HW1 1559   3.713   6.655   6.471
  220SOL    HW2 1560   3.567   6.589   6.501
  221SOL     OW 1561   0.047   3.891   2.558
  221SOL    HW1 1562   0.108   3.891   2.479
  221SOL    HW2 1563   0.072   3.817   2.620
  222SOL     OW 1564   2.380   5.149   5.710
  222SOL    HW1 1565   2.345   5.205   5.635
  222SOL    HW2 1566   2.318   5.157   5.788
  223SOL     OW 1567   6.054   3.462   0.915
  223SOL    HW1 1568   5.989   3.510   0.856
  223SOL    HW2 1569   6.004   3.393   0.969
  224SOL     OW 1570   2.896   1.715   3.715
  224SOL    HW1 1571   2.875   1.813   3.714
  224SOL    HW2 1572   2.890   1.679   3.622
  225SOL     OW 1573   4.857   1.392   6.160
  225SOL    HW1 1574   4.930   1.435   6.214
  225SOL    HW2 1575   4.775   1.383   6.217
  226SOL     OW 1576   0.710   0.179   6.045
  226SOL    HW1 1577   0.807   0.199   6.056
  226SOL    HW2 1578   0.698   0.081   6.026
  227SOL     OW 1579   1.414   4.379   1.981
  227SOL    HW1 1580   1.450   4.289   2.006
  227SOL    HW2 1581   1.490   4.438   1.952
  228SOL     OW 1582   3.499   6.197   3.710
  228SOL    HW1 1583   3.515   6.276   3.650
  228SOL    HW2 1584   3.451   6.226   3.792
  229SOL     OW 1585   5.394   6.532   0.593
  229SOL    HW1 1586   5.411   6.618   0.546
  229SOL    HW2 1587   5.381   6.459   0.526
  230SOL     OW 1588   2.534   4.542   2.717
  230SOL    HW1 1589   2.435   4.543   2.731
  230SOL    HW2 1590   2.562   4.625   2.668
  231SOL     OW 1591   6.422   2.153   6.313
  231SOL    HW1 1592   6.518   2.170   6.336
  231SOL    HW2 1593   6.381   2.094   6.383
  232SOL     OW 1594   1.015   4.165   6.065
  232SOL    HW1 1595   0.996   4.137   6.159
  232SOL    HW2 1596   0.949   4.123   6.003
  233SOL     OW 1597   1.986   0.846   3.990
  233SOL    HW1 1598   2.047   0.858   3.912
  233SOL    HW2 1599   1.977   0.933   4.039
  234SOL     OW 1600   2.982   5.871   5.308
  234SOL    HW1 1601   3.032   5.801   5.258
  234SOL    HW2 1602   2.889   5.877   5.273
  235SOL     OW 1603   2.915   3.387   2.217
  235SOL    HW1 1604   2.880   3.477   2.191
  235SOL    HW2 1605   2.901   3.374   2.315
  236SOL     OW 1606   6.019   2.725   6.895
  236SOL    HW1 1607   5.997   2.627   6.900
  236SOL    HW2 1608   6.111   2.736   6.858
  237SOL     OW 1609   6.376   6.787   0.771
  237SOL    HW1 1610   6.421   6.698   0.777
  237SOL    HW2 1611   6.426   6.854   0.826
  238SOL     OW 1612   5.985   2.018   6.877
  238SOL    HW1 1613   5.910   1.964   6.839
  238SOL    HW2 1614   5.964   2.040   6.972
  239SOL     OW 1615   6.652   5.820   6.923
  239SOL    HW1 1616   6.702   5.872   6.853
  239SOL    HW2 1617   6.566   5.867   6.943
  240SOL     OW 1618   0.215   3.199   5.912
  240SOL    HW1 1619   0.129   3.236   5.946
  240SOL    HW2 1620   0.232   3.234   5.820
  241SOL     OW 1621   1.188   0.374   4.465
  241SOL    HW1 1622   1.206   0.310   4.390
  241SOL    HW2 1623   1.096   0.411   4.456
  242SOL     OW 1624   2.307   3.098   6.160
  242SOL    HW1 1625   2.361   3.167   6.208
  242SOL    HW2 1626   2.322   3.106   6.061
  243SOL     OW 1627   5.216   6.866   6.788
  243SOL    HW1 1628   5.275   6.904   6.860
  243SOL    HW2 1629   5.129   6.915   6.787
  244SOL     OW 1630   4.853   3.116   4.245
  244SOL    HW1 1631   4.759   3.149   4.238
  244SOL    HW2 1632   4.865   3.070   4.333
  245SOL     OW 1633   0.068   2.415   4.869
  245SOL    HW1 1634   0.082   2.440   4.965
  245SOL    HW2 1635   0.029   2.323   4.865
  246SOL     OW 1636   5.444   2.904   3.159
  246SOL    HW1 1637   5.364   2.945   3.203
  246SOL    HW2 1638   5.449   2.807   3.183
  247SOL     OW 1639   1.948   1.847   2.191
  247SOL    HW1 1640   1.897   1.762   2.178
  247SOL    HW2 1641   1.895   1.909   2.249
  248SOL     OW 1642   4.614   2.202   4.682
  248SOL    HW1 1643   4.660   2.230   4.766
  248SOL    HW2 1644   4.516   2.193   4.698
  249SOL     OW 1645   4.764   0.085   5.250
  249SOL    HW1 1646   4.863   0.068   5.247
  249SOL    HW2 1647   4.715   7.025   5.243
  250SOL     OW 1648   4.784   2.373   5.779
  250SOL    HW1 1649   4.814   2.288   5.822
  250SOL    HW2 1650   4.846   2.447   5.804
  251SOL     OW 1651   4.393   4.756   6.285
  251SOL    HW1 1652   4.374   4.852   6.266
  251SOL    HW2 1653   4.320   4.719   6.343
  252SOL     OW 1654   0.136   0.595   0.015
  252SOL    HW1 1655   0.051   0.590   0.069
  252SOL    HW2 1656   0.163   0.503   7.013
  253SOL     OW 1657   2.211   4.034   0.230
  253SOL    HW1 1658   2.142   4.007   0.297
  253SOL    HW2 1659   2.169   4.041   0.140
  254SOL     OW 1660   6.686   2.763   3.221
  254SOL    HW1 1661   6.644   2.842   3.175
  254SOL    HW2 1662   6.651   2.679   3.180
  255SOL     OW 1663   2.046   3.163   3.891
  255SOL    HW1 1664   2.081   3.102   3.962
  255SOL    HW2 1665   1.948   3.174   3.902
  256SOL     OW 1666   6.497   4.671   0.365
  256SOL    HW1 1667   6.535   4.594   0.417
  256SOL    HW2 1668   6.398   4.674   0.377
  257SOL     OW 1669   3.580   5.267   5.340
  257SOL    HW1 1670   3.612   5.355   5.305
  257SOL    HW2 1671   3.643   5.195   5.311
  258SOL     OW 1672   5.403   4.785   4.605
  258SOL    HW1 1673   5.355   4.703   4.634
  258SOL    HW2 1674   5.388   4.858   4.673
  259SOL     OW 1675   1.902   2.807   2.390
  259SOL    HW1 1676   1.838   2.826   2.465
  259SOL    HW2 1677   1.989   2.851   2.409
  260SOL     OW 1678   4.458   1.071   1.304
  260SOL    HW1 1679   4.553   1.074   1.336
  260SOL    HW2 1680   4.430   1.162   1.275
  261SOL     OW 1681   6.640   3.709   1.244
  261SOL    HW1 1682   6.610   3.653   1.321
  261SOL    HW2 1683   6.601   3.672   1.160
  262SOL     OW 1684   0.506   3.961   1.657
  262SOL    HW1 1685   0.506   3.886   1.723
  262SOL    HW2 1686   0.586   4.020   1.673
  263SOL     OW 1687   0.853   1.193   3.775
  263SOL    HW1 1688   0.928   1.141   3.816
  263SOL    HW2 1689   0.766   1.161   3.813
  264SOL     OW 1690   5.525   4.237   4.897
  264SOL    HW1 1691   5.460   4.213   4.825
  264SOL    HW2 1692   5.487   4.311   4.953
  265SOL     OW 1693   4.730   4.242   3.160
  265SOL    HW1 1694   4.768   4.155   3.129
  265SOL    HW2 1695   4.696   4.231   3.254
  266SOL     OW 1696   3.470   3.073   5.813
  266SOL    HW1 1697   3.407   3.141   5.851
  266SOL    HW2 1698   3.533   3.043   5.884
  267SOL     OW 1699   6.861   2.374   5.916
  267SOL    HW1 1700   6.794   2.447   5.929
  267SOL    HW2 1701   6.831   2.292   5.965
  268SOL     OW 1702   4.777   5.992   4.824
  268SOL    HW1 1703   4.766   6.028   4.917
  268SOL    HW2 1704   4.813   6.064   4.765
  269SOL     OW 1705   1.870   1.778   0.291
  269SOL    HW1 1706   1.929   1.697   0.283
  269SOL    HW2 1707   1.778   1.755   0.259
  270SOL     OW 1708   0.186   0.468   2.143
  270SOL    HW1 1709   0.204   0.447   2.047
  270SOL    HW2 1710   0.165   0.565   2.153
  271SOL     OW 1711   2.713   2.490   0.104
  271SOL    HW1 1712   2.744   2.575   0.062
  271SOL    HW2 1713   2.657   2.511   0.184
  272SOL     OW 1714   3.177   5.352   4.245
  272SOL    HW1 1715   3.146   5.352   4.150
  272SOL    HW2 1716   3.256   5.413   4.254
  273SOL     OW 1717   1.384   5.543   5.201
  273SOL    HW1 1718   1.290   5.564   5.226
  273SOL    HW2 1719   1.385   5.469   5.133
  274SOL     OW 1720   5.568   2.153   4.040
  274SOL    HW1 1721   5.591   2.203   4.124
  274SOL    HW2 1722   5.503   2.207   3.987
  275SOL     OW 1723   0.083   5.963   6.161
  275SOL    HW1 1724   0.062   5.947   6.064
  275SOL    HW2 1725   0.034   5.897   6.217
  276SOL     OW 1726   6.776   5.152   3.873
  276SOL    HW1 1727   6.736   5.065   3.844
  276SOL    HW2 1728   6.715   5.227   3.847
  277SOL     OW 1729   2.771   1.389   6.820
  277SOL    HW1 1730   2.854   1.409   6.767
  277SOL    HW2 1731   2.700   1.456   6.798
  278SOL     OW 1732   6.331   3.613   2.049
  278SOL    HW1 1733   6.423   3.581   2.028
  278SOL    HW2 1734   6.267   3.535   2.048
  279SOL     OW 1735   6.072   2.655   4.426
  279SOL    HW1 1736   5.974   2.639   4.418
  279SOL    HW2 1737   6.119   2.569   4.445
  280SOL     OW 1738   3.975   6.980   2.899
  280SOL    HW1 1739   4.047   0.010   2.859
  280SOL    HW2 1740   3.900   6.971   2.833
  281SOL     OW 1741   2.667   4.665   2.935
  281SOL    HW1 1742   2.621   4.618   3.010
  281SOL    HW2 1743   2.698   4.598   2.868
  282SOL     OW 1744   3.942   2.518   5.371
  282SOL    HW1 1745   4.020   2.527   5.308
  282SOL    HW2 1746   3.925   2.421   5.389
  283SOL     OW 1747   6.252   0.769   5.880
  283SOL    HW1 1748   6.261   0.670   5.879
  283SOL    HW2 1749   6.342   0.811   5.863
  284SOL     OW 1750   0.509   4.671   5.153
  284SOL    HW1 1751   0.595   4.620   5.146
  284SOL    HW2 1752   0.462   4.646   5.238
  285SOL     OW 1753   4.988   5.839   0.280
  285SOL    HW1 1754   5.009   5.849   0.183
  285SOL    HW2 1755   5.067   5.869   0.335
  286SOL     OW 1756   4.165   4.827   5.028
  286SOL    HW1 1757   4.068   4.849   5.035
  286SOL    HW2 1758   4.176   4.728   5.018
  287SOL     OW 1759   0.668   5.331   6.810
  287SOL    HW1 1760   0.643   5.240   6.775
  287SOL    HW2 1761   0.600   5.398   6.780
  288SOL     OW 1762   4.163   1.184   0.503
  288SOL    HW1 1763   4.217   1.144   0.429
  288SOL    HW2 1764   4.086   1.234   0.464
  289SOL     OW 1765   0.283   5.345   5.127
  289SOL    HW1 1766   0.225   5.306   5.055
  289SOL    HW2 1767   0.291   5.280   5.202
  290SOL     OW 1768   4.929   1.579   3.871
  290SOL    HW1 1769   5.026   1.592   3.851
  290SOL    HW2 1770   4.917   1.503   3.934
  291SOL     OW 1771   3.678   0.986   4.187
  291SOL    HW1 1772   3.770   0.948   4.176
  291SOL    HW2 1773   3.684   1.078   4.224
  292SOL     OW 1774   4.154   1.614   3.853
  292SOL    HW1 1775   4.253   1.604   3.847
  292SOL    HW2 1776   4.130   1.711   3.847
  293SOL     OW 1777   3.706   6.123   1.625
  293SOL    HW1 1778   3.720   6.222   1.621
  293SOL    HW2 1779   3.776   6.082   1.683
  294SOL     OW 1780   6.197   5.766   6.902
  294SOL    HW1 1781   6.134   5.785   6.827
  294SOL    HW2 1782   6.157   5.697   6.962
  295SOL     OW 1783   2.375   1.866   5.402
  295SOL    HW1 1784   2.464   1.910   5.414
  295SOL    HW2 1785   2.306   1.935   5.384
  296SOL     OW 1786   6.389   2.426   2.011
  296SOL    HW1 1787   6.458   2.391   1.948
  296SOL    HW2 1788   6.314   2.359   2.018
  297SOL     OW 1789   3.202   4.858   2.876
  297SOL    HW1 1790   3.137   4.798   2.923
  297SOL    HW2 1791   3.251   4.913   2.945
  298SOL     OW 1792   4.132   7.022   7.024
  298SOL    HW1 1793   4.137   0.078   0.053
  298SOL    HW2 1794   4.211   7.020   6.962
  299SOL     OW 1795   4.619   2.520   6.127
  299SOL    HW1 1796   4.540   2.549   6.182
  299SOL    HW2 1797   4.588   2.456   6.056
  300SOL     OW 1798   4.565   0.709   2.462
  300SOL    HW1 1799   4.526   0.625   2.426
  300SOL    HW2 1800   4.600   0.764   2.386
  301SOL     OW 1801   4.933   1.732   0.836
  301SOL    HW1 1802   4.913   1.785   0.918
  301SOL    HW2 1803   4.969   1.793   0.765
  302SOL     OW 1804   6.617   0.675   2.840
  302SOL    HW1 1805   6.522   0.665   2.811
  302SOL    HW2 1806   6.646   0.592   2.889
  303SOL     OW 1807   6.466   5.954   2.235
  303SOL    HW1 1808   6.479   5.859   2.206
  303SOL    HW2 1809   6.526   5.973   2.313
  304SOL     OW 1810   2.138   6.154   6.275
  304SOL    HW1 1811   2.196   6.235   6.287
  304SOL    HW2 1812   2.048   6.171   6.315
  305SOL     OW 1813   1.239   2.984   0.724
  305SOL    HW1 1814   1.257   3.004   0.628
  305SOL    HW2 1815   1.147   2.945   0.733
  306SOL     OW 1816   0.438   1.061   2.784
  306SOL    HW1 1817   0.505   1.121   2.829
  306SOL    HW2 1818   0.475   0.969   2.777
  307SOL     OW 1819   4.697   4.438   0.279
  307SOL    HW1 1820   4.678   4.340   0.287
  307SOL    HW2 1821   4.695   4.479   0.370
  308SOL     OW 1822   5.835   3.333   4.555
  308SOL    HW1 1823   5.845   3.247   4.604
  308SOL    HW2 1824   5.758   3.327   4.491
  309SOL     OW 1825   1.560   5.992   0.132
  309SOL    HW1 1826   1.614   6.048   0.069
  309SOL    HW2 1827   1.581   5.896   0.118
  310SOL     OW 1828   5.259   5.743   4.384
  310SOL    HW1 1829   5.181   5.729   4.322
  310SOL    HW2 1830   5.298   5.834   4.368
  311SOL     OW 1831   3.167   5.517   2.712
  311SOL    HW1 1832   3.209   5.607   2.701
  311SOL    HW2 1833   3.073   5.527   2.745
  312SOL     OW 1834   3.490   1.837   4.355
  312SOL    HW1 1835   3.575   1.817   4.404
  312SOL    HW2 1836   3.461   1.930   4.376
  313SOL     OW 1837   3.562   4.162   2.480
  313SOL    HW1 1838   3.607   4.141   2.393
  313SOL    HW2 1839   3.557   4.262   2.491
  314SOL     OW 1840   2.441   4.690   5.976
  314SOL    HW1 1841   2.396   4.737   6.052
  314SOL    HW2 1842   2.530   4.732   5.959
  315SOL     OW 1843   0.839   2.722   4.158
  315SOL    HW1 1844   0.895   2.773   4.093
  315SOL    HW2 1845   0.771   2.783   4.198
  316SOL     OW 1846   3.408   0.477   4.573
  316SOL    HW1 1847   3.344   0.405   4.546
  316SOL    HW2 1848   3.357   0.552   4.615
  317SOL     OW 1849   7.017   2.010   1.362
  317SOL    HW1 1850   6.949   2.082   1.351
  317SOL    HW2 1851   0.008   1.967   1.273
  318SOL     OW 1852   7.009   6.643   6.844
  318SOL    HW1 1853   0.058   6.696   6.883
  318SOL    HW2 1854   6.962   6.592   6.916
  319SOL     OW 1855   6.621   1.382   3.624
  319SOL    HW1 1856   6.700   1.443   3.622
  319SOL    HW2 1857   6.575   1.391   3.713
  320SOL     OW 1858   5.541   2.658   0.095
  320SOL    HW1 1859   5.490   2.609   0.025
  320SOL    HW2 1860   5.635   2.674   0.063
  321SOL     OW 1861   3.838   2.077   0.065
  321SOL    HW1 1862   3.748   2.075   0.109
  321SOL    HW2 1863   3.846   2.000   0.001
  322SOL     OW 1864   2.999   3.225   4.171
  322SOL    HW1 1865   3.009   3.264   4.263
  322SOL    HW2 1866   2.945   3.287   4.114
  323SOL     OW 1867   0.981   2.652   5.998
  323SOL    HW1 1868   0.900   2.655   5.939
  323SOL    HW2 1869   1.057   2.611   5.948
  324SOL     OW 1870   3.083   0.404   3.044
  324SOL    HW1 1871   3.041   0.329   3.096
  324SOL    HW2 1872   3.100   0.481   3.105
  325SOL     OW 1873   0.516   2.776   1.745
  325SOL    HW1 1874   0.611   2.762   1.716
  325SOL    HW2 1875   0.462   2.809   1.668
  326SOL     OW 1876   0.700   4.045   6.354
  326SOL    HW1 1877   0.698   3.987   6.273
  326SOL    HW2 1878   0.640   4.124   6.339
  327SOL     OW 1879   1.915   4.790   2.327
  327SOL    HW1 1880   2.013   4.772   2.339
  327SOL    HW2 1881   1.885   4.854   2.398
  328SOL     OW 1882   1.466   5.790   1.873
  328SOL    HW1 1883   1.450   5.884   1.842
  328SOL    HW2 1884   1.548   5.754   1.828
  329SOL     OW 1885   2.931   3.503   5.521
  329SOL    HW1 1886   3.021   3.459   5.522
  329SOL    HW2 1887   2.902   3.517   5.426
  330SOL     OW 1888   3.209   6.528   1.306
  330SOL    HW1 1889   3.241   6.473   1.229
  330SOL    HW2 1890   3.145   6.598   1.272
  331SOL     OW 1891   4.201   5.390   0.614
  331SOL    HW1 1892   4.268   5.320   0.638
  331SOL    HW2 1893   4.131   5.394   0.686
  332SOL     OW 1894   5.272   2.904   5.531
  332SOL    HW1 1895   5.296   2.962   5.452
  332SOL    HW2 1896   5.194   2.846   5.507
  333SOL     OW 1897   4.430   0.792   5.695
  333SOL    HW1 1898   4.529   0.783   5.706
  333SOL    HW2 1899   4.399   0.878   5.736
  334SOL     OW 1900   3.493   1.696   0.103
  334SOL    HW1 1901   3.511   1.768   0.036
  334SOL    HW2 1902   3.394   1.682   0.110
  335SOL     OW 1903   3.995   0.059   6.245
  335SOL    HW1 1904   4.055   0.132   6.275
  335SOL    HW2 1905   3.913   0.057   6.302
  336SOL     OW 1906   2.863   1.170   3.297
  336SOL    HW1 1907   2.880   1.136   3.204
  336SOL    HW2 1908   2.831   1.095   3.354
  337SOL     OW 1909   6.999   3.295   5.987
  337SOL    HW1 1910   6.924   3.266   5.926
  337SOL    HW2 1911   6.999   3.394   5.995
  338SOL     OW 1912   2.823   2.390   1.160
  338SOL    HW1 1913   2.860   2.478   1.129
  338SOL    HW2 1914   2.843   2.319   1.093
  339SOL     OW 1915   4.649   5.697   4.649
  339SOL    HW1 1916   4.624   5.785   4.608
  339SOL    HW2 1917   4.645   5.705   4.749
  340SOL     OW 1918   5.485   3.820   4.722
  340SOL    HW1 1919   5.531   3.811   4.810
  340SOL    HW2 1920   5.395   3.777   4.726
  341SOL     OW 1921   6.181   6.668   4.310
  341SOL    HW1 1922   6.099   6.688   4.365
  341SOL    HW2 1923   6.252   6.629   4.369
  342SOL     OW 1924   5.509   3.756   0.367
  342SOL    HW1 1925   5.501   3.855   0.382
  342SOL    HW2 1926   5.491   3.735   0.271
  343SOL     OW 1927   0.855   5.794   1.408
  343SOL    HW1 1928   0.836   5.737   1.327
  343SOL    HW2 1929   0.862   5.890   1.381
  344SOL     OW 1930   0.698   3.155   1.664
  344SOL    HW1 1931   0.755   3.200   1.732
  344SOL    HW2 1932   0.607   3.137   1.704
  345SOL     OW 1933   5.514   2.349   3.591
  345SOL    HW1 1934   5.581   2.320   3.659
  345SOL    HW2 1935   5.499   2.447   3.599
  346SOL     OW 1936   1.845   1.150   2.561
  346SOL    HW1 1937   1.860   1.055   2.587
  346SOL    HW2 1938   1.813   1.202   2.641
  347SOL     OW 1939   2.841   5.529   6.924
  347SOL    HW1 1940   2.833   5.625   6.896
  347SOL    HW2 1941   2.835   5.523   7.024
  348SOL     OW 1942   5.331   4.161   2.835
  348SOL    HW1 1943   5.388   4.087   2.872
  348SOL    HW2 1944   5.266   4.123   2.770
  349SOL     OW 1945   6.938   4.995   1.068
  349SOL    HW1 1946   6.944   4.895   1.074
  349SOL    HW2 1947   7.007   5.029   1.004
  350SOL     OW 1948   2.904   2.164   1.029
  350SOL    HW1 1949   3.004   2.166   1.034
  350SOL    HW2 1950   2.872   2.070   1.043
  351SOL     OW 1951   3.034   3.605   0.722
  351SOL    HW1 1952   3.005   3.529   0.779
  351SOL    HW2 1953   2.984   3.602   0.635
  352SOL     OW 1954   3.382   7.001   3.549
  352SOL    HW1 1955   3.302   6.943   3.568
  352SOL    HW2 1956   3.357   0.045   3.483
  353SOL     OW 1957   3.102   0.273   0.116
  353SOL    HW1 1958   3.176   0.209   0.139
  353SOL    HW2 1959   3.075   0.260   0.021
  354SOL     OW 1960   4.454   2.409   1.511
  354SOL    HW1 1961   4.511   2.491   1.513
  354SOL    HW2 1962   4.508   2.331   1.480
  355SOL     OW 1963   1.600   4.085   2.858
  355SOL    HW1 1964   1.688   4.043   2.879
  355SOL    HW2 1965   1.526   4.029   2.895
  356SOL     OW 1966   2.071   0.414   5.777
  356SOL    HW1 1967   2.103   0.368   5.860
  356SOL    HW2 1968   2.053   0.346   5.706
  357SOL     OW 1969   6.771   6.553   5.240
  357SOL    HW1 1970   6.828   6.473   5.251
  357SOL    HW2 1971   6.826   6.636   5.252
  358SOL     OW 1972   4.688   6.480   0.652
  358SOL    HW1 1973   4.624   6.405   0.635
  358SOL    HW2 1974   4.640   6.567   0.643
  359SOL     OW 1975   3.128   2.222   1.539
  359SOL    HW1 1976   3.184   2.139   1.544
  359SOL    HW2 1977   3.038   2.203   1.577
  360SOL     OW 1978   1.276   4.021   5.518
  360SOL    HW1 1979   1.281   3.960   5.439
  360SOL    HW2 1980   1.189   4.008   5.565
  361SOL     OW 1981   6.801   6.051   2.987
  361SOL    HW1 1982   6.831   6.143   3.012
  361SOL    HW2 1983   6.826   5.987   3.060
  362SOL     OW 1984   3.150   2.500   1.258
  362SOL    HW1 1985   3.069   2.510   1.315
  362SOL    HW2 1986   3.216   2.441   1.304
  363SOL     OW 1987   5.665   3.912   3.130
  363SOL    HW1 1988   5.602   3.951   3.062
  363SOL    HW2 1989   5.759   3.934   3.104
  364SOL     OW 1990   6.121   5.014   6.759
  364SOL    HW1 1991   6.214   4.999   6.724
  364SOL    HW2 1992   6.081   4.926   6.785
  365SOL     OW 1993   5.516   0.061   1.971
  365SOL    HW1 1994   5.469   0.003   1.905
  365SOL    HW2 1995   5.484   0.156   1.961
  366SOL     OW 1996   5.353   1.081   6.997
  366SOL    HW1 1997   5.428   1.031   6.955
  366SOL    HW2 1998   5.297   1.018   0.025
  367SOL     OW 1999   5.854   2.543   1.213
  367SOL    HW1 2000   5.847   2.570   1.309
  367SOL    HW2 2001   5.780   2.478   1.192
  368SOL     OW 2002   0.365   2.889   5.650
  368SOL    HW1 2003   0.428   2.825   5.606
  368SOL    HW2 2004   0.407   2.927   5.732
  369SOL     OW 2005   5.858   5.394   2.700
  369SOL    HW1 2006   5.840   5.438   2.612
  369SOL    HW2 2007   5.929   5.324   2.688
  370SOL     OW 2008   1.605   1.666   5.038
  370SOL    HW1 2009   1.679   1.668   4.971
  370SOL    HW2 2010   1.638   1.703   5.125
  371SOL     OW 2011   1.471   4.388   5.428
  371SOL    HW1 2012   1.475   4.305   5.483
  371SOL    HW2 2013   1.381   4.397   5.386
  372SOL     OW 2014   1.527   6.917   6.464
  372SOL    HW1 2015   1.453   6.984   6.470
  372SOL    HW2 2016   1.589   6.942   6.390
  373SOL     OW 2017   6.361   6.542   4.492
  373SOL    HW1 2018   6.359   6.453   4.538
  373SOL    HW2 2019   6.396   6.612   4.555
  374SOL     OW 2020   2.535   1.715   4.112
  374SOL    HW1 2021   2.560   1.776   4.036
  374SOL    HW2 2022   2.444   1.740   4.145
  375SOL     OW 2023   1.033   4.505   3.787
  375SOL    HW1 2024   1.108   4.475   3.847
  375SOL    HW2 2025   1.035   4.604   3.779
  376SOL     OW 2026   2.136   1.050   5.503
  376SOL    HW1 2027   2.106   1.069   5.596
  376SOL    HW2 2028   2.193   1.125   5.470
  377SOL     OW 2029   1.148   1.754   0.892
  377SOL    HW1 2030   1.067   1.803   0.925
  377SOL    HW2 2031   1.126   1.705   0.808
  378SOL     OW 2032   4.915   2.473   6.447
  378SOL    HW1 2033   5.008   2.458   6.414
  378SOL    HW2 2034   4.852   2.418   6.391
  379SOL     OW 2035   6.106   2.498   1.775
  379SOL    HW1 2036   6.035   2.429   1.767
  379SOL    HW2 2037   6.070   2.578   1.822
  380SOL     OW 2038   3.182   1.379   0.855
  380SOL    HW1 2039   3.235   1.404   0.773
  380SOL    HW2 2040   3.108   1.317   0.830
  381SOL     OW 2041   1.475   4.360   2.917
  381SOL    HW1 2042   1.497   4.263   2.911
  381SOL    HW2 2043   1.502   4.406   2.832
  382SOL     OW 2044   5.853   0.640   6.851
  382SOL    HW1 2045   5.856   0.713   6.920
  382SOL    HW2 2046   5.930   0.653   6.787
  383SOL     OW 2047   4.156   4.051   6.518
  383SOL    HW1 2048   4.095   4.011   6.587
  383SOL    HW2 2049   4.250   4.050   6.551
  384SOL     OW 2050   6.925   5.153   4.106
  384SOL    HW1 2051   6.851   5.183   4.045
  384SOL    HW2 2052   6.973   5.233   4.142
  385SOL     OW 2053   3.037   4.789   5.214
  385SOL    HW1 2054   2.969   4.725   5.179
  385SOL    HW2 2055   3.129   4.749   5.206
  386SOL     OW 2056   2.786   6.711   4.717
  386SOL    HW1 2057   2.709   6.648   4.708
  386SOL    HW2 2058   2.752   6.804   4.727
  387SOL     OW 2059   1.067   6.678   2.377
  387SOL    HW1 2060   1.161   6.670   2.409
  387SOL    HW2 2061   1.060   6.646   2.283
  388SOL     OW 2062   0.933   2.059   5.688
  388SOL    HW1 2063   0.864   2.110   5.637
  388SOL    HW2 2064   0.894   1.974   5.723
  389SOL     OW 2065   3.834   3.578   1.492
  389SOL    HW1 2066   3.745   3.550   1.527
  389SOL    HW2 2067   3.837   3.678   1.484
  390SOL     OW 2068   2.954   1.559   1.777
  390SOL    HW1 2069   3.026   1.555   1.707
  390SOL    HW2 2070   2.912   1.649   1.776
  391SOL     OW 2071   2.235   2.710   6.894
  391SOL    HW1 2072   2.255   2.612   6.906
  391SOL    HW2 2073   2.282   2.762   6.965
  392SOL     OW 2074   1.536   4.198   0.585
  392SOL    HW1 2075   1.466   4.144   0.538
  392SOL    HW2 2076   1.618   4.203   0.527
  393SOL     OW 2077   1.398   4.667   6.451
  393SOL    HW1 2078   1.337   4.672   6.372
  393SOL    HW2 2079   1.352   4.705   6.532
  394SOL     OW 2080   6.760   1.840   0.121
  394SOL    HW1 2081   6.838   1.847   0.183
  394SOL    HW2 2082   6.774   1.763   0.058
  395SOL     OW 2083   4.881   3.731   3.089
  395SOL    HW1 2084   4.857   3.642   3.050
  395SOL    HW2 2085   4.976   3.752   3.068
  396SOL     OW 2086   3.136   4.016   1.662
  396SOL    HW1 2087   3.210   4.071   1.621
  396SOL    HW2 2088   3.160   3.919   1.656
  397SOL     OW 2089   5.896   1.736   5.571
  397SOL    HW1 2090   5.894   1.637   5.587
  397SOL    HW2 2091   5.810   1.766   5.530
  398SOL     OW 2092   0.788   6.779   1.901
  398SOL    HW1 2093   0.751   6.851   1.961
  398SOL    HW2 2094   0.757   6.690   1.933
  399SOL     OW 2095   6.283   5.932   2.631
  399SOL    HW1 2096   6.274   6.029   2.653
  399SOL    HW2 2097   6.358   5.893   2.685
  400SOL     OW 2098   6.257   6.542   5.594
  400SOL    HW1 2099   6.235   6.446   5.576
  400SOL    HW2 2100   6.263   6.592   5.507
  401SOL     OW 2101   5.882   0.729   6.301
  401SOL    HW1 2102   5.890   0.828   6.305
  401SOL    HW2 2103   5.818   0.703   6.229
  402SOL     OW 2104   5.567   0.379   3.614
  402SOL    HW1 2105   5.568   0.454   3.680
  402SOL    HW2 2106   5.534   0.296   3.658
  403SOL     OW 2107   3.544   2.124   4.378
  403SOL    HW1 2108   3.639   2.126   4.347
  403SOL    HW2 2109   3.492   2.194   4.330
  404SOL     OW 2110   1.725   4.998   3.947
  404SOL    HW1 2111   1.658   5.021   4.018
  404SOL    HW2 2112   1.792   4.934   3.985
  405SOL     OW 2113   1.419   3.767   1.790
  405SOL    HW1 2114   1.509   3.747   1.829
  405SOL    HW2 2115   1.350   3.712   1.835
  406SOL     OW 2116   0.766   4.161   4.508
  406SOL    HW1 2117   0.719   4.078   4.481
  406SOL    HW2 2118   0.842   4.139   4.569
  407SOL     OW 2119   1.651   0.587   4.196
  407SOL    HW1 2120   1.678   0.658   4.262
  407SOL    HW2 2121   1.578   0.531   4.235
  408SOL     OW 2122   1.126   2.466   2.932
  408SOL    HW1 2123   1.084   2.449   3.021
  408SOL    HW2 2124   1.182   2.387   2.907
  409SOL     OW 2125   0.144   2.842   1.868
  409SOL    HW1 2126   0.074   2.828   1.798
  409SOL    HW2 2127   0.105   2.829   1.959
  410SOL     OW 2128   1.905   1.413   0.907
  410SOL    HW1 2129   1.883   1.493   0.962
  410SOL    HW2 2130   1.981   1.363   0.949
  411SOL     OW 2131   5.990   6.988   1.761
  411SOL    HW1 2132   6.015   0.029   1.693
  411SOL    HW2 2133   5.897   7.007   1.795
  412SOL     OW 2134   4.310   6.005   4.095
  412SOL    HW1 2135   4.238   5.941   4.121
  412SOL    HW2 2136   4.353   6.043   4.177
  413SOL     OW 2137   5.046   3.592   1.320
  413SOL    HW1 2138   4.967   3.543   1.285
  413SOL    HW2 2139   5.079   3.656   1.251
  414SOL     OW 2140   3.847   5.399   3.703
  414SOL    HW1 2141   3.901   5.431   3.625
  414SOL    HW2 2142   3.890   5.318   3.743
  415SOL     OW 2143   0.780   5.876   6.682
  415SOL    HW1 2144   0.715   5.927   6.738
  415SOL    HW2 2145   0.872   5.885   6.719
  416SOL     OW 2146   4.724   6.675   4.324
  416SOL    HW1 2147   4.797   6.621   4.282
  416SOL    HW2 2148   4.635   6.639   4.295
  417SOL     OW 2149   2.343   5.583   6.537
  417SOL    HW1 2150   2.404   5.628   6.602
  417SOL    HW2 2151   2.384   5.585   6.446
  418SOL     OW 2152   4.498   6.299   0.241
  418SOL    HW1 2153   4.501   6.228   0.170
  418SOL    HW2 2154   4.422   6.361   0.222
  419SOL     OW 2155   2.365   6.924   1.620
  419SOL    HW1 2156   2.404   7.011   1.652
  419SOL    HW2 2157   2.313   6.881   1.693
  420SOL     OW 2158   6.065   1.474   0.074
  420SOL    HW1 2159   6.079   1.445   7.006
  420SOL    HW2 2160   6.002   1.551   0.077
  421SOL     OW 2161   6.850   4.531   5.590
  421SOL    HW1 2162   6.905   4.557   5.511
  421SOL    HW2 2163   6.902   4.548   5.674
  422SOL     OW 2164   5.718   3.680   1.698
  422SOL    HW1 2165   5.685   3.591   1.730
  422SOL    HW2 2166   5.693   3.692   1.602
  423SOL     OW 2167   0.744   1.905   6.217
  423SOL    HW1 2168   0.689   1.848   6.277
  423SOL    HW2 2169   0.808   1.848   6.166
  424SOL     OW 2170   1.892   5.318   0.812
  424SOL    HW1 2171   1.950   5.345   0.889
  424SOL    HW2 2172   1.798   5.308   0.843
  425SOL     OW 2173   4.655   1.583   3.715
  425SOL    HW1 2174   4.746   1.594   3.756
  425SOL    HW2 2175   4.653   1.630   3.627
  426SOL     OW 2176   3.579   2.133   4.679
  426SOL    HW1 2177   3.506   2.184   4.725
  426SOL    HW2 2178   3.549   2.109   4.586
  427SOL     OW 2179   5.552   6.264   3.562
  427SOL    HW1 2180   5.581   6.356   3.534
  427SOL    HW2 2181   5.529   6.210   3.481
  428SOL     OW 2182   4.443   0.630   4.023
  428SOL    HW1 2183   4.450   0.533   4.047
  428SOL    HW2 2184   4.421   0.683   4.105
  429SOL     OW 2185   1.303   4.582   1.210
  429SOL    HW1 2186   1.245   4.501   1.216
  429SOL    HW2 2187   1.397   4.555   1.193
  430SOL     OW 2188   0.722   0.446   4.740
  430SOL    HW1 2189   0.756   0.364   4.786
  430SOL    HW2 2190   0.799   0.507   4.720
  431SOL     OW 2191   2.549   0.179   0.788
  431SOL    HW1 2192   2.626   0.119   0.766
  431SOL    HW2 2193   2.499   0.202   0.704
  432SOL     OW 2194   6.217   1.612   0.794
  432SOL    HW1 2195   6.314   1.636   0.797
  432SOL    HW2 2196   6.174   1.638   0.880
  433SOL     OW 2197   2.182   6.650   4.795
  433SOL    HW1 2198   2.097   6.673   4.747
  433SOL    HW2 2199   2.174   6.677   4.891
  434SOL     OW 2200   3.310   5.358   2.898
  434SOL    HW1 2201   3.231   5.383   2.841
  434SOL    HW2 2202   3.386   5.332   2.840
  435SOL     OW 2203   5.010   2.793   6.642
  435SOL    HW1 2204   4.948   2.813   6.566
  435SOL    HW2 2205   5.099   2.764   6.607
  436SOL     OW 2206   3.311   5.962   1.777
  436SOL    HW1 2207   3.387   6.022   1.804
  436SOL    HW2 2208   3.325   5.931   1.683
  437SOL     OW 2209   0.819   1.426   0.166
  437SOL    HW1 2210   0.856   1.334   0.179
  437SOL    HW2 2211   0.720   1.420   0.152
  438SOL     OW 2212   2.304   4.114   3.530
  438SOL    HW1 2213   2.349   4.197   3.499
  438SOL    HW2 2214   2.295   4.117   3.630
  439SOL     OW 2215   5.959   5.129   2.408
  439SOL    HW1 2216   5.952   5.046   2.354
  439SOL    HW2 2217   5.868   5.159   2.437
  440SOL     OW 2218   2.178   1.554   4.640
  440SOL    HW1 2219   2.225   1.540   4.553
  440SOL    HW2 2220   2.111   1.481   4.655
  441SOL     OW 2221   0.549   3.021   3.924
  441SOL    HW1 2222   0.527   3.094   3.860
  441SOL    HW2 2223   0.647   3.018   3.940
  442SOL     OW 2224   4.070   5.459   5.629
  442SOL    HW1 2225   4.052   5.535   5.692
  442SOL    HW2 2226   4.075   5.495   5.536
  443SOL     OW 2227   6.178   4.379   3.808
  443SOL    HW1 2228   6.267   4.391   3.853
  443SOL    HW2 2229   6.192   4.370   3.710
  444SOL     OW 2230   4.833   0.695   6.667
  444SOL    HW1 2231   4.869   0.609   6.706
  444SOL    HW2 2232   4.734   0.687   6.656
  445SOL     OW 2233   1.014   5.743   2.820
  445SOL    HW1 2234   1.060   5.708   2.738
  445SOL    HW2 2235   0.915   5.739   2.808
  446SOL     OW 2236   3.251   5.267   3.845
  446SOL    HW1 2237   3.234   5.335   3.774
  446SOL    HW2 2238   3.333   5.292   3.896
  447SOL     OW 2239   0.556   2.862   6.346
  447SOL    HW1 2240   0.643   2.817   6.323
  447SOL    HW2 2241   0.483   2.822   6.290
  448SOL     OW 2242   1.904   0.186   3.507
  448SOL    HW1 2243   1.843   0.143   3.573
  448SOL    HW2 2244   1.851   0.244   3.446
  449SOL     OW 2245   3.272   1.052   3.771
  449SOL    HW1 2246   3.201   1.107   3.728
  449SOL    HW2 2247   3.332   1.014   3.702
  450SOL     OW 2248   1.405   4.910   2.643
  450SOL    HW1 2249   1.336   4.840   2.625
  450SOL    HW2 2250   1.382   4.959   2.727
  451SOL     OW 2251   1.385   2.387   3.803
  451SOL    HW1 2252   1.301   2.427   3.841
  451SOL    HW2 2253   1.428   2.454   3.742
  452SOL     OW 2254   5.315   6.710   0.403
  452SOL    HW1 2255   5.219   6.683   0.411
  452SOL    HW2 2256   5.359   6.654   0.333
  453SOL     OW 2257   4.732   0.410   6.460
  453SOL    HW1 2258   4.808   0.378   6.403
  453SOL    HW2 2259   4.721   0.349   6.538
  454SOL     OW 2260   6.629   4.553   5.772
  454SOL    HW1 2261   6.553   4.569   5.708
  454SOL    HW2 2262   6.716   4.564   5.724
  455SOL     OW 2263   5.866   2.050   3.883
  455SOL    HW1 2264   5.790   2.019   3.941
  455SOL    HW2 2265   5.884   1.982   3.812
  456SOL     OW 2266   6.649   6.714   3.692
  456SOL    HW1 2267   6.626   6.620   3.718
  456SOL    HW2 2268   6.613   6.733   3.601
  457SOL     OW 2269   2.100   2.612   3.822
  457SOL    HW1 2270   2.003   2.617   3.797
  457SOL    HW2 2271   2.108   2.613   3.922
  458SOL     OW 2272   4.137   5.654   2.909
  458SOL    HW1 2273   4.136   5.739   2.962
  458SOL    HW2 2274   4.186   5.583   2.960
  459SOL     OW 2275   1.821   6.904   5.753
  459SOL    HW1 2276   1.765   6.839   5.702
  459SOL    HW2 2277   1.917   6.886   5.734
  460SOL     OW 2278   2.788   6.687   4.406
  460SOL    HW1 2279   2.860   6.620   4.425
  460SOL    HW2 2280   2.703   6.659   4.451
  461SOL     OW 2281   6.916   5.885   5.921
  461SOL    HW1 2282   6.853   5.814   5.954
  461SOL    HW2 2283   6.876   5.975   5.937
  462SOL     OW 2284   4.112   3.351   6.903
  462SOL    HW1 2285   4.108   3.277   6.970
  462SOL    HW2 2286   4.023   3.397   6.899
  463SOL     OW 2287   5.653   5.950   3.686
  463SOL    HW1 2288   5.555   5.949   3.666
  463SOL    HW2 2289   5.697   5.871   3.643
  464SOL     OW 2290   2.476   1.663   5.664
  464SOL    HW1 2291   2.514   1.631   5.577
  464SOL    HW2 2292   2.377   1.669   5.656
  465SOL     OW 2293   0.437   2.986   0.429
  465SOL    HW1 2294   0.349   3.034   0.422
  465SOL    HW2 2295   0.423   2.900   0.478
  466SOL     OW 2296   1.295   6.193   3.505
  466SOL    HW1 2297   1.266   6.200   3.410
  466SOL    HW2 2298   1.378   6.138   3.510
  467SOL     OW 2299   1.595   0.939   0.690
  467SOL    HW1 2300   1.664   1.007   0.716
  467SOL    HW2 2301   1.560   0.894   0.772
  468SOL     OW 2302   3.983   6.604   5.790
  468SOL    HW1 2303   4.072   6.567   5.815
  468SOL    HW2 2304   3.975   6.698   5.824
  469SOL     OW 2305   2.784   3.485   6.572
  469SOL    HW1 2306   2.855   3.543   6.531
  469SOL    HW2 2307   2.825   3.430   6.645
  470SOL     OW 2308   4.306   6.298   1.455
  470SOL    HW1 2309   4.257   6.213   1.438
  470SOL    HW2 2310   4.268   6.343   1.535
  471SOL     OW 2311   2.471   2.514   3.545
  471SOL    HW1 2312   2.548   2.452   3.535
  471SOL    HW2 2313   2.460   2.568   3.462
  472SOL     OW 2314   4.169   3.824   6.850
  472SOL    HW1 2315   4.155   3.909   6.901
  472SOL    HW2 2316   4.260   3.826   6.808
  473SOL     OW 2317   1.406   2.258   2.601
  473SOL    HW1 2318   1.419   2.328   2.532
  473SOL    HW2 2319   1.361   2.298   2.681
  474SOL     OW 2320   5.586   5.593   4.798
  474SOL    HW1 2321   5.619   5.582   4.704
  474SOL    HW2 2322   5.574   5.690   4.817
  475SOL     OW 2323   6.158   1.423   6.515
  475SOL    HW1 2324   6.119   1.481   6.444
  475SOL    HW2 2325   6.185   1.335   6.475
  476SOL     OW 2326   0.468   3.543   2.628
  476SOL    HW1 2327   0.406   3.471   2.660
  476SOL    HW2 2328   0.555   3.536   2.677
  477SOL     OW 2329   2.744   6.211   2.939
  477SOL    HW1 2330   2.713   6.297   2.981
  477SOL    HW2 2331   2.842   6.201   2.953
  478SOL     OW 2332   3.695   6.508   2.879
  478SOL    HW1 2333   3.711   6.531   2.975
  478SOL    HW2 2334   3.748   6.427   2.854
  479SOL     OW 2335   3.922   2.490   6.089
  479SOL    HW1 2336   3.857   2.417   6.067
  479SOL    HW2 2337   3.973   2.466   6.171
  480SOL     OW 2338   2.797   0.422   0.009
  480SOL    HW1 2339   2.866   0.464   0.069
  480SOL    HW2 2340   2.771   0.332   0.045
  481SOL     OW 2341   2.187   6.625   1.490
  481SOL    HW1 2342   2.151   6.568   1.417
  481SOL    HW2 2343   2.255   6.688   1.453
  482SOL     OW 2344   3.792   4.883   2.151
  482SOL    HW1 2345   3.720   4.941   2.188
  482SOL    HW2 2346   3.767   4.855   2.058
  483SOL     OW 2347   6.364   2.116   2.705
  483SOL    HW1 2348   6.363   2.088   2.609
  483SOL    HW2 2349   6.300   2.192   2.718
  484SOL     OW 2350   1.809   3.148   5.095
  484SOL    HW1 2351   1.761   3.209   5.157
  484SOL    HW2 2352   1.875   3.201   5.041
  485SOL     OW 2353   3.981   5.183   2.629
  485SOL    HW1 2354   3.996   5.094   2.586
  485SOL    HW2 2355   4.010   5.255   2.565
  486SOL     OW 2356   6.560   1.786   0.302
  486SOL    HW1 2357   6.625   1.740   0.362
  486SOL    HW2 2358   6.598   1.793   0.210
  487SOL     OW 2359   1.148   0.688   3.079
  487SOL    HW1 2360   1.178   0.721   3.169
  487SOL    HW2 2361   1.213   0.719   3.009
  488SOL     OW 2362   0.712   1.047   1.713
  488SOL    HW1 2363   0.782   0.976   1.717
  488SOL    HW2 2364   0.745   1.128   1.761
  489SOL     OW 2365   4.283   5.965   5.729
  489SOL    HW1 2366   4.282   5.881   5.674
  489SOL    HW2 2367   4.377   5.988   5.753
  490SOL     OW 2368   0.514   5.875   2.961
  490SOL    HW1 2369   0.538   5.972   2.958
  490SOL    HW2 2370   0.432   5.860   2.905
  491SOL     OW 2371   1.453   4.112   2.037
  491SOL    HW1 2372   1.536   4.094   2.090
  491SOL    HW2 2373   1.431   4.031   1.981
  492SOL     OW 2374   1.333   0.786   5.350
  492SOL    HW1 2375   1.425   0.753   5.328
  492SOL    HW2 2376   1.268   0.747   5.285
  493SOL     OW 2377   4.483   6.524   5.487
  493SOL    HW1 2378   4.533   6.565   5.563
  493SOL    HW2 2379   4.548   6.479   5.425
  494SOL     OW 2380   0.828   6.731   6.903
  494SOL    HW1 2381   0.889   6.798   6.862
  494SOL    HW2 2382   0.869   6.695   6.987
  495SOL     OW 2383   4.563   6.025   3.784
  495SOL    HW1 2384   4.464   6.032   3.793
  495SOL    HW2 2385   4.602   5.984   3.867
  496SOL     OW 2386   5.141   2.750   2.017
  496SOL    HW1 2387   5.175   2.695   1.940
  496SOL    HW2 2388   5.083   2.823   1.982
  497SOL     OW 2389   2.778   1.894   4.952
  497SOL    HW1 2390   2.742   1.937   5.035
  497SOL    HW2 2391   2.878   1.896   4.954
  498SOL     OW 2392   0.782   4.214   1.489
  498SOL    HW1 2393   0.755   4.204   1.393
  498SOL    HW2 2394   0.836   4.297   1.500
  499SOL     OW 2395   1.367   5.655   4.167
  499SOL    HW1 2396   1.361   5.749   4.201
  499SOL    HW2 2397   1.462   5.630   4.152
  500SOL     OW 2398   7.001   1.723   5.770
  500SOL    HW1 2399   6.962   1.811   5.797
  500SOL    HW2 2400   7.025   1.670   5.852
  501SOL     OW 2401   3.019   0.109   0.757
  501SOL    HW1 2402   3.062   0.075   0.673
  501SOL    HW2 2403   3.091   0.135   0.822
  502SOL     OW 2404   0.978   3.784   6.066
  502SOL    HW1 2405   0.975   3.729   6.149
  502SOL    HW2 2406   0.994   3.880   6.089
  503SOL     OW 2407   6.635   4.938   6.735
  503SOL    HW1 2408   6.641   5.036   6.751
  503SOL    HW2 2409   6.722   4.895   6.759
  504SOL     OW 2410   0.987   4.743   2.442
  504SOL    HW1 2411   1.055   4.796   2.492
  504SOL    HW2 2412   1.033   4.669   2.392
  505SOL     OW 2413   3.168   5.987   4.714
  505SOL    HW1 2414   3.239   5.954   4.652
  505SOL    HW2 2415   3.203   6.065   4.766
  506SOL     OW 2416   3.314   5.040   3.960
  506SOL    HW1 2417   3.258   5.029   4.041
  506SOL    HW2 2418   3.280   5.116   3.905
  507SOL     OW 2419   3.031   7.005   3.166
  507SOL    HW1 2420   3.092   6.995   3.087
  507SOL    HW2 2421   2.977   0.061   3.156
  508SOL     OW 2422   6.908   3.506   2.761
  508SOL    HW1 2423   6.913   3.518   2.662
  508SOL    HW2 2424   6.979   3.561   2.805
  509SOL     OW 2425   2.652   1.252   1.513
  509SOL    HW1 2426   2.662   1.175   1.576
  509SOL    HW2 2427   2.663   1.338   1.564
  510SOL     OW 2428   6.253   4.166   6.582
  510SOL    HW1 2429   6.233   4.264   6.576
  510SOL    HW2 2430   6.178   4.119   6.627
  511SOL     OW 2431   0.762   2.402   6.123
  511SOL    HW1 2432   0.794   2.496   6.123
  511SOL    HW2 2433   0.823   2.345   6.068
  512SOL     OW 2434   0.065   2.781   6.430
  512SOL    HW1 2435   0.157   2.776   6.391
  512SOL    HW2 2436   0.071   2.772   6.530
  513SOL     OW 2437   5.670   6.507   3.456
  513SOL    HW1 2438   5.693   6.558   3.539
  513SOL    HW2 2439   5.634   6.570   3.388
  514SOL     OW 2440   6.237   1.072   4.553
  514SOL    HW1 2441   6.221   1.168   4.573
  514SOL    HW2 2442   6.330   1.059   4.519
  515SOL     OW 2443   1.156   6.123   0.441
  515SOL    HW1 2444   1.102   6.159   0.364
  515SOL    HW2 2445   1.213   6.048   0.409
  516SOL     OW 2446   2.769   4.726   2.268
  516SOL    HW1 2447   2.807   4.679   2.188
  516SOL    HW2 2448   2.682   4.768   2.244
  517SOL     OW 2449   4.243   5.294   1.640
  517SOL    HW1 2450   4.146   5.281   1.622
  517SOL    HW2 2451   4.287   5.205   1.650
  518SOL     OW 2452   2.400   2.052   3.324
  518SOL    HW1 2453   2.314   2.096   3.350
  518SOL    HW2 2454   2.389   1.952   3.327
  519SOL     OW 2455   0.346   6.176   4.102
  519SOL    HW1 2456   0.282   6.231   4.155
  519SOL    HW2 2457   0.437   6.218   4.104
  520SOL     OW 2458   5.913   3.688   7.004
  520SOL    HW1 2459   5.925   3.712   6.907
  520SOL    HW2 2460   5.991   3.634   0.009
  521SOL     OW 2461   5.968   5.746   4.948
  521SOL    HW1 2462   5.972   5.698   5.035
  521SOL    HW2 2463   5.907   5.825   4.956
  522SOL     OW 2464   3.244   3.334   4.693
  522SOL    HW1 2465   3.317   3.337   4.762
  522SOL    HW2 2466   3.177   3.264   4.719
  523SOL     OW 2467   1.132   5.432   1.491
  523SOL    HW1 2468   1.156   5.364   1.560
  523SOL    HW2 2469   1.039   5.415   1.458
  524SOL     OW 2470   0.446   1.867   2.376
  524SOL    HW1 2471   0.521   1.923   2.412
  524SOL    HW2 2472   0.381   1.847   2.450
  525SOL     OW 2473   1.868   4.322   5.913
  525SOL    HW1 2474   1.830   4.366   5.831
  525SOL    HW2 2475   1.797   4.265   5.955
  526SOL     OW 2476   3.938   5.637   3.989
  526SOL    HW1 2477   3.853   5.676   3.952
  526SOL    HW2 2478   4.016   5.676   3.940
  527SOL     OW 2479   6.171   3.039   0.640
  527SOL    HW1 2480   6.109   2.960   0.639
  527SOL    HW2 2481   6.257   3.015   0.595
  528SOL     OW 2482   1.160   2.590   3.809
  528SOL    HW1 2483   1.062   2.587   3.792
  528SOL    HW2 2484   1.179   2.550   3.899
  529SOL     OW 2485   1.583   5.945   4.526
  529SOL    HW1 2486   1.625   5.858   4.552
  529SOL    HW2 2487   1.653   6.006   4.490
  530SOL     OW 2488   3.245   3.463   3.933
  530SOL    HW1 2489   3.157   3.437   3.973
  530SOL    HW2 2490   3.260   3.561   3.947
  531SOL     OW 2491   0.436   1.936   2.874
  531SOL    HW1 2492   0.368   1.940   2.947
  531SOL    HW2 2493   0.412   2.001   2.802
  532SOL     OW 2494   0.639   2.893   0.038
  532SOL    HW1 2495   0.568   2.855   0.097
  532SOL    HW2 2496   0.656   2.831   6.988
  533SOL     OW 2497   4.173   6.918   4.098
  533SOL    HW1 2498   4.152   6.838   4.042
  533SOL    HW2 2499   4.217   6.988   4.041
  534SOL     OW 2500   5.358   6.370   2.009
  534SOL    HW1 2501   5.403   6.323   2.085
  534SOL    HW2 2502   5.369   6.469   2.020
  535SOL     OW 2503   6.759   3.398   4.737
  535SOL    HW1 2504   6.811   3.361   4.814
  535SOL    HW2 2505   6.761   3.332   4.661
  536SOL     OW 2506   6.277   4.835   2.529
  536SOL    HW1 2507   6.336   4.806   2.604
  536SOL    HW2 2508   6.184   4.802   2.544
  537SOL     OW 2509   2.425   6.725   4.701
  537SOL    HW1 2510   2.429   6.821   4.727
  537SOL    HW2 2511   2.337   6.686   4.729
  538SOL     OW 2512   1.719   5.361   4.001
  538SOL    HW1 2513   1.788   5.295   3.969
  538SOL    HW2 2514   1.631   5.341   3.958
  539SOL     OW 2515   2.229   5.776   1.238
  539SOL    HW1 2516   2.179   5.862   1.231
  539SOL    HW2 2517   2.243   5.738   1.147
  540SOL     OW 2518   1.404   1.443   3.382
  540SOL    HW1 2519   1.393   1.513   3.311
  540SOL    HW2 2520   1.382   1.354   3.344
  541SOL     OW 2521   4.803   5.296   3.652
  541SOL    HW1 2522   4.815   5.364   3.579
  541SOL    HW2 2523   4.875   5.227   3.644
  542SOL     OW 2524   5.749   6.041   6.556
  542SOL    HW1 2525   5.743   5.948   6.592
  542SOL    HW2 2526   5.674   6.057   6.492
  543SOL     OW 2527   0.712   2.915   4.310
  543SOL    HW1 2528   0.775   2.917   4.387
  543SOL    HW2 2529   0.700   3.007   4.273
  544SOL     OW 2530   2.358   4.553   6.919
  544SOL    HW1 2531   2.296   4.627   6.893
  544SOL    HW2 2532   2.440   4.591   6.963
  545SOL     OW 2533   3.358   1.395   1.692
  545SOL    HW1 2534   3.302   1.328   1.741
  545SOL    HW2 2535   3.317   1.485   1.699
  546SOL     OW 2536   2.001   2.932   0.415
  546SOL    HW1 2537   1.923   2.990   0.441
  546SOL    HW2 2538   1.981   2.887   0.328
  547SOL     OW 2539   3.045   1.074   0.222
  547SOL    HW1 2540   3.043   1.171   0.196
  547SOL    HW2 2541   3.098   1.064   0.306
  548SOL     OW 2542   3.195   3.287   2.192
  548SOL    HW1 2543   3.261   3.361   2.205
  548SOL    HW2 2544   3.107   3.313   2.233
  549SOL     OW 2545   5.570   3.231   1.037
  549SOL    HW1 2546   5.518   3.182   0.968
  549SOL    HW2 2547   5.507   3.274   1.102
  550SOL     OW 2548   0.933   5.566   4.001
  550SOL    HW1 2549   0.929   5.651   4.052
  550SOL    HW2 2550   1.026   5.528   4.006
  551SOL     OW 2551   1.123   0.452   1.863
  551SOL    HW1 2552   1.076   0.458   1.951
  551SOL    HW2 2553   1.148   0.544   1.832
  552SOL     OW 2554   6.236   4.581   6.958
  552SOL    HW1 2555   6.256   4.542   0.021
  552SOL    HW2 2556   6.146   4.624   6.960
  553SOL     OW 2557   2.935   6.455   2.956
  553SOL    HW1 2558   2.845   6.465   2.998
  553SOL    HW2 2559   2.978   6.371   2.991
  554SOL     OW 2560   5.749   6.749   6.819
  554SOL    HW1 2561   5.753   6.785   6.726
  554SOL    HW2 2562   5.841   6.747   6.858
  555SOL     OW 2563   2.053   4.430   4.205
  555SOL    HW1 2564   2.033   4.366   4.131
  555SOL    HW2 2565   2.000   4.406   4.286
  556SOL     OW 2566   4.097   2.170   3.915
  556SOL    HW1 2567   4.075   2.213   4.003
  556SOL    HW2 2568   4.184   2.120   3.924
  557SOL     OW 2569   0.139   5.585   0.712
  557SOL    HW1 2570   0.160   5.591   0.810
  557SOL    HW2 2571   0.189   5.656   0.662
  558SOL     OW 2572   2.884   3.448   4.055
  558SOL    HW1 2573   2.912   3.513   3.984
  558SOL    HW2 2574   2.790   3.469   4.083
  559SOL     OW 2575   6.634   6.221   0.470
  559SOL    HW1 2576   6.722   6.186   0.438
  559SOL    HW2 2577   6.646   6.268   0.558
  560SOL     OW 2578   5.194   4.557   6.450
  560SOL    HW1 2579   5.211   4.651   6.423
  560SOL    HW2 2580   5.156   4.505   6.373
  561SOL     OW 2581   0.895   1.457   1.641
  561SOL    HW1 2582   0.943   1.476   1.726
  561SOL    HW2 2583   0.958   1.417   1.575
  562SOL     OW 2584   4.868   0.750   5.973
  562SOL    HW1 2585   4.846   0.803   6.055
  562SOL    HW2 2586   4.840   0.655   5.986
  563SOL     OW 2587   2.504   0.538   3.516
  563SOL    HW1 2588   2.568   0.564   3.444
  563SOL    HW2 2589   2.554   0.517   3.600
  564SOL     OW 2590   1.629   1.696   0.036
  564SOL    HW1 2591   1.719   1.671   7.025
  564SOL    HW2 2592   1.622   1.796   0.041
  565SOL     OW 2593   3.163   2.961   5.215
  565SOL    HW1 2594   3.188   3.053   5.244
  565SOL    HW2 2595   3.064   2.956   5.202
  566SOL     OW 2596   6.709   4.950   3.308
  566SOL    HW1 2597   6.704   5.035   3.362
  566SOL    HW2 2598   6.668   4.875   3.360
  567SOL     OW 2599   2.897   2.851   1.224
  567SOL    HW1 2600   2.832   2.926   1.213
  567SOL    HW2 2601   2.897   2.821   1.319
  568SOL     OW 2602   5.271   0.902   0.220
  568SOL    HW1 2603   5.258   0.947   0.308
  568SOL    HW2 2604   5.183   0.890   0.175
  569SOL     OW 2605   1.822   3.215   6.349
  569SOL    HW1 2606   1.898   3.174   6.298
  569SOL    HW2 2607   1.859   3.267   6.426
  570SOL     OW 2608   3.427   6.301   6.534
  570SOL    HW1 2609   3.420   6.284   6.436
  570SOL    HW2 2610   3.396   6.394   6.554
  571SOL     OW 2611   3.301   7.006   1.728
  571SOL    HW1 2612   3.316   0.034   1.810
  571SOL    HW2 2613   3.204   6.982   1.720
  572SOL     OW 2614   2.581   4.957   5.562
  572SOL    HW1 2615   2.521   4.923   5.634
  572SOL    HW2 2616   2.673   4.969   5.598
  573SOL     OW 2617   5.547   1.898   5.571
  573SOL    HW1 2618   5.493   1.828   5.618
  573SOL    HW2 2619   5.499   1.926   5.488
  574SOL     OW 2620   3.243   1.770   4.235
  574SOL    HW1 2621   3.320   1.798   4.293
  574SOL    HW2 2622   3.238   1.829   4.154
  575SOL     OW 2623   5.075   4.147   6.865
  575SOL    HW1 2624   5.122   4.232   6.888
  575SOL    HW2 2625   5.142   4.077   6.842
  576SOL     OW 2626   0.613   2.285   2.663
  576SOL    HW1 2627   0.696   2.314   2.617
  576SOL    HW2 2628   0.636   2.231   2.744
  577SOL     OW 2629   1.583   0.987   2.671
  577SOL    HW1 2630   1.503   1.018   2.619
  577SOL    HW2 2631   1.569   1.005   2.768
  578SOL     OW 2632   5.860   6.154   3.674
  578SOL    HW1 2633   5.797   6.078   3.657
  578SOL    HW2 2634   5.880   6.201   3.589
  579SOL     OW 2635   1.937   3.022   2.763
  579SOL    HW1 2636   1.872   2.955   2.726
  579SOL    HW2 2637   2.030   2.996   2.736
  580SOL     OW 2638   5.677   5.135   0.587
  580SOL    HW1 2639   5.681   5.213   0.649
  580SOL    HW2 2640   5.595   5.141   0.531
  581SOL     OW 2641   2.386   3.405   1.225
  581SOL    HW1 2642   2.404   3.417   1.128
  581SOL    HW2 2643   2.340   3.318   1.240
  582SOL     OW 2644   4.369   6.934   1.565
  582SOL    HW1 2645   4.315   7.014   1.593
  582SOL    HW2 2646   4.332   6.898   1.479
  583SOL     OW 2647   3.059   5.263   5.769
  583SOL    HW1 2648   3.031   5.305   5.683
  583SOL    HW2 2649   3.129   5.194   5.750
  584SOL     OW 2650   2.889   4.198   6.226
  584SOL    HW1 2651   2.844   4.139   6.159
  584SOL    HW2 2652   2.866   4.168   6.318
  585SOL     OW 2653   5.505   3.077   6.352
  585SOL    HW1 2654   5.412   3.112   6.366
  585SOL    HW2 2655   5.547   3.122   6.273
  586SOL     OW 2656   3.857   1.503   5.909
  586SOL    HW1 2657   3.942   1.508   5.856
  586SOL    HW2 2658   3.802   1.427   5.876
  587SOL     OW 2659   4.401   1.729   5.599
  587SOL    HW1 2660   4.489   1.731   5.553
  587SOL    HW2 2661   4.385   1.818   5.643
  588SOL     OW 2662   1.910   4.293   1.858
  588SOL    HW1 2663   1.848   4.347   1.801
  588SOL    HW2 2664   1.987   4.261   1.803
  589SOL     OW 2665   3.238   4.525   1.367
  589SOL    HW1 2666   3.189   4.612   1.372
  589SOL    HW2 2667   3.329   4.541   1.326
  590SOL     OW 2668   4.871   3.202   3.532
  590SOL    HW1 2669   4.970   3.194   3.522
  590SOL    HW2 2670   4.841   3.145   3.609
  591SOL     OW 2671   3.664   5.729   3.939
  591SOL    HW1 2672   3.652   5.686   4.029
  591SOL    HW2 2673   3.580   5.721   3.887
  592SOL     OW 2674   3.414   1.160   1.133
  592SOL    HW1 2675   3.444   1.159   1.228
  592SOL    HW2 2676   3.493   1.174   1.073
  593SOL     OW 2677   4.826   2.555   3.181
  593SOL    HW1 2678   4.772   2.489   3.234
  593SOL    HW2 2679   4.780   2.643   3.180
  594SOL     OW 2680   6.352   2.251   6.778
  594SOL    HW1 2681   6.268   2.244   6.725
  594SOL    HW2 2682   6.355   2.177   6.845
  595SOL     OW 2683   5.812   6.997   3.345
  595SOL    HW1 2684   5.768   0.059   3.362
  595SOL    HW2 2685   5.794   6.936   3.422
  596SOL     OW 2686   1.288   4.995   3.375
  596SOL    HW1 2687   1.245   5.031   3.457
  596SOL    HW2 2688   1.218   4.958   3.314
  597SOL     OW 2689   3.618   0.351   0.251
  597SOL    HW1 2690   3.529   0.322   0.216
  597SOL    HW2 2691   3.684   0.276   0.240
  598SOL     OW 2692   4.316   4.921   5.331
  598SOL    HW1 2693   4.349   4.964   5.247
  598SOL    HW2 2694   4.329   4.984   5.408
  599SOL     OW 2695   2.488   6.122   2.017
  599SOL    HW1 2696   2.536   6.048   1.969
  599SOL    HW2 2697   2.506   6.209   1.971
  600SOL     OW 2698   0.556   1.424   0.156
  600SOL    HW1 2699   0.502   1.360   0.102
  600SOL    HW2 2700   0.534   1.518   0.130
  601SOL     OW 2701   2.632   0.333   4.514
  601SOL    HW1 2702   2.620   0.389   4.432
  601SOL    HW2 2703   2.564   0.260   4.515
  602SOL     OW 2704   1.866   3.076   6.660
  602SOL    HW1 2705   1.824   3.150   6.714
  602SOL    HW2 2706   1.797   3.036   6.600
  603SOL     OW 2707   2.781   2.029   4.719
  603SOL    HW1 2708   2.782   2.123   4.752
  603SOL    HW2 2709   2.776   1.966   4.796
  604SOL     OW 2710   1.137   3.469   1.703
  604SOL    HW1 2711   1.169   3.387   1.751
  604SOL    HW2 2712   1.109   3.538   1.770
  605SOL     OW 2713   6.932   6.663   2.020
  605SOL    HW1 2714   6.977   6.744   1.983
  605SOL    HW2 2715   6.919   6.674   2.119
  606SOL     OW 2716   4.626   0.107   6.884
  606SOL    HW1 2717   4.547   0.055   6.918
  606SOL    HW2 2718   4.677   0.145   6.961
  607SOL     OW 2719   6.618   6.778   5.998
  607SOL    HW1 2720   6.616   6.812   6.092
  607SOL    HW2 2721   6.700   6.812   5.952
  608SOL     OW 2722   2.931   6.371   6.272
  608SOL    HW1 2723   2.902   6.281   6.241
  608SOL    HW2 2724   2.999   6.361   6.345
  609SOL     OW 2725   4.105   3.229   3.192
  609SOL    HW1 2726   4.151   3.288   3.125
  609SOL    HW2 2727   4.172   3.198   3.260
  610SOL     OW 2728   4.866   3.339   2.436
  610SOL    HW1 2729   4.868   3.437   2.453
  610SOL    HW2 2730   4.853   3.322   2.339
  611SOL     OW 2731   3.905   0.119   0.534
  611SOL    HW1 2732   3.958   0.193   0.493
  611SOL    HW2 2733   3.911   0.125   0.634
  612SOL     OW 2734   4.201   6.887   5.769
  612SOL    HW1 2735   4.167   6.876   5.863
  612SOL    HW2 2736   4.272   6.819   5.751
  613SOL     OW 2737   4.074   6.836   5.998
  613SOL    HW1 2738   4.047   6.781   6.077
  613SOL    HW2 2739   4.035   6.927   6.005
  614SOL     OW 2740   4.697   4.791   1.549
  614SOL    HW1 2741   4.684   4.887   1.575
  614SOL    HW2 2742   4.695   4.735   1.632
  615SOL     OW 2743   6.778   2.661   1.763
  615SOL    HW1 2744   6.694   2.711   1.743
  615SOL    HW2 2745   6.786   2.648   1.862
  616SOL     OW 2746   0.431   1.783   3.972
  616SOL    HW1 2747   0.470   1.787   3.880
  616SOL    HW2 2748   0.364   1.856   3.983
  617SOL     OW 2749   6.445   4.256   6.187
  617SOL    HW1 2750   6.470   4.352   6.199
  617SOL    HW2 2751   6.528   4.200   6.183
  618SOL     OW 2752   6.513   2.648   6.435
  618SOL    HW1 2753   6.417   2.626   6.414
  618SOL    HW2 2754   6.541   2.598   6.516
  619SOL     OW 2755   4.203   0.881   6.850
  619SOL    HW1 2756   4.164   0.825   6.777
  619SOL    HW2 2757   4.147   0.963   6.862
  620SOL     OW 2758   4.582   3.408   1.520
  620SOL    HW1 2759   4.482   3.407   1.527
  620SOL    HW2 2760   4.619   3.321   1.550
  621SOL     OW 2761   2.507   5.673   6.747
  621SOL    HW1 2762   2.517   5.590   6.802
  621SOL    HW2 2763   2.593   5.724   6.748
  622SOL     OW 2764   1.314   1.070   5.119
  622SOL    HW1 2765   1.347   1.025   5.036
  622SOL    HW2 2766   1.229   1.028   5.149
  623SOL     OW 2767   0.702   5.806   6.131
  623SOL    HW1 2768   0.790   5.847   6.107
  623SOL    HW2 2769   0.695   5.714   6.092
  624SOL     OW 2770   6.985   2.035   1.949
  624SOL    HW1 2771   0.035   1.976   1.975
  624SOL    HW2 2772   6.943   2.000   1.866
  625SOL     OW 2773   1.075   1.805   1.839
  625SOL    HW1 2774   1.156   1.780   1.892
  625SOL    HW2 2775   1.032   1.723   1.802
  626SOL     OW 2776   0.886   5.949   3.102
  626SOL    HW1 2777   0.983   5.960   3.080
  626SOL    HW2 2778   0.838   6.036   3.085
  627SOL     OW 2779   6.115   6.300   0.771
  627SOL    HW1 2780   6.161   6.262   0.851
  627SOL    HW2 2781   6.081   6.392   0.793
  628SOL     OW 2782   5.619   5.578   5.848
  628SOL    HW1 2783   5.652   5.672   5.847
  628SOL    HW2 2784   5.542   5.569   5.785
  629SOL     OW 2785   0.024   0.970   6.719
  629SOL    HW1 2786   0.112   0.958   6.671
  629SOL    HW2 2787   7.015   0.881   6.745
  630SOL     OW 2788   0.283   1.589   1.121
  630SOL    HW1 2789   0.268   1.671   1.177
  630SOL    HW2 2790   0.252   1.606   1.028
  631SOL     OW 2791   4.296   0.725   5.209
  631SOL    HW1 2792   4.269   0.708   5.304
  631SOL    HW2 2793   4.396   0.731   5.203
  632SOL     OW 2794   3.761   1.546   1.470
  632SOL    HW1 2795   3.732   1.455   1.441
  632SOL    HW2 2796   3.692   1.586   1.531
  633SOL     OW 2797   3.407   3.490   6.878
  633SOL    HW1 2798   3.393   3.406   6.825
  633SOL    HW2 2799   3.505   3.505   6.890
  634SOL     OW 2800   4.131   3.225   2.301
  634SOL    HW1 2801   4.063   3.198   2.232
  634SOL    HW2 2802   4.218   3.244   2.256
  635SOL     OW 2803   4.431   5.267   0.770
  635SOL    HW1 2804   4.515   5.293   0.817
  635SOL    HW2 2805   4.453   5.207   0.693
  636SOL     OW 2806   2.752   6.344   0.292
  636SOL    HW1 2807   2.722   6.439   0.291
  636SOL    HW2 2808   2.742   6.306   0.384
  637SOL     OW 2809   6.949   3.248   2.774
  637SOL    HW1 2810   6.930   3.345   2.761
  637SOL    HW2 2811   7.012   3.235   2.850
  638SOL     OW 2812   5.763   2.283   3.753
  638SOL    HW1 2813   5.788   2.205   3.810
  638SOL    HW2 2814   5.816   2.280   3.668
  639SOL     OW 2815   4.892   3.492   3.497
  639SOL    HW1 2816   4.858   3.401   3.521
  639SOL    HW2 2817   4.926   3.490   3.403
  640SOL     OW 2818   0.481   5.393   4.165
  640SOL    HW1 2819   0.525   5.400   4.254
  640SOL    HW2 2820   0.423   5.312   4.163
  641SOL     OW 2821   0.125   4.682   5.104
  641SOL    HW1 2822   0.177   4.741   5.165
  641SOL    HW2 2823   0.156   4.587   5.115
  642SOL     OW 2824   6.996   2.840   4.005
  642SOL    HW1 2825   6.899   2.864   3.996
  642SOL    HW2 2826   0.009   2.827   3.915
  643SOL     OW 2827   5.559   5.514   6.101
  643SOL    HW1 2828   5.588   5.528   6.006
  643SOL    HW2 2829   5.574   5.419   6.126
  644SOL     OW 2830   1.672   0.003   4.444
  644SOL    HW1 2831   1.704   6.935   4.445
  644SOL    HW2 2832   1.715   0.052   4.368
  645SOL     OW 2833   4.293   0.713   4.575
  645SOL    HW1 2834   4.260   0.630   4.529
  645SOL    HW2 2835   4.390   0.701   4.599
  646SOL     OW 2836   3.451   0.879   4.521
  646SOL    HW1 2837   3.545   0.845   4.520
  646SOL    HW2 2838   3.409   0.862   4.432
  647SOL     OW 2839   5.481   1.992   5.254
  647SOL    HW1 2840   5.498   1.896   5.233
  647SOL    HW2 2841   5.518   2.049   5.181
  648SOL     OW 2842   0.683   3.366   3.236
  648SOL    HW1 2843   0.643   3.392   3.148
  648SOL    HW2 2844   0.678   3.443   3.299
  649SOL     OW 2845   2.708   4.173   0.741
  649SOL    HW1 2846   2.619   4.215   0.723
  649SOL    HW2 2847   2.716   4.153   0.839
  650SOL     OW 2848   5.796   4.267   0.221
  650SOL    HW1 2849   5.803   4.225   0.312
  650SOL    HW2 2850   5.874   4.238   0.165
  651SOL     OW 2851   0.692   6.342   6.396
  651SOL    HW1 2852   0.666   6.283   6.319
  651SOL    HW2 2853   0.744   6.289   6.462
  652SOL     OW 2854   4.859   0.681   4.188
  652SOL    HW1 2855   4.822   0.631   4.109
  652SOL    HW2 2856   4.864   0.778   4.167
  653SOL     OW 2857   0.758   5.590   6.344
  653SOL    HW1 2858   0.766   5.580   6.245
  653SOL    HW2 2859   0.722   5.680   6.366
  654SOL     OW 2860   0.535   5.116   6.666
  654SOL    HW1 2861   0.553   5.106   6.568
  654SOL    HW2 2862   0.447   5.075   6.688
  655SOL     OW 2863   0.378   5.836   1.724
  655SOL    HW1 2864   0.377   5.738   1.743
  655SOL    HW2 2865   0.284   5.870   1.717
  656SOL     OW 2866   1.826   6.479   1.230
  656SOL    HW1 2867   1.878   6.434   1.157
  656SOL    HW2 2868   1.852   6.441   1.318
  657SOL     OW 2869   2.414   3.685   1.680
  657SOL    HW1 2870   2.379   3.663   1.589
  657SOL    HW2 2871   2.416   3.602   1.736
  658SOL     OW 2872   2.322   4.042   6.652
  658SOL    HW1 2873   2.306   4.045   6.553
  658SOL    HW2 2874   2.419   4.057   6.670
  659SOL     OW 2875   1.287   5.682   5.481
  659SOL    HW1 2876   1.205   5.703   5.427
  659SOL    HW2 2877   1.315   5.588   5.463
  660SOL     OW 2878   5.371   3.508   2.187
  660SOL    HW1 2879   5.412   3.558   2.111
  660SOL    HW2 2880   5.442   3.458   2.237
  661SOL     OW 2881   4.980   4.630   2.992
  661SOL    HW1 2882   5.040   4.579   3.053
  661SOL    HW2 2883   4.894   4.582   2.981
  662SOL     OW 2884   4.121   0.669   4.335
  662SOL    HW1 2885   4.126   0.583   4.386
  662SOL    HW2 2886   4.048   0.663   4.266
  663SOL     OW 2887   1.395   3.951   6.990
  663SOL    HW1 2888   1.396   4.027   0.028
  663SOL    HW2 2889   1.489   3.931   6.961
  664SOL     OW 2890   0.002   5.217   6.492
  664SOL    HW1 2891   7.002   5.121   6.507
  664SOL    HW2 2892   0.041   5.227   6.400
  665SOL     OW 2893   4.698   4.676   1.119
  665SOL    HW1 2894   4.686   4.603   1.186
  665SOL    HW2 2895   4.688   4.764   1.163
  666SOL     OW 2896   4.823   1.935   2.906
  666SOL    HW1 2897   4.741   1.888   2.939
  666SOL    HW2 2898   4.817   1.948   2.807
  667SOL     OW 2899   6.512   3.372   3.970
  667SOL    HW1 2900   6.500   3.380   3.871
  667SOL    HW2 2901   6.518   3.276   3.996
  668SOL     OW 2902   4.696   5.869   6.639
  668SOL    HW1 2903   4.747   5.784   6.626
  668SOL    HW2 2904   4.664   5.903   6.551
  669SOL     OW 2905   3.764   6.108   3.758
  669SOL    HW1 2906   3.690   6.175   3.764
  669SOL    HW2 2907   3.798   6.104   3.664
  670SOL     OW 2908   2.153   3.325   1.140
  670SOL    HW1 2909   2.077   3.259   1.140
  670SOL    HW2 2910   2.127   3.405   1.194
  671SOL     OW 2911   2.245   5.817   0.522
  671SOL    HW1 2912   2.220   5.913   0.521
  671SOL    HW2 2913   2.320   5.802   0.457
  672SOL     OW 2914   1.297   4.854   2.208
  672SOL    HW1 2915   1.325   4.907   2.288
  672SOL    HW2 2916   1.301   4.757   2.229
  673SOL     OW 2917   0.480   0.668   1.343
  673SOL    HW1 2918   0.408   0.624   1.288
  673SOL    HW2 2919   0.489   0.764   1.315
  674SOL     OW 2920   0.093   3.141   4.589
  674SOL    HW1 2921   0.078   3.131   4.687
  674SOL    HW2 2922   0.190   3.127   4.568
  675SOL     OW 2923   0.971   0.248   4.160
  675SOL    HW1 2924   0.885   0.299   4.166
  675SOL    HW2 2925   0.980   0.208   4.069
  676SOL     OW 2926   4.209   6.176   2.804
  676SOL    HW1 2927   4.303   6.144   2.793
  676SOL    HW2 2928   4.197   6.262   2.755
  677SOL     OW 2929   6.522   1.653   6.852
  677SOL    HW1 2930   6.458   1.601   6.796
  677SOL    HW2 2931   6.486   1.662   6.945
  678SOL     OW 2932   1.794   1.235   5.174
  678SOL    HW1 2933   1.699   1.259   5.194
  678SOL    HW2 2934   1.818   1.151   5.224
  679SOL     OW 2935   4.428   1.592   4.145
  679SOL    HW1 2936   4.394   1.662   4.208
  679SOL    HW2 2937   4.442   1.506   4.195
  680SOL     OW 2938   5.822   5.431   5.669
  680SOL    HW1 2939   5.763   5.488   5.612
  680SOL    HW2 2940   5.804   5.448   5.765
  681SOL     OW 2941   5.433   5.567   1.618
  681SOL    HW1 2942   5.443   5.577   1.717
  681SOL    HW2 2943   5.380   5.485   1.598
  682SOL     OW 2944   1.503   0.738   0.499
  682SOL    HW1 2945   1.428   0.693   0.549
  682SOL    HW2 2946   1.581   0.750   0.560
  683SOL     OW 2947   3.797   3.021   6.816
  683SOL    HW1 2948   3.818   2.992   6.723
  683SOL    HW2 2949   3.846   2.963   6.881
  684SOL     OW 2950   6.841   1.102   0.190
  684SOL    HW1 2951   6.745   1.084   0.210
  684SOL    HW2 2952   6.864   1.061   0.102
  685SOL     OW 2953   4.902   1.336   4.010
  685SOL    HW1 2954   4.995   1.315   3.979
  685SOL    HW2 2955   4.877   1.277   4.087
  686SOL     OW 2956   5.284   2.214   3.987
  686SOL    HW1 2957   5.230   2.181   4.065
  686SOL    HW2 2958   5.266   2.311   3.972
  687SOL     OW 2959   0.632   2.011   4.101
  687SOL    HW1 2960   0.689   2.059   4.167
  687SOL    HW2 2961   0.593   1.929   4.144
  688SOL     OW 2962   0.944   2.525   0.415
  688SOL    HW1 2963   0.871   2.496   0.477
  688SOL    HW2 2964   1.009   2.583   0.465
  689SOL     OW 2965   0.145   4.155   6.039
  689SOL    HW1 2966   0.162   4.062   6.071
  689SOL    HW2 2967   0.231   4.196   6.008
  690SOL     OW 2968   0.576   4.057   3.029
  690SOL    HW1 2969   0.533   4.042   3.118
  690SOL    HW2 2970   0.669   4.090   3.042
  691SOL     OW 2971   2.852   0.084   6.626
  691SOL    HW1 2972   2.846   0.178   6.661
  691SOL    HW2 2973   2.946   0.065   6.599
  692SOL     OW 2974   3.718   5.786   3.674
  692SOL    HW1 2975   3.713   5.760   3.771
  692SOL    HW2 2976   3.786   5.729   3.628
  693SOL     OW 2977   6.233   0.828   3.396
  693SOL    HW1 2978   6.284   0.837   3.482
  693SOL    HW2 2979   6.297   0.834   3.319
  694SOL     OW 2980   4.299   6.151   2.383
  694SOL    HW1 2981   4.358   6.131   2.461
  694SOL    HW2 2982   4.211   6.185   2.417
  695SOL     OW 2983   4.341   6.012   4.838
  695SOL    HW1 2984   4.256   6.021   4.785
  695SOL    HW2 2985   4.322   6.028   4.935
  696SOL     OW 2986   3.765   5.270   2.463
  696SOL    HW1 2987   3.672   5.235   2.453
  696SOL    HW2 2988   3.793   5.265   2.558
  697SOL     OW 2989   1.975   2.907   3.364
  697SOL    HW1 2990   1.946   2.988   3.314
  697SOL    HW2 2991   1.926   2.827   3.330
  698SOL     OW 2992   5.658   6.582   7.018
  698SOL    HW1 2993   5.671   6.649   6.945
  698SOL    HW2 2994   5.746   6.543   0.017
  699SOL     OW 2995   1.877   3.642   6.180
  699SOL    HW1 2996   1.862   3.732   6.221
  699SOL    HW2 2997   1.971   3.637   6.146
  700SOL     OW 2998   2.507   1.547   3.348
  700SOL    HW1 2999   2.493   1.470   3.410
  700SOL    HW2 3000   2.504   1.513   3.253
  701SOL     OW 3001   5.886   3.705   4.915
  701SOL    HW1 3002   5.892   3.667   4.823
  701SOL    HW2 3003   5.922   3.640   4.981
  702SOL     OW 3004   0.631   6.552   6.089
  702SOL    HW1 3005   0.658   6.645   6.115
  702SOL    HW2 3006   0.545   6.528   6.134
  703SOL     OW 3007   3.659   3.967   6.462
  703SOL    HW1 3008   3.740   4.017   6.432
  703SOL    HW2 3009   3.623   3.913   6.386
  704SOL     OW 3010   1.466   1.556   0.193
  704SOL    HW1 3011   1.509   1.617   0.128
  704SOL    HW2 3012   1.521   1.473   0.203
  705SOL     OW 3013   6.400   5.976   3.008
  705SOL    HW1 3014   6.463   6.035   2.958
  705SOL    HW2 3015   6.309   6.018   3.009
  706SOL     OW 3016   4.797   2.463   4.323
  706SOL    HW1 3017   4.857   2.432   4.249
  706SOL    HW2 3018   4.741   2.539   4.291
  707SOL     OW 3019   5.081   6.817   2.381
  707SOL    HW1 3020   5.053   6.737   2.434
  707SOL    HW2 3021   5.128   6.788   2.298
  708SOL     OW 3022   3.893   0.591   1.544
  708SOL    HW1 3023   3.868   0.662   1.610
  708SOL    HW2 3024   3.984   0.610   1.508
  709SOL     OW 3025   1.153   5.210   1.279
  709SOL    HW1 3026   1.148   5.132   1.341
  709SOL    HW2 3027   1.226   5.271   1.308
  710SOL     OW 3028   3.759   2.904   2.813
  710SOL    HW1 3029   3.727   2.926   2.905
  710SOL    HW2 3030   3.738   2.809   2.792
  711SOL     OW 3031   6.830   2.662   5.467
  711SOL    HW1 3032   6.907   2.658   5.403
  711SOL    HW2 3033   6.834   2.584   5.529
  712SOL     OW 3034   4.010   3.560   1.289
  712SOL    HW1 3035   4.057   3.644   1.315
  712SOL    HW2 3036   3.924   3.553   1.339
  713SOL     OW 3037   3.835   2.846   6.161
  713SOL    HW1 3038   3.905   2.804   6.104
  713SOL    HW2 3039   3.873   2.927   6.206
  714SOL     OW 3040   6.689   4.354   3.996
  714SOL    HW1 3041   6.758   4.298   3.950
  714SOL    HW2 3042   6.725   4.445   4.013
  715SOL     OW 3043   5.819   5.726   0.397
  715SOL    HW1 3044   5.723   5.738   0.423
  715SOL    HW2 3045   5.858   5.814   0.370
  716SOL     OW 3046   0.842   6.780   1.287
  716SOL    HW1 3047   0.753   6.823   1.302
  716SOL    HW2 3048   0.844   6.738   1.197
  717SOL     OW 3049   6.325   4.830   5.856
  717SOL    HW1 3050   6.278   4.915   5.880
  717SOL    HW2 3051   6.269   4.779   5.790
  718SOL     OW 3052   4.955   2.292   6.102
  718SOL    HW1 3053   5.012   2.213   6.081
  718SOL    HW2 3054   4.995   2.374   6.062
  719SOL     OW 3055   6.543   0.545   1.939
  719SOL    HW1 3056   6.559   0.644   1.938
  719SOL    HW2 3057   6.472   0.523   2.005
  720SOL     OW 3058   3.550   1.134   6.398
  720SOL    HW1 3059   3.519   1.043   6.370
  720SOL    HW2 3060   3.516   1.202   6.334
  721SOL     OW 3061   2.984   0.811   4.110
  721SOL    HW1 3062   2.920   0.888   4.107
  721SOL    HW2 3063   3.072   0.838   4.070
  722SOL     OW 3064   2.832   0.888   4.908
  722SOL    HW1 3065   2.773   0.869   4.986
  722SOL    HW2 3066   2.902   0.954   4.936
  723SOL     OW 3067   1.839   3.693   3.164
  723SOL    HW1 3068   1.845   3.676   3.065
  723SOL    HW2 3069   1.912   3.757   3.190
  724SOL     OW 3070   0.934   3.146   4.184
  724SOL    HW1 3071   0.919   3.090   4.103
  724SOL    HW2 3072   1.001   3.102   4.243
  725SOL     OW 3073   3.114   5.738   0.630
  725SOL    HW1 3074   3.048   5.666   0.648
  725SOL    HW2 3075   3.179   5.708   0.560
  726SOL     OW 3076   4.094   4.761   0.848
  726SOL    HW1 3077   4.006   4.776   0.803
  726SOL    HW2 3078   4.079   4.729   0.941
  727SOL     OW 3079   5.695   4.664   5.717
  727SOL    HW1 3080   5.780   4.706   5.750
  727SOL    HW2 3081   5.710   4.629   5.624
  728SOL     OW 3082   6.742   3.195   4.570
  728SOL    HW1 3083   6.664   3.239   4.524
  728SOL    HW2 3084   6.791   3.138   4.504
  729SOL     OW 3085   1.488   2.018   1.229
  729SOL    HW1 3086   1.414   2.082   1.252
  729SOL    HW2 3087   1.472   1.980   1.138
  730SOL     OW 3088   5.817   0.840   3.397
  730SOL    HW1 3089   5.896   0.900   3.382
  730SOL    HW2 3090   5.847   0.758   3.445
  731SOL     OW 3091   5.646   4.298   6.032
  731SOL    HW1 3092   5.576   4.362   6.063
  731SOL    HW2 3093   5.661   4.311   5.934
  732SOL     OW 3094   6.669   2.386   1.841
  732SOL    HW1 3095   6.638   2.469   1.793
  732SOL    HW2 3096   6.768   2.388   1.850
  733SOL     OW 3097   5.911   6.174   5.479
  733SOL    HW1 3098   5.908   6.267   5.441
  733SOL    HW2 3099   5.998   6.131   5.453
  734SOL     OW 3100   0.193   4.673   2.878
  734SOL    HW1 3101   0.196   4.762   2.831
  734SOL    HW2 3102   0.268   4.667   2.944
  735SOL     OW 3103   3.856   1.799   0.501
  735SOL    HW1 3104   3.802   1.778   0.582
  735SOL    HW2 3105   3.809   1.766   0.420
  736SOL     OW 3106   0.874   0.768   3.470
  736SOL    HW1 3107   0.872   0.857   3.426
  736SOL    HW2 3108   0.936   0.707   3.420
  737SOL     OW 3109   4.831   1.887   5.654
  737SOL    HW1 3110   4.823   1.788   5.648
  737SOL    HW2 3111   4.926   1.914   5.637
  738SOL     OW 3112   2.022   4.084   1.666
  738SOL    HW1 3113   1.983   4.160   1.613
  738SOL    HW2 3114   2.121   4.099   1.677
  739SOL     OW 3115   4.181   0.276   4.017
  739SOL    HW1 3116   4.176   0.210   3.942
  739SOL    HW2 3117   4.276   0.300   4.034
  740SOL     OW 3118   5.879   0.391   1.291
  740SOL    HW1 3119   5.820   0.471   1.299
  740SOL    HW2 3120   5.823   0.308   1.287
  741SOL     OW 3121   2.407   6.250   3.343
  741SOL    HW1 3122   2.344   6.315   3.300
  741SOL    HW2 3123   2.381   6.157   3.317
  742SOL     OW 3124   2.703   6.713   2.421
  742SOL    HW1 3125   2.723   6.623   2.383
  742SOL    HW2 3126   2.777   6.741   2.483
  743SOL     OW 3127   0.304   3.623   3.641
  743SOL    HW1 3128   0.258   3.536   3.629
  743SOL    HW2 3129   0.377   3.613   3.709
  744SOL     OW 3130   5.694   0.576   6.582
  744SOL    HW1 3131   5.698   0.624   6.670
  744SOL    HW2 3132   5.610   0.522   6.578
  745SOL     OW 3133   1.130   5.703   4.948
  745SOL    HW1 3134   1.105   5.606   4.945
  745SOL    HW2 3135   1.204   5.720   4.883
  746SOL     OW 3136   0.080   4.741   6.363
  746SOL    HW1 3137   0.037   4.654   6.386
  746SOL    HW2 3138   0.043   4.775   6.276
  747SOL     OW 3139   3.745   6.619   4.517
  747SOL    HW1 3140   3.695   6.620   4.604
  747SOL    HW2 3141   3.734   6.530   4.474
  748SOL     OW 3142   3.558   5.052   2.191
  748SOL    HW1 3143   3.534   5.076   2.285
  748SOL    HW2 3144   3.480   5.012   2.145
  749SOL     OW 3145   6.135   4.469   4.825
  749SOL    HW1 3146   6.074   4.505   4.755
  749SOL    HW2 3147   6.225   4.452   4.785
  750SOL     OW 3148   1.740   1.982   1.142
  750SOL    HW1 3149   1.672   1.970   1.215
  750SOL    HW2 3150   1.734   2.076   1.108
  751SOL     OW 3151   4.300   2.374   6.686
  751SOL    HW1 3152   4.212   2.384   6.732
  751SOL    HW2 3153   4.373   2.401   6.749
  752SOL     OW 3154   3.720   0.855   2.680
  752SOL    HW1 3155   3.695   0.950   2.699
  752SOL    HW2 3156   3.666   0.794   2.737
  753SOL     OW 3157   2.011   3.321   5.310
  753SOL    HW1 3158   1.915   3.347   5.308
  753SOL    HW2 3159   2.058   3.360   5.231
  754SOL     OW 3160   4.835   2.740   5.578
  754SOL    HW1 3161   4.882   2.825   5.559
  754SOL    HW2 3162   4.741   2.759   5.607
  755SOL     OW 3163   1.239   4.301   5.195
  755SOL    HW1 3164   1.220   4.380   5.253
  755SOL    HW2 3165   1.336   4.299   5.173
  756SOL     OW 3166   3.134   6.447   0.206
  756SOL    HW1 3167   3.079   6.496   0.138
  756SOL    HW2 3168   3.202   6.390   0.159
  757SOL     OW 3169   0.808   0.353   3.425
  757SOL    HW1 3170   0.797   0.397   3.514
  757SOL    HW2 3171   0.905   0.340   3.405
  758SOL     OW 3172   3.591   6.982   1.840
  758SOL    HW1 3173   3.558   6.909   1.899
  758SOL    HW2 3174   3.618   6.943   1.751
  759SOL     OW 3175   0.248   1.461   1.403
  759SOL    HW1 3176   0.250   1.494   1.308
  759SOL    HW2 3177   0.310   1.515   1.458
  760SOL     OW 3178   5.421   0.222   5.409
  760SOL    HW1 3179   5.509   0.196   5.450
  760SOL    HW2 3180   5.401   0.160   5.333
  761SOL     OW 3181   5.522   3.092   5.861
  761SOL    HW1 3182   5.541   3.185   5.831
  761SOL    HW2 3183   5.427   3.069   5.841
  762SOL     OW 3184   2.385   0.821   4.728
  762SOL    HW1 3185   2.464   0.773   4.766
  762SOL    HW2 3186   2.356   0.893   4.791
  763SOL     OW 3187   4.186   5.245   6.356
  763SOL    HW1 3188   4.129   5.299   6.294
  763SOL    HW2 3189   4.165   5.269   6.451
  764SOL     OW 3190   5.144   2.065   5.410
  764SOL    HW1 3191   5.231   2.113   5.407
  764SOL    HW2 3192   5.073   2.125   5.446
  765SOL     OW 3193   1.210   6.225   1.396
  765SOL    HW1 3194   1.209   6.130   1.428
  765SOL    HW2 3195   1.175   6.228   1.302
  766SOL     OW 3196   2.573   3.294   6.535
  766SOL    HW1 3197   2.648   3.361   6.537
  766SOL    HW2 3198   2.534   3.286   6.626
  767SOL     OW 3199   6.015   5.886   1.859
  767SOL    HW1 3200   6.063   5.822   1.918
  767SOL    HW2 3201   6.015   5.851   1.765
  768SOL     OW 3202   2.168   6.391   2.304
  768SOL    HW1 3203   2.243   6.427   2.360
  768SOL    HW2 3204   2.110   6.467   2.275
  769SOL     OW 3205   3.185   1.099   4.821
  769SOL    HW1 3206   3.124   1.064   4.892
  769SOL    HW2 3207   3.175   1.199   4.814
  770SOL     OW 3208   1.920   4.388   2.902
  770SOL    HW1 3209   1.831   4.431   2.918
  770SOL    HW2 3210   1.992   4.456   2.918
  771SOL     OW 3211   2.061   5.010   2.588
  771SOL    HW1 3212   2.047   5.100   2.630
  771SOL    HW2 3213   2.089   5.023   2.492
  772SOL     OW 3214   5.666   5.393   0.345
  772SOL    HW1 3215   5.707   5.472   0.390
  772SOL    HW2 3216   5.567   5.398   0.352
  773SOL     OW 3217   0.060   3.806   4.907
  773SOL    HW1 3218   0.079   3.731   4.971
  773SOL    HW2 3219   0.143   3.860   4.894
  774SOL     OW 3220   1.195   1.652   1.525
  774SOL    HW1 3221   1.154   1.741   1.510
  774SOL    HW2 3222   1.244   1.651   1.612
  775SOL     OW 3223   0.285   2.273   2.898
  775SOL    HW1 3224   0.214   2.344   2.907
  775SOL    HW2 3225   0.310   2.240   2.989
  776SOL     OW 3226   1.325   0.240   6.248
  776SOL    HW1 3227   1.289   0.183   6.175
  776SOL    HW2 3228   1.406   0.289   6.215
  777SOL     OW 3229   2.253   5.101   1.554
  777SOL    HW1 3230   2.176   5.156   1.520
  777SOL    HW2 3231   2.232   5.004   1.543
  778SOL     OW 3232   2.504   1.564   2.162
  778SOL    HW1 3233   2.574   1.592   2.227
  778SOL    HW2 3234   2.430   1.517   2.211
  779SOL     OW 3235   6.672   2.747   2.209
  779SOL    HW1 3236   6.694   2.845   2.211
  779SOL    HW2 3237   6.593   2.730   2.268
  780SOL     OW 3238   6.419   3.339   4.246
  780SOL    HW1 3239   6.480   3.363   4.322
  780SOL    HW2 3240   6.448   3.386   4.163
  781SOL     OW 3241   5.837   0.841   0.039
  781SOL    HW1 3242   5.753   0.884   0.072
  781SOL    HW2 3243   5.915   0.899   0.060
  782SOL     OW 3244   1.352   4.452   6.618
  782SOL    HW1 3245   1.262   4.434   6.578
  782SOL    HW2 3246   1.399   4.522   6.564
  783SOL     OW 3247   4.528   4.889   0.839
  783SOL    HW1 3248   4.542   4.946   0.920
  783SOL    HW2 3249   4.614   4.879   0.789
  784SOL     OW 3250   4.913   5.788   0.603
  784SOL    HW1 3251   4.828   5.788   0.551
  784SOL    HW2 3252   4.929   5.880   0.639
  785SOL     OW 3253   0.392   2.216   3.194
  785SOL    HW1 3254   0.456   2.282   3.155
  785SOL    HW2 3255   0.427   2.184   3.282
  786SOL     OW 3256   1.595   1.138   2.074
  786SOL    HW1 3257   1.543   1.053   2.062
  786SOL    HW2 3258   1.686   1.127   2.036
  787SOL     OW 3259   2.867   0.709   7.005
  787SOL    HW1 3260   2.857   0.616   6.971
  787SOL    HW2 3261   2.899   0.706   0.073
  788SOL     OW 3262   3.786   3.304   5.826
  788SOL    HW1 3263   3.762   3.234   5.758
  788SOL    HW2 3264   3.871   3.277   5.872
  789SOL     OW 3265   5.065   3.941   0.636
  789SOL    HW1 3266   4.987   3.880   0.624
  789SOL    HW2 3267   5.125   3.904   0.707
  790SOL     OW 3268   2.204   0.836   3.766
  790SOL    HW1 3269   2.138   0.783   3.713
  790SOL    HW2 3270   2.254   0.897   3.704
  791SOL     OW 3271   3.246   5.676   4.002
  791SOL    HW1 3272   3.260   5.768   3.965
  791SOL    HW2 3273   3.154   5.645   3.979
  792SOL     OW 3274   1.111   6.742   0.657
  792SOL    HW1 3275   1.146   6.726   0.749
  792SOL    HW2 3276   1.187   6.759   0.595
  793SOL     OW 3277   4.867   4.725   3.531
  793SOL    HW1 3278   4.796   4.667   3.571
  793SOL    HW2 3279   4.831   4.817   3.518
  794SOL     OW 3280   3.706   3.556   5.229
  794SOL    HW1 3281   3.784   3.562   5.167
  794SOL    HW2 3282   3.673   3.648   5.252
  795SOL     OW 3283   3.220   6.802   3.867
  795SOL    HW1 3284   3.197   6.839   3.777
  795SOL    HW2 3285   3.144   6.818   3.929
  796SOL     OW 3286   0.386   1.834   6.295
  796SOL    HW1 3287   0.474   1.824   6.342
  796SOL    HW2 3288   0.367   1.750   6.243
  797SOL     OW 3289   5.987   3.221   1.031
  797SOL    HW1 3290   6.081   3.192   1.051
  797SOL    HW2 3291   5.941   3.152   0.976
  798SOL     OW 3292   4.010   0.243   2.509
  798SOL    HW1 3293   3.961   0.326   2.537
  798SOL    HW2 3294   4.063   0.208   2.587
  799SOL     OW 3295   0.037   0.183   6.026
  799SOL    HW1 3296   0.061   0.127   5.947
  799SOL    HW2 3297   0.092   0.155   6.105
  800SOL     OW 3298   5.279   2.179   2.705
  800SOL    HW1 3299   5.324   2.091   2.717
  800SOL    HW2 3300   5.184   2.164   2.677
  801SOL     OW 3301   1.357   3.597   4.346
  801SOL    HW1 3302   1.346   3.498   4.350
  801SOL    HW2 3303   1.427   3.626   4.411
  802SOL     OW 3304   3.876   1.895   1.098
  802SOL    HW1 3305   3.946   1.921   1.031
  802SOL    HW2 3306   3.786   1.921   1.063
  803SOL     OW 3307   0.486   6.625   5.606
  803SOL    HW1 3308   0.502   6.539   5.557
  803SOL    HW2 3309   0.440   6.690   5.546
  804SOL     OW 3310   5.319   5.667   6.905
  804SOL    HW1 3311   5.255   5.691   6.977
  804SOL    HW2 3312   5.304   5.573   6.876
  805SOL     OW 3313   3.673   0.169   5.265
  805SOL    HW1 3314   3.700   0.265   5.276
  805SOL    HW2 3315   3.581   0.163   5.229
  806SOL     OW 3316   5.191   0.909   4.902
  806SOL    HW1 3317   5.174   0.886   4.998
  806SOL    HW2 3318   5.123   0.976   4.871
  807SOL     OW 3319   1.629   1.855   3.794
  807SOL    HW1 3320   1.593   1.807   3.873
  807SOL    HW2 3321   1.577   1.939   3.778
  808SOL     OW 3322   4.793   3.475   6.325
  808SOL    HW1 3323   4.705   3.522   6.333
  808SOL    HW2 3324   4.779   3.377   6.329
  809SOL     OW 3325   6.653   5.019   1.062
  809SOL    HW1 3326   6.752   5.009   1.067
  809SOL    HW2 3327   6.619   4.976   0.978
  810SOL     OW 3328   3.067   3.434   1.644
  810SOL    HW1 3329   2.992   3.495   1.619
  810SOL    HW2 3330   3.074   3.429   1.743
  811SOL     OW 3331   4.425   5.493   5.317
  811SOL    HW1 3332   4.336   5.448   5.320
  811SOL    HW2 3333   4.453   5.503   5.221
  812SOL     OW 3334   0.566   1.470   2.331
  812SOL    HW1 3335   0.502   1.396   2.351
  812SOL    HW2 3336   0.633   1.477   2.405
  813SOL     OW 3337   3.411   6.434   5.069
  813SOL    HW1 3338   3.339   6.503   5.075
  813SOL    HW2 3339   3.395   6.362   5.136
  814SOL     OW 3340   6.617   6.049   2.418
  814SOL    HW1 3341   6.709   6.035   2.382
  814SOL    HW2 3342   6.613   6.137   2.465
  815SOL     OW 3343   0.571   3.463   3.007
  815SOL    HW1 3344   0.473   3.478   2.999
  815SOL    HW2 3345   0.619   3.510   2.933
  816SOL     OW 3346   6.114   6.808   0.687
  816SOL    HW1 3347   6.204   6.795   0.731
  816SOL    HW2 3348   6.127   6.829   0.590
  817SOL     OW 3349   2.201   4.590   0.689
  817SOL    HW1 3350   2.301   4.583   0.689
  817SOL    HW2 3351   2.175   4.682   0.717
  818SOL     OW 3352   5.971   3.215   2.357
  818SOL    HW1 3353   5.918   3.138   2.322
  818SOL    HW2 3354   6.031   3.185   2.431
  819SOL     OW 3355   5.727   2.611   3.272
  819SOL    HW1 3356   5.631   2.638   3.259
  819SOL    HW2 3357   5.785   2.665   3.211
  820SOL     OW 3358   3.033   2.444   5.289
  820SOL    HW1 3359   3.104   2.389   5.246
  820SOL    HW2 3360   3.071   2.532   5.317
  821SOL     OW 3361   1.736   4.799   1.529
  821SOL    HW1 3362   1.699   4.799   1.436
  821SOL    HW2 3363   1.785   4.885   1.546
  822SOL     OW 3364   1.703   4.552   3.800
  822SOL    HW1 3365   1.646   4.538   3.881
  822SOL    HW2 3366   1.668   4.497   3.724
  823SOL     OW 3367   5.056   3.668   6.639
  823SOL    HW1 3368   5.088   3.724   6.715
  823SOL    HW2 3369   5.024   3.727   6.565
  824SOL     OW 3370   5.959   0.983   6.039
  824SOL    HW1 3371   5.955   1.073   5.993
  824SOL    HW2 3372   5.952   0.996   6.138
  825SOL     OW 3373   0.296   4.005   1.494
  825SOL    HW1 3374   0.297   4.104   1.486
  825SOL    HW2 3375   0.380   3.974   1.539
  826SOL     OW 3376   5.475   3.271   5.604
  826SOL    HW1 3377   5.571   3.244   5.597
  826SOL    HW2 3378   5.453   3.333   5.529
  827SOL     OW 3379   2.840   4.985   5.642
  827SOL    HW1 3380   2.796   4.929   5.712
  827SOL    HW2 3381   2.903   4.928   5.589
  828SOL     OW 3382   5.421   6.953   6.503
  828SOL    HW1 3383   5.326   6.948   6.532
  828SOL    HW2 3384   5.469   7.023   6.556
  829SOL     OW 3385   3.441   4.112   2.862
  829SOL    HW1 3386   3.505   4.037   2.848
  829SOL    HW2 3387   3.469   4.165   2.943
  830SOL     OW 3388   5.396   5.125   6.758
  830SOL    HW1 3389   5.356   5.081   6.838
  830SOL    HW2 3390   5.368   5.076   6.676
  831SOL     OW 3391   6.391   0.375   0.288
  831SOL    HW1 3392   6.474   0.353   0.238
  831SOL    HW2 3393   6.387   0.323   0.373
  832SOL     OW 3394   3.178   0.770   1.671
  832SOL    HW1 3395   3.177   0.732   1.764
  832SOL    HW2 3396   3.138   0.861   1.673
  833SOL     OW 3397   0.854   3.828   5.530
  833SOL    HW1 3398   0.845   3.770   5.449
  833SOL    HW2 3399   0.772   3.884   5.540
  834SOL     OW 3400   3.867   4.072   0.535
  834SOL    HW1 3401   3.858   3.973   0.544
  834SOL    HW2 3402   3.961   4.095   0.506
  835SOL     OW 3403   3.760   0.424   5.170
  835SOL    HW1 3404   3.791   0.411   5.076
  835SOL    HW2 3405   3.815   0.495   5.213
  836SOL     OW 3406   3.335   6.051   6.425
  836SOL    HW1 3407   3.432   6.059   6.449
  836SOL    HW2 3408   3.320   6.092   6.335
  837SOL     OW 3409   5.505   0.411   0.592
  837SOL    HW1 3410   5.505   0.318   0.629
  837SOL    HW2 3411   5.586   0.425   0.536
  838SOL     OW 3412   2.261   0.454   4.784
  838SOL    HW1 3413   2.350   0.483   4.820
  838SOL    HW2 3414   2.264   0.356   4.765
  839SOL     OW 3415   1.560   3.109   2.160
  839SOL    HW1 3416   1.627   3.045   2.198
  839SOL    HW2 3417   1.534   3.080   2.068
  840SOL     OW 3418   6.348   6.280   0.371
  840SOL    HW1 3419   6.291   6.294   0.291
  840SOL    HW2 3420   6.400   6.195   0.360
  841SOL     OW 3421   4.298   4.932   6.604
  841SOL    HW1 3422   4.274   4.921   6.700
  841SOL    HW2 3423   4.270   4.851   6.553
  842SOL     OW 3424   4.397   0.340   5.324
  842SOL    HW1 3425   4.458   0.297   5.257
  842SOL    HW2 3426   4.411   0.439   5.323
  843SOL     OW 3427   1.017   1.584   1.195
  843SOL    HW1 3428   0.969   1.668   1.219
  843SOL    HW2 3429   1.111   1.589   1.230
  844SOL     OW 3430   6.190   0.820   0.783
  844SOL    HW1 3431   6.250   0.856   0.712
  844SOL    HW2 3432   6.153   0.895   0.837
  845SOL     OW 3433   5.141   4.355   5.331
  845SOL    HW1 3434   5.230   4.341   5.288
  845SOL    HW2 3435   5.134   4.298   5.413
  846SOL     OW 3436   1.919   2.262   6.665
  846SOL    HW1 3437   1.991   2.273   6.733
  846SOL    HW2 3438   1.843   2.324   6.686
  847SOL     OW 3439   1.597   3.068   1.595
  847SOL    HW1 3440   1.591   2.988   1.535
  847SOL    HW2 3441   1.589   3.151   1.540
  848SOL     OW 3442   6.156   0.776   6.259
  848SOL    HW1 3443   6.154   0.767   6.159
  848SOL    HW2 3444   6.074   0.733   6.298
  849SOL     OW 3445   0.267   4.403   6.386
  849SOL    HW1 3446   0.298   4.493   6.354
  849SOL    HW2 3447   0.177   4.413   6.429
  850SOL     OW 3448   4.915   0.252   3.463
  850SOL    HW1 3449   4.937   0.282   3.556
  850SOL    HW2 3450   4.854   0.320   3.421
  851SOL     OW 3451   0.105   1.603   2.554
  851SOL    HW1 3452   0.032   1.537   2.532
  851SOL    HW2 3453   0.193   1.567   2.523
  852SOL     OW 3454   1.427   2.896   6.959
  852SOL    HW1 3455   1.415   2.910   0.031
  852SOL    HW2 3456   1.491   2.964   6.924
  853SOL     OW 3457   1.776   4.535   2.161
  853SOL    HW1 3458   1.827   4.611   2.200
  853SOL    HW2 3459   1.679   4.559   2.156
  854SOL     OW 3460   4.609   5.892   1.386
  854SOL    HW1 3461   4.552   5.956   1.438
  854SOL    HW2 3462   4.627   5.811   1.442
  855SOL     OW 3463   0.032   0.061   1.567
  855SOL    HW1 3464   0.125   0.024   1.556
  855SOL    HW2 3465   7.002   0.030   1.491
  856SOL     OW 3466   1.397   2.251   5.210
  856SOL    HW1 3467   1.424   2.215   5.300
  856SOL    HW2 3468   1.300   2.230   5.195
  857SOL     OW 3469   5.930   4.255   1.703
  857SOL    HW1 3470   6.017   4.304   1.702
  857SOL    HW2 3471   5.909   4.226   1.796
  858SOL     OW 3472   2.505   3.466   0.915
  858SOL    HW1 3473   2.544   3.419   0.836
  858SOL    HW2 3474   2.444   3.539   0.884
  859SOL     OW 3475   5.395   5.793   5.329
  859SOL    HW1 3476   5.470   5.830   5.275
  859SOL    HW2 3477   5.393   5.837   5.419
  860SOL     OW 3478   5.212   3.250   0.374
  860SOL    HW1 3479   5.252   3.256   0.282
  860SOL    HW2 3480   5.239   3.164   0.417
  861SOL     OW 3481   2.769   5.797   3.401
  861SOL    HW1 3482   2.735   5.850   3.478
  861SOL    HW2 3483   2.867   5.814   3.389
  862SOL     OW 3484   0.916   4.002   4.681
  862SOL    HW1 3485   0.844   3.957   4.733
  862SOL    HW2 3486   0.987   4.035   4.744
  863SOL     OW 3487   6.200   0.606   1.210
  863SOL    HW1 3488   6.183   0.653   1.296
  863SOL    HW2 3489   6.248   0.520   1.227
  864SOL     OW 3490   4.199   4.816   3.499
  864SOL    HW1 3491   4.262   4.852   3.568
  864SOL    HW2 3492   4.107   4.813   3.538
  865SOL     OW 3493   0.576   6.176   6.096
  865SOL    HW1 3494   0.553   6.273   6.090
  865SOL    HW2 3495   0.501   6.121   6.059
  866SOL     OW 3496   2.011   1.994   1.508
  866SOL    HW1 3497   2.104   1.987   1.473
  866SOL    HW2 3498   2.002   2.078   1.562
  867SOL     OW 3499   4.041   3.745   0.767
  867SOL    HW1 3500   4.014   3.837   0.794
  867SOL    HW2 3501   4.116   3.750   0.701
  868SOL     OW 3502   6.052   0.993   0.919
  868SOL    HW1 3503   6.009   1.026   0.834
  868SOL    HW2 3504   5.985   0.995   0.993
  869SOL     OW 3505   0.047   5.247   3.406
  869SOL    HW1 3506   0.107   5.169   3.425
  869SOL    HW2 3507   7.018   5.268   3.487
  870SOL     OW 3508   4.300   3.375   0.872
  870SOL    HW1 3509   4.350   3.392   0.957
  870SOL    HW2 3510   4.361   3.391   0.794
  871SOL     OW 3511   4.654   2.762   3.492
  871SOL    HW1 3512   4.557   2.750   3.470
  871SOL    HW2 3513   4.692   2.839   3.440
  872SOL     OW 3514   5.201   3.943   3.868
  872SOL    HW1 3515   5.226   4.026   3.819
  872SOL    HW2 3516   5.226   3.952   3.965
  873SOL     OW 3517   5.754   6.958   3.953
  873SOL    HW1 3518   5.684   6.899   3.912
  873SOL    HW2 3519   5.823   6.979   3.884
  874SOL     OW 3520   0.664   4.399   6.348
  874SOL    HW1 3521   0.717   4.470   6.300
  874SOL    HW2 3522   0.710   4.374   6.433
  875SOL     OW 3523   3.359   2.917   0.519
  875SOL    HW1 3524   3.385   2.850   0.589
  875SOL    HW2 3525   3.440   2.966   0.489
  876SOL     OW 3526   0.572   5.057   2.918
  876SOL    HW1 3527   0.632   5.080   2.994
  876SOL    HW2 3528   0.481   5.035   2.953
  877SOL     OW 3529   4.423   4.036   6.656
  877SOL    HW1 3530   4.421   3.936   6.656
  877SOL    HW2 3531   4.511   4.067   6.691
  878SOL     OW 3532   4.084   5.808   5.197
  878SOL    HW1 3533   4.084   5.898   5.241
  878SOL    HW2 3534   4.178   5.775   5.188
  879SOL     OW 3535   2.885   2.451   1.419
  879SOL    HW1 3536   2.833   2.384   1.472
  879SOL    HW2 3537   2.874   2.433   1.322
  880SOL     OW 3538   3.375   4.189   5.613
  880SOL    HW1 3539   3.320   4.234   5.684
  880SOL    HW2 3540   3.468   4.225   5.615
  881SOL     OW 3541   4.743   4.136   5.031
  881SOL    HW1 3542   4.800   4.061   4.998
  881SOL    HW2 3543   4.716   4.193   4.953
  882SOL     OW 3544   0.724   1.728   4.370
  882SOL    HW1 3545   0.792   1.799   4.387
  882SOL    HW2 3546   0.732   1.697   4.276
  883SOL     OW 3547   4.714   5.892   5.955
  883SOL    HW1 3548   4.755   5.897   6.046
  883SOL    HW2 3549   4.719   5.798   5.921
  884SOL     OW 3550   0.128   3.779   0.252
  884SOL    HW1 3551   0.191   3.802   0.327
  884SOL    HW2 3552   0.102   3.863   0.205
  885SOL     OW 3553   4.786   5.613   6.508
  885SOL    HW1 3554   4.870   5.575   6.546
  885SOL    HW2 3555   4.709   5.591   6.568
  886SOL     OW 3556   4.071   0.823   1.330
  886SOL    HW1 3557   4.096   0.729   1.354
  886SOL    HW2 3558   4.061   0.831   1.231
  887SOL     OW 3559   3.449   6.964   3.969
  887SOL    HW1 3560   3.538   6.935   3.934
  887SOL    HW2 3561   3.377   6.911   3.924
  888SOL     OW 3562   5.594   5.755   3.197
  888SOL    HW1 3563   5.509   5.805   3.180
  888SOL    HW2 3564   5.597   5.673   3.140
  889SOL     OW 3565   1.788   6.695   6.121
  889SOL    HW1 3566   1.786   6.596   6.128
  889SOL    HW2 3567   1.695   6.729   6.106
  890SOL     OW 3568   2.324   5.215   2.124
  890SOL    HW1 3569   2.373   5.137   2.084
  890SOL    HW2 3570   2.251   5.243   2.063
  891SOL     OW 3571   6.262   4.190   0.360
  891SOL    HW1 3572   6.347   4.211   0.408
  891SOL    HW2 3573   6.271   4.102   0.314
  892SOL     OW 3574   3.886   4.053   5.581
  892SOL    HW1 3575   3.918   3.959   5.568
  892SOL    HW2 3576   3.823   4.078   5.508
  893SOL     OW 3577   1.944   1.037   1.799
  893SOL    HW1 3578   1.889   1.121   1.803
  893SOL    HW2 3579   2.039   1.059   1.820
  894SOL     OW 3580   1.539   2.300   2.993
  894SOL    HW1 3581   1.566   2.389   3.031
  894SOL    HW2 3582   1.534   2.233   3.067
  895SOL     OW 3583   1.457   5.124   4.461
  895SOL    HW1 3584   1.454   5.218   4.429
  895SOL    HW2 3585   1.380   5.108   4.524
  896SOL     OW 3586   6.494   6.286   2.012
  896SOL    HW1 3587   6.450   6.233   1.940
  896SOL    HW2 3588   6.448   6.375   2.020
  897SOL     OW 3589   4.499   0.529   6.855
  897SOL    HW1 3590   4.404   0.500   6.873
  897SOL    HW2 3591   4.508   0.551   6.758
  898SOL     OW 3592   3.597   6.111   2.975
  898SOL    HW1 3593   3.581   6.184   3.042
  898SOL    HW2 3594   3.596   6.023   3.020
  899SOL     OW 3595   0.313   4.784   0.594
  899SOL    HW1 3596   0.344   4.792   0.689
  899SOL    HW2 3597   0.390   4.802   0.533
  900SOL     OW 3598   4.180   6.468   0.463
  900SOL    HW1 3599   4.142   6.534   0.399
  900SOL    HW2 3600   4.210   6.387   0.413
  901SOL     OW 3601   0.881   1.239   5.291
  901SOL    HW1 3602   0.814   1.194   5.350
  901SOL    HW2 3603   0.930   1.309   5.343
  902SOL     OW 3604   0.545   2.107   0.748
  902SOL    HW1 3605   0.524   2.196   0.706
  902SOL    HW2 3606   0.638   2.110   0.786
  903SOL     OW 3607   6.775   3.969   5.869
  903SOL    HW1 3608   6.842   4.029   5.913
  903SOL    HW2 3609   6.718   3.925   5.939
  904SOL     OW 3610   1.780   2.538   3.025
  904SOL    HW1 3611   1.711   2.555   3.096
  904SOL    HW2 3612   1.734   2.503   2.943
  905SOL     OW 3613   4.673   3.842   6.265
  905SOL    HW1 3614   4.757   3.896   6.255
  905SOL    HW2 3615   4.680   3.760   6.209
  906SOL     OW 3616   0.707   3.132   5.840
  906SOL    HW1 3617   0.663   3.205   5.788
  906SOL    HW2 3618   0.776   3.170   5.900
  907SOL     OW 3619   5.726   2.721   2.905
  907SOL    HW1 3620   5.676   2.807   2.894
  907SOL    HW2 3621   5.662   2.644   2.899
  908SOL     OW 3622   1.749   5.994   3.398
  908SOL    HW1 3623   1.767   5.896   3.385
  908SOL    HW2 3624   1.798   6.046   3.328
  909SOL     OW 3625   2.843   5.981   2.212
  909SOL    HW1 3626   2.876   5.943   2.126
  909SOL    HW2 3627   2.915   6.036   2.254
  910SOL     OW 3628   3.000   0.560   0.645
  910SOL    HW1 3629   3.081   0.543   0.702
  910SOL    HW2 3630   2.933   0.486   0.659
  911SOL     OW 3631   0.143   5.305   0.659
  911SOL    HW1 3632   0.139   5.264   0.568
  911SOL    HW2 3633   0.115   5.400   0.655
  912SOL     OW 3634   6.095   0.434   3.773
  912SOL    HW1 3635   6.072   0.340   3.751
  912SOL    HW2 3636   6.184   0.437   3.818
  913SOL     OW 3637   1.429   1.058   3.133
  913SOL    HW1 3638   1.500   1.045   3.064
  913SOL    HW2 3639   1.461   1.124   3.201
  914SOL     OW 3640   2.556   5.983   4.882
  914SOL    HW1 3641   2.552   6.078   4.851
  914SOL    HW2 3642   2.630   5.972   4.947
  915SOL     OW 3643   1.416   3.500   7.006
  915SOL    HW1 3644   1.375   3.554   0.053
  915SOL    HW2 3645   1.440   3.561   6.930
  916SOL     OW 3646   1.138   2.633   1.790
  916SOL    HW1 3647   1.077   2.675   1.858
  916SOL    HW2 3648   1.124   2.534   1.789
  917SOL     OW 3649   5.918   0.695   2.018
  917SOL    HW1 3650   5.824   0.717   1.996
  917SOL    HW2 3651   5.979   0.761   1.975
  918SOL     OW 3652   3.206   6.765   7.018
  918SOL    HW1 3653   3.127   6.719   6.978
  918SOL    HW2 3654   3.221   6.730   0.084
  919SOL     OW 3655   6.474   5.260   2.600
  919SOL    HW1 3656   6.485   5.358   2.616
  919SOL    HW2 3657   6.382   5.241   2.568
  920SOL     OW 3658   2.248   5.975   3.208
  920SOL    HW1 3659   2.268   6.058   3.155
  920SOL    HW2 3660   2.199   5.999   3.291
  921SOL     OW 3661   4.544   4.407   2.994
  921SOL    HW1 3662   4.586   4.335   3.050
  921SOL    HW2 3663   4.471   4.451   3.046
  922SOL     OW 3664   3.432   2.676   5.726
  922SOL    HW1 3665   3.525   2.706   5.703
  922SOL    HW2 3666   3.393   2.738   5.794
  923SOL     OW 3667   2.909   4.477   6.169
  923SOL    HW1 3668   2.921   4.418   6.248
  923SOL    HW2 3669   2.843   4.549   6.190
  924SOL     OW 3670   6.137   2.723   2.719
  924SOL    HW1 3671   6.097   2.764   2.637
  924SOL    HW2 3672   6.068   2.718   2.791
  925SOL     OW 3673   0.035   2.075   6.444
  925SOL    HW1 3674   7.015   2.093   6.530
  925SOL    HW2 3675   0.062   1.979   6.439
  926SOL     OW 3676   6.010   1.731   0.663
  926SOL    HW1 3677   6.100   1.687   0.670
  926SOL    HW2 3678   5.941   1.669   0.701
  927SOL     OW 3679   5.932   3.611   3.633
  927SOL    HW1 3680   6.018   3.567   3.605
  927SOL    HW2 3681   5.857   3.579   3.574
  928SOL     OW 3682   1.202   6.002   0.684
  928SOL    HW1 3683   1.182   6.063   0.607
  928SOL    HW2 3684   1.117   5.977   0.730
  929SOL     OW 3685   0.392   0.639   1.601
  929SOL    HW1 3686   0.429   0.630   1.508
  929SOL    HW2 3687   0.446   0.706   1.652
  930SOL     OW 3688   5.598   6.311   4.437
  930SOL    HW1 3689   5.584   6.314   4.338
  930SOL    HW2 3690   5.635   6.399   4.468
  931SOL     OW 3691   5.598   2.476   2.818
  931SOL    HW1 3692   5.625   2.380   2.810
  931SOL    HW2 3693   5.619   2.524   2.733
  932SOL     OW 3694   3.497   6.861   2.929
  932SOL    HW1 3695   3.491   6.805   3.012
  932SOL    HW2 3696   3.523   6.803   2.852
  933SOL     OW 3697   0.825   5.325   3.437
  933SOL    HW1 3698   0.771   5.315   3.521
  933SOL    HW2 3699   0.763   5.343   3.361
  934SOL     OW 3700   1.849   0.647   4.985
  934SOL    HW1 3701   1.814   0.557   5.011
  934SOL    HW2 3702   1.775   0.701   4.945
  935SOL     OW 3703   4.975   4.472   4.864
  935SOL    HW1 3704   5.045   4.411   4.901
  935SOL    HW2 3705   4.930   4.520   4.940
  936SOL     OW 3706   1.664   0.793   6.583
  936SOL    HW1 3707   1.589   0.838   6.632
  936SOL    HW2 3708   1.631   0.764   6.493
  937SOL     OW 3709   4.941   1.429   5.127
  937SOL    HW1 3710   4.914   1.485   5.049
  937SOL    HW2 3711   5.030   1.461   5.162
  938SOL     OW 3712   0.296   5.656   5.965
  938SOL    HW1 3713   0.241   5.729   5.925
  938SOL    HW2 3714   0.333   5.687   6.052
  939SOL     OW 3715   5.763   0.453   5.936
  939SOL    HW1 3716   5.679   0.502   5.917
  939SOL    HW2 3717   5.836   0.518   5.960
  940SOL     OW 3718   0.918   2.767   1.898
  940SOL    HW1 3719   0.872   2.704   1.961
  940SOL    HW2 3720   0.871   2.767   1.810
  941SOL     OW 3721   6.089   1.061   5.113
  941SOL    HW1 3722   6.000   1.049   5.156
  941SOL    HW2 3723   6.113   0.978   5.062
  942SOL     OW 3724   4.884   0.015   3.727
  942SOL    HW1 3725   4.879   6.947   3.759
  942SOL    HW2 3726   4.862   0.018   3.629
  943SOL     OW 3727   1.909   3.475   3.522
  943SOL    HW1 3728   1.960   3.403   3.568
  943SOL    HW2 3729   1.973   3.541   3.483
  944SOL     OW 3730   6.736   3.990   5.585
  944SOL    HW1 3731   6.743   3.939   5.670
  944SOL    HW2 3732   6.718   4.086   5.605
  945SOL     OW 3733   6.650   4.711   5.210
  945SOL    HW1 3734   6.682   4.621   5.241
  945SOL    HW2 3735   6.727   4.760   5.169
  946SOL     OW 3736   4.390   2.815   5.905
  946SOL    HW1 3737   4.393   2.843   6.001
  946SOL    HW2 3738   4.417   2.892   5.847
  947SOL     OW 3739   3.718   3.148   4.299
  947SOL    HW1 3740   3.785   3.112   4.235
  947SOL    HW2 3741   3.673   3.072   4.347
  948SOL     OW 3742   4.488   0.292   0.832
  948SOL    HW1 3743   4.492   0.390   0.854
  948SOL    HW2 3744   4.478   0.240   0.917
  949SOL     OW 3745   0.919   6.526   6.374
  949SOL    HW1 3746   0.841   6.464   6.380
  949SOL    HW2 3747   0.911   6.598   6.443
  950SOL     OW 3748   4.490   5.043   1.769
  950SOL    HW1 3749   4.543   5.111   1.718
  950SOL    HW2 3750   4.539   5.019   1.853
  951SOL     OW 3751   2.120   0.619   3.245
  951SOL    HW1 3752   2.159   0.702   3.205
  951SOL    HW2 3753   2.190   0.547   3.246
  952SOL     OW 3754   5.172   2.391   2.908
  952SOL    HW1 3755   5.225   2.326   2.854
  952SOL    HW2 3756   5.234   2.456   2.952
  953SOL     OW 3757   5.263   5.323   4.141
  953SOL    HW1 3758   5.328   5.249   4.160
  953SOL    HW2 3759   5.311   5.400   4.101
  954SOL     OW 3760   4.707   6.067   0.769
  954SOL    HW1 3761   4.794   6.021   0.788
  954SOL    HW2 3762   4.666   6.028   0.686
  955SOL     OW 3763   6.659   4.137   2.866
  955SOL    HW1 3764   6.563   4.108   2.861
  955SOL    HW2 3765   6.716   4.069   2.820
  956SOL     OW 3766   6.986   2.312   2.617
  956SOL    HW1 3767   6.977   2.213   2.627
  956SOL    HW2 3768   6.898   2.351   2.588
  957SOL     OW 3769   0.512   4.940   5.127
  957SOL    HW1 3770   0.436   4.967   5.069
  957SOL    HW2 3771   0.507   4.843   5.147
  958SOL     OW 3772   4.189   1.523   2.803
  958SOL    HW1 3773   4.171   1.514   2.901
  958SOL    HW2 3774   4.105   1.506   2.752
  959SOL     OW 3775   3.730   5.131   3.018
  959SOL    HW1 3776   3.747   5.100   2.925
  959SOL    HW2 3777   3.795   5.203   3.042
  960SOL     OW 3778   0.738   5.871   3.356
  960SOL    HW1 3779   0.673   5.824   3.297
  960SOL    HW2 3780   0.816   5.901   3.301
  961SOL     OW 3781   4.565   0.262   3.495
  961SOL    HW1 3782   4.598   0.172   3.523
  961SOL    HW2 3783   4.570   0.270   3.395
  962SOL     OW 3784   1.348   0.750   4.382
  962SOL    HW1 3785   1.416   0.804   4.431
  962SOL    HW2 3786   1.295   0.810   4.322
  963SOL     OW 3787   0.178   1.968   5.939
  963SOL    HW1 3788   0.125   2.016   5.869
  963SOL    HW2 3789   0.164   1.870   5.929
  964SOL     OW 3790   6.173   4.421   6.716
  964SOL    HW1 3791   6.195   4.472   6.798
  964SOL    HW2 3792   6.074   4.413   6.707
  965SOL     OW 3793   5.842   2.164   0.774
  965SOL    HW1 3794   5.785   2.090   0.809
  965SOL    HW2 3795   5.836   2.167   0.674
  966SOL     OW 3796   5.188   2.342   1.671
  966SOL    HW1 3797   5.142   2.314   1.755
  966SOL    HW2 3798   5.122   2.346   1.596
  967SOL     OW 3799   2.149   4.490   1.846
  967SOL    HW1 3800   2.219   4.439   1.796
  967SOL    HW2 3801   2.090   4.539   1.781
  968SOL     OW 3802   3.602   1.627   2.046
  968SOL    HW1 3803   3.627   1.690   2.120
  968SOL    HW2 3804   3.552   1.677   1.975
  969SOL     OW 3805   3.356   5.910   6.139
  969SOL    HW1 3806   3.388   5.841   6.205
  969SOL    HW2 3807   3.429   5.976   6.121
  970SOL     OW 3808   5.237   0.946   6.154
  970SOL    HW1 3809   5.303   1.010   6.115
  970SOL    HW2 3810   5.201   0.887   6.081
  971SOL     OW 3811   6.503   2.049   3.273
  971SOL    HW1 3812   6.410   2.024   3.247
  971SOL    HW2 3813   6.500   2.130   3.332
  972SOL     OW 3814   5.574   3.984   1.598
  972SOL    HW1 3815   5.563   3.931   1.683
  972SOL    HW2 3816   5.564   3.923   1.520
  973SOL     OW 3817   6.862   4.309   6.868
  973SOL    HW1 3818   6.832   4.384   6.927
  973SOL    HW2 3819   6.784   4.271   6.820
  974SOL     OW 3820   5.515   6.714   2.579
  974SOL    HW1 3821   5.569   6.798   2.593
  974SOL    HW2 3822   5.562   6.638   2.624
  975SOL     OW 3823   1.666   5.442   6.479
  975SOL    HW1 3824   1.610   5.524   6.473
  975SOL    HW2 3825   1.630   5.371   6.418
  976SOL     OW 3826   0.129   3.594   2.852
  976SOL    HW1 3827   0.198   3.592   2.923
  976SOL    HW2 3828   0.162   3.648   2.774
  977SOL     OW 3829   1.303   0.499   2.733
  977SOL    HW1 3830   1.313   0.516   2.635
  977SOL    HW2 3831   1.210   0.469   2.753
  978SOL     OW 3832   4.647   3.878   5.560
  978SOL    HW1 3833   4.705   3.869   5.479
  978SOL    HW2 3834   4.696   3.928   5.631
  979SOL     OW 3835   6.777   2.005   0.878
  979SOL    HW1 3836   6.742   1.989   0.970
  979SOL    HW2 3837   6.743   2.093   0.844
  980SOL     OW 3838   4.526   2.592   4.212
  980SOL    HW1 3839   4.478   2.553   4.290
  980SOL    HW2 3840   4.577   2.673   4.242
  981SOL     OW 3841   1.271   1.818   5.319
  981SOL    HW1 3842   1.174   1.843   5.328
  981SOL    HW2 3843   1.288   1.787   5.225
  982SOL     OW 3844   2.192   2.230   3.840
  982SOL    HW1 3845   2.202   2.311   3.783
  982SOL    HW2 3846   2.095   2.203   3.842
  983SOL     OW 3847   5.668   2.422   4.572
  983SOL    HW1 3848   5.763   2.409   4.544
  983SOL    HW2 3849   5.607   2.381   4.503
  984SOL     OW 3850   2.640   1.685   4.373
  984SOL    HW1 3851   2.610   1.687   4.277
  984SOL    HW2 3852   2.663   1.777   4.403
  985SOL     OW 3853   5.051   4.430   5.926
  985SOL    HW1 3854   4.973   4.416   5.865
  985SOL    HW2 3855   5.066   4.528   5.939
  986SOL     OW 3856   5.720   4.386   0.650
  986SOL    HW1 3857   5.814   4.419   0.649
  986SOL    HW2 3858   5.711   4.311   0.715
  987SOL     OW 3859   4.559   6.916   1.827
  987SOL    HW1 3860   4.523   6.949   1.739
  987SOL    HW2 3861   4.606   6.991   1.873
  988SOL     OW 3862   3.270   3.501   3.138
  988SOL    HW1 3863   3.362   3.468   3.162
  988SOL    HW2 3864   3.233   3.555   3.213
  989SOL     OW 3865   6.327   0.761   5.047
  989SOL    HW1 3866   6.385   0.771   4.966
  989SOL    HW2 3867   6.384   0.751   5.128
  990SOL     OW 3868   3.826   0.096   1.797
  990SOL    HW1 3869   3.748   0.080   1.857
  990SOL    HW2 3870   3.901   0.137   1.849
  991SOL     OW 3871   1.470   2.619   5.177
  991SOL    HW1 3872   1.463   2.521   5.195
  991SOL    HW2 3873   1.559   2.652   5.207
  992SOL     OW 3874   6.846   2.335   2.128
  992SOL    HW1 3875   6.885   2.245   2.112
  992SOL    HW2 3876   6.836   2.351   2.226
  993SOL     OW 3877   1.679   4.109   1.743
  993SOL    HW1 3878   1.589   4.124   1.785
  993SOL    HW2 3879   1.750   4.152   1.800
  994SOL     OW 3880   3.340   3.819   2.305
  994SOL    HW1 3881   3.346   3.893   2.371
  994SOL    HW2 3882   3.244   3.802   2.282
  995SOL     OW 3883   3.628   3.168   5.641
  995SOL    HW1 3884   3.564   3.132   5.709
  995SOL    HW2 3885   3.665   3.092   5.587
  996SOL     OW 3886   3.179   4.986   4.220
  996SOL    HW1 3887   3.222   4.916   4.277
  996SOL    HW2 3888   3.180   5.073   4.269
  997SOL     OW 3889   1.261   0.904   3.277
  997SOL    HW1 3890   1.311   0.835   3.328
  997SOL    HW2 3891   1.325   0.961   3.225
  998SOL     OW 3892   4.604   0.283   4.275
  998SOL    HW1 3893   4.697   0.251   4.258
  998SOL    HW2 3894   4.577   0.258   4.369
  999SOL     OW 3895   5.077   4.579   2.226
  999SOL    HW1 3896   5.018   4.584   2.146
  999SOL    HW2 3897   5.138   4.658   2.227
 1000SOL     OW 3898   2.008   1.073   2.289
 1000SOL    HW1 3899   2.024   1.007   2.215
 1000SOL    HW2 3900   1.932   1.042   2.345
 1001SOL     OW 3901   5.388   6.306   0.437
 1001SOL    HW1 3902   5.320   6.233   0.425
 1001SOL    HW2 3903   5.458   6.297   0.367
 1002SOL     OW 3904   6.119   1.970   0.548
 1002SOL    HW1 3905   6.082   1.884   0.581
 1002SOL    HW2 3906   6.157   2.022   0.625
 1003SOL     OW 3907   2.011   6.086   1.700
 1003SOL    HW1 3908   1.932   6.122   1.750
 1003SOL    HW2 3909   2.073   6.041   1.764
 1004SOL     OW 3910   0.259   0.391   1.842
 1004SOL    HW1 3911   0.218   0.381   1.752
 1004SOL    HW2 3912   0.251   0.304   1.892
 1005SOL     OW 3913   1.451   2.576   3.584
 1005SOL    HW1 3914   1.513   2.652   3.568
 1005SOL    HW2 3915   1.486   2.494   3.540
 1006SOL     OW 3916   1.342   4.730   0.962
 1006SOL    HW1 3917   1.312   4.670   1.036
 1006SOL    HW2 3918   1.416   4.686   0.911
 1007SOL     OW 3919   4.827   0.340   5.382
 1007SOL    HW1 3920   4.793   0.254   5.346
 1007SOL    HW2 3921   4.877   0.323   5.467
 1008SOL     OW 3922   1.395   2.651   4.915
 1008SOL    HW1 3923   1.337   2.589   4.863
 1008SOL    HW2 3924   1.372   2.645   5.012
 1009SOL     OW 3925   6.914   5.795   4.671
 1009SOL    HW1 3926   6.961   5.753   4.594
 1009SOL    HW2 3927   6.964   5.877   4.700
 1010SOL     OW 3928   3.458   2.782   6.001
 1010SOL    HW1 3929   3.536   2.844   6.011
 1010SOL    HW2 3930   3.463   2.711   6.070
 1011SOL     OW 3931   2.172   5.016   2.335
 1011SOL    HW1 3932   2.215   5.094   2.290
 1011SOL    HW2 3933   2.242   4.952   2.365
 1012SOL     OW 3934   6.568   0.833   1.858
 1012SOL    HW1 3935   6.659   0.804   1.888
 1012SOL    HW2 3936   6.562   0.828   1.759
 1013SOL     OW 3937   0.580   1.201   5.708
 1013SOL    HW1 3938   0.604   1.114   5.750
 1013SOL    HW2 3939   0.487   1.197   5.671
 1014SOL     OW 3940   5.129   5.894   6.516
 1014SOL    HW1 3941   5.139   5.938   6.605
 1014SOL    HW2 3942   5.033   5.897   6.487
 1015SOL     OW 3943   2.585   6.878   5.784
 1015SOL    HW1 3944   2.525   6.907   5.709
 1015SOL    HW2 3945   2.555   6.922   5.869
 1016SOL     OW 3946   3.963   3.646   6.820
 1016SOL    HW1 3947   3.933   3.672   6.728
 1016SOL    HW2 3948   4.035   3.708   6.851
 1017SOL     OW 3949   3.791   2.507   1.501
 1017SOL    HW1 3950   3.838   2.433   1.549
 1017SOL    HW2 3951   3.730   2.555   1.565
 1018SOL     OW 3952   0.506   3.630   4.448
 1018SOL    HW1 3953   0.565   3.579   4.385
 1018SOL    HW2 3954   0.529   3.727   4.445
 1019SOL     OW 3955   6.805   0.155   1.573
 1019SOL    HW1 3956   6.726   0.095   1.582
 1019SOL    HW2 3957   6.887   0.108   1.607
 1020SOL     OW 3958   0.670   0.180   1.150
 1020SOL    HW1 3959   0.721   0.266   1.143
 1020SOL    HW2 3960   0.701   0.117   1.080
 1021SOL     OW 3961   5.010   6.876   1.441
 1021SOL    HW1 3962   5.094   6.928   1.460
 1021SOL    HW2 3963   4.963   6.916   1.362
 1022SOL     OW 3964   3.957   4.995   5.801
 1022SOL    HW1 3965   3.968   5.054   5.721
 1022SOL    HW2 3966   4.025   5.020   5.871
 1023SOL     OW 3967   0.799   6.786   2.989
 1023SOL    HW1 3968   0.807   6.815   3.084
 1023SOL    HW2 3969   0.889   6.759   2.954
 1024SOL     OW 3970   0.226   2.588   4.131
 1024SOL    HW1 3971   0.153   2.591   4.199
 1024SOL    HW2 3972   0.297   2.654   4.155
 1025SOL     OW 3973   2.288   2.999   0.776
 1025SOL    HW1 3974   2.287   2.910   0.730
 1025SOL    HW2 3975   2.240   2.992   0.864
 1026SOL     OW 3976   2.571   2.767   1.437
 1026SOL    HW1 3977   2.586   2.865   1.448
 1026SOL    HW2 3978   2.556   2.747   1.340
 1027SOL     OW 3979   3.047   6.733   1.247
 1027SOL    HW1 3980   3.096   6.811   1.209
 1027SOL    HW2 3981   2.949   6.742   1.227
 1028SOL     OW 3982   3.171   6.205   0.336
 1028SOL    HW1 3983   3.127   6.263   0.267
 1028SOL    HW2 3984   3.154   6.244   0.427
 1029SOL     OW 3985   1.674   0.185   7.005
 1029SOL    HW1 3986   1.669   0.110   6.939
 1029SOL    HW2 3987   1.583   0.224   7.018
 1030SOL     OW 3988   2.808   3.427   1.887
 1030SOL    HW1 3989   2.828   3.340   1.932
 1030SOL    HW2 3990   2.755   3.410   1.804
 1031SOL     OW 3991   5.082   5.077   1.041
 1031SOL    HW1 3992   5.145   5.007   1.007
 1031SOL    HW2 3993   5.023   5.037   1.111
 1032SOL     OW 3994   2.397   1.754   4.517
 1032SOL    HW1 3995   2.473   1.705   4.475
 1032SOL    HW2 3996   2.318   1.693   4.525
 1033SOL     OW 3997   1.593   6.327   0.883
 1033SOL    HW1 3998   1.574   6.273   0.966
 1033SOL    HW2 3999   1.571   6.423   0.900
 1034SOL     OW 4000   0.584   5.590   4.976
 1034SOL    HW1 4001   0.502   5.626   4.932
 1034SOL    HW2 4002   0.638   5.665   5.014
 1035SOL     OW 4003   0.808   0.753   4.888
 1035SOL    HW1 4004   0.755   0.684   4.937
 1035SOL    HW2 4005   0.832   0.718   4.797
 1036SOL     OW 4006   2.983   1.079   1.930
 1036SOL    HW1 4007   2.991   1.069   1.831
 1036SOL    HW2 4008   2.895   1.042   1.960
 1037SOL     OW 4009   1.502   0.680   1.761
 1037SOL    HW1 4010   1.553   0.762   1.789
 1037SOL    HW2 4011   1.565   0.604   1.749
 1038SOL     OW 4012   1.386   6.915   5.715
 1038SOL    HW1 4013   1.312   6.929   5.781
 1038SOL    HW2 4014   1.466   6.967   5.743
 1039SOL     OW 4015   3.369   3.330   5.884
 1039SOL    HW1 4016   3.359   3.353   5.981
 1039SOL    HW2 4017   3.429   3.397   5.840
 1040SOL     OW 4018   4.867   3.202   2.913
 1040SOL    HW1 4019   4.816   3.116   2.919
 1040SOL    HW2 4020   4.899   3.216   2.819
 1041SOL     OW 4021   6.491   7.017   4.040
 1041SOL    HW1 4022   6.576   0.044   4.043
 1041SOL    HW2 4023   6.496   6.952   3.964
 1042SOL     OW 4024   4.258   5.021   2.162
 1042SOL    HW1 4025   4.274   5.037   2.259
 1042SOL    HW2 4026   4.332   5.064   2.109
 1043SOL     OW 4027   3.757   1.350   5.189
 1043SOL    HW1 4028   3.698   1.278   5.153
 1043SOL    HW2 4029   3.838   1.309   5.231
 1044SOL     OW 4030   5.262   4.403   2.362
 1044SOL    HW1 4031   5.178   4.457   2.372
 1044SOL    HW2 4032   5.241   4.306   2.375
 1045SOL     OW 4033   4.280   6.589   2.446
 1045SOL    HW1 4034   4.363   6.580   2.391
 1045SOL    HW2 4035   4.201   6.601   2.386
 1046SOL     OW 4036   1.476   0.839   0.241
 1046SOL    HW1 4037   1.489   0.792   0.329
 1046SOL    HW2 4038   1.440   0.931   0.258
 1047SOL     OW 4039   1.637   0.868   3.279
 1047SOL    HW1 4040   1.587   0.950   3.250
 1047SOL    HW2 4041   1.613   0.792   3.218
 1048SOL     OW 4042   5.971   6.448   4.295
 1048SOL    HW1 4043   5.902   6.503   4.249
 1048SOL    HW2 4044   5.958   6.352   4.272
 1049SOL     OW 4045   6.576   5.786   4.123
 1049SOL    HW1 4046   6.563   5.848   4.200
 1049SOL    HW2 4047   6.526   5.701   4.139
 1050SOL     OW 4048   4.613   5.109   1.047
 1050SOL    HW1 4049   4.692   5.148   0.999
 1050SOL    HW2 4050   4.551   5.183   1.075
 1051SOL     OW 4051   2.560   5.867   1.128
 1051SOL    HW1 4052   2.518   5.956   1.147
 1051SOL    HW2 4053   2.639   5.854   1.188
 1052SOL     OW 4054   3.715   1.019   4.698
 1052SOL    HW1 4055   3.627   1.009   4.653
 1052SOL    HW2 4056   3.787   0.985   4.637
 1053SOL     OW 4057   5.939   5.053   3.051
 1053SOL    HW1 4058   6.022   5.007   3.021
 1053SOL    HW2 4059   5.879   5.068   2.973
 1054SOL     OW 4060   2.586   4.200   5.848
 1054SOL    HW1 4061   2.521   4.275   5.864
 1054SOL    HW2 4062   2.623   4.208   5.755
 1055SOL     OW 4063   4.822   6.927   4.395
 1055SOL    HW1 4064   4.748   6.988   4.368
 1055SOL    HW2 4065   4.794   6.832   4.381
 1056SOL     OW 4066   2.116   4.753   5.786
 1056SOL    HW1 4067   2.071   4.671   5.820
 1056SOL    HW2 4068   2.211   4.733   5.763
 1057SOL     OW 4069   3.125   3.095   2.595
 1057SOL    HW1 4070   3.143   3.013   2.649
 1057SOL    HW2 4071   3.162   3.083   2.503
 1058SOL     OW 4072   4.389   1.567   3.416
 1058SOL    HW1 4073   4.354   1.647   3.463
 1058SOL    HW2 4074   4.359   1.484   3.464
 1059SOL     OW 4075   2.154   0.013   1.320
 1059SOL    HW1 4076   2.225   6.972   1.340
 1059SOL    HW2 4077   2.144   0.023   1.221
 1060SOL     OW 4078   6.940   4.352   4.281
 1060SOL    HW1 4079   6.905   4.262   4.255
 1060SOL    HW2 4080   6.866   4.420   4.274
 1061SOL     OW 4081   5.558   3.865   1.334
 1061SOL    HW1 4082   5.631   3.882   1.268
 1061SOL    HW2 4083   5.494   3.798   1.295
 1062SOL     OW 4084   5.965   3.880   6.477
 1062SOL    HW1 4085   5.931   3.971   6.455
 1062SOL    HW2 4086   6.061   3.871   6.448
 1063SOL     OW 4087   2.048   5.048   1.944
 1063SOL    HW1 4088   2.070   5.133   1.896
 1063SOL    HW2 4089   1.965   5.008   1.906
 1064SOL     OW 4090   1.906   3.850   1.801
 1064SOL    HW1 4091   1.991   3.799   1.815
 1064SOL    HW2 4092   1.923   3.927   1.739
 1065SOL     OW 4093   3.933   0.000   3.897
 1065SOL    HW1 4094   3.879   0.084   3.891
 1065SOL    HW2 4095   4.030   0.024   3.896
 1066SOL     OW 4096   4.716   0.586   3.981
 1066SOL    HW1 4097   4.710   0.548   3.889
 1066SOL    HW2 4098   4.625   0.616   4.011
 1067SOL     OW 4099   0.588   3.088   0.808
 1067SOL    HW1 4100   0.546   3.097   0.898
 1067SOL    HW2 4101   0.680   3.129   0.810
 1068SOL     OW 4102   5.438   5.009   2.959
 1068SOL    HW1 4103   5.445   4.918   3.000
 1068SOL    HW2 4104   5.494   5.012   2.877
 1069SOL     OW 4105   4.791   4.732   0.764
 1069SOL    HW1 4106   4.736   4.669   0.819
 1069SOL    HW2 4107   4.888   4.711   0.778
 1070SOL     OW 4108   0.293   0.144   2.330
 1070SOL    HW1 4109   0.312   0.075   2.400
 1070SOL    HW2 4110   0.243   0.220   2.371
 1071SOL     OW 4111   1.598   0.648   3.098
 1071SOL    HW1 4112   1.694   0.635   3.121
 1071SOL    HW2 4113   1.566   0.571   3.042
 1072SOL     OW 4114   1.867   0.500   0.810
 1072SOL    HW1 4115   1.896   0.470   0.719
 1072SOL    HW2 4116   1.947   0.513   0.868
 1073SOL     OW 4117   4.733   6.666   1.611
 1073SOL    HW1 4118   4.798   6.738   1.637
 1073SOL    HW2 4119   4.758   6.631   1.521
 1074SOL     OW 4120   2.575   5.313   0.770
 1074SOL    HW1 4121   2.527   5.226   0.760
 1074SOL    HW2 4122   2.534   5.381   0.710
 1075SOL     OW 4123   4.547   6.793   3.896
 1075SOL    HW1 4124   4.621   6.755   3.952
 1075SOL    HW2 4125   4.538   6.890   3.915
 1076SOL     OW 4126   6.725   3.350   5.927
 1076SOL    HW1 4127   6.711   3.298   6.011
 1076SOL    HW2 4128   6.708   3.290   5.848
 1077SOL     OW 4129   5.569   0.527   1.101
 1077SOL    HW1 4130   5.634   0.571   1.163
 1077SOL    HW2 4131   5.614   0.507   1.014
 1078SOL     OW 4132   0.903   1.477   2.399
 1078SOL    HW1 4133   0.974   1.439   2.340
 1078SOL    HW2 4134   0.890   1.418   2.479
 1079SOL     OW 4135   2.259   6.159   2.120
 1079SOL    HW1 4136   2.236   6.227   2.189
 1079SOL    HW2 4137   2.358   6.161   2.103
 1080SOL     OW 4138   1.397   4.352   3.767
 1080SOL    HW1 4139   1.419   4.363   3.864
 1080SOL    HW2 4140   1.358   4.261   3.752
 1081SOL     OW 4141   0.271   6.086   6.325
 1081SOL    HW1 4142   0.194   6.031   6.293
 1081SOL    HW2 4143   0.277   6.169   6.270
 1082SOL     OW 4144   3.986   2.079   5.547
 1082SOL    HW1 4145   3.900   2.070   5.598
 1082SOL    HW2 4146   4.038   1.994   5.555
 1083SOL     OW 4147   4.214   3.936   0.359
 1083SOL    HW1 4148   4.279   3.994   0.310
 1083SOL    HW2 4149   4.207   3.848   0.314
 1084SOL     OW 4150   6.133   5.897   0.172
 1084SOL    HW1 4151   6.202   5.888   0.100
 1084SOL    HW2 4152   6.157   5.836   0.248
 1085SOL     OW 4153   0.860   3.790   4.178
 1085SOL    HW1 4154   0.855   3.794   4.277
 1085SOL    HW2 4155   0.947   3.829   4.147
 1086SOL     OW 4156   6.662   6.512   1.318
 1086SOL    HW1 4157   6.576   6.546   1.279
 1086SOL    HW2 4158   6.663   6.526   1.417
 1087SOL     OW 4159   5.783   2.704   5.104
 1087SOL    HW1 4160   5.779   2.707   5.204
 1087SOL    HW2 4161   5.813   2.614   5.074
 1088SOL     OW 4162   6.570   4.505   3.144
 1088SOL    HW1 4163   6.593   4.561   3.065
 1088SOL    HW2 4164   6.478   4.468   3.134
 1089SOL     OW 4165   1.629   6.444   4.491
 1089SOL    HW1 4166   1.626   6.361   4.434
 1089SOL    HW2 4167   1.552   6.503   4.468
 1090SOL     OW 4168   2.083   1.753   3.301
 1090SOL    HW1 4169   2.017   1.677   3.309
 1090SOL    HW2 4170   2.070   1.816   3.377
 1091SOL     OW 4171   2.484   2.669   5.571
 1091SOL    HW1 4172   2.404   2.679   5.513
 1091SOL    HW2 4173   2.457   2.667   5.667
 1092SOL     OW 4174   1.937   4.273   0.972
 1092SOL    HW1 4175   2.029   4.236   0.984
 1092SOL    HW2 4176   1.942   4.372   0.964
 1093SOL     OW 4177   1.287   1.733   2.025
 1093SOL    HW1 4178   1.386   1.747   2.021
 1093SOL    HW2 4179   1.267   1.650   2.077
 1094SOL     OW 4180   1.002   6.252   3.854
 1094SOL    HW1 4181   1.058   6.327   3.890
 1094SOL    HW2 4182   0.936   6.289   3.789
 1095SOL     OW 4183   0.632   2.946   6.592
 1095SOL    HW1 4184   0.632   2.938   6.492
 1095SOL    HW2 4185   0.716   2.993   6.621
 1096SOL     OW 4186   3.373   4.350   1.708
 1096SOL    HW1 4187   3.409   4.280   1.771
 1096SOL    HW2 4188   3.433   4.430   1.709
 1097SOL     OW 4189   2.217   4.212   4.304
 1097SOL    HW1 4190   2.187   4.137   4.362
 1097SOL    HW2 4191   2.156   4.290   4.315
 1098SOL     OW 4192   4.516   3.512   0.722
 1098SOL    HW1 4193   4.493   3.556   0.808
 1098SOL    HW2 4194   4.566   3.577   0.663
 1099SOL     OW 4195   4.227   1.626   5.188
 1099SOL    HW1 4196   4.203   1.717   5.221
 1099SOL    HW2 4197   4.183   1.557   5.246
 1100SOL     OW 4198   3.413   2.089   5.964
 1100SOL    HW1 4199   3.321   2.070   5.998
 1100SOL    HW2 4200   3.467   2.004   5.964
 1101SOL     OW 4201   6.090   1.924   0.284
 1101SOL    HW1 4202   6.039   1.995   0.235
 1101SOL    HW2 4203   6.098   1.950   0.380
 1102SOL     OW 4204   0.974   5.466   4.267
 1102SOL    HW1 4205   0.878   5.494   4.262
 1102SOL    HW2 4206   1.018   5.484   4.179
 1103SOL     OW 4207   3.853   2.019   0.770
 1103SOL    HW1 4208   3.769   2.073   0.777
 1103SOL    HW2 4209   3.831   1.923   0.753
 1104SOL     OW 4210   2.335   3.515   5.285
 1104SOL    HW1 4211   2.433   3.532   5.302
 1104SOL    HW2 4212   2.287   3.510   5.372
 1105SOL     OW 4213   6.288   3.990   5.135
 1105SOL    HW1 4214   6.236   3.914   5.174
 1105SOL    HW2 4215   6.383   3.961   5.119
 1106SOL     OW 4216   1.139   1.935   1.519
 1106SOL    HW1 4217   1.049   1.976   1.504
 1106SOL    HW2 4218   1.172   1.959   1.610
 1107SOL     OW 4219   2.099   0.067   6.479
 1107SOL    HW1 4220   2.045   0.150   6.487
 1107SOL    HW2 4221   2.093   0.032   6.386
 1108SOL     OW 4222   3.596   0.807   5.484
 1108SOL    HW1 4223   3.639   0.804   5.394
 1108SOL    HW2 4224   3.619   0.724   5.535
 1109SOL     OW 4225   4.553   0.131   4.509
 1109SOL    HW1 4226   4.594   0.159   4.596
 1109SOL    HW2 4227   4.455   0.151   4.511
 1110SOL     OW 4228   2.683   2.074   3.366
 1110SOL    HW1 4229   2.585   2.055   3.357
 1110SOL    HW2 4230   2.732   2.031   3.290
 1111SOL     OW 4231   5.067   5.347   6.118
 1111SOL    HW1 4232   5.010   5.411   6.067
 1111SOL    HW2 4233   5.155   5.336   6.073
 1112SOL     OW 4234   5.128   1.467   2.365
 1112SOL    HW1 4235   5.092   1.461   2.272
 1112SOL    HW2 4236   5.179   1.384   2.387
 1113SOL     OW 4237   6.908   3.603   2.229
 1113SOL    HW1 4238   7.003   3.606   2.199
 1113SOL    HW2 4239   6.903   3.562   2.320
 1114SOL     OW 4240   3.837   2.162   6.505
 1114SOL    HW1 4241   3.936   2.164   6.520
 1114SOL    HW2 4242   3.816   2.102   6.428
 1115SOL     OW 4243   3.909   3.383   0.416
 1115SOL    HW1 4244   4.005   3.408   0.431
 1115SOL    HW2 4245   3.859   3.390   0.502
 1116SOL     OW 4246   5.202   6.397   4.934
 1116SOL    HW1 4247   5.241   6.375   5.023
 1116SOL    HW2 4248   5.248   6.477   4.896
 1117SOL     OW 4249   1.124   2.355   1.745
 1117SOL    HW1 4250   1.061   2.331   1.671
 1117SOL    HW2 4251   1.211   2.309   1.730
 1118SOL     OW 4252   2.655   4.517   1.391
 1118SOL    HW1 4253   2.632   4.471   1.305
 1118SOL    HW2 4254   2.740   4.569   1.378
 1119SOL     OW 4255   4.298   4.343   0.390
 1119SOL    HW1 4256   4.368   4.360   0.321
 1119SOL    HW2 4257   4.339   4.346   0.481
 1120SOL     OW 4258   6.191   0.079   4.689
 1120SOL    HW1 4259   6.099   0.061   4.723
 1120SOL    HW2 4260   6.257   0.067   4.764
 1121SOL     OW 4261   4.870   5.052   2.765
 1121SOL    HW1 4262   4.946   5.025   2.706
 1121SOL    HW2 4263   4.883   5.013   2.856
 1122SOL     OW 4264   5.179   3.371   6.799
 1122SOL    HW1 4265   5.167   3.424   6.715
 1122SOL    HW2 4266   5.093   3.366   6.849
 1123SOL     OW 4267   5.219   1.154   3.302
 1123SOL    HW1 4268   5.139   1.107   3.265
 1123SOL    HW2 4269   5.281   1.088   3.343
 1124SOL     OW 4270   6.351   3.823   5.441
 1124SOL    HW1 4271   6.274   3.825   5.377
 1124SOL    HW2 4272   6.317   3.836   5.535
 1125SOL     OW 4273   3.135   1.645   5.173
 1125SOL    HW1 4274   3.214   1.608   5.223
 1125SOL    HW2 4275   3.139   1.613   5.078
 1126SOL     OW 4276   5.934   5.374   6.575
 1126SOL    HW1 4277   5.906   5.406   6.666
 1126SOL    HW2 4278   6.023   5.330   6.582
 1127SOL     OW 4279   4.682   5.082   4.379
 1127SOL    HW1 4280   4.712   4.987   4.382
 1127SOL    HW2 4281   4.602   5.094   4.437
 1128SOL     OW 4282   5.559   2.107   5.729
 1128SOL    HW1 4283   5.564   2.021   5.678
 1128SOL    HW2 4284   5.483   2.103   5.794
 1129SOL     OW 4285   3.485   0.594   6.951
 1129SOL    HW1 4286   3.387   0.576   6.951
 1129SOL    HW2 4287   3.535   0.508   6.944
 1130SOL     OW 4288   2.475   4.754   0.374
 1130SOL    HW1 4289   2.447   4.658   0.363
 1130SOL    HW2 4290   2.414   4.799   0.438
 1131SOL     OW 4291   0.039   6.633   6.570
 1131SOL    HW1 4292   0.078   6.541   6.566
 1131SOL    HW2 4293   0.018   6.656   6.666
 1132SOL     OW 4294   5.107   0.142   1.311
 1132SOL    HW1 4295   5.100   0.110   1.216
 1132SOL    HW2 4296   5.172   0.084   1.361
 1133SOL     OW 4297   1.147   0.152   1.308
 1133SOL    HW1 4298   1.240   0.188   1.313
 1133SOL    HW2 4299   1.082   0.223   1.333
 1134SOL     OW 4300   5.169   1.382   1.412
 1134SOL    HW1 4301   5.248   1.335   1.373
 1134SOL    HW2 4302   5.169   1.478   1.383
 1135SOL     OW 4303   2.148   1.333   2.887
 1135SOL    HW1 4304   2.123   1.403   2.821
 1135SOL    HW2 4305   2.074   1.265   2.893
 1136SOL     OW 4306   3.056   4.998   4.660
 1136SOL    HW1 4307   2.992   4.927   4.691
 1136SOL    HW2 4308   3.150   4.965   4.672
 1137SOL     OW 4309   1.218   1.499   5.879
 1137SOL    HW1 4310   1.254   1.577   5.931
 1137SOL    HW2 4311   1.294   1.453   5.832
 1138SOL     OW 4312   0.625   1.335   6.630
 1138SOL    HW1 4313   0.535   1.299   6.652
 1138SOL    HW2 4314   0.675   1.270   6.572
 1139SOL     OW 4315   3.688   5.361   1.626
 1139SOL    HW1 4316   3.684   5.424   1.704
 1139SOL    HW2 4317   3.703   5.413   1.542
 1140SOL     OW 4318   4.032   1.162   2.049
 1140SOL    HW1 4319   4.000   1.236   1.991
 1140SOL    HW2 4320   4.076   1.092   1.992
 1141SOL     OW 4321   0.385   6.654   6.416
 1141SOL    HW1 4322   0.354   6.640   6.510
 1141SOL    HW2 4323   0.480   6.685   6.416
 1142SOL     OW 4324   3.045   0.081   5.001
 1142SOL    HW1 4325   2.948   0.068   5.021
 1142SOL    HW2 4326   3.058   0.081   4.902
 1143SOL     OW 4327   1.685   3.435   2.692
 1143SOL    HW1 4328   1.612   3.501   2.708
 1143SOL    HW2 4329   1.733   3.458   2.607
 1144SOL     OW 4330   6.746   5.043   5.293
 1144SOL    HW1 4331   6.836   5.002   5.306
 1144SOL    HW2 4332   6.723   5.098   5.373
 1145SOL     OW 4333   0.109   4.181   2.134
 1145SOL    HW1 4334   0.088   4.114   2.063
 1145SOL    HW2 4335   0.183   4.241   2.102
 1146SOL     OW 4336   6.089   0.877   1.899
 1146SOL    HW1 4337   6.149   0.807   1.860
 1146SOL    HW2 4338   6.142   0.939   1.956
 1147SOL     OW 4339   1.814   5.345   1.377
 1147SOL    HW1 4340   1.715   5.334   1.371
 1147SOL    HW2 4341   1.839   5.368   1.471
 1148SOL     OW 4342   4.785   6.878   0.387
 1148SOL    HW1 4343   4.777   6.910   0.293
 1148SOL    HW2 4344   4.734   6.792   0.398
 1149SOL     OW 4345   6.229   4.102   2.509
 1149SOL    HW1 4346   6.296   4.156   2.457
 1149SOL    HW2 4347   6.237   4.006   2.484
 1150SOL     OW 4348   2.707   3.811   0.290
 1150SOL    HW1 4349   2.620   3.824   0.241
 1150SOL    HW2 4350   2.777   3.779   0.226
 1151SOL     OW 4351   3.889   5.377   6.987
 1151SOL    HW1 4352   3.961   5.311   6.966
 1151SOL    HW2 4353   3.801   5.331   6.987
 1152SOL     OW 4354   6.347   5.244   5.989
 1152SOL    HW1 4355   6.355   5.203   5.898
 1152SOL    HW2 4356   6.353   5.343   5.982
 1153SOL     OW 4357   2.322   6.872   2.115
 1153SOL    HW1 4358   2.243   6.927   2.144
 1153SOL    HW2 4359   2.360   6.911   2.031
 1154SOL     OW 4360   1.080   4.154   1.519
 1154SOL    HW1 4361   1.027   4.237   1.535
 1154SOL    HW2 4362   1.024   4.089   1.467
 1155SOL     OW 4363   2.039   5.285   6.282
 1155SOL    HW1 4364   2.126   5.335   6.288
 1155SOL    HW2 4365   1.964   5.350   6.268
 1156SOL     OW 4366   2.831   1.264   4.680
 1156SOL    HW1 4367   2.803   1.168   4.676
 1156SOL    HW2 4368   2.799   1.311   4.598
 1157SOL     OW 4369   6.140   0.609   5.204
 1157SOL    HW1 4370   6.069   0.653   5.259
 1157SOL    HW2 4371   6.204   0.679   5.170
 1158SOL     OW 4372   6.872   5.982   5.329
 1158SOL    HW1 4373   6.869   6.064   5.386
 1158SOL    HW2 4374   6.831   6.001   5.240
 1159SOL     OW 4375   5.995   0.009   4.305
 1159SOL    HW1 4376   6.069   7.016   4.241
 1159SOL    HW2 4377   6.017   0.090   4.359
 1160SOL     OW 4378   3.609   3.768   1.207
 1160SOL    HW1 4379   3.524   3.738   1.165
 1160SOL    HW2 4380   3.683   3.768   1.139
 1161SOL     OW 4381   6.123   0.646   6.678
 1161SOL    HW1 4382   6.192   0.624   6.747
 1161SOL    HW2 4383   6.126   0.577   6.606
 1162SOL     OW 4384   2.525   1.970   6.275
 1162SOL    HW1 4385   2.426   1.960   6.284
 1162SOL    HW2 4386   2.565   1.986   6.365
 1163SOL     OW 4387   6.687   3.394   1.237
 1163SOL    HW1 4388   6.588   3.383   1.247
 1163SOL    HW2 4389   6.731   3.306   1.247
 1164SOL     OW 4390   5.345   2.725   5.188
 1164SOL    HW1 4391   5.363   2.729   5.089
 1164SOL    HW2 4392   5.419   2.674   5.232
 1165SOL     OW 4393   2.709   4.772   3.930
 1165SOL    HW1 4394   2.775   4.802   3.999
 1165SOL    HW2 4395   2.743   4.796   3.839
 1166SOL     OW 4396   3.754   6.596   6.908
 1166SOL    HW1 4397   3.791   6.601   7.001
 1166SOL    HW2 4398   3.727   6.501   6.888
 1167SOL     OW 4399   4.253   6.741   6.558
 1167SOL    HW1 4400   4.333   6.744   6.497
 1167SOL    HW2 4401   4.273   6.680   6.635
 1168SOL     OW 4402   5.215   2.039   3.768
 1168SOL    HW1 4403   5.116   2.053   3.769
 1168SOL    HW2 4404   5.257   2.094   3.840
 1169SOL     OW 4405   5.474   2.301   6.047
 1169SOL    HW1 4406   5.423   2.375   6.091
 1169SOL    HW2 4407   5.419   2.260   5.975
 1170SOL     OW 4408   5.315   1.123   3.009
 1170SOL    HW1 4409   5.287   1.182   3.085
 1170SOL    HW2 4410   5.294   1.028   3.032
 1171SOL     OW 4411   2.886   6.277   0.068
 1171SOL    HW1 4412   2.829   6.296   0.148
 1171SOL    HW2 4413   2.948   6.202   0.088
 1172SOL     OW 4414   3.424   3.882   2.053
 1172SOL    HW1 4415   3.369   3.890   2.136
 1172SOL    HW2 4416   3.382   3.815   1.991
 1173SOL     OW 4417   3.814   0.367   6.298
 1173SOL    HW1 4418   3.767   0.369   6.387
 1173SOL    HW2 4419   3.880   0.292   6.297
 1174SOL     OW 4420   3.533   4.184   0.261
 1174SOL    HW1 4421   3.541   4.182   0.361
 1174SOL    HW2 4422   3.445   4.144   0.234
 1175SOL     OW 4423   3.888   3.346   6.569
 1175SOL    HW1 4424   3.841   3.414   6.513
 1175SOL    HW2 4425   3.987   3.358   6.562
 1176SOL     OW 4426   6.053   4.800   0.177
 1176SOL    HW1 4427   5.988   4.875   0.162
 1176SOL    HW2 4428   6.074   4.757   0.089
 1177SOL     OW 4429   6.628   1.846   5.844
 1177SOL    HW1 4430   6.659   1.814   5.755
 1177SOL    HW2 4431   6.585   1.936   5.834
 1178SOL     OW 4432   3.207   3.271   1.472
 1178SOL    HW1 4433   3.178   3.325   1.552
 1178SOL    HW2 4434   3.175   3.316   1.389
 1179SOL     OW 4435   3.116   6.508   0.986
 1179SOL    HW1 4436   3.212   6.480   0.987
 1179SOL    HW2 4437   3.058   6.432   1.015
 1180SOL     OW 4438   2.549   5.772   3.895
 1180SOL    HW1 4439   2.542   5.827   3.978
 1180SOL    HW2 4440   2.492   5.691   3.904
 1181SOL     OW 4441   0.205   3.413   5.247
 1181SOL    HW1 4442   0.160   3.369   5.325
 1181SOL    HW2 4443   0.301   3.385   5.245
 1182SOL     OW 4444   3.302   5.397   3.330
 1182SOL    HW1 4445   3.247   5.476   3.357
 1182SOL    HW2 4446   3.252   5.344   3.262
 1183SOL     OW 4447   3.937   5.970   1.693
 1183SOL    HW1 4448   3.987   5.941   1.775
 1183SOL    HW2 4449   3.950   5.902   1.621
 1184SOL     OW 4450   5.112   6.672   0.073
 1184SOL    HW1 4451   5.077   6.750   0.124
 1184SOL    HW2 4452   5.037   6.627   0.025
 1185SOL     OW 4453   0.560   0.962   0.966
 1185SOL    HW1 4454   0.628   1.015   1.017
 1185SOL    HW2 4455   0.608   0.904   0.899
 1186SOL     OW 4456   5.462   6.107   5.730
 1186SOL    HW1 4457   5.504   6.180   5.677
 1186SOL    HW2 4458   5.370   6.090   5.696
 1187SOL     OW 4459   5.404   6.752   5.204
 1187SOL    HW1 4460   5.398   6.783   5.109
 1187SOL    HW2 4461   5.331   6.687   5.223
 1188SOL     OW 4462   3.758   5.879   6.027
 1188SOL    HW1 4463   3.722   5.790   6.054
 1188SOL    HW2 4464   3.691   5.927   5.971
 1189SOL     OW 4465   6.348   0.552   2.120
 1189SOL    HW1 4466   6.258   0.520   2.090
 1189SOL    HW2 4467   6.341   0.590   2.212
 1190SOL     OW 4468   3.435   5.539   3.069
 1190SOL    HW1 4469   3.410   5.536   2.972
 1190SOL    HW2 4470   3.361   5.500   3.124
 1191SOL     OW 4471   3.077   6.205   4.319
 1191SOL    HW1 4472   2.994   6.155   4.343
 1191SOL    HW2 4473   3.130   6.223   4.402
 1192SOL     OW 4474   5.468   6.173   3.047
 1192SOL    HW1 4475   5.403   6.118   3.100
 1192SOL    HW2 4476   5.511   6.115   2.978
 1193SOL     OW 4477   0.400   0.494   5.517
 1193SOL    HW1 4478   0.341   0.435   5.571
 1193SOL    HW2 4479   0.463   0.543   5.578
 1194SOL     OW 4480   0.026   1.644   0.944
 1194SOL    HW1 4481   6.964   1.617   0.908
 1194SOL    HW2 4482   0.098   1.590   0.899
 1195SOL     OW 4483   6.573   3.763   0.889
 1195SOL    HW1 4484   6.588   3.666   0.904
 1195SOL    HW2 4485   6.489   3.791   0.937
 1196SOL     OW 4486   5.939   4.739   2.894
 1196SOL    HW1 4487   6.014   4.715   2.954
 1196SOL    HW2 4488   5.972   4.801   2.822
 1197SOL     OW 4489   4.456   6.574   4.257
 1197SOL    HW1 4490   4.395   6.568   4.336
 1197SOL    HW2 4491   4.434   6.500   4.193
 1198SOL     OW 4492   1.121   3.930   2.349
 1198SOL    HW1 4493   1.092   3.874   2.271
 1198SOL    HW2 4494   1.218   3.913   2.367
 1199SOL     OW 4495   3.713   3.319   2.640
 1199SOL    HW1 4496   3.733   3.307   2.737
 1199SOL    HW2 4497   3.793   3.293   2.586
 1200SOL     OW 4498   4.068   3.816   4.178
 1200SOL    HW1 4499   4.082   3.786   4.084
 1200SOL    HW2 4500   4.101   3.745   4.241
 1201SOL     OW 4501   0.178   1.028   4.754
 1201SOL    HW1 4502   0.249   0.970   4.713
 1201SOL    HW2 4503   0.174   1.115   4.706
 1202SOL     OW 4504   6.611   0.127   5.899
 1202SOL    HW1 4505   6.675   0.050   5.902
 1202SOL    HW2 4506   6.636   0.187   5.823
 1203SOL     OW 4507   0.176   6.561   1.110
 1203SOL    HW1 4508   0.244   6.494   1.080
 1203SOL    HW2 4509   0.114   6.582   1.034
 1204SOL     OW 4510   4.886   1.631   1.642
 1204SOL    HW1 4511   4.822   1.660   1.571
 1204SOL    HW2 4512   4.906   1.533   1.630
 1205SOL     OW 4513   3.656   3.412   0.071
 1205SOL    HW1 4514   3.565   3.379   0.096
 1205SOL    HW2 4515   3.651   3.460   7.010
 1206SOL     OW 4516   1.032   3.027   4.409
 1206SOL    HW1 4517   0.972   2.997   4.483
 1206SOL    HW2 4518   1.118   3.061   4.448
 1207SOL     OW 4519   0.410   0.688   0.395
 1207SOL    HW1 4520   0.509   0.698   0.382
 1207SOL    HW2 4521   0.361   0.729   0.318
 1208SOL     OW 4522   3.505   3.714   1.780
 1208SOL    HW1 4523   3.554   3.800   1.795
 1208SOL    HW2 4524   3.492   3.668   1.868
 1209SOL     OW 4525   5.442   0.285   4.210
 1209SOL    HW1 4526   5.494   0.219   4.156
 1209SOL    HW2 4527   5.500   0.363   4.233
 1210SOL     OW 4528   4.661   6.652   3.688
 1210SOL    HW1 4529   4.708   6.566   3.707
 1210SOL    HW2 4530   4.618   6.685   3.772
 1211SOL     OW 4531   0.930   3.242   3.058
 1211SOL    HW1 4532   0.891   3.333   3.051
 1211SOL    HW2 4533   0.996   3.240   3.134
 1212SOL     OW 4534   6.686   0.726   5.886
 1212SOL    HW1 4535   6.727   0.658   5.946
 1212SOL    HW2 4536   6.678   0.813   5.935
 1213SOL     OW 4537   5.576   1.859   2.785
 1213SOL    HW1 4538   5.524   1.891   2.706
 1213SOL    HW2 4539   5.614   1.937   2.835
 1214SOL     OW 4540   0.402   2.440   6.676
 1214SOL    HW1 4541   0.414   2.537   6.655
 1214SOL    HW2 4542   0.307   2.414   6.659
 1215SOL     OW 4543   1.814   4.950   2.526
 1215SOL    HW1 4544   1.894   4.982   2.577
 1215SOL    HW2 4545   1.773   5.027   2.477
 1216SOL     OW 4546   6.138   1.483   1.202
 1216SOL    HW1 4547   6.231   1.485   1.165
 1216SOL    HW2 4548   6.075   1.524   1.135
 1217SOL     OW 4549   3.020   4.521   0.709
 1217SOL    HW1 4550   2.952   4.514   0.636
 1217SOL    HW2 4551   3.069   4.607   0.701
 1218SOL     OW 4552   1.353   3.172   5.551
 1218SOL    HW1 4553   1.319   3.112   5.624
 1218SOL    HW2 4554   1.440   3.138   5.517
 1219SOL     OW 4555   5.139   5.197   1.598
 1219SOL    HW1 4556   5.097   5.276   1.642
 1219SOL    HW2 4557   5.222   5.225   1.551
 1220SOL     OW 4558   6.608   3.823   2.388
 1220SOL    HW1 4559   6.687   3.853   2.441
 1220SOL    HW2 4560   6.635   3.810   2.293
 1221SOL     OW 4561   5.627   3.499   6.553
 1221SOL    HW1 4562   5.558   3.531   6.618
 1221SOL    HW2 4563   5.636   3.400   6.560
 1222SOL     OW 4564   0.309   0.875   6.615
 1222SOL    HW1 4565   0.353   0.938   6.679
 1222SOL    HW2 4566   0.379   0.828   6.561
 1223SOL     OW 4567   3.586   1.357   0.293
 1223SOL    HW1 4568   3.575   1.429   0.361
 1223SOL    HW2 4569   3.505   1.354   0.235
 1224SOL     OW 4570   3.493   5.782   6.640
 1224SOL    HW1 4571   3.542   5.852   6.692
 1224SOL    HW2 4572   3.436   5.826   6.571
 1225SOL     OW 4573   3.936   2.832   6.995
 1225SOL    HW1 4574   3.946   2.733   6.985
 1225SOL    HW2 4575   3.966   2.860   0.060
 1226SOL     OW 4576   3.827   6.331   0.425
 1226SOL    HW1 4577   3.833   6.427   0.450
 1226SOL    HW2 4578   3.888   6.312   0.348
 1227SOL     OW 4579   5.133   5.690   5.753
 1227SOL    HW1 4580   5.111   5.735   5.666
 1227SOL    HW2 4581   5.131   5.757   5.827
 1228SOL     OW 4582   3.639   2.479   6.517
 1228SOL    HW1 4583   3.554   2.525   6.492
 1228SOL    HW2 4584   3.616   2.395   6.568
 1229SOL     OW 4585   1.644   5.082   0.115
 1229SOL    HW1 4586   1.701   5.160   0.141
 1229SOL    HW2 4587   1.675   5.046   0.027
 1230SOL     OW 4588   6.010   6.200   2.257
 1230SOL    HW1 4589   5.949   6.120   2.259
 1230SOL    HW2 4590   6.105   6.169   2.258
 1231SOL     OW 4591   1.732   1.956   5.537
 1231SOL    HW1 4592   1.732   2.051   5.506
 1231SOL    HW2 4593   1.780   1.949   5.624
 1232SOL     OW 4594   6.631   1.308   5.085
 1232SOL    HW1 4595   6.722   1.306   5.124
 1232SOL    HW2 4596   6.571   1.246   5.136
 1233SOL     OW 4597   0.671   5.558   4.499
 1233SOL    HW1 4598   0.585   5.586   4.541
 1233SOL    HW2 4599   0.659   5.550   4.400
 1234SOL     OW 4600   5.741   2.007   5.420
 1234SOL    HW1 4601   5.718   2.104   5.407
 1234SOL    HW2 4602   5.689   1.971   5.498
 1235SOL     OW 4603   5.857   4.677   1.669
 1235SOL    HW1 4604   5.925   4.746   1.691
 1235SOL    HW2 4605   5.792   4.714   1.603
 1236SOL     OW 4606   4.135   1.587   1.875
 1236SOL    HW1 4607   4.102   1.493   1.868
 1236SOL    HW2 4608   4.165   1.605   1.968
 1237SOL     OW 4609   1.387   4.739   5.191
 1237SOL    HW1 4610   1.473   4.701   5.224
 1237SOL    HW2 4611   1.397   4.764   5.095
 1238SOL     OW 4612   1.210   0.301   5.806
 1238SOL    HW1 4613   1.177   0.252   5.887
 1238SOL    HW2 4614   1.143   0.293   5.733
 1239SOL     OW 4615   0.301   6.938   6.387
 1239SOL    HW1 4616   0.350   6.970   6.467
 1239SOL    HW2 4617   0.325   6.843   6.369
 1240SOL     OW 4618   5.983   6.190   1.192
 1240SOL    HW1 4619   6.078   6.196   1.222
 1240SOL    HW2 4620   5.955   6.276   1.151
 1241SOL     OW 4621   6.190   4.750   5.650
 1241SOL    HW1 4622   6.195   4.820   5.578
 1241SOL    HW2 4623   6.136   4.672   5.618
 1242SOL     OW 4624   2.141   4.544   1.160
 1242SOL    HW1 4625   2.191   4.629   1.145
 1242SOL    HW2 4626   2.186   4.469   1.113
 1243SOL     OW 4627   0.943   0.806   5.118
 1243SOL    HW1 4628   0.867   0.801   5.183
 1243SOL    HW2 4629   0.915   0.765   5.032
 1244SOL     OW 4630   5.191   6.259   4.424
 1244SOL    HW1 4631   5.260   6.298   4.485
 1244SOL    HW2 4632   5.167   6.167   4.456
 1245SOL     OW 4633   5.338   4.051   6.939
 1245SOL    HW1 4634   5.409   4.106   6.894
 1245SOL    HW2 4635   5.360   4.042   0.009
 1246SOL     OW 4636   3.055   1.508   1.509
 1246SOL    HW1 4637   3.126   1.542   1.448
 1246SOL    HW2 4638   3.061   1.408   1.514
 1247SOL     OW 4639   6.969   6.592   6.111
 1247SOL    HW1 4640   6.873   6.621   6.108
 1247SOL    HW2 4641   7.019   6.646   6.178
 1248SOL     OW 4642   1.837   6.307   3.837
 1248SOL    HW1 4643   1.771   6.263   3.898
 1248SOL    HW2 4644   1.869   6.392   3.878
 1249SOL     OW 4645   6.806   2.608   2.027
 1249SOL    HW1 4646   6.812   2.518   2.069
 1249SOL    HW2 4647   6.728   2.658   2.064
 1250SOL     OW 4648   5.700   5.062   3.521
 1250SOL    HW1 4649   5.700   4.970   3.560
 1250SOL    HW2 4650   5.664   5.058   3.428
 1251SOL     OW 4651   1.867   1.166   3.019
 1251SOL    HW1 4652   1.901   1.215   3.099
 1251SOL    HW2 4653   1.767   1.160   3.023
 1252SOL     OW 4654   4.008   4.570   6.970
 1252SOL    HW1 4655   3.950   4.649   6.989
 1252SOL    HW2 4656   3.953   4.496   6.931
 1253SOL     OW 4657   3.951   6.429   2.653
 1253SOL    HW1 4658   3.895   6.502   2.613
 1253SOL    HW2 4659   3.896   6.379   2.720
 1254SOL     OW 4660   0.674   2.231   3.754
 1254SOL    HW1 4661   0.595   2.269   3.704
 1254SOL    HW2 4662   0.751   2.222   3.692
 1255SOL     OW 4663   5.918   1.250   5.955
 1255SOL    HW1 4664   5.851   1.207   5.894
 1255SOL    HW2 4665   5.900   1.348   5.962
 1256SOL     OW 4666   0.189   6.638   4.001
 1256SOL    HW1 4667   0.186   6.540   4.023
 1256SOL    HW2 4668   0.197   6.649   3.902
 1257SOL     OW 4669   0.074   5.174   5.004
 1257SOL    HW1 4670   0.114   5.085   5.024
 1257SOL    HW2 4671   7.026   5.193   5.068
 1258SOL     OW 4672   1.694   5.152   3.051
 1258SOL    HW1 4673   1.736   5.095   2.981
 1258SOL    HW2 4674   1.602   5.179   3.021
 1259SOL     OW 4675   4.143   0.199   4.626
 1259SOL    HW1 4676   4.096   0.111   4.620
 1259SOL    HW2 4677   4.134   0.235   4.719
 1260SOL     OW 4678   3.476   1.796   0.530
 1260SOL    HW1 4679   3.436   1.881   0.566
 1260SOL    HW2 4680   3.447   1.784   0.435
 1261SOL     OW 4681   6.840   5.462   6.586
 1261SOL    HW1 4682   6.792   5.550   6.585
 1261SOL    HW2 4683   6.930   5.474   6.628
 1262SOL     OW 4684   5.565   4.936   1.166
 1262SOL    HW1 4685   5.601   4.843   1.171
 1262SOL    HW2 4686   5.567   4.968   1.071
 1263SOL     OW 4687   6.812   2.160   1.434
 1263SOL    HW1 4688   6.771   2.203   1.515
 1263SOL    HW2 4689   6.752   2.086   1.402
 1264SOL     OW 4690   0.091   3.394   1.359
 1264SOL    HW1 4691   0.137   3.475   1.323
 1264SOL    HW2 4692   0.074   3.406   1.457
 1265SOL     OW 4693   5.479   5.541   3.421
 1265SOL    HW1 4694   5.495   5.610   3.352
 1265SOL    HW2 4695   5.432   5.463   3.381
 1266SOL     OW 4696   1.159   0.920   4.289
 1266SOL    HW1 4697   1.081   0.870   4.251
 1266SOL    HW2 4698   1.159   1.013   4.254
 1267SOL     OW 4699   5.540   6.068   1.345
 1267SOL    HW1 4700   5.475   5.999   1.378
 1267SOL    HW2 4701   5.543   6.144   1.409
 1268SOL     OW 4702   3.815   3.030   0.330
 1268SOL    HW1 4703   3.890   2.970   0.303
 1268SOL    HW2 4704   3.835   3.124   0.304
 1269SOL     OW 4705   5.166   5.839   5.218
 1269SOL    HW1 4706   5.247   5.816   5.271
 1269SOL    HW2 4707   5.193   5.874   5.128
 1270SOL     OW 4708   2.433   4.434   4.024
 1270SOL    HW1 4709   2.411   4.337   4.011
 1270SOL    HW2 4710   2.479   4.469   3.943
 1271SOL     OW 4711   2.856   2.323   3.850
 1271SOL    HW1 4712   2.917   2.401   3.859
 1271SOL    HW2 4713   2.807   2.309   3.937
 1272SOL     OW 4714   5.520   5.706   0.274
 1272SOL    HW1 4715   5.475   5.789   0.240
 1272SOL    HW2 4716   5.458   5.657   0.335
 1273SOL     OW 4717   0.432   4.365   6.687
 1273SOL    HW1 4718   0.358   4.408   6.634
 1273SOL    HW2 4719   0.394   4.305   6.756
 1274SOL     OW 4720   6.494   3.835   1.726
 1274SOL    HW1 4721   6.430   3.757   1.721
 1274SOL    HW2 4722   6.460   3.901   1.792
 1275SOL     OW 4723   3.450   1.710   4.673
 1275SOL    HW1 4724   3.491   1.797   4.646
 1275SOL    HW2 4725   3.508   1.635   4.640
 1276SOL     OW 4726   0.078   6.792   4.567
 1276SOL    HW1 4727   0.133   6.744   4.635
 1276SOL    HW2 4728   7.008   6.792   4.596
 1277SOL     OW 4729   0.960   6.234   6.302
 1277SOL    HW1 4730   0.949   6.325   6.342
 1277SOL    HW2 4731   0.986   6.169   6.372
 1278SOL     OW 4732   0.864   0.111   5.501
 1278SOL    HW1 4733   0.949   0.155   5.475
 1278SOL    HW2 4734   0.853   0.026   5.449
 1279SOL     OW 4735   2.995   6.486   0.438
 1279SOL    HW1 4736   3.048   6.460   0.356
 1279SOL    HW2 4737   2.960   6.404   0.482
 1280SOL     OW 4738   3.050   6.298   4.634
 1280SOL    HW1 4739   3.002   6.384   4.619
 1280SOL    HW2 4740   2.983   6.225   4.649
 1281SOL     OW 4741   1.513   6.583   3.670
 1281SOL    HW1 4742   1.434   6.567   3.611
 1281SOL    HW2 4743   1.588   6.522   3.642
 1282SOL     OW 4744   0.571   2.044   6.560
 1282SOL    HW1 4745   0.547   1.987   6.639
 1282SOL    HW2 4746   0.670   2.061   6.559
 1283SOL     OW 4747   6.768   3.247   5.073
 1283SOL    HW1 4748   6.696   3.216   5.134
 1283SOL    HW2 4749   6.794   3.174   5.010
 1284SOL     OW 4750   4.821   1.565   2.062
 1284SOL    HW1 4751   4.894   1.500   2.080
 1284SOL    HW2 4752   4.743   1.519   2.020
 1285SOL     OW 4753   4.740   2.335   6.265
 1285SOL    HW1 4754   4.688   2.407   6.219
 1285SOL    HW2 4755   4.805   2.295   6.200
 1286SOL     OW 4756   5.267   3.879   2.525
 1286SOL    HW1 4757   5.307   3.970   2.514
 1286SOL    HW2 4758   5.204   3.861   2.449
 1287SOL     OW 4759   5.291   5.545   5.418
 1287SOL    HW1 4760   5.272   5.643   5.407
 1287SOL    HW2 4761   5.338   5.511   5.337
 1288SOL     OW 4762   4.361   3.506   6.923
 1288SOL    HW1 4763   4.272   3.490   6.881
 1288SOL    HW2 4764   4.388   3.425   6.975
 1289SOL     OW 4765   1.025   6.043   2.006
 1289SOL    HW1 4766   0.959   5.968   2.012
 1289SOL    HW2 4767   1.025   6.080   1.914
 1290SOL     OW 4768   0.878   6.647   6.629
 1290SOL    HW1 4769   0.965   6.695   6.640
 1290SOL    HW2 4770   0.837   6.630   6.719
 1291SOL     OW 4771   0.028   3.856   5.309
 1291SOL    HW1 4772   6.972   3.811   5.275
 1291SOL    HW2 4773   0.054   3.815   5.396
 1292SOL     OW 4774   0.581   5.977   2.165
 1292SOL    HW1 4775   0.573   5.902   2.100
 1292SOL    HW2 4776   0.578   6.064   2.117
 1293SOL     OW 4777   1.189   1.855   0.429
 1293SOL    HW1 4778   1.121   1.781   0.432
 1293SOL    HW2 4779   1.163   1.919   0.357
 1294SOL     OW 4780   1.112   3.490   6.763
 1294SOL    HW1 4781   1.210   3.506   6.749
 1294SOL    HW2 4782   1.087   3.516   6.857
 1295SOL     OW 4783   0.150   3.659   2.201
 1295SOL    HW1 4784   0.201   3.588   2.248
 1295SOL    HW2 4785   0.151   3.743   2.257
 1296SOL     OW 4786   3.687   0.275   5.614
 1296SOL    HW1 4787   3.671   0.256   5.711
 1296SOL    HW2 4788   3.776   0.239   5.586
 1297SOL     OW 4789   6.317   1.060   1.051
 1297SOL    HW1 4790   6.398   1.033   0.999
 1297SOL    HW2 4791   6.235   1.038   0.998
 1298SOL     OW 4792   5.991   4.780   2.531
 1298SOL    HW1 4793   6.005   4.684   2.555
 1298SOL    HW2 4794   5.987   4.789   2.432
 1299SOL     OW 4795   1.498   3.812   3.207
 1299SOL    HW1 4796   1.534   3.839   3.296
 1299SOL    HW2 4797   1.531   3.720   3.184
 1300SOL     OW 4798   3.312   2.832   1.913
 1300SOL    HW1 4799   3.381   2.824   1.984
 1300SOL    HW2 4800   3.335   2.771   1.837
 1301SOL     OW 4801   0.691   5.733   1.149
 1301SOL    HW1 4802   0.617   5.772   1.202
 1301SOL    HW2 4803   0.667   5.733   1.052
 1302SOL     OW 4804   4.972   0.422   5.595
 1302SOL    HW1 4805   4.988   0.323   5.594
 1302SOL    HW2 4806   5.050   0.468   5.638
 1303SOL     OW 4807   4.368   1.521   2.091
 1303SOL    HW1 4808   4.449   1.480   2.050
 1303SOL    HW2 4809   4.302   1.449   2.114
 1304SOL     OW 4810   2.082   1.039   6.416
 1304SOL    HW1 4811   1.993   1.028   6.370
 1304SOL    HW2 4812   2.067   1.055   6.513
 1305SOL     OW 4813   4.976   3.210   0.111
 1305SOL    HW1 4814   4.918   3.170   0.182
 1305SOL    HW2 4815   5.072   3.201   0.138
 1306SOL     OW 4816   0.230   4.900   4.541
 1306SOL    HW1 4817   0.260   4.959   4.466
 1306SOL    HW2 4818   0.179   4.822   4.503
 1307SOL     OW 4819   0.383   3.949   4.120
 1307SOL    HW1 4820   0.339   3.915   4.203
 1307SOL    HW2 4821   0.469   3.993   4.143
 1308SOL     OW 4822   5.614   6.324   5.001
 1308SOL    HW1 4823   5.528   6.276   5.017
 1308SOL    HW2 4824   5.657   6.289   4.918
 1309SOL     OW 4825   4.986   3.451   5.475
 1309SOL    HW1 4826   4.973   3.423   5.380
 1309SOL    HW2 4827   5.084   3.448   5.498
 1310SOL     OW 4828   7.006   3.705   4.248
 1310SOL    HW1 4829   0.022   3.617   4.229
 1310SOL    HW2 4830   6.968   3.705   4.341
 1311SOL     OW 4831   0.868   6.526   4.789
 1311SOL    HW1 4832   0.820   6.446   4.753
 1311SOL    HW2 4833   0.915   6.573   4.715
 1312SOL     OW 4834   1.569   0.602   6.337
 1312SOL    HW1 4835   1.511   0.620   6.417
 1312SOL    HW2 4836   1.529   0.528   6.284
 1313SOL     OW 4837   0.760   4.030   3.793
 1313SOL    HW1 4838   0.712   3.985   3.718
 1313SOL    HW2 4839   0.771   4.127   3.772
 1314SOL     OW 4840   4.350   1.046   5.745
 1314SOL    HW1 4841   4.404   1.130   5.736
 1314SOL    HW2 4842   4.263   1.065   5.790
 1315SOL     OW 4843   0.169   1.234   1.257
 1315SOL    HW1 4844   0.197   1.141   1.280
 1315SOL    HW2 4845   0.184   1.294   1.335
 1316SOL     OW 4846   2.310   6.343   5.158
 1316SOL    HW1 4847   2.375   6.350   5.233
 1316SOL    HW2 4848   2.235   6.281   5.185
 1317SOL     OW 4849   2.010   4.109   6.169
 1317SOL    HW1 4850   2.044   4.175   6.236
 1317SOL    HW2 4851   2.087   4.057   6.132
 1318SOL     OW 4852   0.962   1.093   1.155
 1318SOL    HW1 4853   0.927   1.083   1.248
 1318SOL    HW2 4854   1.033   1.163   1.153
 1319SOL     OW 4855   6.728   0.826   6.920
 1319SOL    HW1 4856   6.634   0.856   6.939
 1319SOL    HW2 4857   6.725   0.739   6.869
 1320SOL     OW 4858   4.846   3.776   0.632
 1320SOL    HW1 4859   4.845   3.713   0.710
 1320SOL    HW2 4860   4.760   3.827   0.629
 1321SOL     OW 4861   5.558   1.468   6.211
 1321SOL    HW1 4862   5.572   1.369   6.207
 1321SOL    HW2 4863   5.558   1.498   6.306
 1322SOL     OW 4864   3.777   0.762   3.923
 1322SOL    HW1 4865   3.702   0.702   3.951
 1322SOL    HW2 4866   3.853   0.752   3.987
 1323SOL     OW 4867   4.796   1.250   5.669
 1323SOL    HW1 4868   4.802   1.150   5.673
 1323SOL    HW2 4869   4.833   1.289   5.753
 1324SOL     OW 4870   1.043   3.524   0.764
 1324SOL    HW1 4871   1.069   3.447   0.706
 1324SOL    HW2 4872   0.990   3.590   0.711
 1325SOL     OW 4873   2.267   6.923   2.797
 1325SOL    HW1 4874   2.190   6.909   2.735
 1325SOL    HW2 4875   2.259   7.012   2.841
 1326SOL     OW 4876   5.099   3.433   5.033
 1326SOL    HW1 4877   5.048   3.368   5.089
 1326SOL    HW2 4878   5.034   3.494   4.986
 1327SOL     OW 4879   1.720   4.841   2.114
 1327SOL    HW1 4880   1.785   4.843   2.189
 1327SOL    HW2 4881   1.759   4.887   2.034
 1328SOL     OW 4882   1.313   3.103   0.973
 1328SOL    HW1 4883   1.265   3.116   0.886
 1328SOL    HW2 4884   1.270   3.159   1.044
 1329SOL     OW 4885   0.283   2.256   1.362
 1329SOL    HW1 4886   0.335   2.194   1.304
 1329SOL    HW2 4887   0.208   2.206   1.405
 1330SOL     OW 4888   0.400   1.564   1.620
 1330SOL    HW1 4889   0.361   1.526   1.703
 1330SOL    HW2 4890   0.429   1.658   1.637
 1331SOL     OW 4891   4.856   2.753   3.728
 1331SOL    HW1 4892   4.770   2.768   3.679
 1331SOL    HW2 4893   4.887   2.659   3.715
 1332SOL     OW 4894   3.230   7.021   6.882
 1332SOL    HW1 4895   3.223   6.940   6.941
 1332SOL    HW2 4896   3.325   0.005   6.853
 1333SOL     OW 4897   3.730   3.966   5.392
 1333SOL    HW1 4898   3.688   3.886   5.435
 1333SOL    HW2 4899   3.762   3.941   5.300
 1334SOL     OW 4900   6.530   1.969   4.317
 1334SOL    HW1 4901   6.438   1.970   4.278
 1334SOL    HW2 4902   6.589   2.030   4.263
 1335SOL     OW 4903   2.430   1.757   3.036
 1335SOL    HW1 4904   2.397   1.822   2.969
 1335SOL    HW2 4905   2.398   1.783   3.127
 1336SOL     OW 4906   1.979   2.358   5.515
 1336SOL    HW1 4907   2.026   2.371   5.428
 1336SOL    HW2 4908   2.045   2.361   5.589
 1337SOL     OW 4909   2.023   1.838   4.715
 1337SOL    HW1 4910   2.082   1.858   4.636
 1337SOL    HW2 4911   2.078   1.801   4.789
 1338SOL     OW 4912   5.648   2.169   5.131
 1338SOL    HW1 4913   5.701   2.097   5.175
 1338SOL    HW2 4914   5.705   2.251   5.122
 1339SOL     OW 4915   0.994   1.744   6.446
 1339SOL    HW1 4916   0.965   1.695   6.364
 1339SOL    HW2 4917   0.948   1.704   6.526
 1340SOL     OW 4918   0.246   1.885   2.577
 1340SOL    HW1 4919   0.149   1.901   2.560
 1340SOL    HW2 4920   0.288   1.971   2.608
 1341SOL     OW 4921   5.301   0.187   6.217
 1341SOL    HW1 4922   5.228   0.225   6.161
 1341SOL    HW2 4923   5.389   0.203   6.172
 1342SOL     OW 4924   1.798   5.202   6.054
 1342SOL    HW1 4925   1.812   5.104   6.068
 1342SOL    HW2 4926   1.871   5.238   5.996
 1343SOL     OW 4927   4.689   6.042   3.172
 1343SOL    HW1 4928   4.777   6.018   3.131
 1343SOL    HW2 4929   4.645   5.959   3.207
 1344SOL     OW 4930   6.704   4.947   4.356
 1344SOL    HW1 4931   6.663   5.038   4.367
 1344SOL    HW2 4932   6.766   4.929   4.432
 1345SOL     OW 4933   1.827   0.523   2.587
 1345SOL    HW1 4934   1.893   0.522   2.662
 1345SOL    HW2 4935   1.756   0.455   2.604
 1346SOL     OW 4936   0.915   5.872   4.422
 1346SOL    HW1 4937   0.817   5.853   4.427
 1346SOL    HW2 4938   0.952   5.880   4.514
 1347SOL     OW 4939   6.342   6.317   4.638
 1347SOL    HW1 4940   6.268   6.249   4.636
 1347SOL    HW2 4941   6.410   6.289   4.706
 1348SOL     OW 4942   5.415   5.293   2.503
 1348SOL    HW1 4943   5.342   5.265   2.565
 1348SOL    HW2 4944   5.377   5.312   2.413
 1349SOL     OW 4945   4.370   2.555   6.237
 1349SOL    HW1 4946   4.301   2.606   6.288
 1349SOL    HW2 4947   4.333   2.530   6.148
 1350SOL     OW 4948   5.140   4.689   5.963
 1350SOL    HW1 4949   5.150   4.732   5.873
 1350SOL    HW2 4950   5.079   4.744   6.020
 1351SOL     OW 4951   6.566   1.094   3.628
 1351SOL    HW1 4952   6.558   1.105   3.727
 1351SOL    HW2 4953   6.593   1.181   3.587
 1352SOL     OW 4954   6.965   6.701   3.036
 1352SOL    HW1 4955   6.983   6.624   3.098
 1352SOL    HW2 4956   6.875   6.739   3.056
 1353SOL     OW 4957   0.147   3.626   6.850
 1353SOL    HW1 4958   0.181   3.566   6.778
 1353SOL    HW2 4959   0.049   3.609   6.864
 1354SOL     OW 4960   0.861   3.042   0.569
 1354SOL    HW1 4961   0.782   3.054   0.509
 1354SOL    HW2 4962   0.837   3.069   0.662
 1355SOL     OW 4963   6.621   2.774   5.340
 1355SOL    HW1 4964   6.528   2.739   5.351
 1355SOL    HW2 4965   6.686   2.710   5.382
 1356SOL     OW 4966   2.852   3.530   2.697
 1356SOL    HW1 4967   2.895   3.620   2.692
 1356SOL    HW2 4968   2.832   3.508   2.792
 1357SOL     OW 4969   1.262   3.421   5.415
 1357SOL    HW1 4970   1.293   3.339   5.462
 1357SOL    HW2 4971   1.342   3.470   5.378
 1358SOL     OW 4972   3.727   1.030   5.735
 1358SOL    HW1 4973   3.661   1.005   5.664
 1358SOL    HW2 4974   3.717   0.969   5.813
 1359SOL     OW 4975   5.862   4.541   1.917
 1359SOL    HW1 4976   5.914   4.620   1.948
 1359SOL    HW2 4977   5.854   4.544   1.817
 1360SOL     OW 4978   3.892   2.421   0.365
 1360SOL    HW1 4979   3.893   2.380   0.457
 1360SOL    HW2 4980   3.926   2.515   0.371
 1361SOL     OW 4981   0.314   5.838   5.197
 1361SOL    HW1 4982   0.289   5.742   5.213
 1361SOL    HW2 4983   0.258   5.897   5.255
 1362SOL     OW 4984   3.068   3.873   4.467
 1362SOL    HW1 4985   3.003   3.855   4.541
 1362SOL    HW2 4986   3.018   3.878   4.380
 1363SOL     OW 4987   6.980   5.553   3.759
 1363SOL    HW1 4988   7.014   5.463   3.786
 1363SOL    HW2 4989   6.882   5.559   3.779
 1364SOL     OW 4990   6.533   2.284   1.142
 1364SOL    HW1 4991   6.492   2.373   1.159
 1364SOL    HW2 4992   6.495   2.217   1.207
 1365SOL     OW 4993   0.737   2.661   5.872
 1365SOL    HW1 4994   0.796   2.737   5.844
 1365SOL    HW2 4995   0.654   2.698   5.914
 1366SOL     OW 4996   0.686   4.720   0.265
 1366SOL    HW1 4997   0.718   4.662   0.339
 1366SOL    HW2 4998   0.587   4.708   0.254
 1367SOL     OW 4999   1.393   6.519   2.522
 1367SOL    HW1 5000   1.332   6.440   2.518
 1367SOL    HW2 5001   1.387   6.569   2.435
 1368SOL     OW 5002   6.957   0.467   3.978
 1368SOL    HW1 5003   6.903   0.430   3.903
 1368SOL    HW2 5004   6.899   0.522   4.038
 1369SOL     OW 5005   2.278   0.199   2.281
 1369SOL    HW1 5006   2.215   0.144   2.227
 1369SOL    HW2 5007   2.275   0.169   2.377
 1370SOL     OW 5008   4.293   1.374   2.459
 1370SOL    HW1 5009   4.297   1.388   2.360
 1370SOL    HW2 5010   4.204   1.337   2.485
 1371SOL     OW 5011   6.124   1.697   4.695
 1371SOL    HW1 5012   6.151   1.790   4.667
 1371SOL    HW2 5013   6.034   1.676   4.657
 1372SOL     OW 5014   1.203   2.621   0.494
 1372SOL    HW1 5015   1.291   2.588   0.461
 1372SOL    HW2 5016   1.196   2.720   0.478
 1373SOL     OW 5017   4.566   2.668   6.729
 1373SOL    HW1 5018   4.512   2.745   6.696
 1373SOL    HW2 5019   4.528   2.635   6.816
 1374SOL     OW 5020   4.853   1.844   0.095
 1374SOL    HW1 5021   4.908   1.785   0.035
 1374SOL    HW2 5022   4.772   1.875   0.045
 1375SOL     OW 5023   0.076   5.411   6.654
 1375SOL    HW1 5024   0.033   5.332   6.610
 1375SOL    HW2 5025   0.173   5.414   6.629
 1376SOL     OW 5026   4.536   4.784   5.170
 1376SOL    HW1 5027   4.617   4.806   5.225
 1376SOL    HW2 5028   4.554   4.807   5.074
 1377SOL     OW 5029   0.585   3.108   5.520
 1377SOL    HW1 5030   0.564   3.043   5.593
 1377SOL    HW2 5031   0.590   3.200   5.558
 1378SOL     OW 5032   5.958   1.508   5.018
 1378SOL    HW1 5033   5.883   1.498   4.952
 1378SOL    HW2 5034   6.019   1.581   4.987
 1379SOL     OW 5035   3.824   6.353   3.201
 1379SOL    HW1 5036   3.901   6.326   3.259
 1379SOL    HW2 5037   3.854   6.359   3.106
 1380SOL     OW 5038   0.518   0.099   3.168
 1380SOL    HW1 5039   0.600   0.132   3.121
 1380SOL    HW2 5040   0.442   0.093   3.104
 1381SOL     OW 5041   5.786   1.863   6.766
 1381SOL    HW1 5042   5.721   1.915   6.821
 1381SOL    HW2 5043   5.736   1.814   6.694
 1382SOL     OW 5044   4.849   3.271   0.709
 1382SOL    HW1 5045   4.874   3.304   0.618
 1382SOL    HW2 5046   4.862   3.172   0.713
 1383SOL     OW 5047   0.774   0.220   2.350
 1383SOL    HW1 5048   0.701   0.251   2.288
 1383SOL    HW2 5049   0.829   0.298   2.378
 1384SOL     OW 5050   4.828   0.643   2.063
 1384SOL    HW1 5051   4.895   0.569   2.062
 1384SOL    HW2 5052   4.838   0.698   1.980
 1385SOL     OW 5053   2.380   4.450   3.467
 1385SOL    HW1 5054   2.444   4.526   3.471
 1385SOL    HW2 5055   2.316   4.456   3.544
 1386SOL     OW 5056   3.001   0.499   4.239
 1386SOL    HW1 5057   3.096   0.531   4.245
 1386SOL    HW2 5058   2.939   0.577   4.254
 1387SOL     OW 5059   3.368   6.035   2.828
 1387SOL    HW1 5060   3.294   6.036   2.895
 1387SOL    HW2 5061   3.455   6.051   2.874
 1388SOL     OW 5062   0.645   0.363   3.041
 1388SOL    HW1 5063   0.729   0.334   2.994
 1388SOL    HW2 5064   0.667   0.438   3.103
 1389SOL     OW 5065   6.860   1.558   4.340
 1389SOL    HW1 5066   6.881   1.606   4.254
 1389SOL    HW2 5067   6.767   1.522   4.336
 1390SOL     OW 5068   6.620   3.270   6.155
 1390SOL    HW1 5069   6.554   3.345   6.161
 1390SOL    HW2 5070   6.573   3.183   6.166
 1391SOL     OW 5071   5.813   6.972   5.302
 1391SOL    HW1 5072   5.902   6.989   5.345
 1391SOL    HW2 5073   5.746   0.010   5.337
 1392SOL     OW 5074   6.069   6.830   5.475
 1392SOL    HW1 5075   6.120   6.748   5.450
 1392SOL    HW2 5076   6.096   6.859   5.567
 1393SOL     OW 5077   6.688   4.119   6.121
 1393SOL    HW1 5078   6.686   4.173   6.037
 1393SOL    HW2 5079   6.781   4.115   6.156
 1394SOL     OW 5080   3.365   5.754   5.151
 1394SOL    HW1 5081   3.464   5.749   5.160
 1394SOL    HW2 5082   3.324   5.667   5.179
 1395SOL     OW 5083   1.631   4.172   4.699
 1395SOL    HW1 5084   1.696   4.245   4.721
 1395SOL    HW2 5085   1.679   4.085   4.693
 1396SOL     OW 5086   0.161   0.983   5.091
 1396SOL    HW1 5087   0.251   0.958   5.054
 1396SOL    HW2 5088   0.090   0.954   5.026
 1397SOL     OW 5089   0.335   6.602   4.808
 1397SOL    HW1 5090   0.404   6.667   4.776
 1397SOL    HW2 5091   0.259   6.652   4.849
 1398SOL     OW 5092   2.932   0.761   6.545
 1398SOL    HW1 5093   2.861   0.830   6.559
 1398SOL    HW2 5094   2.943   0.744   6.447
 1399SOL     OW 5095   3.942   5.627   0.521
 1399SOL    HW1 5096   3.913   5.598   0.613
 1399SOL    HW2 5097   3.896   5.570   0.453
 1400SOL     OW 5098   0.464   1.680   4.422
 1400SOL    HW1 5099   0.560   1.699   4.402
 1400SOL    HW2 5100   0.444   1.584   4.400
 1401SOL     OW 5101   5.653   0.465   4.277
 1401SOL    HW1 5102   5.653   0.492   4.374
 1401SOL    HW2 5103   5.737   0.497   4.234
 1402SOL     OW 5104   5.437   4.466   6.132
 1402SOL    HW1 5105   5.369   4.412   6.183
 1402SOL    HW2 5106   5.457   4.550   6.182
 1403SOL     OW 5107   2.158   1.825   0.924
 1403SOL    HW1 5108   2.069   1.870   0.934
 1403SOL    HW2 5109   2.220   1.886   0.874
 1404SOL     OW 5110   6.883   0.584   0.133
 1404SOL    HW1 5111   6.834   0.607   0.217
 1404SOL    HW2 5112   6.850   0.642   0.059
 1405SOL     OW 5113   2.991   3.712   0.989
 1405SOL    HW1 5114   2.907   3.766   0.997
 1405SOL    HW2 5115   3.001   3.679   0.895
 1406SOL     OW 5116   1.463   5.842   0.932
 1406SOL    HW1 5117   1.391   5.894   0.977
 1406SOL    HW2 5118   1.469   5.869   0.836
 1407SOL     OW 5119   0.910   3.753   3.357
 1407SOL    HW1 5120   1.000   3.774   3.320
 1407SOL    HW2 5121   0.861   3.838   3.377
 1408SOL     OW 5122   5.460   0.453   6.577
 1408SOL    HW1 5123   5.432   0.391   6.650
 1408SOL    HW2 5124   5.381   0.475   6.519
 1409SOL     OW 5125   0.494   0.298   5.285
 1409SOL    HW1 5126   0.589   0.282   5.258
 1409SOL    HW2 5127   0.486   0.388   5.329
 1410SOL     OW 5128   1.808   4.335   6.271
 1410SOL    HW1 5129   1.770   4.296   6.187
 1410SOL    HW2 5130   1.741   4.397   6.312
 1411SOL     OW 5131   3.406   5.953   0.275
 1411SOL    HW1 5132   3.374   5.968   0.182
 1411SOL    HW2 5133   3.359   6.017   0.337
 1412SOL     OW 5134   0.697   3.737   0.960
 1412SOL    HW1 5135   0.764   3.690   1.018
 1412SOL    HW2 5136   0.707   3.706   0.865
 1413SOL     OW 5137   2.277   1.217   4.595
 1413SOL    HW1 5138   2.343   1.291   4.595
 1413SOL    HW2 5139   2.193   1.246   4.549
 1414SOL     OW 5140   1.895   1.295   1.837
 1414SOL    HW1 5141   1.940   1.328   1.754
 1414SOL    HW2 5142   1.946   1.328   1.917
 1415SOL     OW 5143   2.908   1.249   3.869
 1415SOL    HW1 5144   2.875   1.343   3.865
 1415SOL    HW2 5145   2.979   1.235   3.799
 1416SOL     OW 5146   4.241   6.720   5.121
 1416SOL    HW1 5147   4.306   6.683   5.054
 1416SOL    HW2 5148   4.212   6.811   5.092
 1417SOL     OW 5149   3.037   2.395   0.117
 1417SOL    HW1 5150   3.022   2.474   0.177
 1417SOL    HW2 5151   3.022   2.311   0.168
 1418SOL     OW 5152   2.866   3.571   1.469
 1418SOL    HW1 5153   2.919   3.578   1.384
 1418SOL    HW2 5154   2.769   3.562   1.447
 1419SOL     OW 5155   3.700   6.392   4.381
 1419SOL    HW1 5156   3.646   6.384   4.298
 1419SOL    HW2 5157   3.667   6.327   4.449
 1420SOL     OW 5158   3.601   5.892   3.206
 1420SOL    HW1 5159   3.598   5.939   3.295
 1420SOL    HW2 5160   3.510   5.856   3.184
 1421SOL     OW 5161   1.050   4.098   4.220
 1421SOL    HW1 5162   1.022   4.165   4.151
 1421SOL    HW2 5163   1.056   4.143   4.309
 1422SOL     OW 5164   1.818   3.877   6.293
 1422SOL    HW1 5165   1.723   3.905   6.282
 1422SOL    HW2 5166   1.879   3.951   6.265
 1423SOL     OW 5167   4.292   0.152   4.422
 1423SOL    HW1 5168   4.225   0.177   4.492
 1423SOL    HW2 5169   4.250   0.160   4.331
 1424SOL     OW 5170   6.706   3.853   6.713
 1424SOL    HW1 5171   6.717   3.925   6.782
 1424SOL    HW2 5172   6.769   3.778   6.732
 1425SOL     OW 5173   1.807   5.421   5.396
 1425SOL    HW1 5174   1.730   5.480   5.374
 1425SOL    HW2 5175   1.869   5.469   5.459
 1426SOL     OW 5176   2.449   2.300   6.649
 1426SOL    HW1 5177   2.539   2.299   6.693
 1426SOL    HW2 5178   2.460   2.282   6.551
 1427SOL     OW 5179   6.980   6.695   4.125
 1427SOL    HW1 5180   0.033   6.677   4.066
 1427SOL    HW2 5181   6.945   6.787   4.105
 1428SOL     OW 5182   0.934   2.305   1.540
 1428SOL    HW1 5183   0.878   2.387   1.548
 1428SOL    HW2 5184   1.002   2.317   1.468
 1429SOL     OW 5185   5.174   1.771   0.398
 1429SOL    HW1 5186   5.138   1.762   0.306
 1429SOL    HW2 5187   5.191   1.681   0.437
 1430SOL     OW 5188   2.153   5.097   3.613
 1430SOL    HW1 5189   2.243   5.114   3.655
 1430SOL    HW2 5190   2.102   5.183   3.609
 1431SOL     OW 5191   2.766   2.228   0.044
 1431SOL    HW1 5192   2.725   2.172   0.116
 1431SOL    HW2 5193   2.790   2.318   0.081
 1432SOL     OW 5194   2.960   1.411   1.163
 1432SOL    HW1 5195   3.042   1.354   1.175
 1432SOL    HW2 5196   2.932   1.408   1.067
 1433SOL     OW 5197   5.205   0.518   5.720
 1433SOL    HW1 5198   5.245   0.449   5.781
 1433SOL    HW2 5199   5.242   0.505   5.628
 1434SOL     OW 5200   0.777   0.657   6.516
 1434SOL    HW1 5201   0.860   0.623   6.559
 1434SOL    HW2 5202   0.735   0.584   6.461
 1435SOL     OW 5203   6.774   0.126   3.033
 1435SOL    HW1 5204   6.699   0.126   3.100
 1435SOL    HW2 5205   6.861   0.125   3.082
 1436SOL     OW 5206   5.616   4.122   6.848
 1436SOL    HW1 5207   5.603   4.148   6.943
 1436SOL    HW2 5208   5.613   4.022   6.840
 1437SOL     OW 5209   3.318   1.474   5.903
 1437SOL    HW1 5210   3.314   1.506   5.998
 1437SOL    HW2 5211   3.250   1.523   5.849
 1438SOL     OW 5212   2.394   0.031   1.902
 1438SOL    HW1 5213   2.479   0.082   1.918
 1438SOL    HW2 5214   2.342   0.075   1.829
 1439SOL     OW 5215   6.882   4.877   0.722
 1439SOL    HW1 5216   6.798   4.918   0.756
 1439SOL    HW2 5217   6.861   4.800   0.662
 1440SOL     OW 5218   3.660   2.998   5.986
 1440SOL    HW1 5219   3.652   3.047   6.073
 1440SOL    HW2 5220   3.746   2.947   5.984
 1441SOL     OW 5221   5.886   2.959   3.909
 1441SOL    HW1 5222   5.951   2.889   3.883
 1441SOL    HW2 5223   5.934   3.044   3.930
 1442SOL     OW 5224   5.997   5.209   0.100
 1442SOL    HW1 5225   5.942   5.291   0.084
 1442SOL    HW2 5226   5.938   5.128   0.092
 1443SOL     OW 5227   0.526   2.728   4.472
 1443SOL    HW1 5228   0.589   2.800   4.442
 1443SOL    HW2 5229   0.438   2.768   4.495
 1444SOL     OW 5230   3.870   6.126   0.994
 1444SOL    HW1 5231   3.959   6.080   0.988
 1444SOL    HW2 5232   3.864   6.196   0.923
 1445SOL     OW 5233   0.349   2.618   1.885
 1445SOL    HW1 5234   0.419   2.687   1.867
 1445SOL    HW2 5235   0.259   2.654   1.860
 1446SOL     OW 5236   4.674   2.407   6.901
 1446SOL    HW1 5237   4.747   2.474   6.889
 1446SOL    HW2 5238   4.714   2.316   6.911
 1447SOL     OW 5239   6.088   6.572   5.807
 1447SOL    HW1 5240   6.154   6.574   5.883
 1447SOL    HW2 5241   6.138   6.563   5.721
 1448SOL     OW 5242   6.424   2.796   6.957
 1448SOL    HW1 5243   6.349   2.745   6.913
 1448SOL    HW2 5244   6.483   2.836   6.887
 1449SOL     OW 5245   0.179   1.119   0.070
 1449SOL    HW1 5246   0.091   1.111   0.024
 1449SOL    HW2 5247   0.189   1.044   0.136
 1450SOL     OW 5248   0.677   2.026   1.749
 1450SOL    HW1 5249   0.634   2.110   1.716
 1450SOL    HW2 5250   0.757   2.048   1.805
 1451SOL     OW 5251   2.316   0.497   2.510
 1451SOL    HW1 5252   2.286   0.500   2.415
 1451SOL    HW2 5253   2.368   0.413   2.526
 1452SOL     OW 5254   4.098   1.051   4.319
 1452SOL    HW1 5255   4.128   1.129   4.264
 1452SOL    HW2 5256   4.160   1.039   4.397
 1453SOL     OW 5257   6.901   4.088   5.387
 1453SOL    HW1 5258   6.957   4.022   5.336
 1453SOL    HW2 5259   6.849   4.041   5.458
 1454SOL     OW 5260   6.464   2.896   2.540
 1454SOL    HW1 5261   6.562   2.919   2.542
 1454SOL    HW2 5262   6.449   2.819   2.479
 1455SOL     OW 5263   1.342   0.038   1.776
 1455SOL    HW1 5264   1.300   7.020   1.855
 1455SOL    HW2 5265   1.384   6.995   1.717
 1456SOL     OW 5266   6.262   6.939   5.258
 1456SOL    HW1 5267   6.229   7.013   5.315
 1456SOL    HW2 5268   6.210   6.856   5.278
 1457SOL     OW 5269   1.367   6.848   1.183
 1457SOL    HW1 5270   1.397   6.757   1.210
 1457SOL    HW2 5271   1.281   6.870   1.230
 1458SOL     OW 5272   5.776   5.795   3.398
 1458SOL    HW1 5273   5.713   5.774   3.323
 1458SOL    HW2 5274   5.829   5.876   3.375
 1459SOL     OW 5275   2.911   5.252   5.508
 1459SOL    HW1 5276   2.845   5.208   5.568
 1459SOL    HW2 5277   2.864   5.290   5.429
 1460SOL     OW 5278   0.380   5.439   5.831
 1460SOL    HW1 5279   0.383   5.520   5.889
 1460SOL    HW2 5280   0.290   5.397   5.837
 1461SOL     OW 5281   0.217   4.983   3.623
 1461SOL    HW1 5282   0.196   4.905   3.681
 1461SOL    HW2 5283   0.287   5.040   3.666
 1462SOL     OW 5284   1.236   0.905   6.384
 1462SOL    HW1 5285   1.310   0.931   6.322
 1462SOL    HW2 5286   1.197   0.987   6.426
 1463SOL     OW 5287   0.007   5.564   6.895
 1463SOL    HW1 5288   0.024   5.508   6.813
 1463SOL    HW2 5289   6.936   5.562   6.917
 1464SOL     OW 5290   5.741   0.036   0.810
 1464SOL    HW1 5291   5.692   0.020   0.725
 1464SOL    HW2 5292   5.686   0.003   0.887
 1465SOL     OW 5293   1.729   1.268   3.668
 1465SOL    HW1 5294   1.776   1.180   3.663
 1465SOL    HW2 5295   1.721   1.296   3.764
 1466SOL     OW 5296   1.090   1.506   2.115
 1466SOL    HW1 5297   1.100   1.407   2.099
 1466SOL    HW2 5298   1.166   1.539   2.170
 1467SOL     OW 5299   2.427   1.973   1.955
 1467SOL    HW1 5300   2.427   2.072   1.947
 1467SOL    HW2 5301   2.334   1.941   1.974
 1468SOL     OW 5302   5.417   5.644   2.896
 1468SOL    HW1 5303   5.488   5.588   2.938
 1468SOL    HW2 5304   5.404   5.616   2.801
 1469SOL     OW 5305   0.604   0.913   2.336
 1469SOL    HW1 5306   0.617   1.011   2.352
 1469SOL    HW2 5307   0.680   0.862   2.377
 1470SOL     OW 5308   1.423   1.589   2.450
 1470SOL    HW1 5309   1.515   1.560   2.476
 1470SOL    HW2 5310   1.356   1.542   2.507
 1471SOL     OW 5311   0.972   0.271   0.321
 1471SOL    HW1 5312   1.059   0.250   0.367
 1471SOL    HW2 5313   0.965   0.369   0.306
 1472SOL     OW 5314   3.835   6.104   5.163
 1472SOL    HW1 5315   3.800   6.039   5.096
 1472SOL    HW2 5316   3.818   6.070   5.255
 1473SOL     OW 5317   5.945   6.202   4.209
 1473SOL    HW1 5318   5.886   6.164   4.281
 1473SOL    HW2 5319   5.959   6.133   4.139
 1474SOL     OW 5320   5.602   5.449   3.110
 1474SOL    HW1 5321   5.655   5.419   3.190
 1474SOL    HW2 5322   5.622   5.390   3.032
 1475SOL     OW 5323   6.320   0.064   2.044
 1475SOL    HW1 5324   6.288   7.011   2.095
 1475SOL    HW2 5325   6.362   0.129   2.108
 1476SOL     OW 5326   2.221   1.153   1.447
 1476SOL    HW1 5327   2.230   1.132   1.349
 1476SOL    HW2 5328   2.297   1.212   1.475
 1477SOL     OW 5329   3.383   0.494   6.510
 1477SOL    HW1 5330   3.415   0.436   6.434
 1477SOL    HW2 5331   3.461   0.519   6.567
 1478SOL     OW 5332   6.042   5.582   0.255
 1478SOL    HW1 5333   6.071   5.585   0.160
 1478SOL    HW2 5334   5.947   5.612   0.262
 1479SOL     OW 5335   1.569   3.371   0.281
 1479SOL    HW1 5336   1.575   3.318   0.366
 1479SOL    HW2 5337   1.508   3.449   0.295
 1480SOL     OW 5338   3.585   0.221   5.863
 1480SOL    HW1 5339   3.507   0.166   5.892
 1480SOL    HW2 5340   3.644   0.238   5.942
 1481SOL     OW 5341   6.658   3.125   5.318
 1481SOL    HW1 5342   6.675   3.067   5.398
 1481SOL    HW2 5343   6.562   3.154   5.317
 1482SOL     OW 5344   4.632   2.660   1.542
 1482SOL    HW1 5345   4.678   2.684   1.456
 1482SOL    HW2 5346   4.690   2.687   1.619
 1483SOL     OW 5347   5.657   1.929   6.465
 1483SOL    HW1 5348   5.587   1.999   6.482
 1483SOL    HW2 5349   5.711   1.955   6.386
 1484SOL     OW 5350   5.917   4.767   3.725
 1484SOL    HW1 5351   5.827   4.761   3.683
 1484SOL    HW2 5352   5.981   4.810   3.662
 1485SOL     OW 5353   3.150   1.815   3.031
 1485SOL    HW1 5354   3.170   1.763   2.948
 1485SOL    HW2 5355   3.211   1.894   3.037
 1486SOL     OW 5356   4.912   2.025   3.140
 1486SOL    HW1 5357   4.911   2.125   3.142
 1486SOL    HW2 5358   4.872   1.994   3.054
 1487SOL     OW 5359   6.644   2.876   6.522
 1487SOL    HW1 5360   6.573   2.811   6.497
 1487SOL    HW2 5361   6.639   2.955   6.462
 1488SOL     OW 5362   5.659   1.672   3.894
 1488SOL    HW1 5363   5.574   1.693   3.943
 1488SOL    HW2 5364   5.736   1.713   3.943
 1489SOL     OW 5365   3.695   5.411   4.404
 1489SOL    HW1 5366   3.675   5.479   4.475
 1489SOL    HW2 5367   3.684   5.319   4.443
 1490SOL     OW 5368   1.194   2.896   1.467
 1490SOL    HW1 5369   1.169   2.799   1.470
 1490SOL    HW2 5370   1.188   2.936   1.559
 1491SOL     OW 5371   6.535   3.741   3.811
 1491SOL    HW1 5372   6.469   3.749   3.735
 1491SOL    HW2 5373   6.549   3.644   3.833
 1492SOL     OW 5374   5.558   0.981   2.116
 1492SOL    HW1 5375   5.521   0.935   2.197
 1492SOL    HW2 5376   5.484   1.022   2.064
 1493SOL     OW 5377   4.321   6.889   4.571
 1493SOL    HW1 5378   4.277   6.957   4.513
 1493SOL    HW2 5379   4.380   6.935   4.637
 1494SOL     OW 5380   5.925   1.940   5.928
 1494SOL    HW1 5381   6.025   1.946   5.938
 1494SOL    HW2 5382   5.881   1.971   6.012
 1495SOL     OW 5383   6.504   2.533   5.144
 1495SOL    HW1 5384   6.551   2.469   5.206
 1495SOL    HW2 5385   6.572   2.581   5.089
 1496SOL     OW 5386   0.629   1.453   1.520
 1496SOL    HW1 5387   0.704   1.441   1.585
 1496SOL    HW2 5388   0.549   1.490   1.568
 1497SOL     OW 5389   6.788   3.109   2.955
 1497SOL    HW1 5390   6.811   3.167   2.877
 1497SOL    HW2 5391   6.828   3.018   2.942
 1498SOL     OW 5392   1.880   4.940   6.090
 1498SOL    HW1 5393   1.976   4.953   6.066
 1498SOL    HW2 5394   1.861   4.843   6.106
 1499SOL     OW 5395   1.098   3.406   6.310
 1499SOL    HW1 5396   1.175   3.429   6.250
 1499SOL    HW2 5397   1.021   3.467   6.290
 1500SOL     OW 5398   6.547   6.190   0.089
 1500SOL    HW1 5399   6.514   6.121   0.024
 1500SOL    HW2 5400   6.641   6.169   0.115
 1501SOL     OW 5401   5.883   1.841   6.260
 1501SOL    HW1 5402   5.932   1.773   6.316
 1501SOL    HW2 5403   5.918   1.932   6.282
 1502SOL     OW 5404   5.432   0.805   1.024
 1502SOL    HW1 5405   5.410   0.740   0.952
 1502SOL    HW2 5406   5.363   0.800   1.096
 1503SOL     OW 5407   2.034   2.629   1.753
 1503SOL    HW1 5408   2.060   2.672   1.666
 1503SOL    HW2 5409   1.995   2.699   1.814
 1504SOL     OW 5410   0.453   0.175   5.526
 1504SOL    HW1 5411   0.475   0.238   5.452
 1504SOL    HW2 5412   0.369   0.125   5.504
 1505SOL     OW 5413   6.054   0.684   5.647
 1505SOL    HW1 5414   6.150   0.703   5.627
 1505SOL    HW2 5415   6.009   0.768   5.678
 1506SOL     OW 5416   2.008   5.432   1.185
 1506SOL    HW1 5417   1.918   5.460   1.218
 1506SOL    HW2 5418   2.070   5.420   1.263
 1507SOL     OW 5419   0.773   1.826   5.704
 1507SOL    HW1 5420   0.729   1.810   5.616
 1507SOL    HW2 5421   0.837   1.752   5.723
 1508SOL     OW 5422   6.845   0.643   2.282
 1508SOL    HW1 5423   6.899   0.628   2.365
 1508SOL    HW2 5424   6.838   0.558   2.231
 1509SOL     OW 5425   4.366   2.700   5.641
 1509SOL    HW1 5426   4.374   2.688   5.740
 1509SOL    HW2 5427   4.293   2.766   5.621
 1510SOL     OW 5428   5.055   2.846   4.879
 1510SOL    HW1 5429   4.961   2.812   4.878
 1510SOL    HW2 5430   5.081   2.877   4.788
 1511SOL     OW 5431   3.042   2.855   1.787
 1511SOL    HW1 5432   3.125   2.810   1.819
 1511SOL    HW2 5433   2.980   2.787   1.749
 1512SOL     OW 5434   0.822   5.111   1.549
 1512SOL    HW1 5435   0.879   5.035   1.579
 1512SOL    HW2 5436   0.742   5.118   1.609
 1513SOL     OW 5437   3.112   0.423   3.520
 1513SOL    HW1 5438   3.156   0.499   3.568
 1513SOL    HW2 5439   3.179   0.375   3.464
 1514SOL     OW 5440   4.068   2.295   5.864
 1514SOL    HW1 5441   3.973   2.266   5.872
 1514SOL    HW2 5442   4.128   2.221   5.891
 1515SOL     OW 5443   5.931   2.343   4.525
 1515SOL    HW1 5444   5.942   2.402   4.445
 1515SOL    HW2 5445   6.018   2.337   4.574
 1516SOL     OW 5446   6.717   0.291   0.553
 1516SOL    HW1 5447   6.632   0.254   0.514
 1516SOL    HW2 5448   6.795   0.237   0.520
 1517SOL     OW 5449   4.404   6.372   4.015
 1517SOL    HW1 5450   4.496   6.365   4.055
 1517SOL    HW2 5451   4.392   6.462   3.975
 1518SOL     OW 5452   1.040   3.521   0.048
 1518SOL    HW1 5453   0.942   3.509   0.035
 1518SOL    HW2 5454   1.066   3.489   0.139
 1519SOL     OW 5455   6.311   4.760   2.186
 1519SOL    HW1 5456   6.247   4.735   2.113
 1519SOL    HW2 5457   6.327   4.680   2.245
 1520SOL     OW 5458   0.590   3.978   2.460
 1520SOL    HW1 5459   0.658   3.989   2.387
 1520SOL    HW2 5460   0.558   4.068   2.490
 1521SOL     OW 5461   1.858   4.228   0.240
 1521SOL    HW1 5462   1.873   4.303   0.304
 1521SOL    HW2 5463   1.868   4.263   0.146
 1522SOL     OW 5464   6.233   6.962   4.944
 1522SOL    HW1 5465   6.236   6.953   5.044
 1522SOL    HW2 5466   6.159   6.905   4.908
 1523SOL     OW 5467   5.363   4.680   6.931
 1523SOL    HW1 5468   5.318   4.726   7.007
 1523SOL    HW2 5469   5.450   4.641   6.962
 1524SOL     OW 5470   1.355   2.380   2.173
 1524SOL    HW1 5471   1.389   2.308   2.113
 1524SOL    HW2 5472   1.300   2.445   2.121
 1525SOL     OW 5473   6.488   2.496   0.369
 1525SOL    HW1 5474   6.474   2.580   0.317
 1525SOL    HW2 5475   6.580   2.497   0.409
 1526SOL     OW 5476   0.396   6.745   0.087
 1526SOL    HW1 5477   0.379   6.656   0.130
 1526SOL    HW2 5478   0.314   6.775   0.038
 1527SOL     OW 5479   3.730   1.103   5.378
 1527SOL    HW1 5480   3.650   1.162   5.391
 1527SOL    HW2 5481   3.802   1.154   5.332
 1528SOL     OW 5482   4.871   6.117   2.443
 1528SOL    HW1 5483   4.828   6.104   2.533
 1528SOL    HW2 5484   4.857   6.035   2.388
 1529SOL     OW 5485   3.777   0.442   0.744
 1529SOL    HW1 5486   3.719   0.409   0.670
 1529SOL    HW2 5487   3.764   0.384   0.825
 1530SOL     OW 5488   3.275   1.256   2.284
 1530SOL    HW1 5489   3.323   1.242   2.198
 1530SOL    HW2 5490   3.315   1.197   2.355
 1531SOL     OW 5491   5.027   1.108   4.892
 1531SOL    HW1 5492   5.036   1.164   4.810
 1531SOL    HW2 5493   4.947   1.139   4.945
 1532SOL     OW 5494   2.781   3.777   6.166
 1532SOL    HW1 5495   2.851   3.848   6.153
 1532SOL    HW2 5496   2.701   3.818   6.210
 1533SOL     OW 5497   6.714   3.285   0.099
 1533SOL    HW1 5498   6.680   3.191   0.091
 1533SOL    HW2 5499   6.649   3.347   0.055
 1534SOL     OW 5500   1.827   4.678   6.129
 1534SOL    HW1 5501   1.910   4.634   6.162
 1534SOL    HW2 5502   1.778   4.616   6.068
 1535SOL     OW 5503   4.919   6.517   4.206
 1535SOL    HW1 5504   4.985   6.575   4.158
 1535SOL    HW2 5505   4.949   6.504   4.300
 1536SOL     OW 5506   4.324   4.201   5.304
 1536SOL    HW1 5507   4.409   4.195   5.356
 1536SOL    HW2 5508   4.324   4.286   5.252
 1537SOL     OW 5509   4.083   6.251   3.752
 1537SOL    HW1 5510   4.048   6.343   3.768
 1537SOL    HW2 5511   4.136   6.221   3.831
 1538SOL     OW 5512   3.957   6.388   5.534
 1538SOL    HW1 5513   3.965   6.470   5.478
 1538SOL    HW2 5514   4.040   6.376   5.589
 1539SOL     OW 5515   4.195   3.696   1.733
 1539SOL    HW1 5516   4.278   3.745   1.708
 1539SOL    HW2 5517   4.141   3.751   1.797
 1540SOL     OW 5518   1.888   5.998   6.213
 1540SOL    HW1 5519   1.914   6.044   6.128
 1540SOL    HW2 5520   1.944   5.916   6.225
 1541SOL     OW 5521   3.747   2.986   2.314
 1541SOL    HW1 5522   3.815   3.021   2.378
 1541SOL    HW2 5523   3.665   2.958   2.364
 1542SOL     OW 5524   6.533   5.734   2.078
 1542SOL    HW1 5525   6.544   5.781   1.990
 1542SOL    HW2 5526   6.604   5.664   2.087
 1543SOL     OW 5527   3.493   4.185   4.950
 1543SOL    HW1 5528   3.482   4.280   4.977
 1543SOL    HW2 5529   3.500   4.178   4.850
 1544SOL     OW 5530   3.098   3.707   2.830
 1544SOL    HW1 5531   3.086   3.693   2.732
 1544SOL    HW2 5532   3.165   3.779   2.846
 1545SOL     OW 5533   5.354   0.979   3.944
 1545SOL    HW1 5534   5.358   1.077   3.924
 1545SOL    HW2 5535   5.447   0.945   3.961
 1546SOL     OW 5536   4.345   6.643   6.064
 1546SOL    HW1 5537   4.356   6.724   6.123
 1546SOL    HW2 5538   4.337   6.562   6.122
 1547SOL     OW 5539   1.591   3.290   3.100
 1547SOL    HW1 5540   1.628   3.284   3.007
 1547SOL    HW2 5541   1.642   3.357   3.152
 1548SOL     OW 5542   4.615   4.215   5.668
 1548SOL    HW1 5543   4.677   4.141   5.693
 1548SOL    HW2 5544   4.553   4.234   5.744
 1549SOL     OW 5545   3.920   1.001   3.117
 1549SOL    HW1 5546   3.981   1.034   3.045
 1549SOL    HW2 5547   3.947   1.043   3.204
 1550SOL     OW 5548   2.421   4.872   6.206
 1550SOL    HW1 5549   2.489   4.806   6.238
 1550SOL    HW2 5550   2.401   4.938   6.279
 1551SOL     OW 5551   2.151   4.022   6.877
 1551SOL    HW1 5552   2.158   3.935   6.926
 1551SOL    HW2 5553   2.199   4.015   6.790
 1552SOL     OW 5554   0.137   0.159   0.716
 1552SOL    HW1 5555   0.221   0.120   0.753
 1552SOL    HW2 5556   0.138   0.258   0.726
 1553SOL     OW 5557   0.081   1.084   5.845
 1553SOL    HW1 5558   0.063   1.046   5.753
 1553SOL    HW2 5559   7.020   1.104   5.889
 1554SOL     OW 5560   3.611   1.625   3.588
 1554SOL    HW1 5561   3.640   1.645   3.681
 1554SOL    HW2 5562   3.660   1.684   3.524
 1555SOL     OW 5563   4.769   1.991   0.303
 1555SOL    HW1 5564   4.762   1.960   0.398
 1555SOL    HW2 5565   4.791   1.913   0.245
 1556SOL     OW 5566   3.116   1.122   0.633
 1556SOL    HW1 5567   3.046   1.124   0.705
 1556SOL    HW2 5568   3.141   1.216   0.609
 1557SOL     OW 5569   2.385   1.325   6.264
 1557SOL    HW1 5570   2.367   1.287   6.173
 1557SOL    HW2 5571   2.313   1.389   6.288
 1558SOL     OW 5572   5.330   1.431   4.079
 1558SOL    HW1 5573   5.264   1.506   4.085
 1558SOL    HW2 5574   5.336   1.384   4.167
 1559SOL     OW 5575   6.979   2.595   0.188
 1559SOL    HW1 5576   6.916   2.587   0.110
 1559SOL    HW2 5577   0.046   2.578   0.157
 1560SOL     OW 5578   2.838   1.908   5.910
 1560SOL    HW1 5579   2.898   1.957   5.847
 1560SOL    HW2 5580   2.814   1.820   5.871
 1561SOL     OW 5581   0.276   6.107   2.477
 1561SOL    HW1 5582   0.303   6.200   2.501
 1561SOL    HW2 5583   0.358   6.052   2.457
 1562SOL     OW 5584   4.134   6.102   1.422
 1562SOL    HW1 5585   4.085   6.041   1.359
 1562SOL    HW2 5586   4.070   6.137   1.491
 1563SOL     OW 5587   2.289   0.818   6.017
 1563SOL    HW1 5588   2.201   0.864   6.005
 1563SOL    HW2 5589   2.300   0.792   6.113
 1564SOL     OW 5590   1.022   2.662   2.616
 1564SOL    HW1 5591   1.028   2.686   2.713
 1564SOL    HW2 5592   0.927   2.664   2.587
 1565SOL     OW 5593   4.318   5.231   4.301
 1565SOL    HW1 5594   4.382   5.308   4.296
 1565SOL    HW2 5595   4.249   5.250   4.372
 1566SOL     OW 5596   5.575   5.202   4.044
 1566SOL    HW1 5597   5.550   5.156   3.959
 1566SOL    HW2 5598   5.646   5.270   4.024
 1567SOL     OW 5599   6.269   6.271   0.090
 1567SOL    HW1 5600   6.233   6.259   7.024
 1567SOL    HW2 5601   6.369   6.261   0.088
 1568SOL     OW 5602   2.457   5.749   1.414
 1568SOL    HW1 5603   2.463   5.653   1.439
 1568SOL    HW2 5604   2.386   5.761   1.344
 1569SOL     OW 5605   2.817   6.810   3.636
 1569SOL    HW1 5606   2.767   6.739   3.585
 1569SOL    HW2 5607   2.860   6.873   3.571
 1570SOL     OW 5608   2.335   6.649   0.793
 1570SOL    HW1 5609   2.400   6.573   0.793
 1570SOL    HW2 5610   2.284   6.649   0.707
 1571SOL     OW 5611   6.104   1.329   2.668
 1571SOL    HW1 5612   6.074   1.285   2.584
 1571SOL    HW2 5613   6.204   1.328   2.673
 1572SOL     OW 5614   1.519   5.882   0.565
 1572SOL    HW1 5615   1.545   5.968   0.610
 1572SOL    HW2 5616   1.442   5.898   0.504
 1573SOL     OW 5617   6.117   3.415   2.118
 1573SOL    HW1 5618   6.024   3.429   2.082
 1573SOL    HW2 5619   6.114   3.412   2.217
 1574SOL     OW 5620   6.822   1.023   3.363
 1574SOL    HW1 5621   6.767   1.106   3.352
 1574SOL    HW2 5622   6.833   0.978   3.275
 1575SOL     OW 5623   2.248   2.392   1.460
 1575SOL    HW1 5624   2.204   2.330   1.526
 1575SOL    HW2 5625   2.339   2.356   1.437
 1576SOL     OW 5626   0.899   0.685   2.808
 1576SOL    HW1 5627   0.931   0.685   2.903
 1576SOL    HW2 5628   0.922   0.597   2.765
 1577SOL     OW 5629   2.764   0.625   5.769
 1577SOL    HW1 5630   2.672   0.598   5.743
 1577SOL    HW2 5631   2.761   0.711   5.820
 1578SOL     OW 5632   5.341   2.528   6.131
 1578SOL    HW1 5633   5.364   2.618   6.168
 1578SOL    HW2 5634   5.242   2.517   6.128
 1579SOL     OW 5635   0.165   1.770   2.236
 1579SOL    HW1 5636   0.211   1.849   2.275
 1579SOL    HW2 5637   0.071   1.766   2.269
 1580SOL     OW 5638   3.580   4.175   4.063
 1580SOL    HW1 5639   3.590   4.171   4.163
 1580SOL    HW2 5640   3.654   4.123   4.020
 1581SOL     OW 5641   6.353   4.311   5.040
 1581SOL    HW1 5642   6.427   4.246   5.026
 1581SOL    HW2 5643   6.364   4.388   4.976
 1582SOL     OW 5644   2.507   6.889   4.096
 1582SOL    HW1 5645   2.420   6.901   4.049
 1582SOL    HW2 5646   2.560   6.974   4.089
 1583SOL     OW 5647   1.009   5.068   2.582
 1583SOL    HW1 5648   1.035   5.084   2.487
 1583SOL    HW2 5649   1.056   5.133   2.641
 1584SOL     OW 5650   0.561   6.266   6.637
 1584SOL    HW1 5651   0.566   6.278   6.538
 1584SOL    HW2 5652   0.653   6.276   6.677
 1585SOL     OW 5653   4.492   1.905   3.681
 1585SOL    HW1 5654   4.424   1.863   3.622
 1585SOL    HW2 5655   4.583   1.882   3.649
 1586SOL     OW 5656   3.404   4.658   1.640
 1586SOL    HW1 5657   3.490   4.616   1.669
 1586SOL    HW2 5658   3.360   4.700   1.719
 1587SOL     OW 5659   2.806   5.944   6.160
 1587SOL    HW1 5660   2.845   6.004   6.090
 1587SOL    HW2 5661   2.793   5.853   6.122
 1588SOL     OW 5662   3.656   1.133   2.738
 1588SOL    HW1 5663   3.583   1.130   2.805
 1588SOL    HW2 5664   3.724   1.202   2.765
 1589SOL     OW 5665   6.879   3.131   1.955
 1589SOL    HW1 5666   6.886   3.201   1.883
 1589SOL    HW2 5667   6.950   3.146   2.023
 1590SOL     OW 5668   4.103   0.835   4.716
 1590SOL    HW1 5669   4.164   0.780   4.660
 1590SOL    HW2 5670   4.153   0.873   4.794
 1591SOL     OW 5671   0.038   5.606   1.647
 1591SOL    HW1 5672   6.990   5.540   1.649
 1591SOL    HW2 5673   0.085   5.601   1.559
 1592SOL     OW 5674   1.506   3.695   6.837
 1592SOL    HW1 5675   1.588   3.684   6.782
 1592SOL    HW2 5676   1.437   3.747   6.787
 1593SOL     OW 5677   1.144   6.215   5.566
 1593SOL    HW1 5678   1.047   6.197   5.578
 1593SOL    HW2 5679   1.158   6.270   5.484
 1594SOL     OW 5680   0.551   6.364   1.673
 1594SOL    HW1 5681   0.470   6.323   1.630
 1594SOL    HW2 5682   0.613   6.396   1.602
 1595SOL     OW 5683   1.938   4.783   0.273
 1595SOL    HW1 5684   1.971   4.851   0.207
 1595SOL    HW2 5685   1.926   4.827   0.362
 1596SOL     OW 5686   0.165   2.267   3.829
 1596SOL    HW1 5687   0.253   2.308   3.855
 1596SOL    HW2 5688   0.141   2.295   3.736
 1597SOL     OW 5689   1.493   6.571   0.247
 1597SOL    HW1 5690   1.452   6.567   0.338
 1597SOL    HW2 5691   1.431   6.530   0.181
 1598SOL     OW 5692   6.957   4.598   5.848
 1598SOL    HW1 5693   0.020   4.556   5.864
 1598SOL    HW2 5694   6.913   4.618   5.935
 1599SOL     OW 5695   4.650   5.387   4.841
 1599SOL    HW1 5696   4.667   5.291   4.821
 1599SOL    HW2 5697   4.588   5.425   4.772
 1600SOL     OW 5698   3.510   1.374   3.157
 1600SOL    HW1 5699   3.476   1.313   3.228
 1600SOL    HW2 5700   3.481   1.468   3.177
 1601SOL     OW 5701   6.663   5.729   4.617
 1601SOL    HW1 5702   6.758   5.748   4.641
 1601SOL    HW2 5703   6.631   5.796   4.551
 1602SOL     OW 5704   4.167   5.834   4.238
 1602SOL    HW1 5705   4.085   5.787   4.206
 1602SOL    HW2 5706   4.200   5.790   4.322
 1603SOL     OW 5707   1.520   6.054   3.529
 1603SOL    HW1 5708   1.605   6.024   3.485
 1603SOL    HW2 5709   1.489   5.983   3.593
 1604SOL     OW 5710   5.552   4.425   1.252
 1604SOL    HW1 5711   5.532   4.330   1.277
 1604SOL    HW2 5712   5.559   4.433   1.153
 1605SOL     OW 5713   6.500   5.243   1.595
 1605SOL    HW1 5714   6.403   5.262   1.581
 1605SOL    HW2 5715   6.516   5.144   1.588
 1606SOL     OW 5716   4.112   0.209   5.766
 1606SOL    HW1 5717   4.192   0.150   5.753
 1606SOL    HW2 5718   4.141   0.304   5.767
 1607SOL     OW 5719   4.240   1.508   0.984
 1607SOL    HW1 5720   4.140   1.511   0.978
 1607SOL    HW2 5721   4.280   1.566   0.913
 1608SOL     OW 5722   0.863   1.204   3.494
 1608SOL    HW1 5723   0.879   1.208   3.593
 1608SOL    HW2 5724   0.765   1.195   3.477
 1609SOL     OW 5725   4.234   0.093   0.366
 1609SOL    HW1 5726   4.309   0.120   0.305
 1609SOL    HW2 5727   4.170   0.168   0.376
 1610SOL     OW 5728   6.309   4.651   6.609
 1610SOL    HW1 5729   6.371   4.637   6.531
 1610SOL    HW2 5730   6.264   4.565   6.631
 1611SOL     OW 5731   2.534   3.901   1.029
 1611SOL    HW1 5732   2.566   3.875   0.938
 1611SOL    HW2 5733   2.574   3.840   1.097
 1612SOL     OW 5734   2.737   6.949   6.796
 1612SOL    HW1 5735   2.754   7.013   6.721
 1612SOL    HW2 5736   2.817   6.946   6.856
 1613SOL     OW 5737   1.230   5.893   2.138
 1613SOL    HW1 5738   1.196   5.800   2.126
 1613SOL    HW2 5739   1.162   5.959   2.106
 1614SOL     OW 5740   5.385   2.996   6.985
 1614SOL    HW1 5741   5.429   2.964   0.042
 1614SOL    HW2 5742   5.455   3.032   6.923
 1615SOL     OW 5743   6.225   5.690   0.669
 1615SOL    HW1 5744   6.313   5.648   0.691
 1615SOL    HW2 5745   6.220   5.708   0.571
 1616SOL     OW 5746   3.183   1.353   5.385
 1616SOL    HW1 5747   3.227   1.441   5.405
 1616SOL    HW2 5748   3.117   1.332   5.456
 1617SOL     OW 5749   5.718   6.585   2.713
 1617SOL    HW1 5750   5.723   6.644   2.794
 1617SOL    HW2 5751   5.798   6.601   2.655
 1618SOL     OW 5752   1.356   5.256   2.069
 1618SOL    HW1 5753   1.380   5.289   2.160
 1618SOL    HW2 5754   1.438   5.250   2.012
 1619SOL     OW 5755   0.791   4.064   1.714
 1619SOL    HW1 5756   0.794   4.103   1.622
 1619SOL    HW2 5757   0.823   3.969   1.711
 1620SOL     OW 5758   2.827   4.727   1.709
 1620SOL    HW1 5759   2.766   4.793   1.752
 1620SOL    HW2 5760   2.829   4.643   1.763
 1621SOL     OW 5761   0.088   1.234   0.725
 1621SOL    HW1 5762   0.082   1.151   0.669
 1621SOL    HW2 5763   0.029   1.224   0.805
 1622SOL     OW 5764   0.544   2.882   4.802
 1622SOL    HW1 5765   0.566   2.791   4.766
 1622SOL    HW2 5766   0.454   2.880   4.845
 1623SOL     OW 5767   2.143   3.076   4.815
 1623SOL    HW1 5768   2.078   3.001   4.806
 1623SOL    HW2 5769   2.212   3.053   4.883
 1624SOL     OW 5770   2.954   1.190   5.272
 1624SOL    HW1 5771   2.857   1.212   5.257
 1624SOL    HW2 5772   3.008   1.274   5.274
 1625SOL     OW 5773   1.613   4.712   0.092
 1625SOL    HW1 5774   1.598   4.733   7.022
 1625SOL    HW2 5775   1.703   4.668   0.103
 1626SOL     OW 5776   4.287   1.566   6.805
 1626SOL    HW1 5777   4.243   1.492   6.754
 1626SOL    HW2 5778   4.296   1.541   6.901
 1627SOL     OW 5779   6.710   3.112   3.369
 1627SOL    HW1 5780   6.716   3.208   3.342
 1627SOL    HW2 5781   6.660   3.104   3.455
 1628SOL     OW 5782   5.030   4.451   6.936
 1628SOL    HW1 5783   5.112   4.436   6.991
 1628SOL    HW2 5784   5.056   4.473   6.842
 1629SOL     OW 5785   3.274   0.643   3.974
 1629SOL    HW1 5786   3.258   0.737   4.002
 1629SOL    HW2 5787   3.267   0.583   4.053
 1630SOL     OW 5788   1.585   4.646   5.500
 1630SOL    HW1 5789   1.498   4.695   5.499
 1630SOL    HW2 5790   1.569   4.548   5.484
 1631SOL     OW 5791   1.212   2.925   0.196
 1631SOL    HW1 5792   1.221   3.023   0.176
 1631SOL    HW2 5793   1.298   2.879   0.174
 1632SOL     OW 5794   5.963   2.623   0.492
 1632SOL    HW1 5795   5.983   2.567   0.572
 1632SOL    HW2 5796   6.036   2.610   0.424
 1633SOL     OW 5797   5.569   4.084   4.215
 1633SOL    HW1 5798   5.579   4.067   4.313
 1633SOL    HW2 5799   5.593   4.179   4.195
 1634SOL     OW 5800   4.092   5.790   4.794
 1634SOL    HW1 5801   4.191   5.779   4.785
 1634SOL    HW2 5802   4.058   5.727   4.863
 1635SOL     OW 5803   6.895   4.821   6.865
 1635SOL    HW1 5804   6.838   4.835   6.946
 1635SOL    HW2 5805   6.986   4.792   6.893
 1636SOL     OW 5806   2.675   4.398   1.663
 1636SOL    HW1 5807   2.687   4.435   1.571
 1636SOL    HW2 5808   2.742   4.439   1.725
 1637SOL     OW 5809   0.451   0.582   2.753
 1637SOL    HW1 5810   0.411   0.494   2.775
 1637SOL    HW2 5811   0.379   0.647   2.727
 1638SOL     OW 5812   6.709   4.270   3.538
 1638SOL    HW1 5813   6.784   4.299   3.597
 1638SOL    HW2 5814   6.676   4.180   3.567
 1639SOL     OW 5815   4.992   0.096   2.135
 1639SOL    HW1 5816   5.076   0.057   2.097
 1639SOL    HW2 5817   4.978   0.060   2.227
 1640SOL     OW 5818   6.263   0.622   0.357
 1640SOL    HW1 5819   6.302   0.533   0.335
 1640SOL    HW2 5820   6.336   0.687   0.380
 1641SOL     OW 5821   4.658   1.872   3.277
 1641SOL    HW1 5822   4.632   1.840   3.186
 1641SOL    HW2 5823   4.757   1.885   3.281
 1642SOL     OW 5824   6.240   3.556   6.426
 1642SOL    HW1 5825   6.221   3.647   6.391
 1642SOL    HW2 5826   6.166   3.494   6.400
 1643SOL     OW 5827   2.880   4.812   4.799
 1643SOL    HW1 5828   2.876   4.741   4.870
 1643SOL    HW2 5829   2.825   4.783   4.721
 1644SOL     OW 5830   5.986   3.625   0.391
 1644SOL    HW1 5831   6.085   3.626   0.403
 1644SOL    HW2 5832   5.962   3.569   0.311
 1645SOL     OW 5833   3.400   4.837   6.232
 1645SOL    HW1 5834   3.481   4.870   6.280
 1645SOL    HW2 5835   3.426   4.766   6.167
 1646SOL     OW 5836   2.988   6.519   7.013
 1646SOL    HW1 5837   2.948   6.429   0.006
 1646SOL    HW2 5838   2.922   6.590   0.010
 1647SOL     OW 5839   5.601   3.009   4.761
 1647SOL    HW1 5840   5.542   3.045   4.689
 1647SOL    HW2 5841   5.549   2.946   4.819
 1648SOL     OW 5842   5.383   5.658   0.809
 1648SOL    HW1 5843   5.351   5.745   0.772
 1648SOL    HW2 5844   5.476   5.669   0.844
 1649SOL     OW 5845   3.230   1.066   4.211
 1649SOL    HW1 5846   3.312   1.120   4.192
 1649SOL    HW2 5847   3.172   1.115   4.276
 1650SOL     OW 5848   1.842   6.201   5.981
 1650SOL    HW1 5849   1.888   6.135   5.921
 1650SOL    HW2 5850   1.792   6.266   5.925
 1651SOL     OW 5851   0.519   1.733   1.953
 1651SOL    HW1 5852   0.450   1.789   2.000
 1651SOL    HW2 5853   0.600   1.789   1.935
 1652SOL     OW 5854   0.940   3.774   2.173
 1652SOL    HW1 5855   0.988   3.706   2.118
 1652SOL    HW2 5856   0.879   3.728   2.237
 1653SOL     OW 5857   0.672   6.767   1.050
 1653SOL    HW1 5858   0.626   6.715   0.978
 1653SOL    HW2 5859   0.672   6.864   1.026
 1654SOL     OW 5860   0.603   3.812   1.909
 1654SOL    HW1 5861   0.587   3.882   1.978
 1654SOL    HW2 5862   0.570   3.724   1.943
 1655SOL     OW 5863   0.928   2.114   5.371
 1655SOL    HW1 5864   0.968   2.031   5.409
 1655SOL    HW2 5865   0.867   2.155   5.438
 1656SOL     OW 5866   2.463   4.469   2.389
 1656SOL    HW1 5867   2.538   4.409   2.418
 1656SOL    HW2 5868   2.413   4.502   2.470
 1657SOL     OW 5869   0.112   1.169   3.964
 1657SOL    HW1 5870   0.030   1.224   3.978
 1657SOL    HW2 5871   0.183   1.198   4.029
 1658SOL     OW 5872   0.228   5.949   1.075
 1658SOL    HW1 5873   0.285   5.899   1.011
 1658SOL    HW2 5874   0.213   6.042   1.041
 1659SOL     OW 5875   3.782   6.844   6.654
 1659SOL    HW1 5876   3.743   6.756   6.625
 1659SOL    HW2 5877   3.875   6.852   6.618
 1660SOL     OW 5878   1.503   5.260   3.878
 1660SOL    HW1 5879   1.479   5.215   3.792
 1660SOL    HW2 5880   1.442   5.228   3.950
 1661SOL     OW 5881   2.491   0.274   1.276
 1661SOL    HW1 5882   2.433   0.312   1.348
 1661SOL    HW2 5883   2.544   0.198   1.313
 1662SOL     OW 5884   6.562   1.049   4.469
 1662SOL    HW1 5885   6.619   1.049   4.551
 1662SOL    HW2 5886   6.621   1.051   4.388
 1663SOL     OW 5887   4.457   6.139   3.067
 1663SOL    HW1 5888   4.464   6.160   2.969
 1663SOL    HW2 5889   4.548   6.116   3.103
 1664SOL     OW 5890   1.917   0.146   4.790
 1664SOL    HW1 5891   1.945   0.241   4.803
 1664SOL    HW2 5892   1.827   0.144   4.746
 1665SOL     OW 5893   6.988   1.946   2.982
 1665SOL    HW1 5894   6.964   1.878   2.913
 1665SOL    HW2 5895   6.906   1.996   3.010
 1666SOL     OW 5896   5.656   2.211   6.787
 1666SOL    HW1 5897   5.665   2.129   6.843
 1666SOL    HW2 5898   5.560   2.229   6.769
 1667SOL     OW 5899   6.710   5.883   1.411
 1667SOL    HW1 5900   6.689   5.785   1.418
 1667SOL    HW2 5901   6.632   5.931   1.371
 1668SOL     OW 5902   5.649   6.539   4.617
 1668SOL    HW1 5903   5.567   6.575   4.663
 1668SOL    HW2 5904   5.729   6.588   4.648
 1669SOL     OW 5905   6.292   5.697   6.490
 1669SOL    HW1 5906   6.196   5.668   6.484
 1669SOL    HW2 5907   6.333   5.660   6.573
 1670SOL     OW 5908   0.519   4.014   5.776
 1670SOL    HW1 5909   0.574   4.034   5.695
 1670SOL    HW2 5910   0.460   3.935   5.757
 1671SOL     OW 5911   5.387   1.461   2.196
 1671SOL    HW1 5912   5.315   1.488   2.132
 1671SOL    HW2 5913   5.352   1.388   2.255
 1672SOL     OW 5914   1.568   3.036   0.921
 1672SOL    HW1 5915   1.593   2.956   0.976
 1672SOL    HW2 5916   1.475   3.065   0.945
 1673SOL     OW 5917   1.524   1.290   4.343
 1673SOL    HW1 5918   1.568   1.206   4.375
 1673SOL    HW2 5919   1.426   1.287   4.366
 1674SOL     OW 5920   0.930   3.193   2.280
 1674SOL    HW1 5921   0.845   3.232   2.315
 1674SOL    HW2 5922   0.937   3.214   2.182
 1675SOL     OW 5923   5.301   0.112   0.451
 1675SOL    HW1 5924   5.397   0.123   0.425
 1675SOL    HW2 5925   5.245   0.100   0.369
 1676SOL     OW 5926   2.139   2.545   2.130
 1676SOL    HW1 5927   2.155   2.526   2.033
 1676SOL    HW2 5928   2.225   2.535   2.180
 1677SOL     OW 5929   3.178   3.587   4.478
 1677SOL    HW1 5930   3.152   3.682   4.465
 1677SOL    HW2 5931   3.247   3.580   4.550
 1678SOL     OW 5932   5.295   3.993   4.140
 1678SOL    HW1 5933   5.250   4.007   4.228
 1678SOL    HW2 5934   5.392   4.016   4.148
 1679SOL     OW 5935   2.230   2.359   4.277
 1679SOL    HW1 5936   2.276   2.333   4.362
 1679SOL    HW2 5937   2.290   2.340   4.200
 1680SOL     OW 5938   7.021   2.935   4.786
 1680SOL    HW1 5939   0.026   2.903   4.697
 1680SOL    HW2 5940   6.938   2.988   4.774
 1681SOL     OW 5941   6.820   5.435   0.168
 1681SOL    HW1 5942   6.767   5.514   0.137
 1681SOL    HW2 5943   6.821   5.365   0.096
 1682SOL     OW 5944   1.698   1.126   4.479
 1682SOL    HW1 5945   1.763   1.119   4.404
 1682SOL    HW2 5946   1.748   1.134   4.566
 1683SOL     OW 5947   5.053   5.424   1.691
 1683SOL    HW1 5948   5.031   5.459   1.782
 1683SOL    HW2 5949   5.065   5.501   1.628
 1684SOL     OW 5950   1.202   5.817   2.465
 1684SOL    HW1 5951   1.133   5.885   2.489
 1684SOL    HW2 5952   1.224   5.825   2.368
 1685SOL     OW 5953   2.775   0.994   4.660
 1685SOL    HW1 5954   2.794   0.941   4.743
 1685SOL    HW2 5955   2.683   0.972   4.627
 1686SOL     OW 5956   2.882   6.054   4.398
 1686SOL    HW1 5957   2.899   5.998   4.479
 1686SOL    HW2 5958   2.787   6.041   4.369
 1687SOL     OW 5959   1.890   3.580   1.516
 1687SOL    HW1 5960   1.871   3.483   1.532
 1687SOL    HW2 5961   1.982   3.589   1.478
 1688SOL     OW 5962   2.347   2.785   4.155
 1688SOL    HW1 5963   2.432   2.731   4.154
 1688SOL    HW2 5964   2.327   2.815   4.249
 1689SOL     OW 5965   5.830   1.373   2.857
 1689SOL    HW1 5966   5.897   1.392   2.928
 1689SOL    HW2 5967   5.818   1.454   2.799
 1690SOL     OW 5968   1.797   2.646   3.698
 1690SOL    HW1 5969   1.721   2.684   3.751
 1690SOL    HW2 5970   1.855   2.720   3.666
 1691SOL     OW 5971   6.246   3.373   3.800
 1691SOL    HW1 5972   6.193   3.452   3.830
 1691SOL    HW2 5973   6.332   3.405   3.760
 1692SOL     OW 5974   5.578   6.266   1.666
 1692SOL    HW1 5975   5.479   6.261   1.680
 1692SOL    HW2 5976   5.598   6.339   1.600
 1693SOL     OW 5977   6.639   2.038   2.103
 1693SOL    HW1 5978   6.732   2.049   2.068
 1693SOL    HW2 5979   6.643   2.019   2.202
 1694SOL     OW 5980   5.655   0.479   2.118
 1694SOL    HW1 5981   5.688   0.569   2.087
 1694SOL    HW2 5982   5.628   0.485   2.214
 1695SOL     OW 5983   4.099   0.936   5.219
 1695SOL    HW1 5984   4.049   0.909   5.301
 1695SOL    HW2 5985   4.159   0.861   5.191
 1696SOL     OW 5986   4.423   4.792   0.198
 1696SOL    HW1 5987   4.359   4.718   0.175
 1696SOL    HW2 5988   4.517   4.760   0.183
 1697SOL     OW 5989   5.794   0.744   0.587
 1697SOL    HW1 5990   5.783   0.650   0.553
 1697SOL    HW2 5991   5.815   0.741   0.685
 1698SOL     OW 5992   4.220   0.489   0.121
 1698SOL    HW1 5993   4.248   0.575   0.079
 1698SOL    HW2 5994   4.258   0.482   0.213
 1699SOL     OW 5995   1.571   0.852   0.974
 1699SOL    HW1 5996   1.663   0.814   0.965
 1699SOL    HW2 5997   1.509   0.781   1.007
 1700SOL     OW 5998   6.130   2.781   4.156
 1700SOL    HW1 5999   6.157   2.693   4.196
 1700SOL    HW2 6000   6.050   2.816   4.204
 1701SOL     OW 6001   4.668   4.157   6.453
 1701SOL    HW1 6002   4.680   4.085   6.522
 1701SOL    HW2 6003   4.579   4.146   6.409
 1702SOL     OW 6004   6.711   2.214   0.725
 1702SOL    HW1 6005   6.622   2.214   0.771
 1702SOL    HW2 6006   6.699   2.245   0.631
 1703SOL     OW 6007   2.859   2.650   1.709
 1703SOL    HW1 6008   2.893   2.599   1.788
 1703SOL    HW2 6009   2.760   2.639   1.704
 1704SOL     OW 6010   0.997   2.493   1.063
 1704SOL    HW1 6011   1.090   2.456   1.055
 1704SOL    HW2 6012   0.931   2.422   1.036
 1705SOL     OW 6013   3.226   1.467   1.996
 1705SOL    HW1 6014   3.261   1.501   2.083
 1705SOL    HW2 6015   3.230   1.539   1.927
 1706SOL     OW 6016   4.809   1.188   2.164
 1706SOL    HW1 6017   4.896   1.146   2.137
 1706SOL    HW2 6018   4.824   1.249   2.241
 1707SOL     OW 6019   4.912   1.900   2.364
 1707SOL    HW1 6020   4.951   1.820   2.410
 1707SOL    HW2 6021   4.823   1.876   2.326
 1708SOL     OW 6022   4.947   5.548   1.919
 1708SOL    HW1 6023   4.903   5.470   1.964
 1708SOL    HW2 6024   4.877   5.607   1.879
 1709SOL     OW 6025   3.580   5.904   2.479
 1709SOL    HW1 6026   3.576   5.823   2.538
 1709SOL    HW2 6027   3.513   5.971   2.511
 1710SOL     OW 6028   5.468   4.797   3.869
 1710SOL    HW1 6029   5.420   4.717   3.834
 1710SOL    HW2 6030   5.403   4.873   3.878
 1711SOL     OW 6031   1.112   4.471   4.197
 1711SOL    HW1 6032   1.130   4.415   4.278
 1711SOL    HW2 6033   1.100   4.566   4.225
 1712SOL     OW 6034   6.563   2.169   5.487
 1712SOL    HW1 6035   6.501   2.094   5.513
 1712SOL    HW2 6036   6.593   2.217   5.569
 1713SOL     OW 6037   4.434   2.883   1.580
 1713SOL    HW1 6038   4.501   2.809   1.583
 1713SOL    HW2 6039   4.347   2.848   1.544
 1714SOL     OW 6040   3.499   1.432   5.704
 1714SOL    HW1 6041   3.463   1.395   5.618
 1714SOL    HW2 6042   3.423   1.452   5.766
 1715SOL     OW 6043   0.420   5.249   3.431
 1715SOL    HW1 6044   0.367   5.334   3.432
 1715SOL    HW2 6045   0.358   5.171   3.420
 1716SOL     OW 6046   4.869   6.636   3.285
 1716SOL    HW1 6047   4.841   6.711   3.225
 1716SOL    HW2 6048   4.862   6.665   3.380
 1717SOL     OW 6049   2.473   6.311   5.893
 1717SOL    HW1 6050   2.383   6.352   5.905
 1717SOL    HW2 6051   2.542   6.367   5.939
 1718SOL     OW 6052   2.403   1.627   1.463
 1718SOL    HW1 6053   2.418   1.704   1.525
 1718SOL    HW2 6054   2.459   1.639   1.381
 1719SOL     OW 6055   1.482   3.367   1.180
 1719SOL    HW1 6056   1.563   3.369   1.239
 1719SOL    HW2 6057   1.507   3.392   1.087
 1720SOL     OW 6058   6.954   3.297   0.220
 1720SOL    HW1 6059   6.859   3.318   0.198
 1720SOL    HW2 6060   6.973   3.202   0.194
 1721SOL     OW 6061   1.640   6.696   1.463
 1721SOL    HW1 6062   1.728   6.649   1.463
 1721SOL    HW2 6063   1.602   6.696   1.555
 1722SOL     OW 6064   3.491   1.379   3.688
 1722SOL    HW1 6065   3.539   1.467   3.690
 1722SOL    HW2 6066   3.418   1.379   3.756
 1723SOL     OW 6067   5.801   2.277   2.359
 1723SOL    HW1 6068   5.795   2.310   2.265
 1723SOL    HW2 6069   5.709   2.271   2.398
 1724SOL     OW 6070   6.894   2.538   1.558
 1724SOL    HW1 6071   6.829   2.591   1.612
 1724SOL    HW2 6072   6.931   2.595   1.485
 1725SOL     OW 6073   2.147   5.144   6.551
 1725SOL    HW1 6074   2.146   5.162   6.650
 1725SOL    HW2 6075   2.142   5.231   6.502
 1726SOL     OW 6076   5.967   4.818   5.030
 1726SOL    HW1 6077   5.934   4.732   5.066
 1726SOL    HW2 6078   6.047   4.848   5.082
 1727SOL     OW 6079   3.455   3.053   4.252
 1727SOL    HW1 6080   3.459   3.098   4.342
 1727SOL    HW2 6081   3.364   3.066   4.213
 1728SOL     OW 6082   4.896   4.597   5.085
 1728SOL    HW1 6083   4.832   4.544   5.140
 1728SOL    HW2 6084   4.977   4.619   5.139
 1729SOL     OW 6085   2.077   4.171   2.946
 1729SOL    HW1 6086   2.164   4.186   2.898
 1729SOL    HW2 6087   2.016   4.248   2.930
 1730SOL     OW 6088   1.309   6.706   6.087
 1730SOL    HW1 6089   1.369   6.629   6.066
 1730SOL    HW2 6090   1.224   6.673   6.127
 1731SOL     OW 6091   6.861   3.655   3.108
 1731SOL    HW1 6092   6.917   3.708   3.045
 1731SOL    HW2 6093   6.914   3.632   3.190
 1732SOL     OW 6094   2.745   5.113   5.200
 1732SOL    HW1 6095   2.738   5.021   5.161
 1732SOL    HW2 6096   2.838   5.148   5.188
 1733SOL     OW 6097   1.976   4.680   1.606
 1733SOL    HW1 6098   1.876   4.676   1.601
 1733SOL    HW2 6099   2.009   4.755   1.549
 1734SOL     OW 6100   4.494   3.177   1.047
 1734SOL    HW1 6101   4.489   3.272   1.079
 1734SOL    HW2 6102   4.444   3.118   1.111
 1735SOL     OW 6103   5.018   6.041   0.589
 1735SOL    HW1 6104   5.059   6.025   0.679
 1735SOL    HW2 6105   4.929   6.084   0.600
 1736SOL     OW 6106   3.324   3.530   0.558
 1736SOL    HW1 6107   3.417   3.542   0.523
 1736SOL    HW2 6108   3.304   3.603   0.623
 1737SOL     OW 6109   3.045   1.226   4.409
 1737SOL    HW1 6110   3.106   1.280   4.468
 1737SOL    HW2 6111   3.041   1.132   4.442
 1738SOL     OW 6112   2.146   2.552   4.059
 1738SOL    HW1 6113   2.190   2.470   4.095
 1738SOL    HW2 6114   2.149   2.624   4.129
 1739SOL     OW 6115   0.247   2.222   5.201
 1739SOL    HW1 6116   0.300   2.246   5.283
 1739SOL    HW2 6117   0.307   2.222   5.121
 1740SOL     OW 6118   6.966   2.119   5.480
 1740SOL    HW1 6119   0.036   2.093   5.468
 1740SOL    HW2 6120   6.908   2.054   5.432
 1741SOL     OW 6121   2.179   0.242   3.507
 1741SOL    HW1 6122   2.101   0.218   3.449
 1741SOL    HW2 6123   2.178   0.339   3.527
 1742SOL     OW 6124   5.808   0.409   6.405
 1742SOL    HW1 6125   5.783   0.479   6.472
 1742SOL    HW2 6126   5.737   0.338   6.403
 1743SOL     OW 6127   0.880   2.032   1.575
 1743SOL    HW1 6128   0.797   2.015   1.627
 1743SOL    HW2 6129   0.897   2.130   1.569
 1744SOL     OW 6130   6.442   1.953   2.462
 1744SOL    HW1 6131   6.519   2.009   2.433
 1744SOL    HW2 6132   6.390   1.923   2.381
 1745SOL     OW 6133   5.706   5.825   2.124
 1745SOL    HW1 6134   5.702   5.751   2.190
 1745SOL    HW2 6135   5.800   5.838   2.093
 1746SOL     OW 6136   0.891   3.837   4.427
 1746SOL    HW1 6137   0.864   3.880   4.513
 1746SOL    HW2 6138   0.991   3.836   4.420
 1747SOL     OW 6139   4.780   1.551   3.141
 1747SOL    HW1 6140   4.877   1.569   3.132
 1747SOL    HW2 6141   4.752   1.485   3.071
 1748SOL     OW 6142   1.345   1.057   5.424
 1748SOL    HW1 6143   1.328   1.076   5.327
 1748SOL    HW2 6144   1.314   0.965   5.446
 1749SOL     OW 6145   2.581   0.671   4.877
 1749SOL    HW1 6146   2.672   0.687   4.916
 1749SOL    HW2 6147   2.554   0.577   4.894
 1750SOL     OW 6148   5.492   6.244   4.171
 1750SOL    HW1 6149   5.538   6.277   4.089
 1750SOL    HW2 6150   5.402   6.286   4.178
 1751SOL     OW 6151   3.693   6.635   4.784
 1751SOL    HW1 6152   3.705   6.731   4.809
 1751SOL    HW2 6153   3.767   6.581   4.826
 1752SOL     OW 6154   6.521   2.161   1.707
 1752SOL    HW1 6155   6.565   2.230   1.764
 1752SOL    HW2 6156   6.518   2.074   1.757
 1753SOL     OW 6157   0.349   1.325   1.067
 1753SOL    HW1 6158   0.278   1.280   1.122
 1753SOL    HW2 6159   0.348   1.423   1.086
 1754SOL     OW 6160   1.198   4.587   6.872
 1754SOL    HW1 6161   1.195   4.489   6.894
 1754SOL    HW2 6162   1.105   4.621   6.859
 1755SOL     OW 6163   6.869   6.020   2.252
 1755SOL    HW1 6164   6.851   5.966   2.170
 1755SOL    HW2 6165   6.967   6.018   2.272
 1756SOL     OW 6166   4.008   6.002   5.584
 1756SOL    HW1 6167   3.923   5.985   5.533
 1756SOL    HW2 6168   4.071   5.926   5.570
 1757SOL     OW 6169   2.367   5.257   4.662
 1757SOL    HW1 6170   2.367   5.232   4.759
 1757SOL    HW2 6171   2.451   5.225   4.620
 1758SOL     OW 6172   2.319   0.358   4.145
 1758SOL    HW1 6173   2.412   0.387   4.122
 1758SOL    HW2 6174   2.301   0.376   4.242
 1759SOL     OW 6175   1.575   6.049   6.121
 1759SOL    HW1 6176   1.670   6.041   6.153
 1759SOL    HW2 6177   1.567   6.008   6.030
 1760SOL     OW 6178   5.091   1.428   3.033
 1760SOL    HW1 6179   5.173   1.390   3.076
 1760SOL    HW2 6180   5.096   1.527   3.032
 1761SOL     OW 6181   0.161   0.561   0.577
 1761SOL    HW1 6182   0.224   0.588   0.505
 1761SOL    HW2 6183   0.168   0.626   0.653
 1762SOL     OW 6184   0.431   0.925   5.033
 1762SOL    HW1 6185   0.498   0.945   5.106
 1762SOL    HW2 6186   0.452   0.836   4.992
 1763SOL     OW 6187   1.107   3.870   4.103
 1763SOL    HW1 6188   1.085   3.864   4.006
 1763SOL    HW2 6189   1.091   3.964   4.135
 1764SOL     OW 6190   2.058   3.491   2.466
 1764SOL    HW1 6191   2.051   3.579   2.515
 1764SOL    HW2 6192   2.050   3.416   2.532
 1765SOL     OW 6193   3.687   0.919   0.876
 1765SOL    HW1 6194   3.663   1.014   0.899
 1765SOL    HW2 6195   3.781   0.917   0.840
 1766SOL     OW 6196   5.457   4.380   2.528
 1766SOL    HW1 6197   5.496   4.291   2.553
 1766SOL    HW2 6198   5.376   4.367   2.471
 1767SOL     OW 6199   0.230   3.696   2.647
 1767SOL    HW1 6200   0.267   3.741   2.566
 1767SOL    HW2 6201   0.303   3.645   2.693
 1768SOL     OW 6202   4.006   2.023   6.306
 1768SOL    HW1 6203   4.084   1.993   6.361
 1768SOL    HW2 6204   4.018   2.119   6.280
 1769SOL     OW 6205   4.465   1.643   5.981
 1769SOL    HW1 6206   4.464   1.694   5.894
 1769SOL    HW2 6207   4.557   1.646   6.020
 1770SOL     OW 6208   6.919   4.315   4.542
 1770SOL    HW1 6209   7.006   4.285   4.581
 1770SOL    HW2 6210   6.932   4.336   4.445
 1771SOL     OW 6211   1.959   5.189   0.327
 1771SOL    HW1 6212   1.902   5.159   0.404
 1771SOL    HW2 6213   1.902   5.235   0.259
 1772SOL     OW 6214   3.355   0.297   3.119
 1772SOL    HW1 6215   3.426   0.265   3.057
 1772SOL    HW2 6216   3.265   0.284   3.077
 1773SOL     OW 6217   3.078   3.627   6.462
 1773SOL    HW1 6218   3.051   3.600   6.370
 1773SOL    HW2 6219   3.072   3.726   6.471
 1774SOL     OW 6220   4.562   0.232   1.790
 1774SOL    HW1 6221   4.655   0.265   1.804
 1774SOL    HW2 6222   4.507   0.252   1.871
 1775SOL     OW 6223   1.678   5.190   5.340
 1775SOL    HW1 6224   1.724   5.274   5.368
 1775SOL    HW2 6225   1.672   5.127   5.417
 1776SOL     OW 6226   4.866   0.889   6.217
 1776SOL    HW1 6227   4.774   0.853   6.229
 1776SOL    HW2 6228   4.870   0.984   6.247
 1777SOL     OW 6229   2.874   5.641   5.702
 1777SOL    HW1 6230   2.913   5.731   5.682
 1777SOL    HW2 6231   2.853   5.594   5.616
 1778SOL     OW 6232   4.540   2.197   4.260
 1778SOL    HW1 6233   4.532   2.104   4.226
 1778SOL    HW2 6234   4.613   2.202   4.328
 1779SOL     OW 6235   3.646   1.686   4.874
 1779SOL    HW1 6236   3.651   1.784   4.858
 1779SOL    HW2 6237   3.557   1.664   4.914
 1780SOL     OW 6238   2.088   4.127   5.822
 1780SOL    HW1 6239   2.042   4.195   5.879
 1780SOL    HW2 6240   2.168   4.168   5.779
 1781SOL     OW 6241   5.041   4.737   3.317
 1781SOL    HW1 6242   5.052   4.823   3.268
 1781SOL    HW2 6243   4.997   4.754   3.405
 1782SOL     OW 6244   2.820   1.687   3.437
 1782SOL    HW1 6245   2.899   1.722   3.387
 1782SOL    HW2 6246   2.798   1.595   3.404
 1783SOL     OW 6247   2.386   3.638   6.072
 1783SOL    HW1 6248   2.424   3.545   6.074
 1783SOL    HW2 6249   2.397   3.676   5.980
 1784SOL     OW 6250   2.495   1.107   2.285
 1784SOL    HW1 6251   2.535   1.199   2.286
 1784SOL    HW2 6252   2.470   1.083   2.192
 1785SOL     OW 6253   5.521   5.634   3.683
 1785SOL    HW1 6254   5.494   5.621   3.587
 1785SOL    HW2 6255   5.463   5.704   3.725
 1786SOL     OW 6256   0.895   3.620   0.369
 1786SOL    HW1 6257   0.916   3.676   0.289
 1786SOL    HW2 6258   0.808   3.573   0.355
 1787SOL     OW 6259   2.256   0.812   5.426
 1787SOL    HW1 6260   2.232   0.902   5.463
 1787SOL    HW2 6261   2.243   0.743   5.497
 1788SOL     OW 6262   3.525   3.916   6.937
 1788SOL    HW1 6263   3.441   3.935   6.886
 1788SOL    HW2 6264   3.503   3.874   7.024
 1789SOL     OW 6265   5.761   2.340   2.073
 1789SOL    HW1 6266   5.691   2.273   2.094
 1789SOL    HW2 6267   5.726   2.432   2.089
 1790SOL     OW 6268   4.032   6.788   4.731
 1790SOL    HW1 6269   3.945   6.805   4.778
 1790SOL    HW2 6270   4.014   6.740   4.645
 1791SOL     OW 6271   0.671   1.294   4.620
 1791SOL    HW1 6272   0.711   1.380   4.587
 1791SOL    HW2 6273   0.615   1.312   4.701
 1792SOL     OW 6274   1.061   1.075   4.566
 1792SOL    HW1 6275   0.980   1.101   4.513
 1792SOL    HW2 6276   1.064   1.128   4.650
 1793SOL     OW 6277   6.453   0.362   3.671
 1793SOL    HW1 6278   6.462   0.438   3.607
 1793SOL    HW2 6279   6.402   0.288   3.628
 1794SOL     OW 6280   5.078   6.593   6.373
 1794SOL    HW1 6281   5.133   6.666   6.333
 1794SOL    HW2 6282   5.136   6.532   6.427
 1795SOL     OW 6283   6.413   4.886   1.875
 1795SOL    HW1 6284   6.436   4.835   1.792
 1795SOL    HW2 6285   6.481   4.866   1.946
 1796SOL     OW 6286   2.574   0.968   4.009
 1796SOL    HW1 6287   2.534   1.050   3.967
 1796SOL    HW2 6288   2.501   0.905   4.034
 1797SOL     OW 6289   1.552   6.830   6.100
 1797SOL    HW1 6290   1.553   6.901   6.030
 1797SOL    HW2 6291   1.467   6.778   6.094
 1798SOL     OW 6292   4.913   2.973   5.256
 1798SOL    HW1 6293   4.942   2.973   5.352
 1798SOL    HW2 6294   4.994   2.967   5.198
 1799SOL     OW 6295   5.837   2.414   6.385
 1799SOL    HW1 6296   5.902   2.414   6.309
 1799SOL    HW2 6297   5.756   2.468   6.360
 1800SOL     OW 6298   5.264   4.112   3.449
 1800SOL    HW1 6299   5.252   4.082   3.354
 1800SOL    HW2 6300   5.359   4.099   3.477
 1801SOL     OW 6301   1.099   1.412   3.177
 1801SOL    HW1 6302   1.064   1.336   3.121
 1801SOL    HW2 6303   1.122   1.378   3.268
 1802SOL     OW 6304   6.092   5.794   3.199
 1802SOL    HW1 6305   6.044   5.707   3.212
 1802SOL    HW2 6306   6.043   5.867   3.247
 1803SOL     OW 6307   6.767   6.272   1.400
 1803SOL    HW1 6308   6.863   6.289   1.422
 1803SOL    HW2 6309   6.720   6.359   1.386
 1804SOL     OW 6310   3.457   3.189   5.344
 1804SOL    HW1 6311   3.547   3.146   5.333
 1804SOL    HW2 6312   3.465   3.266   5.408
 1805SOL     OW 6313   1.008   4.435   5.989
 1805SOL    HW1 6314   1.020   4.340   6.017
 1805SOL    HW2 6315   1.029   4.444   5.892
 1806SOL     OW 6316   1.802   2.204   1.841
 1806SOL    HW1 6317   1.868   2.175   1.911
 1806SOL    HW2 6318   1.770   2.124   1.791
 1807SOL     OW 6319   6.017   2.611   6.170
 1807SOL    HW1 6320   6.013   2.656   6.081
 1807SOL    HW2 6321   6.010   2.512   6.158
 1808SOL     OW 6322   5.706   4.719   4.608
 1808SOL    HW1 6323   5.772   4.774   4.660
 1808SOL    HW2 6324   5.621   4.770   4.597
 1809SOL     OW 6325   2.741   2.416   4.651
 1809SOL    HW1 6326   2.719   2.383   4.742
 1809SOL    HW2 6327   2.822   2.474   4.654
 1810SOL     OW 6328   1.713   0.001   5.091
 1810SOL    HW1 6329   1.680   6.952   5.147
 1810SOL    HW2 6330   1.655   0.011   5.010
 1811SOL     OW 6331   4.421   4.571   3.165
 1811SOL    HW1 6332   4.327   4.604   3.157
 1811SOL    HW2 6333   4.484   4.648   3.167
 1812SOL     OW 6334   5.064   0.041   5.940
 1812SOL    HW1 6335   5.157   0.071   5.917
 1812SOL    HW2 6336   5.066   6.970   5.964
 1813SOL     OW 6337   4.664   4.927   1.246
 1813SOL    HW1 6338   4.578   4.895   1.286
 1813SOL    HW2 6339   4.644   5.001   1.181
 1814SOL     OW 6340   6.467   0.634   0.855
 1814SOL    HW1 6341   6.563   0.637   0.826
 1814SOL    HW2 6342   6.413   0.588   0.785
 1815SOL     OW 6343   6.027   0.663   2.685
 1815SOL    HW1 6344   6.042   0.755   2.719
 1815SOL    HW2 6345   6.038   0.662   2.586
 1816SOL     OW 6346   2.890   4.815   0.584
 1816SOL    HW1 6347   2.816   4.865   0.537
 1816SOL    HW2 6348   2.904   4.854   0.675
 1817SOL     OW 6349   3.747   6.898   3.260
 1817SOL    HW1 6350   3.720   6.983   3.215
 1817SOL    HW2 6351   3.835   6.910   3.306
 1818SOL     OW 6352   2.376   6.069   1.285
 1818SOL    HW1 6353   2.366   5.987   1.342
 1818SOL    HW2 6354   2.310   6.065   1.210
 1819SOL     OW 6355   0.783   6.299   1.864
 1819SOL    HW1 6356   0.844   6.230   1.825
 1819SOL    HW2 6357   0.762   6.367   1.793
 1820SOL     OW 6358   3.174   0.532   2.382
 1820SOL    HW1 6359   3.086   0.578   2.397
 1820SOL    HW2 6360   3.180   0.504   2.286
 1821SOL     OW 6361   2.713   0.712   1.302
 1821SOL    HW1 6362   2.810   0.735   1.299
 1821SOL    HW2 6363   2.660   0.794   1.325
 1822SOL     OW 6364   1.172   2.634   1.516
 1822SOL    HW1 6365   1.111   2.567   1.474
 1822SOL    HW2 6366   1.151   2.642   1.613
 1823SOL     OW 6367   3.301   5.800   2.692
 1823SOL    HW1 6368   3.387   5.753   2.674
 1823SOL    HW2 6369   3.318   5.883   2.744
 1824SOL     OW 6370   3.817   3.817   0.495
 1824SOL    HW1 6371   3.823   3.721   0.521
 1824SOL    HW2 6372   3.778   3.824   0.403
 1825SOL     OW 6373   1.552   2.464   4.590
 1825SOL    HW1 6374   1.635   2.408   4.580
 1825SOL    HW2 6375   1.484   2.414   4.643
 1826SOL     OW 6376   3.134   1.841   1.420
 1826SOL    HW1 6377   3.220   1.886   1.444
 1826SOL    HW2 6378   3.154   1.752   1.378
 1827SOL     OW 6379   6.735   5.320   1.474
 1827SOL    HW1 6380   6.651   5.294   1.522
 1827SOL    HW2 6381   6.725   5.304   1.376
 1828SOL     OW 6382   1.793   2.693   0.351
 1828SOL    HW1 6383   1.738   2.636   0.290
 1828SOL    HW2 6384   1.751   2.783   0.359
 1829SOL     OW 6385   3.722   0.557   3.203
 1829SOL    HW1 6386   3.742   0.643   3.155
 1829SOL    HW2 6387   3.722   0.481   3.138
 1830SOL     OW 6388   5.816   5.794   4.693
 1830SOL    HW1 6389   5.876   5.753   4.761
 1830SOL    HW2 6390   5.867   5.812   4.609
 1831SOL     OW 6391   5.623   6.779   1.602
 1831SOL    HW1 6392   5.696   6.791   1.535
 1831SOL    HW2 6393   5.633   6.846   1.675
 1832SOL     OW 6394   4.242   2.184   1.062
 1832SOL    HW1 6395   4.206   2.245   0.991
 1832SOL    HW2 6396   4.211   2.215   1.151
 1833SOL     OW 6397   5.240   0.698   1.206
 1833SOL    HW1 6398   5.296   0.685   1.288
 1833SOL    HW2 6399   5.161   0.638   1.210
 1834SOL     OW 6400   2.339   3.791   0.580
 1834SOL    HW1 6401   2.304   3.790   0.486
 1834SOL    HW2 6402   2.438   3.774   0.578
 1835SOL     OW 6403   0.075   4.870   1.871
 1835SOL    HW1 6404   0.151   4.934   1.886
 1835SOL    HW2 6405   0.109   4.791   1.820
 1836SOL     OW 6406   5.078   2.533   1.390
 1836SOL    HW1 6407   5.053   2.438   1.409
 1836SOL    HW2 6408   5.157   2.535   1.330
 1837SOL     OW 6409   0.721   6.736   4.959
 1837SOL    HW1 6410   0.647   6.702   5.016
 1837SOL    HW2 6411   0.766   6.660   4.913
 1838SOL     OW 6412   6.668   1.393   5.470
 1838SOL    HW1 6413   6.598   1.460   5.493
 1838SOL    HW2 6414   6.656   1.312   5.527
 1839SOL     OW 6415   0.316   1.464   5.444
 1839SOL    HW1 6416   0.398   1.455   5.387
 1839SOL    HW2 6417   0.234   1.452   5.387
 1840SOL     OW 6418   3.996   0.323   1.497
 1840SOL    HW1 6419   3.909   0.275   1.506
 1840SOL    HW2 6420   3.989   0.413   1.541
 1841SOL     OW 6421   2.354   1.343   3.450
 1841SOL    HW1 6422   2.306   1.372   3.367
 1841SOL    HW2 6423   2.328   1.249   3.473
 1842SOL     OW 6424   1.437   5.484   0.385
 1842SOL    HW1 6425   1.341   5.493   0.410
 1842SOL    HW2 6426   1.445   5.476   0.285
 1843SOL     OW 6427   6.482   1.337   4.610
 1843SOL    HW1 6428   6.484   1.238   4.619
 1843SOL    HW2 6429   6.527   1.378   4.689
 1844SOL     OW 6430   3.146   6.620   5.144
 1844SOL    HW1 6431   3.145   6.535   5.091
 1844SOL    HW2 6432   3.072   6.679   5.111
 1845SOL     OW 6433   3.063   6.792   4.941
 1845SOL    HW1 6434   2.977   6.836   4.969
 1845SOL    HW2 6435   3.094   6.832   4.855
 1846SOL     OW 6436   3.607   1.105   2.120
 1846SOL    HW1 6437   3.704   1.079   2.124
 1846SOL    HW2 6438   3.598   1.203   2.138
 1847SOL     OW 6439   1.182   0.500   6.199
 1847SOL    HW1 6440   1.226   0.410   6.191
 1847SOL    HW2 6441   1.197   0.552   6.115
 1848SOL     OW 6442   2.028   6.338   3.644
 1848SOL    HW1 6443   1.959   6.314   3.713
 1848SOL    HW2 6444   2.106   6.382   3.689
 1849SOL     OW 6445   4.141   2.710   1.712
 1849SOL    HW1 6446   4.199   2.630   1.732
 1849SOL    HW2 6447   4.179   2.760   1.635
 1850SOL     OW 6448   0.129   2.536   2.739
 1850SOL    HW1 6449   0.042   2.492   2.714
 1850SOL    HW2 6450   0.204   2.484   2.698
 1851SOL     OW 6451   0.778   3.499   6.741
 1851SOL    HW1 6452   0.777   3.409   6.698
 1851SOL    HW2 6453   0.760   3.489   6.839
 1852SOL     OW 6454   6.590   4.762   2.587
 1852SOL    HW1 6455   6.682   4.798   2.603
 1852SOL    HW2 6456   6.589   4.664   2.606
 1853SOL     OW 6457   0.578   2.396   3.547
 1853SOL    HW1 6458   0.563   2.320   3.484
 1853SOL    HW2 6459   0.636   2.465   3.504
 1854SOL     OW 6460   2.239   5.466   3.109
 1854SOL    HW1 6461   2.287   5.547   3.145
 1854SOL    HW2 6462   2.177   5.494   3.036
 1855SOL     OW 6463   5.285   3.977   5.437
 1855SOL    HW1 6464   5.325   3.980   5.529
 1855SOL    HW2 6465   5.224   3.899   5.430
 1856SOL     OW 6466   5.328   4.055   6.102
 1856SOL    HW1 6467   5.239   4.029   6.064
 1856SOL    HW2 6468   5.320   4.143   6.149
 1857SOL     OW 6469   4.041   2.388   6.784
 1857SOL    HW1 6470   3.972   2.414   6.717
 1857SOL    HW2 6471   4.043   2.456   6.858
 1858SOL     OW 6472   5.488   3.215   3.253
 1858SOL    HW1 6473   5.454   3.243   3.342
 1858SOL    HW2 6474   5.555   3.282   3.220
 1859SOL     OW 6475   4.512   1.933   4.234
 1859SOL    HW1 6476   4.611   1.925   4.242
 1859SOL    HW2 6477   4.482   1.892   4.147
 1860SOL     OW 6478   0.653   0.567   5.035
 1860SOL    HW1 6479   0.578   0.610   4.985
 1860SOL    HW2 6480   0.675   0.479   4.992
 1861SOL     OW 6481   6.430   6.998   2.418
 1861SOL    HW1 6482   6.497   6.998   2.343
 1861SOL    HW2 6483   6.414   6.904   2.448
 1862SOL     OW 6484   2.957   0.643   6.243
 1862SOL    HW1 6485   2.888   0.696   6.194
 1862SOL    HW2 6486   2.924   0.549   6.255
 1863SOL     OW 6487   0.160   2.301   3.486
 1863SOL    HW1 6488   0.148   2.381   3.545
 1863SOL    HW2 6489   0.252   2.303   3.446
 1864SOL     OW 6490   1.903   5.898   4.770
 1864SOL    HW1 6491   1.842   5.895   4.848
 1864SOL    HW2 6492   1.971   5.970   4.783
 1865SOL     OW 6493   4.044   0.253   0.145
 1865SOL    HW1 6494   4.113   0.325   0.159
 1865SOL    HW2 6495   3.990   0.274   0.064
 1866SOL     OW 6496   6.285   4.847   3.679
 1866SOL    HW1 6497   6.192   4.849   3.641
 1866SOL    HW2 6498   6.281   4.868   3.777
 1867SOL     OW 6499   1.141   3.787   0.459
 1867SOL    HW1 6500   1.060   3.728   0.459
 1867SOL    HW2 6501   1.114   3.880   0.482
 1868SOL     OW 6502   4.788   3.648   0.001
 1868SOL    HW1 6503   4.766   3.638   6.930
 1868SOL    HW2 6504   4.879   3.689   0.010
 1869SOL     OW 6505   0.029   3.537   4.693
 1869SOL    HW1 6506   7.009   3.520   4.779
 1869SOL    HW2 6507   0.089   3.459   4.672
 1870SOL     OW 6508   1.535   2.899   5.216
 1870SOL    HW1 6509   1.597   2.948   5.277
 1870SOL    HW2 6510   1.578   2.887   5.127
 1871SOL     OW 6511   0.475   0.662   6.519
 1871SOL    HW1 6512   0.575   0.668   6.529
 1871SOL    HW2 6513   0.434   0.639   6.607
 1872SOL     OW 6514   4.604   1.925   6.972
 1872SOL    HW1 6515   4.551   1.990   7.026
 1872SOL    HW2 6516   4.542   1.872   6.914
 1873SOL     OW 6517   6.466   1.204   5.815
 1873SOL    HW1 6518   6.493   1.233   5.907
 1873SOL    HW2 6519   6.441   1.107   5.817
 1874SOL     OW 6520   2.204   0.760   6.679
 1874SOL    HW1 6521   2.128   0.772   6.615
 1874SOL    HW2 6522   2.177   0.790   6.770
 1875SOL     OW 6523   6.857   0.925   0.894
 1875SOL    HW1 6524   6.850   0.868   0.975
 1875SOL    HW2 6525   6.863   1.021   0.921
 1876SOL     OW 6526   3.709   6.290   5.579
 1876SOL    HW1 6527   3.666   6.380   5.577
 1876SOL    HW2 6528   3.806   6.299   5.556
 1877SOL     OW 6529   0.774   1.464   3.690
 1877SOL    HW1 6530   0.850   1.503   3.639
 1877SOL    HW2 6531   0.793   1.368   3.710
 1878SOL     OW 6532   0.007   2.823   4.297
 1878SOL    HW1 6533   6.946   2.795   4.335
 1878SOL    HW2 6534   7.026   2.831   4.197
 1879SOL     OW 6535   2.094   5.562   3.641
 1879SOL    HW1 6536   1.996   5.542   3.648
 1879SOL    HW2 6537   2.135   5.500   3.574
 1880SOL     OW 6538   0.523   1.504   3.623
 1880SOL    HW1 6539   0.613   1.499   3.666
 1880SOL    HW2 6540   0.531   1.488   3.525
 1881SOL     OW 6541   1.204   2.213   3.382
 1881SOL    HW1 6542   1.244   2.304   3.371
 1881SOL    HW2 6543   1.221   2.159   3.300
 1882SOL     OW 6544   1.036   4.549   6.415
 1882SOL    HW1 6545   1.061   4.560   6.319
 1882SOL    HW2 6546   1.082   4.469   6.453
 1883SOL     OW 6547   0.902   3.232   3.346
 1883SOL    HW1 6548   0.967   3.308   3.354
 1883SOL    HW2 6549   0.818   3.265   3.303
 1884SOL     OW 6550   6.423   2.903   0.423
 1884SOL    HW1 6551   6.497   2.849   0.462
 1884SOL    HW2 6552   6.455   2.996   0.405
 1885SOL     OW 6553   6.968   2.098   6.704
 1885SOL    HW1 6554   7.017   2.144   6.778
 1885SOL    HW2 6555   6.873   2.081   6.732
 1886SOL     OW 6556   2.566   1.068   1.079
 1886SOL    HW1 6557   2.593   1.031   0.990
 1886SOL    HW2 6558   2.648   1.095   1.130
 1887SOL     OW 6559   0.426   5.740   6.675
 1887SOL    HW1 6560   0.398   5.836   6.665
 1887SOL    HW2 6561   0.471   5.710   6.591
 1888SOL     OW 6562   3.016   2.218   6.583
 1888SOL    HW1 6563   2.983   2.135   6.627
 1888SOL    HW2 6564   2.993   2.298   6.639
 1889SOL     OW 6565   5.406   2.758   6.271
 1889SOL    HW1 6566   5.434   2.831   6.209
 1889SOL    HW2 6567   5.380   2.797   6.360
 1890SOL     OW 6568   1.641   5.852   5.552
 1890SOL    HW1 6569   1.631   5.945   5.587
 1890SOL    HW2 6570   1.738   5.832   5.539
 1891SOL     OW 6571   5.402   3.127   4.144
 1891SOL    HW1 6572   5.352   3.109   4.060
 1891SOL    HW2 6573   5.491   3.167   4.123
 1892SOL     OW 6574   3.815   0.753   0.673
 1892SOL    HW1 6575   3.793   0.678   0.736
 1892SOL    HW2 6576   3.914   0.759   0.662
 1893SOL     OW 6577   3.197   2.050   6.121
 1893SOL    HW1 6578   3.109   2.005   6.135
 1893SOL    HW2 6579   3.259   2.027   6.196
 1894SOL     OW 6580   3.414   3.665   2.975
 1894SOL    HW1 6581   3.463   3.742   2.933
 1894SOL    HW2 6582   3.393   3.687   3.070
 1895SOL     OW 6583   5.506   1.086   2.605
 1895SOL    HW1 6584   5.418   1.120   2.638
 1895SOL    HW2 6585   5.569   1.077   2.683
 1896SOL     OW 6586   0.577   0.813   2.857
 1896SOL    HW1 6587   0.540   0.738   2.803
 1896SOL    HW2 6588   0.676   0.805   2.862
 1897SOL     OW 6589   0.749   5.045   2.585
 1897SOL    HW1 6590   0.719   5.092   2.503
 1897SOL    HW2 6591   0.848   5.059   2.598
 1898SOL     OW 6592   3.173   4.931   2.391
 1898SOL    HW1 6593   3.235   4.941   2.469
 1898SOL    HW2 6594   3.123   5.016   2.377
 1899SOL     OW 6595   0.594   2.091   2.451
 1899SOL    HW1 6596   0.577   2.159   2.523
 1899SOL    HW2 6597   0.689   2.058   2.458
 1900SOL     OW 6598   1.116   0.219   5.487
 1900SOL    HW1 6599   1.135   0.121   5.495
 1900SOL    HW2 6600   1.199   0.267   5.457
 1901SOL     OW 6601   1.780   1.202   1.490
 1901SOL    HW1 6602   1.770   1.250   1.403
 1901SOL    HW2 6603   1.735   1.113   1.484
 1902SOL     OW 6604   2.277   2.445   4.876
 1902SOL    HW1 6605   2.179   2.469   4.877
 1902SOL    HW2 6606   2.287   2.346   4.873
 1903SOL     OW 6607   6.570   3.086   3.589
 1903SOL    HW1 6608   6.540   2.997   3.554
 1903SOL    HW2 6609   6.520   3.107   3.673
 1904SOL     OW 6610   5.982   6.800   4.458
 1904SOL    HW1 6611   5.895   6.751   4.454
 1904SOL    HW2 6612   5.978   6.881   4.400
 1905SOL     OW 6613   1.694   0.994   4.005
 1905SOL    HW1 6614   1.722   0.898   4.006
 1905SOL    HW2 6615   1.700   1.030   3.911
 1906SOL     OW 6616   2.600   0.021   5.347
 1906SOL    HW1 6617   2.558   0.093   5.292
 1906SOL    HW2 6618   2.691   0.051   5.377
 1907SOL     OW 6619   3.509   0.103   2.924
 1907SOL    HW1 6620   3.507   0.004   2.916
 1907SOL    HW2 6621   3.452   0.144   2.853
 1908SOL     OW 6622   3.913   0.921   4.515
 1908SOL    HW1 6623   3.960   0.863   4.582
 1908SOL    HW2 6624   3.979   0.950   4.445
 1909SOL     OW 6625   1.085   3.975   2.621
 1909SOL    HW1 6626   1.179   3.965   2.654
 1909SOL    HW2 6627   1.080   3.940   2.527
 1910SOL     OW 6628   0.425   2.695   6.585
 1910SOL    HW1 6629   0.496   2.758   6.554
 1910SOL    HW2 6630   0.340   2.745   6.600
 1911SOL     OW 6631   5.479   3.664   5.452
 1911SOL    HW1 6632   5.564   3.661   5.504
 1911SOL    HW2 6633   5.482   3.741   5.389
 1912SOL     OW 6634   2.966   0.344   1.265
 1912SOL    HW1 6635   2.896   0.303   1.207
 1912SOL    HW2 6636   3.010   0.419   1.217
 1913SOL     OW 6637   1.098   5.693   5.236
 1913SOL    HW1 6638   1.116   5.724   5.143
 1913SOL    HW2 6639   1.070   5.597   5.235
 1914SOL     OW 6640   3.551   2.801   6.584
 1914SOL    HW1 6641   3.469   2.788   6.639
 1914SOL    HW2 6642   3.529   2.791   6.487
 1915SOL     OW 6643   3.718   2.065   5.638
 1915SOL    HW1 6644   3.625   2.100   5.649
 1915SOL    HW2 6645   3.726   1.977   5.686
 1916SOL     OW 6646   3.278   5.591   1.298
 1916SOL    HW1 6647   3.378   5.591   1.306
 1916SOL    HW2 6648   3.239   5.648   1.371
 1917SOL     OW 6649   2.972   3.165   4.714
 1917SOL    HW1 6650   2.966   3.089   4.649
 1917SOL    HW2 6651   3.020   3.135   4.796
 1918SOL     OW 6652   0.797   1.513   6.668
 1918SOL    HW1 6653   0.878   1.456   6.681
 1918SOL    HW2 6654   0.719   1.455   6.644
 1919SOL     OW 6655   2.676   0.450   1.159
 1919SOL    HW1 6656   2.594   0.398   1.185
 1919SOL    HW2 6657   2.675   0.538   1.207
 1920SOL     OW 6658   1.666   4.755   2.655
 1920SOL    HW1 6659   1.745   4.810   2.628
 1920SOL    HW2 6660   1.582   4.808   2.642
 1921SOL     OW 6661   1.608   4.907   0.300
 1921SOL    HW1 6662   1.618   4.820   0.252
 1921SOL    HW2 6663   1.619   4.982   0.235
 1922SOL     OW 6664   2.934   4.121   0.557
 1922SOL    HW1 6665   3.004   4.081   0.617
 1922SOL    HW2 6666   2.861   4.160   0.613
 1923SOL     OW 6667   3.265   0.680   5.743
 1923SOL    HW1 6668   3.170   0.651   5.737
 1923SOL    HW2 6669   3.275   0.773   5.709
 1924SOL     OW 6670   4.949   5.091   1.861
 1924SOL    HW1 6671   5.025   5.081   1.796
 1924SOL    HW2 6672   4.984   5.078   1.954
 1925SOL     OW 6673   1.672   3.948   0.470
 1925SOL    HW1 6674   1.700   3.928   0.376
 1925SOL    HW2 6675   1.752   3.949   0.529
 1926SOL     OW 6676   1.660   6.679   2.981
 1926SOL    HW1 6677   1.753   6.714   2.991
 1926SOL    HW2 6678   1.617   6.671   3.071
 1927SOL     OW 6679   3.401   4.154   6.225
 1927SOL    HW1 6680   3.318   4.152   6.169
 1927SOL    HW2 6681   3.443   4.244   6.219
 1928SOL     OW 6682   6.538   4.663   6.010
 1928SOL    HW1 6683   6.571   4.621   5.926
 1928SOL    HW2 6684   6.476   4.739   5.987
 1929SOL     OW 6685   1.174   5.191   1.670
 1929SOL    HW1 6686   1.113   5.195   1.749
 1929SOL    HW2 6687   1.127   5.144   1.595
 1930SOL     OW 6688   3.724   3.996   6.756
 1930SOL    HW1 6689   3.694   3.976   6.663
 1930SOL    HW2 6690   3.655   3.964   6.822
 1931SOL     OW 6691   0.482   3.099   2.391
 1931SOL    HW1 6692   0.558   3.120   2.452
 1931SOL    HW2 6693   0.513   3.038   2.318
 1932SOL     OW 6694   5.101   3.541   3.718
 1932SOL    HW1 6695   5.053   3.627   3.735
 1932SOL    HW2 6696   5.067   3.500   3.634
 1933SOL     OW 6697   2.483   4.559   0.665
 1933SOL    HW1 6698   2.501   4.543   0.568
 1933SOL    HW2 6699   2.567   4.591   0.710
 1934SOL     OW 6700   0.720   0.201   4.966
 1934SOL    HW1 6701   0.695   0.235   5.057
 1934SOL    HW2 6702   0.819   0.201   4.957
 1935SOL     OW 6703   3.877   6.733   4.166
 1935SOL    HW1 6704   3.803   6.789   4.203
 1935SOL    HW2 6705   3.848   6.637   4.164
 1936SOL     OW 6706   6.127   3.356   4.191
 1936SOL    HW1 6707   6.126   3.438   4.134
 1936SOL    HW2 6708   6.221   3.335   4.218
 1937SOL     OW 6709   4.059   0.399   0.708
 1937SOL    HW1 6710   3.961   0.400   0.724
 1937SOL    HW2 6711   4.099   0.485   0.740
 1938SOL     OW 6712   2.389   1.349   1.496
 1938SOL    HW1 6713   2.396   1.449   1.490
 1938SOL    HW2 6714   2.479   1.308   1.479
 1939SOL     OW 6715   6.711   0.789   4.926
 1939SOL    HW1 6716   6.621   0.792   4.883
 1939SOL    HW2 6717   6.781   0.794   4.855
 1940SOL     OW 6718   5.204   5.068   0.539
 1940SOL    HW1 6719   5.286   5.017   0.565
 1940SOL    HW2 6720   5.128   5.042   0.600
 1941SOL     OW 6721   0.156   4.446   3.647
 1941SOL    HW1 6722   0.192   4.400   3.728
 1941SOL    HW2 6723   0.059   4.426   3.637
 1942SOL     OW 6724   5.685   0.613   1.364
 1942SOL    HW1 6725   5.589   0.606   1.392
 1942SOL    HW2 6726   5.702   0.703   1.324
 1943SOL     OW 6727   3.147   6.145   2.573
 1943SOL    HW1 6728   3.246   6.151   2.569
 1943SOL    HW2 6729   3.120   6.080   2.644
 1944SOL     OW 6730   6.321   2.186   0.166
 1944SOL    HW1 6731   6.332   2.093   0.201
 1944SOL    HW2 6732   6.394   2.244   0.200
 1945SOL     OW 6733   3.278   5.756   1.582
 1945SOL    HW1 6734   3.371   5.730   1.605
 1945SOL    HW2 6735   3.279   5.841   1.528
 1946SOL     OW 6736   6.406   0.126   1.373
 1946SOL    HW1 6737   6.440   0.217   1.397
 1946SOL    HW2 6738   6.317   0.111   1.415
 1947SOL     OW 6739   5.352   6.594   4.753
 1947SOL    HW1 6740   5.371   6.660   4.826
 1947SOL    HW2 6741   5.270   6.623   4.703
 1948SOL     OW 6742   5.281   5.262   3.806
 1948SOL    HW1 6743   5.275   5.193   3.878
 1948SOL    HW2 6744   5.365   5.248   3.754
 1949SOL     OW 6745   3.245   4.431   6.456
 1949SOL    HW1 6746   3.272   4.524   6.431
 1949SOL    HW2 6747   3.326   4.378   6.481
 1950SOL     OW 6748   4.083   4.333   0.095
 1950SOL    HW1 6749   4.147   4.267   0.056
 1950SOL    HW2 6750   4.104   4.425   0.060
 1951SOL     OW 6751   6.003   3.372   6.885
 1951SOL    HW1 6752   5.973   3.306   6.954
 1951SOL    HW2 6753   6.069   3.435   6.926
 1952SOL     OW 6754   4.926   2.759   0.506
 1952SOL    HW1 6755   4.966   2.789   0.419
 1952SOL    HW2 6756   4.970   2.675   0.536
 1953SOL     OW 6757   6.268   1.426   6.195
 1953SOL    HW1 6758   6.248   1.348   6.136
 1953SOL    HW2 6759   6.184   1.478   6.212
 1954SOL     OW 6760   5.574   1.086   3.288
 1954SOL    HW1 6761   5.582   1.063   3.191
 1954SOL    HW2 6762   5.516   1.019   3.334
 1955SOL     OW 6763   0.713   1.933   2.910
 1955SOL    HW1 6764   0.718   2.032   2.899
 1955SOL    HW2 6765   0.618   1.903   2.900
 1956SOL     OW 6766   4.905   6.754   2.711
 1956SOL    HW1 6767   4.843   6.730   2.786
 1956SOL    HW2 6768   4.906   6.853   2.698
 1957SOL     OW 6769   6.016   4.857   4.282
 1957SOL    HW1 6770   6.063   4.940   4.252
 1957SOL    HW2 6771   6.002   4.796   4.204
 1958SOL     OW 6772   5.001   2.260   2.680
 1958SOL    HW1 6773   4.903   2.252   2.698
 1958SOL    HW2 6774   5.041   2.326   2.743
 1959SOL     OW 6775   0.718   0.806   5.291
 1959SOL    HW1 6776   0.724   0.876   5.361
 1959SOL    HW2 6777   0.626   0.767   5.291
 1960SOL     OW 6778   6.803   4.726   2.269
 1960SOL    HW1 6779   6.876   4.768   2.323
 1960SOL    HW2 6780   6.754   4.661   2.326
 1961SOL     OW 6781   5.923   4.552   4.236
 1961SOL    HW1 6782   5.905   4.456   4.253
 1961SOL    HW2 6783   5.836   4.602   4.231
 1962SOL     OW 6784   1.698   6.115   3.953
 1962SOL    HW1 6785   1.639   6.076   4.024
 1962SOL    HW2 6786   1.766   6.047   3.926
 1963SOL     OW 6787   0.795   1.787   1.219
 1963SOL    HW1 6788   0.773   1.784   1.317
 1963SOL    HW2 6789   0.734   1.725   1.169
 1964SOL     OW 6790   4.554   4.395   0.584
 1964SOL    HW1 6791   4.524   4.490   0.590
 1964SOL    HW2 6792   4.623   4.377   0.654
 1965SOL     OW 6793   1.387   2.931   4.728
 1965SOL    HW1 6794   1.393   2.885   4.640
 1965SOL    HW2 6795   1.462   2.899   4.787
 1966SOL     OW 6796   6.879   6.494   0.790
 1966SOL    HW1 6797   6.817   6.542   0.728
 1966SOL    HW2 6798   6.847   6.400   0.803
 1967SOL     OW 6799   5.156   2.315   5.702
 1967SOL    HW1 6800   5.079   2.286   5.645
 1967SOL    HW2 6801   5.207   2.387   5.656
 1968SOL     OW 6802   2.141   6.778   6.355
 1968SOL    HW1 6803   2.089   6.836   6.293
 1968SOL    HW2 6804   2.092   6.770   6.442
 1969SOL     OW 6805   0.813   1.487   1.992
 1969SOL    HW1 6806   0.883   1.485   2.064
 1969SOL    HW2 6807   0.788   1.582   1.973
 1970SOL     OW 6808   2.576   6.341   6.245
 1970SOL    HW1 6809   2.640   6.402   6.292
 1970SOL    HW2 6810   2.510   6.304   6.310
 1971SOL     OW 6811   0.179   0.287   5.633
 1971SOL    HW1 6812   0.154   0.225   5.559
 1971SOL    HW2 6813   0.222   0.235   5.707
 1972SOL     OW 6814   5.361   2.258   2.191
 1972SOL    HW1 6815   5.269   2.220   2.180
 1972SOL    HW2 6816   5.394   2.293   2.103
 1973SOL     OW 6817   3.232   2.011   0.006
 1973SOL    HW1 6818   3.250   2.110   0.009
 1973SOL    HW2 6819   3.134   1.994   0.013
 1974SOL     OW 6820   6.059   6.716   4.876
 1974SOL    HW1 6821   5.964   6.717   4.843
 1974SOL    HW2 6822   6.121   6.716   4.797
 1975SOL     OW 6823   2.192   1.549   3.619
 1975SOL    HW1 6824   2.257   1.473   3.606
 1975SOL    HW2 6825   2.243   1.635   3.624
 1976SOL     OW 6826   0.418   6.720   0.412
 1976SOL    HW1 6827   0.344   6.786   0.396
 1976SOL    HW2 6828   0.448   6.681   0.325
 1977SOL     OW 6829   0.811   2.883   4.844
 1977SOL    HW1 6830   0.825   2.868   4.942
 1977SOL    HW2 6831   0.713   2.880   4.823
 1978SOL     OW 6832   1.981   6.664   2.821
 1978SOL    HW1 6833   1.969   6.717   2.905
 1978SOL    HW2 6834   2.076   6.668   2.791
 1979SOL     OW 6835   6.545   4.513   6.226
 1979SOL    HW1 6836   6.537   4.560   6.137
 1979SOL    HW2 6837   6.632   4.537   6.268
 1980SOL     OW 6838   3.073   0.073   4.716
 1980SOL    HW1 6839   3.102   0.133   4.642
 1980SOL    HW2 6840   3.011   0.003   4.680
 1981SOL     OW 6841   6.891   2.024   2.618
 1981SOL    HW1 6842   6.838   2.003   2.700
 1981SOL    HW2 6843   6.942   1.943   2.589
 1982SOL     OW 6844   0.218   4.170   5.022
 1982SOL    HW1 6845   0.306   4.212   5.002
 1982SOL    HW2 6846   0.146   4.219   4.972
 1983SOL     OW 6847   1.365   1.075   2.513
 1983SOL    HW1 6848   1.340   1.016   2.436
 1983SOL    HW2 6849   1.361   1.171   2.485
 1984SOL     OW 6850   5.559   1.660   5.347
 1984SOL    HW1 6851   5.486   1.643   5.413
 1984SOL    HW2 6852   5.521   1.658   5.254
 1985SOL     OW 6853   1.173   6.266   2.098
 1985SOL    HW1 6854   1.105   6.209   2.052
 1985SOL    HW2 6855   1.155   6.267   2.197
 1986SOL     OW 6856   2.243   1.714   0.010
 1986SOL    HW1 6857   2.222   1.619   7.013
 1986SOL    HW2 6858   2.223   1.773   6.959
 1987SOL     OW 6859   1.710   2.407   2.379
 1987SOL    HW1 6860   1.616   2.433   2.404
 1987SOL    HW2 6861   1.759   2.487   2.345
 1988SOL     OW 6862   6.161   4.184   1.062
 1988SOL    HW1 6863   6.071   4.218   1.037
 1988SOL    HW2 6864   6.168   4.178   1.162
 1989SOL     OW 6865   2.264   5.404   5.132
 1989SOL    HW1 6866   2.335   5.400   5.062
 1989SOL    HW2 6867   2.263   5.318   5.183
 1990SOL     OW 6868   3.556   6.324   0.341
 1990SOL    HW1 6869   3.630   6.341   0.405
 1990SOL    HW2 6870   3.484   6.272   0.386
 1991SOL     OW 6871   3.455   5.035   6.716
 1991SOL    HW1 6872   3.473   5.086   6.800
 1991SOL    HW2 6873   3.498   4.945   6.721
 1992SOL     OW 6874   0.953   0.537   0.283
 1992SOL    HW1 6875   0.966   0.604   0.356
 1992SOL    HW2 6876   0.999   0.568   0.200
 1993SOL     OW 6877   3.685   2.911   5.489
 1993SOL    HW1 6878   3.675   2.859   5.574
 1993SOL    HW2 6879   3.595   2.927   5.449
 1994SOL     OW 6880   0.476   1.379   0.612
 1994SOL    HW1 6881   0.548   1.362   0.544
 1994SOL    HW2 6882   0.516   1.383   0.703
 1995SOL     OW 6883   5.255   2.332   3.519
 1995SOL    HW1 6884   5.352   2.322   3.541
 1995SOL    HW2 6885   5.218   2.244   3.489
 1996SOL     OW 6886   2.007   3.576   0.947
 1996SOL    HW1 6887   1.929   3.584   0.885
 1996SOL    HW2 6888   1.977   3.535   1.034
 1997SOL     OW 6889   3.210   1.450   4.533
 1997SOL    HW1 6890   3.277   1.395   4.483
 1997SOL    HW2 6891   3.207   1.542   4.493
 1998SOL     OW 6892   1.997   4.556   6.299
 1998SOL    HW1 6893   1.978   4.464   6.265
 1998SOL    HW2 6894   1.982   4.560   6.398
 1999SOL     OW 6895   2.549   6.684   0.034
 1999SOL    HW1 6896   2.477   6.753   0.041
 1999SOL    HW2 6897   2.514   6.596   0.068
 2000SOL     OW 6898   4.141   2.295   5.489
 2000SOL    HW1 6899   4.213   2.306   5.558
 2000SOL    HW2 6900   4.073   2.230   5.521
 2001SOL     OW 6901   3.444   0.643   1.785
 2001SOL    HW1 6902   3.366   0.659   1.845
 2001SOL    HW2 6903   3.471   0.730   1.743
 2002SOL     OW 6904   0.574   4.768   6.736
 2002SOL    HW1 6905   0.596   4.845   6.796
 2002SOL    HW2 6906   0.612   4.684   6.775
 2003SOL     OW 6907   6.016   5.796   2.681
 2003SOL    HW1 6908   6.099   5.761   2.638
 2003SOL    HW2 6909   6.012   5.896   2.671
 2004SOL     OW 6910   5.318   1.235   5.572
 2004SOL    HW1 6911   5.281   1.262   5.483
 2004SOL    HW2 6912   5.242   1.214   5.634
 2005SOL     OW 6913   0.423   5.105   0.374
 2005SOL    HW1 6914   0.468   5.181   0.420
 2005SOL    HW2 6915   0.357   5.141   0.307
 2006SOL     OW 6916   5.152   6.618   4.042
 2006SOL    HW1 6917   5.109   6.610   3.951
 2006SOL    HW2 6918   5.190   6.709   4.053
 2007SOL     OW 6919   5.101   4.657   0.836
 2007SOL    HW1 6920   5.087   4.584   0.903
 2007SOL    HW2 6921   5.128   4.617   0.748
 2008SOL     OW 6922   2.834   5.164   3.910
 2008SOL    HW1 6923   2.885   5.240   3.948
 2008SOL    HW2 6924   2.819   5.095   3.980
 2009SOL     OW 6925   5.912   1.119   1.985
 2009SOL    HW1 6926   5.948   1.063   2.060
 2009SOL    HW2 6927   5.890   1.060   1.907
 2010SOL     OW 6928   1.961   2.021   0.873
 2010SOL    HW1 6929   1.913   1.944   0.832
 2010SOL    HW2 6930   1.910   2.105   0.855
 2011SOL     OW 6931   0.014   6.111   4.742
 2011SOL    HW1 6932   0.113   6.100   4.742
 2011SOL    HW2 6933   7.016   6.202   4.708
 2012SOL     OW 6934   1.680   3.874   2.424
 2012SOL    HW1 6935   1.639   3.930   2.352
 2012SOL    HW2 6936   1.771   3.843   2.395
 2013SOL     OW 6937   6.143   2.411   3.254
 2013SOL    HW1 6938   6.066   2.427   3.193
 2013SOL    HW2 6939   6.195   2.495   3.266
 2014SOL     OW 6940   2.562   5.369   3.569
 2014SOL    HW1 6941   2.570   5.371   3.469
 2014SOL    HW2 6942   2.496   5.438   3.598
 2015SOL     OW 6943   1.925   0.692   6.646
 2015SOL    HW1 6944   1.833   0.720   6.619
 2015SOL    HW2 6945   1.944   0.725   6.739
 2016SOL     OW 6946   1.342   6.201   5.745
 2016SOL    HW1 6947   1.367   6.107   5.766
 2016SOL    HW2 6948   1.259   6.202   5.689
 2017SOL     OW 6949   3.435   6.904   4.789
 2017SOL    HW1 6950   3.467   6.880   4.697
 2017SOL    HW2 6951   3.448   7.002   4.805
 2018SOL     OW 6952   5.520   0.604   5.880
 2018SOL    HW1 6953   5.496   0.700   5.864
 2018SOL    HW2 6954   5.528   0.557   5.792
 2019SOL     OW 6955   5.137   2.900   6.355
 2019SOL    HW1 6956   5.044   2.875   6.328
 2019SOL    HW2 6957   5.171   2.834   6.422
 2020SOL     OW 6958   1.875   6.512   5.527
 2020SOL    HW1 6959   1.911   6.525   5.620
 2020SOL    HW2 6960   1.844   6.418   5.516
 2021SOL     OW 6961   0.657   5.863   4.523
 2021SOL    HW1 6962   0.559   5.875   4.509
 2021SOL    HW2 6963   0.675   5.772   4.561
 2022SOL     OW 6964   1.738   3.448   3.275
 2022SOL    HW1 6965   1.761   3.520   3.208
 2022SOL    HW2 6966   1.759   3.481   3.367
 2023SOL     OW 6967   6.640   1.106   6.530
 2023SOL    HW1 6968   6.586   1.163   6.592
 2023SOL    HW2 6969   6.736   1.105   6.561
 2024SOL     OW 6970   0.283   6.825   3.517
 2024SOL    HW1 6971   0.282   6.912   3.466
 2024SOL    HW2 6972   0.269   6.750   3.453
 2025SOL     OW 6973   2.694   1.748   2.923
 2025SOL    HW1 6974   2.613   1.757   2.980
 2025SOL    HW2 6975   2.749   1.831   2.929
 2026SOL     OW 6976   7.024   2.950   5.878
 2026SOL    HW1 6977   0.046   2.880   5.826
 2026SOL    HW2 6978   0.054   3.032   5.884
 2027SOL     OW 6979   1.089   7.019   0.081
 2027SOL    HW1 6980   1.072   7.025   0.180
 2027SOL    HW2 6981   1.016   0.039   0.032
 2028SOL     OW 6982   3.087   6.376   5.040
 2028SOL    HW1 6983   3.112   6.404   4.948
 2028SOL    HW2 6984   3.096   6.277   5.049
 2029SOL     OW 6985   6.837   1.013   0.626
 2029SOL    HW1 6986   6.847   0.975   0.718
 2029SOL    HW2 6987   6.926   1.020   0.582
 2030SOL     OW 6988   2.643   0.959   3.100
 2030SOL    HW1 6989   2.609   1.053   3.103
 2030SOL    HW2 6990   2.681   0.941   3.009
 2031SOL     OW 6991   6.282   5.736   1.070
 2031SOL    HW1 6992   6.329   5.652   1.045
 2031SOL    HW2 6993   6.314   5.766   1.160
 2032SOL     OW 6994   4.665   0.426   2.116
 2032SOL    HW1 6995   4.712   0.377   2.189
 2032SOL    HW2 6996   4.709   0.514   2.101
 2033SOL     OW 6997   3.083   3.866   6.127
 2033SOL    HW1 6998   3.147   3.843   6.201
 2033SOL    HW2 6999   3.103   3.809   6.048
 2034SOL     OW 7000   2.567   5.486   5.541
 2034SOL    HW1 7001   2.483   5.505   5.491
 2034SOL    HW2 7002   2.597   5.393   5.521
 2035SOL     OW 7003   6.953   6.930   3.523
 2035SOL    HW1 7004   6.877   6.891   3.575
 2035SOL    HW2 7005   0.006   6.937   3.583
 2036SOL     OW 7006   1.356   3.943   2.639
 2036SOL    HW1 7007   1.445   3.951   2.685
 2036SOL    HW2 7008   1.348   4.013   2.569
 2037SOL     OW 7009   6.760   3.136   5.749
 2037SOL    HW1 7010   6.752   3.211   5.683
 2037SOL    HW2 7011   6.814   3.062   5.708
 2038SOL     OW 7012   1.693   2.702   0.087
 2038SOL    HW1 7013   1.735   2.792   0.095
 2038SOL    HW2 7014   1.713   2.664   7.023
 2039SOL     OW 7015   0.040   5.027   3.904
 2039SOL    HW1 7016   0.008   5.041   3.998
 2039SOL    HW2 7017   0.071   4.933   3.893
 2040SOL     OW 7018   3.260   3.099   5.650
 2040SOL    HW1 7019   3.354   3.114   5.680
 2040SOL    HW2 7020   3.240   3.001   5.648
 2041SOL     OW 7021   0.842   6.153   6.053
 2041SOL    HW1 7022   0.743   6.142   6.066
 2041SOL    HW2 7023   0.882   6.191   6.136
 2042SOL     OW 7024   4.686   6.018   0.283
 2042SOL    HW1 7025   4.715   5.922   0.287
 2042SOL    HW2 7026   4.590   6.025   0.307
 2043SOL     OW 7027   6.721   3.444   3.320
 2043SOL    HW1 7028   6.635   3.452   3.269
 2043SOL    HW2 7029   6.789   3.506   3.281
 2044SOL     OW 7030   6.531   6.784   1.974
 2044SOL    HW1 7031   6.453   6.814   2.029
 2044SOL    HW2 7032   6.498   6.753   1.884
 2045SOL     OW 7033   1.879   5.194   3.867
 2045SOL    HW1 7034   1.825   5.113   3.887
 2045SOL    HW2 7035   1.971   5.183   3.907
 2046SOL     OW 7036   6.779   2.147   3.643
 2046SOL    HW1 7037   6.832   2.083   3.587
 2046SOL    HW2 7038   6.788   2.121   3.740
 2047SOL     OW 7039   7.026   2.715   6.797
 2047SOL    HW1 7040   6.980   2.658   6.865
 2047SOL    HW2 7041   6.972   2.718   6.713
 2048SOL     OW 7042   1.583   6.265   6.381
 2048SOL    HW1 7043   1.533   6.303   6.303
 2048SOL    HW2 7044   1.590   6.165   6.371
 2049SOL     OW 7045   6.194   1.639   4.955
 2049SOL    HW1 7046   6.292   1.651   4.971
 2049SOL    HW2 7047   6.168   1.684   4.869
 2050SOL     OW 7048   6.689   2.129   3.934
 2050SOL    HW1 7049   6.620   2.173   3.993
 2050SOL    HW2 7050   6.772   2.186   3.933
 2051SOL     OW 7051   1.230   5.658   0.188
 2051SOL    HW1 7052   1.209   5.597   0.264
 2051SOL    HW2 7053   1.156   5.653   0.120
 2052SOL     OW 7054   1.339   3.621   1.216
 2052SOL    HW1 7055   1.409   3.673   1.267
 2052SOL    HW2 7056   1.370   3.527   1.204
 2053SOL     OW 7057   6.330   6.419   4.149
 2053SOL    HW1 7058   6.300   6.422   4.245
 2053SOL    HW2 7059   6.429   6.432   4.145
 2054SOL     OW 7060   3.337   4.131   3.236
 2054SOL    HW1 7061   3.260   4.122   3.300
 2054SOL    HW2 7062   3.319   4.207   3.173
 2055SOL     OW 7063   6.096   3.602   3.834
 2055SOL    HW1 7064   6.035   3.610   3.755
 2055SOL    HW2 7065   6.124   3.692   3.865
 2056SOL     OW 7066   4.167   5.877   2.321
 2056SOL    HW1 7067   4.068   5.870   2.314
 2056SOL    HW2 7068   4.191   5.965   2.362
 2057SOL     OW 7069   5.265   4.303   5.799
 2057SOL    HW1 7070   5.205   4.347   5.865
 2057SOL    HW2 7071   5.353   4.351   5.795
 2058SOL     OW 7072   0.352   1.367   3.316
 2058SOL    HW1 7073   0.320   1.403   3.228
 2058SOL    HW2 7074   0.451   1.376   3.321
 2059SOL     OW 7075   1.865   5.828   6.798
 2059SOL    HW1 7076   1.933   5.892   6.762
 2059SOL    HW2 7077   1.878   5.739   6.755
 2060SOL     OW 7078   0.555   4.495   1.810
 2060SOL    HW1 7079   0.573   4.550   1.890
 2060SOL    HW2 7080   0.628   4.507   1.743
 2061SOL     OW 7081   1.185   1.946   2.874
 2061SOL    HW1 7082   1.138   1.875   2.926
 2061SOL    HW2 7083   1.137   1.961   2.787
 2062SOL     OW 7084   6.321   5.698   4.470
 2062SOL    HW1 7085   6.315   5.685   4.371
 2062SOL    HW2 7086   6.273   5.623   4.516
 2063SOL     OW 7087   1.902   6.588   6.444
 2063SOL    HW1 7088   1.903   6.582   6.344
 2063SOL    HW2 7089   1.835   6.656   6.472
 2064SOL     OW 7090   0.571   2.696   5.610
 2064SOL    HW1 7091   0.625   2.692   5.694
 2064SOL    HW2 7092   0.598   2.622   5.549
 2065SOL     OW 7093   6.272   2.695   5.428
 2065SOL    HW1 7094   6.184   2.681   5.473
 2065SOL    HW2 7095   6.341   2.636   5.469
 2066SOL     OW 7096   0.536   4.601   4.444
 2066SOL    HW1 7097   0.489   4.590   4.532
 2066SOL    HW2 7098   0.607   4.530   4.436
 2067SOL     OW 7099   6.347   5.384   1.338
 2067SOL    HW1 7100   6.323   5.325   1.415
 2067SOL    HW2 7101   6.376   5.474   1.373
 2068SOL     OW 7102   2.470   0.100   4.490
 2068SOL    HW1 7103   2.428   0.098   4.581
 2068SOL    HW2 7104   2.453   0.013   4.444
 2069SOL     OW 7105   0.011   1.922   3.815
 2069SOL    HW1 7106   0.046   1.968   3.896
 2069SOL    HW2 7107   0.059   1.957   3.734
 2070SOL     OW 7108   0.593   1.195   1.446
 2070SOL    HW1 7109   0.678   1.158   1.482
 2070SOL    HW2 7110   0.588   1.293   1.464
 2071SOL     OW 7111   6.489   0.478   6.063
 2071SOL    HW1 7112   6.504   0.386   6.098
 2071SOL    HW2 7113   6.576   0.527   6.058
 2072SOL     OW 7114   4.794   5.860   4.314
 2072SOL    HW1 7115   4.703   5.899   4.296
 2072SOL    HW2 7116   4.832   5.825   4.228
 2073SOL     OW 7117   4.522   0.262   5.095
 2073SOL    HW1 7118   4.621   0.250   5.089
 2073SOL    HW2 7119   4.478   0.173   5.110
 2074SOL     OW 7120   1.975   2.710   6.456
 2074SOL    HW1 7121   1.995   2.680   6.549
 2074SOL    HW2 7122   1.981   2.810   6.452
 2075SOL     OW 7123   6.957   2.645   3.004
 2075SOL    HW1 7124   6.974   2.582   2.928
 2075SOL    HW2 7125   0.001   2.634   3.074
 2076SOL     OW 7126   5.912   0.129   6.471
 2076SOL    HW1 7127   5.891   0.063   6.400
 2076SOL    HW2 7128   5.900   0.222   6.436
 2077SOL     OW 7129   5.645   1.976   3.510
 2077SOL    HW1 7130   5.729   2.021   3.540
 2077SOL    HW2 7131   5.597   1.940   3.590
 2078SOL     OW 7132   1.098   5.800   5.664
 2078SOL    HW1 7133   1.073   5.737   5.737
 2078SOL    HW2 7134   1.183   5.769   5.621
 2079SOL     OW 7135   5.637   1.847   3.234
 2079SOL    HW1 7136   5.648   1.888   3.325
 2079SOL    HW2 7137   5.561   1.782   3.236
 2080SOL     OW 7138   1.909   0.179   5.134
 2080SOL    HW1 7139   1.964   0.112   5.185
 2080SOL    HW2 7140   1.835   0.132   5.086
 2081SOL     OW 7141   1.414   5.721   4.821
 2081SOL    HW1 7142   1.358   5.783   4.766
 2081SOL    HW2 7143   1.496   5.695   4.769
 2082SOL     OW 7144   0.635   6.664   3.346
 2082SOL    HW1 7145   0.711   6.601   3.329
 2082SOL    HW2 7146   0.642   6.741   3.283
 2083SOL     OW 7147   0.050   4.895   5.864
 2083SOL    HW1 7148   0.107   4.954   5.807
 2083SOL    HW2 7149   7.000   4.860   5.809
 2084SOL     OW 7150   0.277   4.653   3.495
 2084SOL    HW1 7151   0.371   4.678   3.518
 2084SOL    HW2 7152   0.251   4.572   3.548
 2085SOL     OW 7153   4.785   0.811   0.316
 2085SOL    HW1 7154   4.688   0.806   0.292
 2085SOL    HW2 7155   4.824   0.719   0.316
 2086SOL     OW 7156   3.647   6.539   6.090
 2086SOL    HW1 7157   3.728   6.549   6.148
 2086SOL    HW2 7158   3.673   6.493   6.005
 2087SOL     OW 7159   4.803   0.793   1.382
 2087SOL    HW1 7160   4.754   0.811   1.467
 2087SOL    HW2 7161   4.754   0.835   1.305
 2088SOL     OW 7162   1.513   5.441   0.129
 2088SOL    HW1 7163   1.543   5.525   0.083
 2088SOL    HW2 7164   1.479   5.376   0.061
 2089SOL     OW 7165   5.302   3.198   6.090
 2089SOL    HW1 7166   5.313   3.223   5.994
 2089SOL    HW2 7167   5.344   3.268   6.147
 2090SOL     OW 7168   4.525   3.984   5.937
 2090SOL    HW1 7169   4.485   3.980   5.845
 2090SOL    HW2 7170   4.548   4.079   5.959
 2091SOL     OW 7171   0.450   5.119   0.867
 2091SOL    HW1 7172   0.516   5.136   0.940
 2091SOL    HW2 7173   0.358   5.139   0.900
 2092SOL     OW 7174   5.153   4.285   0.248
 2092SOL    HW1 7175   5.176   4.322   0.158
 2092SOL    HW2 7176   5.192   4.193   0.257
 2093SOL     OW 7177   2.455   2.174   1.070
 2093SOL    HW1 7178   2.359   2.175   1.041
 2093SOL    HW2 7179   2.464   2.120   1.154
 2094SOL     OW 7180   6.069   1.634   2.708
 2094SOL    HW1 7181   6.123   1.593   2.634
 2094SOL    HW2 7182   5.975   1.599   2.703
 2095SOL     OW 7183   6.145   0.099   5.395
 2095SOL    HW1 7184   6.185   0.190   5.393
 2095SOL    HW2 7185   6.073   0.095   5.464
 2096SOL     OW 7186   4.816   3.986   3.118
 2096SOL    HW1 7187   4.815   4.018   3.023
 2096SOL    HW2 7188   4.849   3.892   3.121
 2097SOL     OW 7189   2.579   3.744   6.544
 2097SOL    HW1 7190   2.542   3.785   6.628
 2097SOL    HW2 7191   2.582   3.644   6.555
 2098SOL     OW 7192   4.088   6.270   1.929
 2098SOL    HW1 7193   4.128   6.355   1.965
 2098SOL    HW2 7194   3.993   6.263   1.961
 2099SOL     OW 7195   3.432   2.008   6.286
 2099SOL    HW1 7196   3.525   2.035   6.260
 2099SOL    HW2 7197   3.389   2.082   6.338
 2100SOL     OW 7198   5.398   2.254   6.808
 2100SOL    HW1 7199   5.312   2.217   6.772
 2100SOL    HW2 7200   5.378   2.326   6.874
 2101SOL     OW 7201   0.358   6.736   1.294
 2101SOL    HW1 7202   0.297   6.731   1.215
 2101SOL    HW2 7203   0.413   6.819   1.288
 2102SOL     OW 7204   5.353   4.858   2.602
 2102SOL    HW1 7205   5.435   4.802   2.614
 2102SOL    HW2 7206   5.284   4.831   2.670
 2103SOL     OW 7207   3.213   3.874   6.811
 2103SOL    HW1 7208   3.256   3.815   6.879
 2103SOL    HW2 7209   3.265   3.870   6.726
 2104SOL     OW 7210   1.545   4.566   1.829
 2104SOL    HW1 7211   1.613   4.512   1.779
 2104SOL    HW2 7212   1.526   4.650   1.779
 2105SOL     OW 7213   5.445   4.812   6.077
 2105SOL    HW1 7214   5.431   4.799   5.979
 2105SOL    HW2 7215   5.509   4.888   6.092
 2106SOL     OW 7216   5.197   3.721   1.131
 2106SOL    HW1 7217   5.183   3.628   1.097
 2106SOL    HW2 7218   5.285   3.727   1.177
 2107SOL     OW 7219   6.629   2.344   5.287
 2107SOL    HW1 7220   6.727   2.333   5.268
 2107SOL    HW2 7221   6.600   2.273   5.351
 2108SOL     OW 7222   5.962   5.323   5.274
 2108SOL    HW1 7223   5.989   5.316   5.178
 2108SOL    HW2 7224   5.907   5.244   5.299
 2109SOL     OW 7225   4.458   5.757   2.240
 2109SOL    HW1 7226   4.480   5.749   2.143
 2109SOL    HW2 7227   4.362   5.784   2.250
 2110SOL     OW 7228   2.607   0.785   0.224
 2110SOL    HW1 7229   2.653   0.710   0.271
 2110SOL    HW2 7230   2.509   0.766   0.218
 2111SOL     OW 7231   2.069   3.160   0.191
 2111SOL    HW1 7232   2.143   3.093   0.197
 2111SOL    HW2 7233   2.041   3.170   0.095
 2112SOL     OW 7234   5.163   2.672   0.844
 2112SOL    HW1 7235   5.160   2.752   0.903
 2112SOL    HW2 7236   5.257   2.639   0.836
 2113SOL     OW 7237   2.836   1.563   4.173
 2113SOL    HW1 7238   2.842   1.644   4.232
 2113SOL    HW2 7239   2.914   1.503   4.191
 2114SOL     OW 7240   2.306   1.937   6.581
 2114SOL    HW1 7241   2.289   1.923   6.483
 2114SOL    HW2 7242   2.382   2.001   6.593
 2115SOL     OW 7243   0.565   4.468   3.278
 2115SOL    HW1 7244   0.662   4.467   3.252
 2115SOL    HW2 7245   0.518   4.541   3.228
 2116SOL     OW 7246   0.511   4.209   2.814
 2116SOL    HW1 7247   0.520   4.146   2.891
 2116SOL    HW2 7248   0.458   4.289   2.841
 2117SOL     OW 7249   6.766   4.659   1.688
 2117SOL    HW1 7250   6.838   4.673   1.756
 2117SOL    HW2 7251   6.803   4.673   1.597
 2118SOL     OW 7252   6.363   2.934   3.069
 2118SOL    HW1 7253   6.458   2.960   3.087
 2118SOL    HW2 7254   6.347   2.933   2.970
 2119SOL     OW 7255   1.399   0.081   1.036
 2119SOL    HW1 7256   1.305   0.115   1.025
 2119SOL    HW2 7257   1.398   7.007   1.036
 2120SOL     OW 7258   0.345   4.197   3.624
 2120SOL    HW1 7259   0.359   4.261   3.548
 2120SOL    HW2 7260   0.316   4.248   3.705
 2121SOL     OW 7261   1.199   2.901   5.960
 2121SOL    HW1 7262   1.284   2.950   5.981
 2121SOL    HW2 7263   1.191   2.820   6.017
 2122SOL     OW 7264   5.709   4.996   6.059
 2122SOL    HW1 7265   5.720   5.000   5.959
 2122SOL    HW2 7266   5.793   4.963   6.101
 2123SOL     OW 7267   6.575   5.174   2.284
 2123SOL    HW1 7268   6.656   5.144   2.335
 2123SOL    HW2 7269   6.500   5.110   2.300
 2124SOL     OW 7270   3.052   1.928   1.181
 2124SOL    HW1 7271   2.952   1.932   1.172
 2124SOL    HW2 7272   3.076   1.890   1.270
 2125SOL     OW 7273   1.995   0.265   2.446
 2125SOL    HW1 7274   2.076   0.323   2.437
 2125SOL    HW2 7275   2.018   0.183   2.497
 2126SOL     OW 7276   3.687   2.303   6.938
 2126SOL    HW1 7277   3.755   2.256   6.882
 2126SOL    HW2 7278   3.666   2.249   7.019
 2127SOL     OW 7279   1.150   2.218   5.606
 2127SOL    HW1 7280   1.135   2.316   5.595
 2127SOL    HW2 7281   1.065   2.174   5.635
 2128SOL     OW 7282   6.572   2.814   3.490
 2128SOL    HW1 7283   6.575   2.804   3.390
 2128SOL    HW2 7284   6.546   2.727   3.531
 2129SOL     OW 7285   4.867   3.375   5.223
 2129SOL    HW1 7286   4.801   3.305   5.252
 2129SOL    HW2 7287   4.831   3.423   5.144
 2130SOL     OW 7288   3.303   0.233   2.739
 2130SOL    HW1 7289   3.253   0.320   2.744
 2130SOL    HW2 7290   3.241   0.160   2.710
 2131SOL     OW 7291   4.751   1.646   0.295
 2131SOL    HW1 7292   4.698   1.679   0.374
 2131SOL    HW2 7293   4.797   1.724   0.252
 2132SOL     OW 7294   3.605   1.188   0.927
 2132SOL    HW1 7295   3.543   1.173   0.850
 2132SOL    HW2 7296   3.642   1.280   0.923
 2133SOL     OW 7297   3.161   2.950   1.288
 2133SOL    HW1 7298   3.161   2.958   1.388
 2133SOL    HW2 7299   3.067   2.933   1.256
 2134SOL     OW 7300   1.163   0.635   5.183
 2134SOL    HW1 7301   1.077   0.679   5.158
 2134SOL    HW2 7302   1.194   0.577   5.108
 2135SOL     OW 7303   1.737   2.523   4.835
 2135SOL    HW1 7304   1.770   2.558   4.747
 2135SOL    HW2 7305   1.637   2.527   4.837
 2136SOL     OW 7306   0.620   3.914   4.475
 2136SOL    HW1 7307   0.619   3.902   4.574
 2136SOL    HW2 7308   0.680   3.845   4.434
 2137SOL     OW 7309   0.216   5.974   4.228
 2137SOL    HW1 7310   0.162   5.993   4.146
 2137SOL    HW2 7311   0.305   6.018   4.221
 2138SOL     OW 7312   0.333   0.977   1.962
 2138SOL    HW1 7313   0.348   0.925   1.879
 2138SOL    HW2 7314   0.401   1.050   1.969
 2139SOL     OW 7315   3.406   0.942   2.483
 2139SOL    HW1 7316   3.380   0.983   2.570
 2139SOL    HW2 7317   3.488   0.886   2.496
 2140SOL     OW 7318   3.490   5.924   3.674
 2140SOL    HW1 7319   3.491   6.024   3.685
 2140SOL    HW2 7320   3.582   5.889   3.691
 2141SOL     OW 7321   6.472   4.749   1.468
 2141SOL    HW1 7322   6.470   4.697   1.554
 2141SOL    HW2 7323   6.413   4.829   1.476
 2142SOL     OW 7324   0.922   1.773   2.987
 2142SOL    HW1 7325   0.945   1.724   2.903
 2142SOL    HW2 7326   0.851   1.840   2.967
 2143SOL     OW 7327   2.912   4.350   1.400
 2143SOL    HW1 7328   2.889   4.446   1.418
 2143SOL    HW2 7329   2.833   4.292   1.422
 2144SOL     OW 7330   1.404   5.520   3.541
 2144SOL    HW1 7331   1.331   5.480   3.486
 2144SOL    HW2 7332   1.490   5.471   3.522
 2145SOL     OW 7333   4.010   6.145   4.197
 2145SOL    HW1 7334   3.940   6.128   4.127
 2145SOL    HW2 7335   4.067   6.063   4.207
 2146SOL     OW 7336   2.744   3.764   1.106
 2146SOL    HW1 7337   2.712   3.672   1.128
 2146SOL    HW2 7338   2.773   3.810   1.190
 2147SOL     OW 7339   0.153   1.383   6.709
 2147SOL    HW1 7340   0.067   1.392   6.758
 2147SOL    HW2 7341   0.158   1.452   6.637
 2148SOL     OW 7342   5.219   2.407   4.677
 2148SOL    HW1 7343   5.200   2.452   4.590
 2148SOL    HW2 7344   5.318   2.397   4.688
 2149SOL     OW 7345   4.042   1.559   1.316
 2149SOL    HW1 7346   3.968   1.612   1.274
 2149SOL    HW2 7347   4.004   1.495   1.382
 2150SOL     OW 7348   2.502   2.191   2.318
 2150SOL    HW1 7349   2.498   2.270   2.380
 2150SOL    HW2 7350   2.568   2.124   2.354
 2151SOL     OW 7351   1.804   1.123   4.220
 2151SOL    HW1 7352   1.806   1.223   4.221
 2151SOL    HW2 7353   1.740   1.091   4.150
 2152SOL     OW 7354   3.728   6.620   1.689
 2152SOL    HW1 7355   3.637   6.579   1.680
 2152SOL    HW2 7356   3.721   6.719   1.678
 2153SOL     OW 7357   3.783   0.777   3.028
 2153SOL    HW1 7358   3.686   0.799   3.020
 2153SOL    HW2 7359   3.834   0.860   3.053
 2154SOL     OW 7360   4.919   0.539   4.570
 2154SOL    HW1 7361   4.932   0.638   4.564
 2154SOL    HW2 7362   4.843   0.512   4.511
 2155SOL     OW 7363   1.878   6.105   0.171
 2155SOL    HW1 7364   1.836   6.081   0.083
 2155SOL    HW2 7365   1.881   6.024   0.230
 2156SOL     OW 7366   2.226   0.903   3.127
 2156SOL    HW1 7367   2.181   0.895   3.038
 2156SOL    HW2 7368   2.261   0.996   3.138
 2157SOL     OW 7369   6.028   0.999   3.358
 2157SOL    HW1 7370   6.030   1.080   3.417
 2157SOL    HW2 7371   6.103   0.938   3.382
 2158SOL     OW 7372   3.491   6.236   0.825
 2158SOL    HW1 7373   3.560   6.307   0.836
 2158SOL    HW2 7374   3.467   6.226   0.729
 2159SOL     OW 7375   2.144   6.200   5.325
 2159SOL    HW1 7376   2.157   6.287   5.373
 2159SOL    HW2 7377   2.088   6.215   5.243
 2160SOL     OW 7378   4.876   3.600   0.821
 2160SOL    HW1 7379   4.829   3.517   0.793
 2160SOL    HW2 7380   4.874   3.608   0.921
 2161SOL     OW 7381   5.299   4.075   3.183
 2161SOL    HW1 7382   5.255   4.139   3.120
 2161SOL    HW2 7383   5.273   3.981   3.158
 2162SOL     OW 7384   2.525   0.677   0.555
 2162SOL    HW1 7385   2.568   0.690   0.644
 2162SOL    HW2 7386   2.595   0.674   0.484
 2163SOL     OW 7387   6.905   4.120   6.270
 2163SOL    HW1 7388   6.842   4.084   6.340
 2163SOL    HW2 7389   6.992   4.071   6.276
 2164SOL     OW 7390   1.688   2.998   0.326
 2164SOL    HW1 7391   1.682   3.063   0.401
 2164SOL    HW2 7392   1.607   3.007   0.268
 2165SOL     OW 7393   0.818   1.561   2.797
 2165SOL    HW1 7394   0.728   1.596   2.774
 2165SOL    HW2 7395   0.823   1.542   2.895
 2166SOL     OW 7396   1.848   2.630   5.480
 2166SOL    HW1 7397   1.919   2.697   5.459
 2166SOL    HW2 7398   1.890   2.542   5.503
 2167SOL     OW 7399   1.379   1.165   3.523
 2167SOL    HW1 7400   1.422   1.134   3.439
 2167SOL    HW2 7401   1.442   1.152   3.600
 2168SOL     OW 7402   0.965   1.653   3.622
 2168SOL    HW1 7403   1.062   1.668   3.645
 2168SOL    HW2 7404   0.912   1.732   3.649
 2169SOL     OW 7405   5.367   2.200   5.417
 2169SOL    HW1 7406   5.391   2.244   5.503
 2169SOL    HW2 7407   5.450   2.165   5.373
 2170SOL     OW 7408   6.415   5.466   5.334
 2170SOL    HW1 7409   6.387   5.487   5.428
 2170SOL    HW2 7410   6.356   5.394   5.297
 2171SOL     OW 7411   6.720   3.486   1.740
 2171SOL    HW1 7412   6.753   3.568   1.694
 2171SOL    HW2 7413   6.694   3.418   1.671
 2172SOL     OW 7414   2.396   2.508   0.231
 2172SOL    HW1 7415   2.359   2.597   0.205
 2172SOL    HW2 7416   2.412   2.505   0.330
 2173SOL     OW 7417   4.155   0.520   5.055
 2173SOL    HW1 7418   4.142   0.463   5.136
 2173SOL    HW2 7419   4.185   0.611   5.083
 2174SOL     OW 7420   5.486   5.189   5.422
 2174SOL    HW1 7421   5.544   5.109   5.405
 2174SOL    HW2 7422   5.529   5.270   5.383
 2175SOL     OW 7423   2.646   2.150   4.301
 2175SOL    HW1 7424   2.700   2.089   4.359
 2175SOL    HW2 7425   2.551   2.121   4.302
 2176SOL     OW 7426   0.576   3.147   0.058
 2176SOL    HW1 7427   0.632   3.203   0.119
 2176SOL    HW2 7428   0.618   3.057   0.048
 2177SOL     OW 7429   6.691   1.145   3.911
 2177SOL    HW1 7430   6.681   1.235   3.952
 2177SOL    HW2 7431   6.755   1.150   3.834
 2178SOL     OW 7432   0.975   3.748   0.153
 2178SOL    HW1 7433   1.007   3.665   0.107
 2178SOL    HW2 7434   1.051   3.811   0.166
 2179SOL     OW 7435   1.566   5.386   4.759
 2179SOL    HW1 7436   1.646   5.326   4.750
 2179SOL    HW2 7437   1.483   5.332   4.744
 2180SOL     OW 7438   2.253   3.209   1.810
 2180SOL    HW1 7439   2.310   3.290   1.828
 2180SOL    HW2 7440   2.163   3.221   1.852
 2181SOL     OW 7441   4.819   4.377   5.487
 2181SOL    HW1 7442   4.781   4.397   5.397
 2181SOL    HW2 7443   4.855   4.283   5.488
 2182SOL     OW 7444   0.504   3.371   5.363
 2182SOL    HW1 7445   0.524   3.444   5.298
 2182SOL    HW2 7446   0.491   3.410   5.454
 2183SOL     OW 7447   3.394   3.954   5.891
 2183SOL    HW1 7448   3.415   4.051   5.908
 2183SOL    HW2 7449   3.297   3.945   5.869
 2184SOL     OW 7450   4.443   1.361   6.003
 2184SOL    HW1 7451   4.458   1.460   6.013
 2184SOL    HW2 7452   4.488   1.329   5.921
 2185SOL     OW 7453   1.364   1.698   1.072
 2185SOL    HW1 7454   1.329   1.659   1.157
 2185SOL    HW2 7455   1.288   1.728   1.015
 2186SOL     OW 7456   6.634   5.229   2.023
 2186SOL    HW1 7457   6.629   5.226   2.123
 2186SOL    HW2 7458   6.729   5.241   1.994
 2187SOL     OW 7459   6.764   1.438   1.849
 2187SOL    HW1 7460   6.667   1.424   1.828
 2187SOL    HW2 7461   6.780   1.414   1.945
 2188SOL     OW 7462   5.678   5.800   4.415
 2188SOL    HW1 7463   5.698   5.762   4.325
 2188SOL    HW2 7464   5.761   5.844   4.452
 2189SOL     OW 7465   1.778   6.440   0.186
 2189SOL    HW1 7466   1.797   6.350   0.147
 2189SOL    HW2 7467   1.823   6.511   0.131
 2190SOL     OW 7468   0.699   2.612   1.975
 2190SOL    HW1 7469   0.619   2.639   2.029
 2190SOL    HW2 7470   0.669   2.565   1.892
 2191SOL     OW 7471   2.758   2.017   6.139
 2191SOL    HW1 7472   2.770   1.978   6.047
 2191SOL    HW2 7473   2.664   2.000   6.169
 2192SOL     OW 7474   3.565   0.275   3.481
 2192SOL    HW1 7475   3.638   0.224   3.434
 2192SOL    HW2 7476   3.563   0.369   3.446
 2193SOL     OW 7477   6.745   5.691   6.019
 2193SOL    HW1 7478   6.757   5.607   5.965
 2193SOL    HW2 7479   6.745   5.667   6.116
 2194SOL     OW 7480   2.103   4.860   6.394
 2194SOL    HW1 7481   2.126   4.954   6.371
 2194SOL    HW2 7482   2.008   4.856   6.427
 2195SOL     OW 7483   6.915   0.174   3.803
 2195SOL    HW1 7484   7.010   0.167   3.771
 2195SOL    HW2 7485   6.867   0.089   3.783
 2196SOL     OW 7486   3.419   0.122   5.174
 2196SOL    HW1 7487   3.344   0.177   5.209
 2196SOL    HW2 7488   3.423   0.130   5.074
 2197SOL     OW 7489   3.473   3.235   1.559
 2197SOL    HW1 7490   3.385   3.233   1.512
 2197SOL    HW2 7491   3.472   3.168   1.633
 2198SOL     OW 7492   6.843   1.506   0.069
 2198SOL    HW1 7493   6.889   1.489   0.156
 2198SOL    HW2 7494   6.888   1.582   0.021
 2199SOL     OW 7495   4.689   1.058   3.129
 2199SOL    HW1 7496   4.592   1.036   3.132
 2199SOL    HW2 7497   4.717   1.101   3.215
 2200SOL     OW 7498   3.404   0.422   4.866
 2200SOL    HW1 7499   3.416   0.427   4.767
 2200SOL    HW2 7500   3.423   0.511   4.906
 2201SOL     OW 7501   6.326   2.523   2.742
 2201SOL    HW1 7502   6.261   2.599   2.736
 2201SOL    HW2 7503   6.280   2.444   2.782
 2202SOL     OW 7504   2.944   4.775   2.986
 2202SOL    HW1 7505   2.871   4.709   2.966
 2202SOL    HW2 7506   2.948   4.843   2.913
 2203SOL     OW 7507   2.726   3.073   1.135
 2203SOL    HW1 7508   2.809   3.127   1.118
 2203SOL    HW2 7509   2.667   3.122   1.198
 2204SOL     OW 7510   3.690   1.679   6.582
 2204SOL    HW1 7511   3.771   1.738   6.586
 2204SOL    HW2 7512   3.689   1.629   6.496
 2205SOL     OW 7513   1.981   6.906   6.140
 2205SOL    HW1 7514   1.964   6.968   6.064
 2205SOL    HW2 7515   1.930   6.821   6.125
 2206SOL     OW 7516   2.328   4.257   5.691
 2206SOL    HW1 7517   2.376   4.173   5.664
 2206SOL    HW2 7518   2.359   4.285   5.782
 2207SOL     OW 7519   2.141   3.409   6.826
 2207SOL    HW1 7520   2.112   3.335   6.885
 2207SOL    HW2 7521   2.145   3.494   6.878
 2208SOL     OW 7522   1.711   5.946   2.367
 2208SOL    HW1 7523   1.692   6.033   2.412
 2208SOL    HW2 7524   1.700   5.871   2.433
 2209SOL     OW 7525   0.970   5.621   5.833
 2209SOL    HW1 7526   0.990   5.526   5.810
 2209SOL    HW2 7527   0.874   5.640   5.813
 2210SOL     OW 7528   0.050   4.688   4.476
 2210SOL    HW1 7529   6.986   4.697   4.516
 2210SOL    HW2 7530   0.109   4.637   4.539
 2211SOL     OW 7531   5.467   0.711   0.262
 2211SOL    HW1 7532   5.382   0.763   0.252
 2211SOL    HW2 7533   5.449   0.627   0.312
 2212SOL     OW 7534   2.397   6.261   6.676
 2212SOL    HW1 7535   2.419   6.169   6.642
 2212SOL    HW2 7536   2.343   6.252   6.760
 2213SOL     OW 7537   3.940   2.783   5.438
 2213SOL    HW1 7538   3.948   2.683   5.429
 2213SOL    HW2 7539   3.844   2.807   5.448
 2214SOL     OW 7540   4.542   3.099   5.862
 2214SOL    HW1 7541   4.468   3.109   5.929
 2214SOL    HW2 7542   4.523   3.155   5.782
 2215SOL     OW 7543   6.237   1.815   6.751
 2215SOL    HW1 7544   6.320   1.777   6.711
 2215SOL    HW2 7545   6.260   1.896   6.805
 2216SOL     OW 7546   1.680   0.594   5.956
 2216SOL    HW1 7547   1.763   0.612   6.008
 2216SOL    HW2 7548   1.651   0.499   5.972
 2217SOL     OW 7549   3.776   0.211   1.225
 2217SOL    HW1 7550   3.718   0.291   1.218
 2217SOL    HW2 7551   3.786   0.185   1.321
 2218SOL     OW 7552   0.623   6.664   0.777
 2218SOL    HW1 7553   0.594   6.758   0.759
 2218SOL    HW2 7554   0.544   6.603   0.768
 2219SOL     OW 7555   0.462   2.663   2.141
 2219SOL    HW1 7556   0.465   2.600   2.218
 2219SOL    HW2 7557   0.381   2.645   2.085
 2220SOL     OW 7558   0.791   0.897   4.410
 2220SOL    HW1 7559   0.718   0.885   4.477
 2220SOL    HW2 7560   0.829   0.989   4.418
 2221SOL     OW 7561   6.618   0.435   5.417
 2221SOL    HW1 7562   6.594   0.496   5.493
 2221SOL    HW2 7563   6.547   0.364   5.408
 2222SOL     OW 7564   4.053   0.605   0.399
 2222SOL    HW1 7565   4.070   0.694   0.356
 2222SOL    HW2 7566   3.969   0.565   0.361
 2223SOL     OW 7567   6.290   0.146   3.860
 2223SOL    HW1 7568   6.196   0.125   3.833
 2223SOL    HW2 7569   6.291   0.171   3.957
 2224SOL     OW 7570   1.723   4.390   1.665
 2224SOL    HW1 7571   1.812   4.365   1.626
 2224SOL    HW2 7572   1.652   4.379   1.596
 2225SOL     OW 7573   6.310   5.718   3.070
 2225SOL    HW1 7574   6.222   5.746   3.107
 2225SOL    HW2 7575   6.349   5.792   3.015
 2226SOL     OW 7576   4.155   5.065   0.653
 2226SOL    HW1 7577   4.137   4.986   0.594
 2226SOL    HW2 7578   4.197   5.034   0.738
 2227SOL     OW 7579   5.347   3.580   0.872
 2227SOL    HW1 7580   5.435   3.587   0.917
 2227SOL    HW2 7581   5.277   3.553   0.938
 2228SOL     OW 7582   2.771   5.229   1.495
 2228SOL    HW1 7583   2.693   5.231   1.558
 2228SOL    HW2 7584   2.765   5.147   1.438
 2229SOL     OW 7585   4.158   1.602   4.493
 2229SOL    HW1 7586   4.133   1.682   4.547
 2229SOL    HW2 7587   4.219   1.630   4.418
 2230SOL     OW 7588   6.336   5.578   5.575
 2230SOL    HW1 7589   6.241   5.551   5.560
 2230SOL    HW2 7590   6.351   5.670   5.541
 2231SOL     OW 7591   0.546   0.962   1.303
 2231SOL    HW1 7592   0.549   1.042   1.363
 2231SOL    HW2 7593   0.566   0.990   1.209
 2232SOL     OW 7594   1.768   2.514   4.293
 2232SOL    HW1 7595   1.772   2.608   4.329
 2232SOL    HW2 7596   1.803   2.513   4.200
 2233SOL     OW 7597   2.378   4.587   1.425
 2233SOL    HW1 7598   2.473   4.579   1.458
 2233SOL    HW2 7599   2.379   4.612   1.328
 2234SOL     OW 7600   4.585   2.207   1.922
 2234SOL    HW1 7601   4.532   2.135   1.878
 2234SOL    HW2 7602   4.527   2.287   1.935
 2235SOL     OW 7603   1.916   0.662   1.258
 2235SOL    HW1 7604   1.913   0.653   1.358
 2235SOL    HW2 7605   1.952   0.577   1.218
 2236SOL     OW 7606   0.728   4.334   6.656
 2236SOL    HW1 7607   0.633   4.323   6.628
 2236SOL    HW2 7608   0.752   4.265   6.724
 2237SOL     OW 7609   5.250   4.493   4.179
 2237SOL    HW1 7610   5.321   4.455   4.238
 2237SOL    HW2 7611   5.164   4.442   4.193
 2238SOL     OW 7612   5.734   5.317   1.888
 2238SOL    HW1 7613   5.654   5.320   1.948
 2238SOL    HW2 7614   5.715   5.260   1.808
 2239SOL     OW 7615   3.829   5.350   3.373
 2239SOL    HW1 7616   3.769   5.430   3.364
 2239SOL    HW2 7617   3.854   5.317   3.282
 2240SOL     OW 7618   5.744   5.920   3.947
 2240SOL    HW1 7619   5.721   5.929   3.850
 2240SOL    HW2 7620   5.661   5.904   4.000
 2241SOL     OW 7621   0.248   0.187   2.055
 2241SOL    HW1 7622   0.280   0.169   2.148
 2241SOL    HW2 7623   0.148   0.181   2.052
 2242SOL     OW 7624   5.021   2.650   3.012
 2242SOL    HW1 7625   5.067   2.567   2.978
 2242SOL    HW2 7626   4.967   2.626   3.093
 2243SOL     OW 7627   2.696   6.129   5.368
 2243SOL    HW1 7628   2.676   6.035   5.338
 2243SOL    HW2 7629   2.682   6.135   5.467
 2244SOL     OW 7630   2.681   0.483   2.489
 2244SOL    HW1 7631   2.653   0.460   2.582
 2244SOL    HW2 7632   2.713   0.578   2.486
 2245SOL     OW 7633   0.477   1.449   2.073
 2245SOL    HW1 7634   0.494   1.450   2.172
 2245SOL    HW2 7635   0.542   1.510   2.028
 2246SOL     OW 7636   1.204   1.234   5.568
 2246SOL    HW1 7637   1.241   1.241   5.660
 2246SOL    HW2 7638   1.268   1.183   5.510
 2247SOL     OW 7639   2.650   2.875   5.577
 2247SOL    HW1 7640   2.587   2.798   5.585
 2247SOL    HW2 7641   2.638   2.937   5.655
 2248SOL     OW 7642   3.910   3.780   6.577
 2248SOL    HW1 7643   3.844   3.712   6.544
 2248SOL    HW2 7644   4.001   3.759   6.541
 2249SOL     OW 7645   6.228   6.047   2.359
 2249SOL    HW1 7646   6.266   5.987   2.289
 2249SOL    HW2 7647   6.255   6.013   2.450
 2250SOL     OW 7648   4.546   3.803   0.577
 2250SOL    HW1 7649   4.603   3.804   0.495
 2250SOL    HW2 7650   4.496   3.890   0.584
 2251SOL     OW 7651   5.208   1.433   0.235
 2251SOL    HW1 7652   5.292   1.386   0.208
 2251SOL    HW2 7653   5.147   1.368   0.280
 2252SOL     OW 7654   6.235   1.962   3.249
 2252SOL    HW1 7655   6.195   1.972   3.158
 2252SOL    HW2 7656   6.227   1.867   3.279
 2253SOL     OW 7657   1.020   3.812   6.761
 2253SOL    HW1 7658   1.117   3.789   6.749
 2253SOL    HW2 7659   0.964   3.731   6.744
 2254SOL     OW 7660   2.145   3.503   5.516
 2254SOL    HW1 7661   2.108   3.451   5.439
 2254SOL    HW2 7662   2.169   3.441   5.590
 2255SOL     OW 7663   4.738   2.468   0.281
 2255SOL    HW1 7664   4.647   2.495   0.248
 2255SOL    HW2 7665   4.808   2.513   0.225
 2256SOL     OW 7666   3.791   6.377   1.578
 2256SOL    HW1 7667   3.879   6.342   1.611
 2256SOL    HW2 7668   3.778   6.471   1.611
 2257SOL     OW 7669   6.917   2.261   3.898
 2257SOL    HW1 7670   7.017   2.254   3.893
 2257SOL    HW2 7671   6.889   2.356   3.885
 2258SOL     OW 7672   1.221   4.902   5.311
 2258SOL    HW1 7673   1.288   4.833   5.284
 2258SOL    HW2 7674   1.261   4.993   5.302
 2259SOL     OW 7675   4.864   4.413   6.499
 2259SOL    HW1 7676   4.898   4.319   6.501
 2259SOL    HW2 7677   4.916   4.468   6.564
 2260SOL     OW 7678   6.109   4.669   3.111
 2260SOL    HW1 7679   6.095   4.572   3.129
 2260SOL    HW2 7680   6.181   4.704   3.170
 2261SOL     OW 7681   6.263   6.948   1.040
 2261SOL    HW1 7682   6.199   6.973   0.968
 2261SOL    HW2 7683   6.295   0.005   1.087
 2262SOL     OW 7684   5.087   2.148   2.415
 2262SOL    HW1 7685   5.037   2.061   2.410
 2262SOL    HW2 7686   5.045   2.207   2.483
 2263SOL     OW 7687   2.592   6.070   6.227
 2263SOL    HW1 7688   2.596   6.170   6.230
 2263SOL    HW2 7689   2.683   6.035   6.203
 2264SOL     OW 7690   3.088   3.018   0.979
 2264SOL    HW1 7691   3.021   3.054   1.045
 2264SOL    HW2 7692   3.180   3.047   1.006
 2265SOL     OW 7693   0.552   0.195   3.470
 2265SOL    HW1 7694   0.534   0.135   3.391
 2265SOL    HW2 7695   0.635   0.249   3.453
 2266SOL     OW 7696   6.000   1.837   1.581
 2266SOL    HW1 7697   5.961   1.906   1.521
 2266SOL    HW2 7698   6.038   1.762   1.526
 2267SOL     OW 7699   4.766   2.488   5.074
 2267SOL    HW1 7700   4.691   2.554   5.080
 2267SOL    HW2 7701   4.730   2.399   5.047
 2268SOL     OW 7702   6.247   4.082   6.280
 2268SOL    HW1 7703   6.305   4.147   6.232
 2268SOL    HW2 7704   6.182   4.132   6.338
 2269SOL     OW 7705   5.603   5.887   4.816
 2269SOL    HW1 7706   5.534   5.938   4.765
 2269SOL    HW2 7707   5.682   5.869   4.758
 2270SOL     OW 7708   3.247   2.425   6.274
 2270SOL    HW1 7709   3.294   2.396   6.191
 2270SOL    HW2 7710   3.148   2.417   6.260
 2271SOL     OW 7711   6.281   3.912   0.672
 2271SOL    HW1 7712   6.375   3.934   0.645
 2271SOL    HW2 7713   6.229   3.996   0.685
 2272SOL     OW 7714   5.643   1.363   5.203
 2272SOL    HW1 7715   5.688   1.353   5.292
 2272SOL    HW2 7716   5.689   1.304   5.136
 2273SOL     OW 7717   1.542   0.848   2.008
 2273SOL    HW1 7718   1.547   0.750   2.027
 2273SOL    HW2 7719   1.599   0.870   1.929
 2274SOL     OW 7720   1.749   2.539   6.082
 2274SOL    HW1 7721   1.819   2.473   6.110
 2274SOL    HW2 7722   1.679   2.545   6.153
 2275SOL     OW 7723   5.628   0.497   4.564
 2275SOL    HW1 7724   5.694   0.572   4.571
 2275SOL    HW2 7725   5.658   0.421   4.622
 2276SOL     OW 7726   2.734   4.765   1.166
 2276SOL    HW1 7727   2.748   4.863   1.182
 2276SOL    HW2 7728   2.818   4.724   1.132
 2277SOL     OW 7729   3.628   3.298   5.064
 2277SOL    HW1 7730   3.615   3.391   5.098
 2277SOL    HW2 7731   3.610   3.232   5.138
 2278SOL     OW 7732   6.145   5.852   3.867
 2278SOL    HW1 7733   6.238   5.879   3.892
 2278SOL    HW2 7734   6.144   5.823   3.771
 2279SOL     OW 7735   4.922   5.641   4.422
 2279SOL    HW1 7736   4.868   5.557   4.432
 2279SOL    HW2 7737   4.862   5.715   4.391
 2280SOL     OW 7738   6.935   6.481   4.847
 2280SOL    HW1 7739   6.838   6.498   4.863
 2280SOL    HW2 7740   6.989   6.558   4.881
 2281SOL     OW 7741   3.497   1.131   1.865
 2281SOL    HW1 7742   3.528   1.123   1.960
 2281SOL    HW2 7743   3.406   1.172   1.864
 2282SOL     OW 7744   5.369   6.827   4.929
 2282SOL    HW1 7745   5.295   6.889   4.903
 2282SOL    HW2 7746   5.457   6.874   4.918
 2283SOL     OW 7747   6.482   4.626   1.698
 2283SOL    HW1 7748   6.581   4.637   1.684
 2283SOL    HW2 7749   6.457   4.530   1.683
 2284SOL     OW 7750   2.351   1.504   0.384
 2284SOL    HW1 7751   2.342   1.405   0.382
 2284SOL    HW2 7752   2.282   1.543   0.445
 2285SOL     OW 7753   1.457   2.542   0.449
 2285SOL    HW1 7754   1.424   2.454   0.483
 2285SOL    HW2 7755   1.484   2.600   0.526
 2286SOL     OW 7756   0.454   0.075   4.530
 2286SOL    HW1 7757   0.536   0.091   4.585
 2286SOL    HW2 7758   0.395   0.156   4.535
 2287SOL     OW 7759   2.261   2.506   1.880
 2287SOL    HW1 7760   2.337   2.571   1.884
 2287SOL    HW2 7761   2.187   2.545   1.825
 2288SOL     OW 7762   6.827   4.612   4.565
 2288SOL    HW1 7763   6.852   4.517   4.581
 2288SOL    HW2 7764   6.733   4.617   4.531
 2289SOL     OW 7765   6.103   4.552   2.650
 2289SOL    HW1 7766   6.148   4.464   2.637
 2289SOL    HW2 7767   6.058   4.554   2.740
 2290SOL     OW 7768   1.664   3.746   1.914
 2290SOL    HW1 7769   1.715   3.660   1.925
 2290SOL    HW2 7770   1.726   3.816   1.877
 2291SOL     OW 7771   1.962   2.108   0.387
 2291SOL    HW1 7772   2.005   2.054   0.314
 2291SOL    HW2 7773   1.898   2.051   0.438
 2292SOL     OW 7774   5.879   2.549   3.853
 2292SOL    HW1 7775   5.837   2.459   3.852
 2292SOL    HW2 7776   5.845   2.603   3.776
 2293SOL     OW 7777   6.396   6.703   1.151
 2293SOL    HW1 7778   6.486   6.736   1.180
 2293SOL    HW2 7779   6.355   6.770   1.089
 2294SOL     OW 7780   3.329   1.456   6.477
 2294SOL    HW1 7781   3.298   1.363   6.497
 2294SOL    HW2 7782   3.334   1.509   6.562
 2295SOL     OW 7783   0.255   1.661   2.785
 2295SOL    HW1 7784   0.175   1.666   2.846
 2295SOL    HW2 7785   0.240   1.720   2.706
 2296SOL     OW 7786   3.738   5.601   2.386
 2296SOL    HW1 7787   3.792   5.521   2.410
 2296SOL    HW2 7788   3.641   5.576   2.383
 2297SOL     OW 7789   4.800   4.404   5.761
 2297SOL    HW1 7790   4.807   4.397   5.662
 2297SOL    HW2 7791   4.773   4.316   5.799
 2298SOL     OW 7792   4.058   3.676   2.181
 2298SOL    HW1 7793   4.017   3.727   2.257
 2298SOL    HW2 7794   4.156   3.696   2.176
 2299SOL     OW 7795   4.739   4.907   5.315
 2299SOL    HW1 7796   4.764   4.886   5.410
 2299SOL    HW2 7797   4.811   4.875   5.254
 2300SOL     OW 7798   2.143   6.129   3.434
 2300SOL    HW1 7799   2.100   6.060   3.492
 2300SOL    HW2 7800   2.171   6.207   3.489
 2301SOL     OW 7801   3.920   3.000   3.415
 2301SOL    HW1 7802   4.005   3.052   3.414
 2301SOL    HW2 7803   3.903   2.965   3.507
 2302SOL     OW 7804   3.975   0.456   0.996
 2302SOL    HW1 7805   3.921   0.374   0.972
 2302SOL    HW2 7806   3.914   0.535   1.002
 2303SOL     OW 7807   2.806   3.239   0.668
 2303SOL    HW1 7808   2.891   3.187   0.659
 2303SOL    HW2 7809   2.741   3.210   0.599
 2304SOL     OW 7810   5.718   6.675   4.401
 2304SOL    HW1 7811   5.693   6.611   4.474
 2304SOL    HW2 7812   5.662   6.757   4.409
 2305SOL     OW 7813   1.995   0.323   3.013
 2305SOL    HW1 7814   2.078   0.314   3.068
 2305SOL    HW2 7815   1.920   0.275   3.059
 2306SOL     OW 7816   2.131   5.420   1.990
 2306SOL    HW1 7817   2.183   5.445   2.072
 2306SOL    HW2 7818   2.109   5.503   1.939
 2307SOL     OW 7819   0.253   2.833   4.384
 2307SOL    HW1 7820   0.161   2.817   4.348
 2307SOL    HW2 7821   0.301   2.897   4.325
 2308SOL     OW 7822   2.788   4.961   1.398
 2308SOL    HW1 7823   2.706   4.926   1.441
 2308SOL    HW2 7824   2.852   4.886   1.380
 2309SOL     OW 7825   1.923   0.774   5.584
 2309SOL    HW1 7826   1.874   0.832   5.650
 2309SOL    HW2 7827   2.018   0.766   5.612
 2310SOL     OW 7828   5.678   5.523   1.271
 2310SOL    HW1 7829   5.697   5.468   1.352
 2310SOL    HW2 7830   5.604   5.587   1.290
 2311SOL     OW 7831   2.443   6.634   1.119
 2311SOL    HW1 7832   2.421   6.548   1.165
 2311SOL    HW2 7833   2.533   6.666   1.149
 2312SOL     OW 7834   4.928   5.700   3.073
 2312SOL    HW1 7835   4.896   5.661   3.160
 2312SOL    HW2 7836   4.952   5.796   3.086
 2313SOL     OW 7837   4.674   5.791   2.068
 2313SOL    HW1 7838   4.722   5.794   1.980
 2313SOL    HW2 7839   4.647   5.884   2.093
 2314SOL     OW 7840   5.307   5.865   3.300
 2314SOL    HW1 7841   5.306   5.817   3.387
 2314SOL    HW2 7842   5.252   5.815   3.233
 2315SOL     OW 7843   5.243   2.930   6.083
 2315SOL    HW1 7844   5.245   3.029   6.074
 2315SOL    HW2 7845   5.238   2.905   6.180
 2316SOL     OW 7846   3.936   1.787   3.994
 2316SOL    HW1 7847   3.987   1.842   3.929
 2316SOL    HW2 7848   3.967   1.692   3.989
 2317SOL     OW 7849   0.550   5.727   3.209
 2317SOL    HW1 7850   0.485   5.788   3.164
 2317SOL    HW2 7851   0.581   5.657   3.144
 2318SOL     OW 7852   0.846   2.826   3.582
 2318SOL    HW1 7853   0.786   2.786   3.652
 2318SOL    HW2 7854   0.799   2.902   3.537
 2319SOL     OW 7855   2.089   5.007   3.368
 2319SOL    HW1 7856   2.063   4.914   3.343
 2319SOL    HW2 7857   2.105   5.013   3.466
 2320SOL     OW 7858   0.909   2.085   4.005
 2320SOL    HW1 7859   0.955   2.086   3.916
 2320SOL    HW2 7860   0.812   2.104   3.992
 2321SOL     OW 7861   3.258   0.330   5.744
 2321SOL    HW1 7862   3.170   0.329   5.697
 2321SOL    HW2 7863   3.310   0.410   5.715
 2322SOL     OW 7864   2.437   1.459   4.867
 2322SOL    HW1 7865   2.502   1.532   4.887
 2322SOL    HW2 7866   2.436   1.441   4.768
 2323SOL     OW 7867   2.724   4.877   1.985
 2323SOL    HW1 7868   2.752   4.781   1.985
 2323SOL    HW2 7869   2.795   4.933   2.026
 2324SOL     OW 7870   6.738   6.212   2.631
 2324SOL    HW1 7871   6.780   6.294   2.670
 2324SOL    HW2 7872   6.809   6.149   2.599
 2325SOL     OW 7873   0.697   4.686   1.146
 2325SOL    HW1 7874   0.669   4.741   1.225
 2325SOL    HW2 7875   0.790   4.712   1.119
 2326SOL     OW 7876   3.392   4.695   5.301
 2326SOL    HW1 7877   3.360   4.777   5.349
 2326SOL    HW2 7878   3.346   4.614   5.339
 2327SOL     OW 7879   5.929   3.571   4.643
 2327SOL    HW1 7880   6.022   3.542   4.625
 2327SOL    HW2 7881   5.867   3.492   4.636
 2328SOL     OW 7882   3.754   1.771   3.397
 2328SOL    HW1 7883   3.727   1.868   3.393
 2328SOL    HW2 7884   3.770   1.738   3.304
 2329SOL     OW 7885   1.670   4.879   5.212
 2329SOL    HW1 7886   1.732   4.905   5.286
 2329SOL    HW2 7887   1.669   4.950   5.142
 2330SOL     OW 7888   6.932   4.312   2.278
 2330SOL    HW1 7889   6.962   4.333   2.372
 2330SOL    HW2 7890   7.003   4.259   2.232
 2331SOL     OW 7891   6.567   4.102   0.081
 2331SOL    HW1 7892   6.498   4.072   0.015
 2331SOL    HW2 7893   6.636   4.030   0.092
 2332SOL     OW 7894   4.095   1.821   5.530
 2332SOL    HW1 7895   4.079   1.736   5.478
 2332SOL    HW2 7896   4.062   1.809   5.624
 2333SOL     OW 7897   6.751   5.304   3.051
 2333SOL    HW1 7898   6.677   5.310   3.118
 2333SOL    HW2 7899   6.832   5.265   3.096
 2334SOL     OW 7900   2.255   0.135   6.956
 2334SOL    HW1 7901   2.220   0.103   0.018
 2334SOL    HW2 7902   2.349   0.103   6.944
 2335SOL     OW 7903   5.864   1.033   3.114
 2335SOL    HW1 7904   5.783   1.034   3.171
 2335SOL    HW2 7905   5.944   1.061   3.167
 2336SOL     OW 7906   4.174   1.889   5.252
 2336SOL    HW1 7907   4.134   1.884   5.344
 2336SOL    HW2 7908   4.199   1.983   5.232
 2337SOL     OW 7909   4.356   1.333   3.570
 2337SOL    HW1 7910   4.297   1.336   3.650
 2337SOL    HW2 7911   4.452   1.336   3.599
 2338SOL     OW 7912   1.326   0.910   6.927
 2338SOL    HW1 7913   1.308   0.812   6.936
 2338SOL    HW2 7914   1.425   0.924   6.917
 2339SOL     OW 7915   3.876   3.250   4.929
 2339SOL    HW1 7916   3.791   3.266   4.978
 2339SOL    HW2 7917   3.887   3.152   4.911
 2340SOL     OW 7918   5.238   6.169   6.075
 2340SOL    HW1 7919   5.233   6.090   6.135
 2340SOL    HW2 7920   5.184   6.244   6.113
 2341SOL     OW 7921   4.886   3.421   1.166
 2341SOL    HW1 7922   4.840   3.339   1.135
 2341SOL    HW2 7923   4.858   3.499   1.110
 2342SOL     OW 7924   0.516   5.858   5.854
 2342SOL    HW1 7925   0.469   5.911   5.925
 2342SOL    HW2 7926   0.460   5.778   5.831
 2343SOL     OW 7927   1.897   6.215   2.049
 2343SOL    HW1 7928   1.994   6.216   2.024
 2343SOL    HW2 7929   1.874   6.126   2.089
 2344SOL     OW 7930   1.684   1.337   1.218
 2344SOL    HW1 7931   1.679   1.259   1.156
 2344SOL    HW2 7932   1.779   1.364   1.230
 2345SOL     OW 7933   2.078   5.696   5.306
 2345SOL    HW1 7934   2.078   5.627   5.379
 2345SOL    HW2 7935   2.111   5.783   5.344
 2346SOL     OW 7936   4.968   3.602   4.827
 2346SOL    HW1 7937   4.894   3.590   4.893
 2346SOL    HW2 7938   4.967   3.525   4.763
 2347SOL     OW 7939   1.929   4.309   1.510
 2347SOL    HW1 7940   2.016   4.357   1.516
 2347SOL    HW2 7941   1.888   4.326   1.421
 2348SOL     OW 7942   3.270   6.070   3.092
 2348SOL    HW1 7943   3.300   5.979   3.120
 2348SOL    HW2 7944   3.320   6.139   3.145
 2349SOL     OW 7945   0.612   5.740   6.888
 2349SOL    HW1 7946   0.558   5.720   6.806
 2349SOL    HW2 7947   0.695   5.790   6.862
 2350SOL     OW 7948   4.921   7.026   6.304
 2350SOL    HW1 7949   5.010   0.020   6.345
 2350SOL    HW2 7950   4.873   6.959   6.360
 2351SOL     OW 7951   3.264   4.972   2.641
 2351SOL    HW1 7952   3.295   5.062   2.672
 2351SOL    HW2 7953   3.234   4.918   2.719
 2352SOL     OW 7954   0.694   4.500   2.569
 2352SOL    HW1 7955   0.599   4.522   2.593
 2352SOL    HW2 7956   0.740   4.460   2.648
 2353SOL     OW 7957   2.956   4.846   4.403
 2353SOL    HW1 7958   3.036   4.879   4.452
 2353SOL    HW2 7959   2.885   4.819   4.468
 2354SOL     OW 7960   3.413   2.602   6.413
 2354SOL    HW1 7961   3.352   2.681   6.416
 2354SOL    HW2 7962   3.361   2.518   6.428
 2355SOL     OW 7963   0.954   5.022   6.667
 2355SOL    HW1 7964   0.956   4.922   6.666
 2355SOL    HW2 7965   0.904   5.055   6.586
 2356SOL     OW 7966   2.654   3.865   0.779
 2356SOL    HW1 7967   2.659   3.959   0.743
 2356SOL    HW2 7968   2.639   3.802   0.703
 2357SOL     OW 7969   3.722   5.195   3.871
 2357SOL    HW1 7970   3.792   5.177   3.940
 2357SOL    HW2 7971   3.658   5.118   3.867
 2358SOL     OW 7972   2.953   5.422   4.724
 2358SOL    HW1 7973   2.916   5.384   4.640
 2358SOL    HW2 7974   2.900   5.503   4.750
 2359SOL     OW 7975   1.025   1.674   5.808
 2359SOL    HW1 7976   1.094   1.743   5.786
 2359SOL    HW2 7977   1.070   1.590   5.837
 2360SOL     OW 7978   4.499   5.943   5.212
 2360SOL    HW1 7979   4.583   5.991   5.188
 2360SOL    HW2 7980   4.509   5.902   5.303
 2361SOL     OW 7981   2.535   0.553   4.331
 2361SOL    HW1 7982   2.456   0.515   4.381
 2361SOL    HW2 7983   2.522   0.651   4.320
 2362SOL     OW 7984   4.261   7.001   5.412
 2362SOL    HW1 7985   4.319   6.921   5.427
 2362SOL    HW2 7986   4.173   6.987   5.457
 2363SOL     OW 7987   4.690   2.230   5.299
 2363SOL    HW1 7988   4.601   2.275   5.301
 2363SOL    HW2 7989   4.762   2.298   5.318
 2364SOL     OW 7990   6.285   1.876   2.799
 2364SOL    HW1 7991   6.301   1.970   2.770
 2364SOL    HW2 7992   6.196   1.869   2.844
 2365SOL     OW 7993   5.817   3.790   5.490
 2365SOL    HW1 7994   5.751   3.751   5.555
 2365SOL    HW2 7995   5.899   3.733   5.488
 2366SOL     OW 7996   1.213   3.540   5.808
 2366SOL    HW1 7997   1.277   3.473   5.770
 2366SOL    HW2 7998   1.185   3.604   5.736
 2367SOL     OW 7999   1.709   3.817   6.696
 2367SOL    HW1 8000   1.750   3.900   6.733
 2367SOL    HW2 8001   1.780   3.758   6.659
 2368SOL     OW 8002   4.986   1.278   4.691
 2368SOL    HW1 8003   5.029   1.368   4.698
 2368SOL    HW2 8004   4.955   1.263   4.598
 2369SOL     OW 8005   2.325   2.773   3.894
 2369SOL    HW1 8006   2.327   2.776   3.994
 2369SOL    HW2 8007   2.268   2.697   3.864
 2370SOL     OW 8008   4.347   4.415   6.939
 2370SOL    HW1 8009   4.280   4.358   6.892
 2370SOL    HW2 8010   4.420   4.442   6.875
 2371SOL     OW 8011   1.798   5.913   2.103
 2371SOL    HW1 8012   1.791   5.823   2.059
 2371SOL    HW2 8013   1.760   5.909   2.195
 2372SOL     OW 8014   0.629   1.873   0.257
 2372SOL    HW1 8015   0.708   1.929   0.282
 2372SOL    HW2 8016   0.635   1.785   0.303
 2373SOL     OW 8017   6.324   1.500   6.738
 2373SOL    HW1 8018   6.263   1.464   6.809
 2373SOL    HW2 8019   6.289   1.474   6.648
 2374SOL     OW 8020   6.437   5.636   3.487
 2374SOL    HW1 8021   6.342   5.620   3.460
 2374SOL    HW2 8022   6.441   5.710   3.554
 2375SOL     OW 8023   1.278   6.538   4.597
 2375SOL    HW1 8024   1.358   6.530   4.656
 2375SOL    HW2 8025   1.306   6.537   4.501
 2376SOL     OW 8026   6.221   2.833   3.740
 2376SOL    HW1 8027   6.291   2.903   3.734
 2376SOL    HW2 8028   6.255   2.754   3.792
 2377SOL     OW 8029   3.394   3.476   4.235
 2377SOL    HW1 8030   3.460   3.470   4.160
 2377SOL    HW2 8031   3.321   3.539   4.210
 2378SOL     OW 8032   5.197   2.052   6.429
 2378SOL    HW1 8033   5.104   2.045   6.393
 2378SOL    HW2 8034   5.194   2.044   6.529
 2379SOL     OW 8035   6.853   2.567   6.969
 2379SOL    HW1 8036   6.900   2.485   6.937
 2379SOL    HW2 8037   6.765   2.541   7.010
 2380SOL     OW 8038   6.825   0.623   5.624
 2380SOL    HW1 8039   6.791   0.637   5.718
 2380SOL    HW2 8040   6.896   0.553   5.625
 2381SOL     OW 8041   1.909   4.242   4.355
 2381SOL    HW1 8042   1.834   4.307   4.347
 2381SOL    HW2 8043   1.881   4.153   4.319
 2382SOL     OW 8044   2.297   5.676   2.822
 2382SOL    HW1 8045   2.198   5.670   2.839
 2382SOL    HW2 8046   2.318   5.764   2.780
 2383SOL     OW 8047   5.647   6.431   6.571
 2383SOL    HW1 8048   5.619   6.395   6.660
 2383SOL    HW2 8049   5.593   6.512   6.550
 2384SOL     OW 8050   1.562   1.667   1.786
 2384SOL    HW1 8051   1.583   1.681   1.883
 2384SOL    HW2 8052   1.593   1.576   1.758
 2385SOL     OW 8053   6.501   0.108   1.128
 2385SOL    HW1 8054   6.454   0.130   1.214
 2385SOL    HW2 8055   6.551   0.189   1.096
 2386SOL     OW 8056   3.924   5.137   4.517
 2386SOL    HW1 8057   3.827   5.158   4.529
 2386SOL    HW2 8058   3.950   5.065   4.581
 2387SOL     OW 8059   6.694   2.664   4.972
 2387SOL    HW1 8060   6.731   2.703   4.888
 2387SOL    HW2 8061   6.732   2.712   5.051
 2388SOL     OW 8062   1.330   2.061   5.435
 2388SOL    HW1 8063   1.297   1.987   5.376
 2388SOL    HW2 8064   1.252   2.117   5.464
 2389SOL     OW 8065   4.699   4.512   3.937
 2389SOL    HW1 8066   4.710   4.419   3.974
 2389SOL    HW2 8067   4.731   4.578   4.005
 2390SOL     OW 8068   4.013   3.950   4.490
 2390SOL    HW1 8069   4.087   3.951   4.423
 2390SOL    HW2 8070   4.017   3.865   4.542
 2391SOL     OW 8071   3.395   4.638   5.769
 2391SOL    HW1 8072   3.311   4.677   5.730
 2391SOL    HW2 8073   3.465   4.633   5.697
 2392SOL     OW 8074   3.285   5.268   6.139
 2392SOL    HW1 8075   3.193   5.228   6.130
 2392SOL    HW2 8076   3.333   5.223   6.214
 2393SOL     OW 8077   4.038   5.315   1.396
 2393SOL    HW1 8078   3.948   5.354   1.376
 2393SOL    HW2 8079   4.027   5.225   1.439
 2394SOL     OW 8080   1.340   3.960   4.787
 2394SOL    HW1 8081   1.243   3.958   4.810
 2394SOL    HW2 8082   1.382   4.040   4.830
 2395SOL     OW 8083   6.921   2.383   6.482
 2395SOL    HW1 8084   6.850   2.313   6.491
 2395SOL    HW2 8085   6.936   2.402   6.385
 2396SOL     OW 8086   5.698   6.309   0.951
 2396SOL    HW1 8087   5.627   6.240   0.966
 2396SOL    HW2 8088   5.750   6.321   1.035
 2397SOL     OW 8089   6.370   5.182   0.129
 2397SOL    HW1 8090   6.433   5.254   0.156
 2397SOL    HW2 8091   6.284   5.193   0.178
 2398SOL     OW 8092   2.301   4.781   5.145
 2398SOL    HW1 8093   2.383   4.798   5.200
 2398SOL    HW2 8094   2.251   4.704   5.184
 2399SOL     OW 8095   4.460   1.797   2.653
 2399SOL    HW1 8096   4.386   1.761   2.597
 2399SOL    HW2 8097   4.448   1.896   2.665
 2400SOL     OW 8098   3.579   3.611   0.791
 2400SOL    HW1 8099   3.529   3.669   0.855
 2400SOL    HW2 8100   3.662   3.657   0.762
 2401SOL     OW 8101   3.338   0.781   5.374
 2401SOL    HW1 8102   3.343   0.809   5.278
 2401SOL    HW2 8103   3.420   0.811   5.422
 2402SOL     OW 8104   6.967   2.106   4.583
 2402SOL    HW1 8105   6.935   2.148   4.668
 2402SOL    HW2 8106   7.011   2.175   4.527
 2403SOL     OW 8107   3.209   3.138   0.575
 2403SOL    HW1 8108   3.272   3.145   0.652
 2403SOL    HW2 8109   3.243   3.071   0.509
 2404SOL     OW 8110   5.545   1.500   2.586
 2404SOL    HW1 8111   5.574   1.406   2.564
 2404SOL    HW2 8112   5.607   1.565   2.542
 2405SOL     OW 8113   3.806   3.375   5.416
 2405SOL    HW1 8114   3.845   3.422   5.337
 2405SOL    HW2 8115   3.881   3.340   5.474
 2406SOL     OW 8116   2.018   0.942   2.958
 2406SOL    HW1 8117   1.949   0.890   2.908
 2406SOL    HW2 8118   1.976   1.025   2.995
 2407SOL     OW 8119   4.547   2.184   2.978
 2407SOL    HW1 8120   4.577   2.107   3.034
 2407SOL    HW2 8121   4.540   2.265   3.035
 2408SOL     OW 8122   3.433   5.196   2.433
 2408SOL    HW1 8123   3.341   5.160   2.446
 2408SOL    HW2 8124   3.467   5.233   2.519
 2409SOL     OW 8125   2.472   2.733   1.877
 2409SOL    HW1 8126   2.393   2.791   1.855
 2409SOL    HW2 8127   2.521   2.710   1.794
 2410SOL     OW 8128   6.611   2.930   5.879
 2410SOL    HW1 8129   6.646   3.004   5.822
 2410SOL    HW2 8130   6.687   2.878   5.918
 2411SOL     OW 8131   3.571   4.621   5.571
 2411SOL    HW1 8132   3.557   4.656   5.479
 2411SOL    HW2 8133   3.621   4.534   5.567
 2412SOL     OW 8134   2.690   3.453   0.274
 2412SOL    HW1 8135   2.601   3.456   0.320
 2412SOL    HW2 8136   2.725   3.359   0.276
 2413SOL     OW 8137   6.600   3.434   6.703
 2413SOL    HW1 8138   6.577   3.337   6.712
 2413SOL    HW2 8139   6.518   3.489   6.716
 2414SOL     OW 8140   5.662   3.424   3.138
 2414SOL    HW1 8141   5.705   3.494   3.194
 2414SOL    HW2 8142   5.731   3.357   3.109
 2415SOL     OW 8143   1.776   0.253   1.308
 2415SOL    HW1 8144   1.792   0.221   1.401
 2415SOL    HW2 8145   1.677   0.253   1.289
 2416SOL     OW 8146   2.280   1.495   5.086
 2416SOL    HW1 8147   2.347   1.500   5.011
 2416SOL    HW2 8148   2.211   1.426   5.064
 2417SOL     OW 8149   5.023   2.392   6.980
 2417SOL    HW1 8150   4.977   2.401   6.891
 2417SOL    HW2 8151   5.013   2.299   7.013
 2418SOL     OW 8152   3.463   3.639   4.949
 2418SOL    HW1 8153   3.411   3.703   4.893
 2418SOL    HW2 8154   3.547   3.613   4.901
 2419SOL     OW 8155   0.513   6.767   4.633
 2419SOL    HW1 8156   0.552   6.684   4.594
 2419SOL    HW2 8157   0.491   6.831   4.559
 2420SOL     OW 8158   4.320   0.030   2.558
 2420SOL    HW1 8159   4.302   0.041   2.460
 2420SOL    HW2 8160   4.287   6.967   2.588
 2421SOL     OW 8161   2.949   0.914   4.454
 2421SOL    HW1 8162   2.891   0.937   4.533
 2421SOL    HW2 8163   3.044   0.938   4.474
 2422SOL     OW 8164   5.304   0.447   1.096
 2422SOL    HW1 8165   5.393   0.491   1.078
 2422SOL    HW2 8166   5.273   0.473   1.188
 2423SOL     OW 8167   1.577   6.126   2.527
 2423SOL    HW1 8168   1.481   6.144   2.506
 2423SOL    HW2 8169   1.590   6.125   2.626
 2424SOL     OW 8170   5.161   5.955   6.252
 2424SOL    HW1 8171   5.186   5.871   6.205
 2424SOL    HW2 8172   5.148   5.936   6.350
 2425SOL     OW 8173   6.468   6.751   4.648
 2425SOL    HW1 8174   6.540   6.820   4.637
 2425SOL    HW2 8175   6.379   6.794   4.639
 2426SOL     OW 8176   1.238   4.885   4.293
 2426SOL    HW1 8177   1.245   4.796   4.339
 2426SOL    HW2 8178   1.214   4.955   4.360
 2427SOL     OW 8179   5.963   5.885   6.720
 2427SOL    HW1 8180   5.878   5.852   6.678
 2427SOL    HW2 8181   5.942   5.930   6.807
 2428SOL     OW 8182   1.181   0.153   4.303
 2428SOL    HW1 8183   1.097   0.183   4.257
 2428SOL    HW2 8184   1.166   0.064   4.345
 2429SOL     OW 8185   6.203   5.105   3.416
 2429SOL    HW1 8186   6.293   5.067   3.392
 2429SOL    HW2 8187   6.166   5.154   3.337
 2430SOL     OW 8188   5.540   2.656   0.649
 2430SOL    HW1 8189   5.594   2.584   0.606
 2430SOL    HW2 8190   5.490   2.618   0.727
 2431SOL     OW 8191   4.085   0.646   1.848
 2431SOL    HW1 8192   4.184   0.635   1.844
 2431SOL    HW2 8193   4.051   0.610   1.935
 2432SOL     OW 8194   4.498   6.272   2.805
 2432SOL    HW1 8195   4.587   6.266   2.759
 2432SOL    HW2 8196   4.439   6.335   2.755
 2433SOL     OW 8197   2.362   6.899   0.026
 2433SOL    HW1 8198   2.428   6.971   0.007
 2433SOL    HW2 8199   2.300   6.929   0.099
 2434SOL     OW 8200   4.602   1.415   3.313
 2434SOL    HW1 8201   4.671   1.475   3.273
 2434SOL    HW2 8202   4.534   1.470   3.362
 2435SOL     OW 8203   4.446   5.236   0.246
 2435SOL    HW1 8204   4.402   5.243   0.157
 2435SOL    HW2 8205   4.500   5.152   0.251
 2436SOL     OW 8206   1.975   6.859   0.915
 2436SOL    HW1 8207   2.009   6.814   0.998
 2436SOL    HW2 8208   1.875   6.862   0.918
 2437SOL     OW 8209   5.146   5.773   1.012
 2437SOL    HW1 8210   5.078   5.713   1.054
 2437SOL    HW2 8211   5.162   5.852   1.071
 2438SOL     OW 8212   3.833   0.863   4.907
 2438SOL    HW1 8213   3.769   0.890   4.835
 2438SOL    HW2 8214   3.903   0.802   4.868
 2439SOL     OW 8215   1.065   4.151   0.101
 2439SOL    HW1 8216   1.117   4.126   0.183
 2439SOL    HW2 8217   1.025   4.241   0.114
 2440SOL     OW 8218   3.650   6.817   5.129
 2440SOL    HW1 8219   3.578   6.764   5.085
 2440SOL    HW2 8220   3.611   6.870   5.204
 2441SOL     OW 8221   6.246   1.179   0.654
 2441SOL    HW1 8222   6.236   1.242   0.731
 2441SOL    HW2 8223   6.236   1.230   0.568
 2442SOL     OW 8224   5.710   5.425   3.563
 2442SOL    HW1 8225   5.731   5.461   3.653
 2442SOL    HW2 8226   5.635   5.477   3.523
 2443SOL     OW 8227   3.233   0.656   6.281
 2443SOL    HW1 8228   3.261   0.572   6.329
 2443SOL    HW2 8229   3.135   0.652   6.263
 2444SOL     OW 8230   3.981   4.061   6.859
 2444SOL    HW1 8231   3.955   4.109   6.942
 2444SOL    HW2 8232   3.900   4.021   6.816
 2445SOL     OW 8233   6.782   0.915   2.197
 2445SOL    HW1 8234   6.845   0.847   2.234
 2445SOL    HW2 8235   6.774   0.902   2.098
 2446SOL     OW 8236   0.372   2.976   4.190
 2446SOL    HW1 8237   0.400   2.880   4.188
 2446SOL    HW2 8238   0.442   3.033   4.145
 2447SOL     OW 8239   2.663   0.991   0.851
 2447SOL    HW1 8240   2.746   0.942   0.825
 2447SOL    HW2 8241   2.661   1.080   0.807
 2448SOL     OW 8242   6.568   1.340   4.331
 2448SOL    HW1 8243   6.561   1.343   4.431
 2448SOL    HW2 8244   6.632   1.268   4.305
 2449SOL     OW 8245   0.057   4.064   3.063
 2449SOL    HW1 8246   0.002   4.094   3.140
 2449SOL    HW2 8247   0.120   4.138   3.037
 2450SOL     OW 8248   3.366   5.601   6.067
 2450SOL    HW1 8249   3.372   5.523   6.004
 2450SOL    HW2 8250   3.347   5.568   6.159
 2451SOL     OW 8251   1.500   0.256   3.610
 2451SOL    HW1 8252   1.519   0.189   3.538
 2451SOL    HW2 8253   1.476   0.209   3.694
 2452SOL     OW 8254   3.082   1.954   3.427
 2452SOL    HW1 8255   3.109   1.880   3.366
 2452SOL    HW2 8256   3.129   2.038   3.400
 2453SOL     OW 8257   6.809   3.575   0.785
 2453SOL    HW1 8258   6.768   3.561   0.876
 2453SOL    HW2 8259   6.762   3.517   0.718
 2454SOL     OW 8260   3.951   0.584   6.803
 2454SOL    HW1 8261   3.970   0.623   6.893
 2454SOL    HW2 8262   3.984   0.646   6.732
 2455SOL     OW 8263   4.072   0.311   0.475
 2455SOL    HW1 8264   4.087   0.396   0.424
 2455SOL    HW2 8265   4.069   0.331   0.573
 2456SOL     OW 8266   5.930   2.081   0.149
 2456SOL    HW1 8267   5.850   2.031   0.182
 2456SOL    HW2 8268   5.909   2.179   0.143
 2457SOL     OW 8269   6.708   0.222   6.609
 2457SOL    HW1 8270   6.610   0.239   6.600
 2457SOL    HW2 8271   6.754   0.245   6.524
 2458SOL     OW 8272   2.343   6.235   3.977
 2458SOL    HW1 8273   2.280   6.167   4.015
 2458SOL    HW2 8274   2.294   6.296   3.915
 2459SOL     OW 8275   2.487   6.046   5.976
 2459SOL    HW1 8276   2.452   6.137   5.956
 2459SOL    HW2 8277   2.523   6.044   6.070
 2460SOL     OW 8278   1.961   1.573   1.673
 2460SOL    HW1 8279   2.000   1.487   1.641
 2460SOL    HW2 8280   1.871   1.586   1.632
 2461SOL     OW 8281   4.688   1.308   2.984
 2461SOL    HW1 8282   4.659   1.233   3.043
 2461SOL    HW2 8283   4.759   1.276   2.921
 2462SOL     OW 8284   1.778   5.316   0.152
 2462SOL    HW1 8285   1.701   5.380   0.147
 2462SOL    HW2 8286   1.849   5.345   0.087
 2463SOL     OW 8287   6.473   2.065   5.811
 2463SOL    HW1 8288   6.451   2.049   5.715
 2463SOL    HW2 8289   6.419   2.141   5.846
 2464SOL     OW 8290   2.146   3.853   2.402
 2464SOL    HW1 8291   2.066   3.851   2.343
 2464SOL    HW2 8292   2.217   3.793   2.364
 2465SOL     OW 8293   0.954   6.959   0.887
 2465SOL    HW1 8294   0.960   6.917   0.797
 2465SOL    HW2 8295   1.010   0.015   0.889
 2466SOL     OW 8296   2.023   1.659   2.554
 2466SOL    HW1 8297   2.043   1.562   2.539
 2466SOL    HW2 8298   2.081   1.714   2.493
 2467SOL     OW 8299   4.928   1.391   5.469
 2467SOL    HW1 8300   4.892   1.327   5.537
 2467SOL    HW2 8301   4.852   1.436   5.423
 2468SOL     OW 8302   4.728   6.471   1.822
 2468SOL    HW1 8303   4.749   6.515   1.735
 2468SOL    HW2 8304   4.681   6.536   1.881
 2469SOL     OW 8305   4.113   4.139   5.722
 2469SOL    HW1 8306   4.153   4.071   5.783
 2469SOL    HW2 8307   4.033   4.100   5.677
 2470SOL     OW 8308   3.798   4.225   6.333
 2470SOL    HW1 8309   3.898   4.231   6.340
 2470SOL    HW2 8310   3.771   4.239   6.238
 2471SOL     OW 8311   2.506   6.366   0.718
 2471SOL    HW1 8312   2.579   6.420   0.759
 2471SOL    HW2 8313   2.539   6.273   0.702
 2472SOL     OW 8314   4.916   2.587   4.533
 2472SOL    HW1 8315   4.930   2.552   4.625
 2472SOL    HW2 8316   4.871   2.517   4.477
 2473SOL     OW 8317   2.129   3.758   4.909
 2473SOL    HW1 8318   2.034   3.786   4.920
 2473SOL    HW2 8319   2.189   3.831   4.942
 2474SOL     OW 8320   0.406   5.939   0.778
 2474SOL    HW1 8321   0.408   5.846   0.815
 2474SOL    HW2 8322   0.316   5.957   0.738
 2475SOL     OW 8323   4.622   1.096   2.608
 2475SOL    HW1 8324   4.692   1.132   2.670
 2475SOL    HW2 8325   4.601   1.164   2.539
 2476SOL     OW 8326   6.650   1.603   3.177
 2476SOL    HW1 8327   6.580   1.535   3.199
 2476SOL    HW2 8328   6.608   1.681   3.132
 2477SOL     OW 8329   4.594   1.453   1.941
 2477SOL    HW1 8330   4.590   1.354   1.948
 2477SOL    HW2 8331   4.611   1.480   1.846
 2478SOL     OW 8332   6.407   1.288   2.348
 2478SOL    HW1 8333   6.351   1.288   2.265
 2478SOL    HW2 8334   6.370   1.222   2.413
 2479SOL     OW 8335   1.333   4.211   1.473
 2479SOL    HW1 8336   1.372   4.187   1.561
 2479SOL    HW2 8337   1.233   4.204   1.477
 2480SOL     OW 8338   5.290   4.502   0.683
 2480SOL    HW1 8339   5.281   4.425   0.620
 2480SOL    HW2 8340   5.387   4.519   0.701
 2481SOL     OW 8341   2.271   0.908   6.997
 2481SOL    HW1 8342   2.332   0.829   7.005
 2481SOL    HW2 8343   2.282   0.950   6.907
 2482SOL     OW 8344   4.632   3.658   5.742
 2482SOL    HW1 8345   4.644   3.741   5.688
 2482SOL    HW2 8346   4.539   3.623   5.731
 2483SOL     OW 8347   1.657   1.978   7.004
 2483SOL    HW1 8348   1.624   1.965   6.910
 2483SOL    HW2 8349   1.752   2.007   7.001
 2484SOL     OW 8350   3.471   0.716   0.207
 2484SOL    HW1 8351   3.518   0.661   0.138
 2484SOL    HW2 8352   3.375   0.727   0.181
 2485SOL     OW 8353   5.927   4.135   1.314
 2485SOL    HW1 8354   5.893   4.051   1.273
 2485SOL    HW2 8355   5.867   4.162   1.389
 2486SOL     OW 8356   2.098   5.126   4.590
 2486SOL    HW1 8357   2.103   5.035   4.547
 2486SOL    HW2 8358   2.189   5.167   4.592
 2487SOL     OW 8359   3.697   6.138   0.143
 2487SOL    HW1 8360   3.646   6.188   0.214
 2487SOL    HW2 8361   3.638   6.067   0.104
 2488SOL     OW 8362   2.084   4.441   2.324
 2488SOL    HW1 8363   2.103   4.514   2.258
 2488SOL    HW2 8364   1.985   4.431   2.334
 2489SOL     OW 8365   1.145   5.925   3.002
 2489SOL    HW1 8366   1.121   5.866   2.926
 2489SOL    HW2 8367   1.244   5.922   3.016
 2490SOL     OW 8368   6.653   5.023   1.621
 2490SOL    HW1 8369   6.705   5.037   1.705
 2490SOL    HW2 8370   6.621   4.928   1.618
 2491SOL     OW 8371   2.850   5.538   1.023
 2491SOL    HW1 8372   2.932   5.567   1.071
 2491SOL    HW2 8373   2.859   5.560   0.926
 2492SOL     OW 8374   4.216   2.232   0.464
 2492SOL    HW1 8375   4.130   2.181   0.466
 2492SOL    HW2 8376   4.280   2.193   0.531
 2493SOL     OW 8377   6.252   0.854   2.334
 2493SOL    HW1 8378   6.302   0.778   2.374
 2493SOL    HW2 8379   6.312   0.904   2.271
 2494SOL     OW 8380   5.831   3.471   2.107
 2494SOL    HW1 8381   5.827   3.570   2.116
 2494SOL    HW2 8382   5.798   3.428   2.191
 2495SOL     OW 8383   5.186   0.226   4.256
 2495SOL    HW1 8384   5.275   0.263   4.232
 2495SOL    HW2 8385   5.115   0.295   4.239
 2496SOL     OW 8386   0.589   4.000   5.515
 2496SOL    HW1 8387   0.577   3.931   5.444
 2496SOL    HW2 8388   0.542   4.084   5.488
 2497SOL     OW 8389   0.350   0.463   0.968
 2497SOL    HW1 8390   0.276   0.438   0.907
 2497SOL    HW2 8391   0.387   0.381   1.013
 2498SOL     OW 8392   3.127   1.359   4.763
 2498SOL    HW1 8393   3.162   1.415   4.688
 2498SOL    HW2 8394   3.037   1.325   4.740
 2499SOL     OW 8395   5.681   2.249   4.308
 2499SOL    HW1 8396   5.743   2.179   4.342
 2499SOL    HW2 8397   5.605   2.260   4.373
 2500SOL     OW 8398   4.300   2.937   0.112
 2500SOL    HW1 8399   4.305   2.922   0.014
 2500SOL    HW2 8400   4.390   2.966   0.145
 2501SOL     OW 8401   5.827   5.430   6.968
 2501SOL    HW1 8402   5.751   5.493   6.978
 2501SOL    HW2 8403   5.794   5.342   6.933
 2502SOL     OW 8404   1.997   5.559   2.809
 2502SOL    HW1 8405   2.007   5.645   2.759
 2502SOL    HW2 8406   1.905   5.523   2.796
 2503SOL     OW 8407   3.176   5.538   4.846
 2503SOL    HW1 8408   3.116   5.460   4.830
 2503SOL    HW2 8409   3.215   5.569   4.759
 2504SOL     OW 8410   3.228   5.271   4.698
 2504SOL    HW1 8411   3.156   5.339   4.681
 2504SOL    HW2 8412   3.208   5.220   4.781
 2505SOL     OW 8413   1.380   5.879   3.860
 2505SOL    HW1 8414   1.321   5.799   3.872
 2505SOL    HW2 8415   1.323   5.958   3.838
 2506SOL     OW 8416   6.152   3.149   6.063
 2506SOL    HW1 8417   6.187   3.162   6.156
 2506SOL    HW2 8418   6.227   3.153   5.998
 2507SOL     OW 8419   1.028   4.625   0.873
 2507SOL    HW1 8420   1.115   4.634   0.825
 2507SOL    HW2 8421   0.962   4.691   0.835
 2508SOL     OW 8422   2.345   1.588   1.939
 2508SOL    HW1 8423   2.397   1.527   1.880
 2508SOL    HW2 8424   2.395   1.602   2.025
 2509SOL     OW 8425   6.436   2.690   2.349
 2509SOL    HW1 8426   6.442   2.607   2.404
 2509SOL    HW2 8427   6.366   2.678   2.278
 2510SOL     OW 8428   3.287   4.096   1.434
 2510SOL    HW1 8429   3.219   4.030   1.403
 2510SOL    HW2 8430   3.318   4.151   1.356
 2511SOL     OW 8431   3.119   1.367   3.429
 2511SOL    HW1 8432   3.143   1.317   3.346
 2511SOL    HW2 8433   3.021   1.383   3.432
 2512SOL     OW 8434   4.709   4.690   4.743
 2512SOL    HW1 8435   4.652   4.608   4.733
 2512SOL    HW2 8436   4.799   4.673   4.702
 2513SOL     OW 8437   1.281   3.452   4.840
 2513SOL    HW1 8438   1.329   3.404   4.913
 2513SOL    HW2 8439   1.347   3.484   4.772
 2514SOL     OW 8440   6.701   2.977   3.947
 2514SOL    HW1 8441   6.740   3.062   3.913
 2514SOL    HW2 8442   6.635   2.997   4.019
 2515SOL     OW 8443   1.415   6.542   0.508
 2515SOL    HW1 8444   1.492   6.494   0.550
 2515SOL    HW2 8445   1.330   6.494   0.530
 2516SOL     OW 8446   6.026   0.801   3.162
 2516SOL    HW1 8447   5.950   0.848   3.207
 2516SOL    HW2 8448   6.106   0.802   3.222
 2517SOL     OW 8449   0.567   4.915   5.944
 2517SOL    HW1 8450   0.481   4.959   5.969
 2517SOL    HW2 8451   0.636   4.985   5.925
 2518SOL     OW 8452   1.309   3.869   6.725
 2518SOL    HW1 8453   1.323   3.930   6.802
 2518SOL    HW2 8454   1.333   3.916   6.640
 2519SOL     OW 8455   5.392   6.602   3.780
 2519SOL    HW1 8456   5.341   6.639   3.858
 2519SOL    HW2 8457   5.328   6.574   3.709
 2520SOL     OW 8458   1.562   2.775   6.730
 2520SOL    HW1 8459   1.506   2.711   6.677
 2520SOL    HW2 8460   1.520   2.790   6.819
 2521SOL     OW 8461   1.389   6.700   5.374
 2521SOL    HW1 8462   1.410   6.778   5.316
 2521SOL    HW2 8463   1.300   6.662   5.348
 2522SOL     OW 8464   0.150   3.484   5.857
 2522SOL    HW1 8465   0.091   3.520   5.786
 2522SOL    HW2 8466   0.119   3.518   5.946
 2523SOL     OW 8467   0.575   2.897   2.215
 2523SOL    HW1 8468   0.666   2.874   2.181
 2523SOL    HW2 8469   0.516   2.817   2.209
 2524SOL     OW 8470   0.709   5.650   5.755
 2524SOL    HW1 8471   0.639   5.610   5.696
 2524SOL    HW2 8472   0.667   5.721   5.812
 2525SOL     OW 8473   0.947   2.464   4.197
 2525SOL    HW1 8474   0.981   2.468   4.291
 2525SOL    HW2 8475   0.904   2.551   4.174
 2526SOL     OW 8476   1.808   4.430   5.325
 2526SOL    HW1 8477   1.770   4.495   5.259
 2526SOL    HW2 8478   1.794   4.464   5.418
 2527SOL     OW 8479   5.269   6.114   4.763
 2527SOL    HW1 8480   5.325   6.039   4.727
 2527SOL    HW2 8481   5.299   6.200   4.722
 2528SOL     OW 8482   5.811   4.681   1.356
 2528SOL    HW1 8483   5.789   4.598   1.406
 2528SOL    HW2 8484   5.764   4.759   1.397
 2529SOL     OW 8485   6.895   6.453   0.042
 2529SOL    HW1 8486   6.868   6.405   0.126
 2529SOL    HW2 8487   6.815   6.499   0.002
 2530SOL     OW 8488   2.040   6.914   4.892
 2530SOL    HW1 8489   1.975   6.875   4.957
 2530SOL    HW2 8490   2.011   7.006   4.867
 2531SOL     OW 8491   4.831   6.168   4.297
 2531SOL    HW1 8492   4.896   6.094   4.313
 2531SOL    HW2 8493   4.825   6.226   4.378
 2532SOL     OW 8494   0.635   6.073   0.666
 2532SOL    HW1 8495   0.665   6.025   0.584
 2532SOL    HW2 8496   0.551   6.033   0.700
 2533SOL     OW 8497   3.212   6.918   2.963
 2533SOL    HW1 8498   3.311   6.919   2.981
 2533SOL    HW2 8499   3.181   6.823   2.956
 2534SOL     OW 8500   3.384   1.070   2.727
 2534SOL    HW1 8501   3.363   1.167   2.738
 2534SOL    HW2 8502   3.347   1.019   2.805
 2535SOL     OW 8503   3.109   2.887   6.115
 2535SOL    HW1 8504   3.160   2.827   6.053
 2535SOL    HW2 8505   3.169   2.961   6.146
 2536SOL     OW 8506   6.558   1.884   3.876
 2536SOL    HW1 8507   6.625   1.954   3.902
 2536SOL    HW2 8508   6.607   1.802   3.844
 2537SOL     OW 8509   4.657   6.631   6.669
 2537SOL    HW1 8510   4.559   6.627   6.689
 2537SOL    HW2 8511   4.701   6.699   6.728
 2538SOL     OW 8512   1.475   4.538   4.459
 2538SOL    HW1 8513   1.450   4.442   4.472
 2538SOL    HW2 8514   1.503   4.577   4.547
 2539SOL     OW 8515   5.641   0.956   6.056
 2539SOL    HW1 8516   5.577   0.888   6.094
 2539SOL    HW2 8517   5.729   0.913   6.040
 2540SOL     OW 8518   4.164   1.056   2.634
 2540SOL    HW1 8519   4.195   1.138   2.585
 2540SOL    HW2 8520   4.232   0.983   2.622
 2541SOL     OW 8521   1.978   6.667   5.351
 2541SOL    HW1 8522   1.937   6.656   5.260
 2541SOL    HW2 8523   1.951   6.591   5.409
 2542SOL     OW 8524   4.650   1.319   6.374
 2542SOL    HW1 8525   4.588   1.342   6.449
 2542SOL    HW2 8526   4.619   1.235   6.329
 2543SOL     OW 8527   2.194   2.182   2.574
 2543SOL    HW1 8528   2.210   2.212   2.668
 2543SOL    HW2 8529   2.141   2.097   2.575
 2544SOL     OW 8530   0.088   5.426   1.293
 2544SOL    HW1 8531   0.124   5.446   1.384
 2544SOL    HW2 8532   0.078   5.327   1.282
 2545SOL     OW 8533   2.241   0.684   1.426
 2545SOL    HW1 8534   2.243   0.729   1.337
 2545SOL    HW2 8535   2.148   0.687   1.463
 2546SOL     OW 8536   0.333   2.431   1.558
 2546SOL    HW1 8537   0.249   2.448   1.609
 2546SOL    HW2 8538   0.313   2.370   1.481
 2547SOL     OW 8539   5.878   4.041   0.020
 2547SOL    HW1 8540   5.779   4.053   0.025
 2547SOL    HW2 8541   5.905   3.965   0.079
 2548SOL     OW 8542   2.802   6.922   6.057
 2548SOL    HW1 8543   2.801   6.833   6.102
 2548SOL    HW2 8544   2.740   6.984   6.105
 2549SOL     OW 8545   1.786   0.904   1.243
 2549SOL    HW1 8546   1.832   0.990   1.226
 2549SOL    HW2 8547   1.854   0.830   1.244
 2550SOL     OW 8548   6.995   0.545   6.538
 2550SOL    HW1 8549   7.013   0.613   6.610
 2550SOL    HW2 8550   0.054   0.525   6.490
 2551SOL     OW 8551   3.072   5.664   0.246
 2551SOL    HW1 8552   3.076   5.659   0.147
 2551SOL    HW2 8553   3.042   5.755   0.274
 2552SOL     OW 8554   1.186   5.712   6.218
 2552SOL    HW1 8555   1.206   5.616   6.240
 2552SOL    HW2 8556   1.271   5.764   6.218
 2553SOL     OW 8557   3.668   3.561   6.840
 2553SOL    HW1 8558   3.739   3.492   6.827
 2553SOL    HW2 8559   3.691   3.643   6.788
 2554SOL     OW 8560   1.939   6.345   6.844
 2554SOL    HW1 8561   1.984   6.403   6.776
 2554SOL    HW2 8562   1.990   6.348   6.930
 2555SOL     OW 8563   6.504   6.463   6.546
 2555SOL    HW1 8564   6.512   6.433   6.451
 2555SOL    HW2 8565   6.408   6.457   6.575
 2556SOL     OW 8566   4.337   5.294   0.009
 2556SOL    HW1 8567   4.272   5.250   6.974
 2556SOL    HW2 8568   4.374   5.376   6.992
 2557SOL     OW 8569   2.538   2.264   6.398
 2557SOL    HW1 8570   2.635   2.247   6.386
 2557SOL    HW2 8571   2.496   2.283   6.309
 2558SOL     OW 8572   4.075   3.510   6.074
 2558SOL    HW1 8573   4.161   3.494   6.123
 2558SOL    HW2 8574   4.045   3.425   6.030
 2559SOL     OW 8575   6.458   3.394   4.769
 2559SOL    HW1 8576   6.401   3.319   4.803
 2559SOL    HW2 8577   6.554   3.372   4.784
 2560SOL     OW 8578   5.614   3.338   4.388
 2560SOL    HW1 8579   5.663   3.346   4.301
 2560SOL    HW2 8580   5.531   3.392   4.385
 2561SOL     OW 8581   3.051   0.172   3.769
 2561SOL    HW1 8582   2.959   0.207   3.789
 2561SOL    HW2 8583   3.103   0.242   3.720
 2562SOL     OW 8584   2.091   5.953   2.317
 2562SOL    HW1 8585   2.065   5.866   2.275
 2562SOL    HW2 8586   2.138   6.010   2.250
 2563SOL     OW 8587   4.488   1.753   6.792
 2563SOL    HW1 8588   4.446   1.840   6.769
 2563SOL    HW2 8589   4.420   1.680   6.786
 2564SOL     OW 8590   1.290   6.842   6.591
 2564SOL    HW1 8591   1.287   6.941   6.580
 2564SOL    HW2 8592   1.345   6.802   6.518
 2565SOL     OW 8593   0.339   1.190   0.415
 2565SOL    HW1 8594   0.336   1.271   0.357
 2565SOL    HW2 8595   0.361   1.217   0.509
 2566SOL     OW 8596   1.633   6.892   1.249
 2566SOL    HW1 8597   1.549   6.913   1.199
 2566SOL    HW2 8598   1.617   6.815   1.311
 2567SOL     OW 8599   1.342   1.404   1.860
 2567SOL    HW1 8600   1.369   1.341   1.788
 2567SOL    HW2 8601   1.404   1.483   1.860
 2568SOL     OW 8602   3.677   6.953   6.887
 2568SOL    HW1 8603   3.714   6.906   6.807
 2568SOL    HW2 8604   3.639   6.886   6.950
 2569SOL     OW 8605   3.178   0.706   1.945
 2569SOL    HW1 8606   3.203   0.783   2.003
 2569SOL    HW2 8607   3.092   0.667   1.977
 2570SOL     OW 8608   6.256   0.752   0.079
 2570SOL    HW1 8609   6.206   0.833   0.109
 2570SOL    HW2 8610   6.262   0.687   0.155
 2571SOL     OW 8611   2.237   3.776   5.559
 2571SOL    HW1 8612   2.288   3.807   5.479
 2571SOL    HW2 8613   2.185   3.694   5.536
 2572SOL     OW 8614   2.200   6.032   0.919
 2572SOL    HW1 8615   2.294   5.997   0.919
 2572SOL    HW2 8616   2.199   6.124   0.878
 2573SOL     OW 8617   6.337   1.786   1.966
 2573SOL    HW1 8618   6.266   1.854   1.948
 2573SOL    HW2 8619   6.424   1.818   1.928
 2574SOL     OW 8620   6.340   3.160   0.131
 2574SOL    HW1 8621   6.274   3.206   0.192
 2574SOL    HW2 8622   6.312   3.065   0.118
 2575SOL     OW 8623   4.654   5.426   0.328
 2575SOL    HW1 8624   4.690   5.410   0.420
 2575SOL    HW2 8625   4.585   5.358   0.306
 2576SOL     OW 8626   4.015   7.014   4.543
 2576SOL    HW1 8627   4.030   6.920   4.572
 2576SOL    HW2 8628   4.005   7.018   4.444
 2577SOL     OW 8629   3.958   6.381   2.224
 2577SOL    HW1 8630   3.873   6.340   2.191
 2577SOL    HW2 8631   3.941   6.477   2.248
 2578SOL     OW 8632   4.776   1.965   4.242
 2578SOL    HW1 8633   4.811   1.954   4.335
 2578SOL    HW2 8634   4.819   2.044   4.199
 2579SOL     OW 8635   1.257   0.196   2.899
 2579SOL    HW1 8636   1.354   0.214   2.881
 2579SOL    HW2 8637   1.201   0.249   2.835
 2580SOL     OW 8638   2.766   2.571   6.502
 2580SOL    HW1 8639   2.702   2.642   6.529
 2580SOL    HW2 8640   2.748   2.544   6.407
 2581SOL     OW 8641   6.972   4.242   1.090
 2581SOL    HW1 8642   6.995   4.326   1.041
 2581SOL    HW2 8643   6.997   4.162   1.035
 2582SOL     OW 8644   0.801   4.256   2.144
 2582SOL    HW1 8645   0.798   4.318   2.222
 2582SOL    HW2 8646   0.718   4.267   2.089
 2583SOL     OW 8647   0.527   1.622   1.310
 2583SOL    HW1 8648   0.565   1.567   1.385
 2583SOL    HW2 8649   0.461   1.687   1.346
 2584SOL     OW 8650   4.133   5.558   7.020
 2584SOL    HW1 8651   4.085   5.478   6.983
 2584SOL    HW2 8652   4.080   5.640   7.000
 2585SOL     OW 8653   4.197   2.632   1.149
 2585SOL    HW1 8654   4.199   2.723   1.109
 2585SOL    HW2 8655   4.277   2.580   1.119
 2586SOL     OW 8656   3.237   1.681   3.836
 2586SOL    HW1 8657   3.141   1.658   3.853
 2586SOL    HW2 8658   3.286   1.598   3.807
 2587SOL     OW 8659   0.629   0.460   3.619
 2587SOL    HW1 8660   0.545   0.434   3.667
 2587SOL    HW2 8661   0.620   0.555   3.587
 2588SOL     OW 8662   4.726   0.033   0.145
 2588SOL    HW1 8663   4.695   0.077   0.230
 2588SOL    HW2 8664   4.770   0.101   0.087
 2589SOL     OW 8665   6.830   6.176   6.819
 2589SOL    HW1 8666   6.750   6.202   6.873
 2589SOL    HW2 8667   6.832   6.230   6.735
 2590SOL     OW 8668   3.265   6.365   1.796
 2590SOL    HW1 8669   3.323   6.284   1.804
 2590SOL    HW2 8670   3.219   6.365   1.707
 2591SOL     OW 8671   0.116   5.983   2.276
 2591SOL    HW1 8672   0.178   5.997   2.354
 2591SOL    HW2 8673   0.121   5.887   2.247
 2592SOL     OW 8674   3.631   6.493   1.191
 2592SOL    HW1 8675   3.564   6.490   1.265
 2592SOL    HW2 8676   3.705   6.429   1.211
 2593SOL     OW 8677   3.173   5.842   0.889
 2593SOL    HW1 8678   3.133   5.811   0.803
 2593SOL    HW2 8679   3.167   5.768   0.957
 2594SOL     OW 8680   0.696   5.549   6.052
 2594SOL    HW1 8681   0.697   5.551   5.952
 2594SOL    HW2 8682   0.681   5.456   6.084
 2595SOL     OW 8683   6.517   2.028   4.596
 2595SOL    HW1 8684   6.487   2.044   4.502
 2595SOL    HW2 8685   6.510   2.113   4.648
 2596SOL     OW 8686   3.769   1.867   1.595
 2596SOL    HW1 8687   3.811   1.907   1.513
 2596SOL    HW2 8688   3.835   1.809   1.641
 2597SOL     OW 8689   1.296   3.921   5.871
 2597SOL    HW1 8690   1.331   3.918   5.778
 2597SOL    HW2 8691   1.202   3.886   5.872
 2598SOL     OW 8692   6.072   1.406   4.375
 2598SOL    HW1 8693   6.148   1.351   4.341
 2598SOL    HW2 8694   6.085   1.502   4.350
 2599SOL     OW 8695   2.370   6.884   0.912
 2599SOL    HW1 8696   2.346   6.791   0.885
 2599SOL    HW2 8697   2.298   6.922   0.970
 2600SOL     OW 8698   5.012   3.528   4.202
 2600SOL    HW1 8699   5.065   3.612   4.198
 2600SOL    HW2 8700   5.058   3.457   4.148
 2601SOL     OW 8701   1.786   1.929   0.515
 2601SOL    HW1 8702   1.823   1.861   0.452
 2601SOL    HW2 8703   1.695   1.956   0.485
 2602SOL     OW 8704   6.533   4.482   4.245
 2602SOL    HW1 8705   6.624   4.443   4.228
 2602SOL    HW2 8706   6.467   4.408   4.255
 2603SOL     OW 8707   2.398   1.941   1.687
 2603SOL    HW1 8708   2.323   1.877   1.700
 2603SOL    HW2 8709   2.437   1.966   1.776
 2604SOL     OW 8710   5.022   1.326   2.782
 2604SOL    HW1 8711   4.966   1.407   2.765
 2604SOL    HW2 8712   5.084   1.344   2.858
 2605SOL     OW 8713   2.033   4.366   2.642
 2605SOL    HW1 8714   2.010   4.330   2.732
 2605SOL    HW2 8715   1.951   4.399   2.596
 2606SOL     OW 8716   6.726   4.421   1.458
 2606SOL    HW1 8717   6.728   4.512   1.418
 2606SOL    HW2 8718   6.635   4.403   1.496
 2607SOL     OW 8719   0.433   0.964   6.852
 2607SOL    HW1 8720   0.399   0.895   6.917
 2607SOL    HW2 8721   0.528   0.945   6.830
 2608SOL     OW 8722   4.986   4.805   1.589
 2608SOL    HW1 8723   4.906   4.862   1.605
 2608SOL    HW2 8724   4.961   4.708   1.595
 2609SOL     OW 8725   6.854   1.765   1.490
 2609SOL    HW1 8726   6.926   1.813   1.440
 2609SOL    HW2 8727   6.848   1.671   1.457
 2610SOL     OW 8728   0.393   4.855   4.763
 2610SOL    HW1 8729   0.480   4.901   4.747
 2610SOL    HW2 8730   0.335   4.862   4.682
 2611SOL     OW 8731   4.437   6.362   0.960
 2611SOL    HW1 8732   4.370   6.384   0.889
 2611SOL    HW2 8733   4.429   6.266   0.985
 2612SOL     OW 8734   0.060   7.013   5.828
 2612SOL    HW1 8735   0.157   0.010   5.823
 2612SOL    HW2 8736   0.036   6.953   5.752
 2613SOL     OW 8737   2.581   6.719   6.764
 2613SOL    HW1 8738   2.638   6.801   6.772
 2613SOL    HW2 8739   2.555   6.688   6.855
 2614SOL     OW 8740   0.040   0.823   6.397
 2614SOL    HW1 8741   0.032   0.745   6.334
 2614SOL    HW2 8742   6.984   0.830   6.452
 2615SOL     OW 8743   0.041   2.300   3.234
 2615SOL    HW1 8744   6.973   2.274   3.253
 2615SOL    HW2 8745   0.095   2.296   3.318
 2616SOL     OW 8746   3.441   2.878   5.316
 2616SOL    HW1 8747   3.396   2.967   5.314
 2616SOL    HW2 8748   3.450   2.844   5.223
 2617SOL     OW 8749   3.401   6.221   0.548
 2617SOL    HW1 8750   3.373   6.318   0.551
 2617SOL    HW2 8751   3.340   6.168   0.606
 2618SOL     OW 8752   6.985   0.466   4.365
 2618SOL    HW1 8753   7.012   0.504   4.453
 2618SOL    HW2 8754   6.929   0.384   4.379
 2619SOL     OW 8755   4.296   1.803   3.497
 2619SOL    HW1 8756   4.203   1.766   3.507
 2619SOL    HW2 8757   4.308   1.835   3.403
 2620SOL     OW 8758   0.246   0.076   3.037
 2620SOL    HW1 8759   0.192   7.025   3.067
 2620SOL    HW2 8760   0.197   0.124   2.963
 2621SOL     OW 8761   1.585   5.736   2.838
 2621SOL    HW1 8762   1.637   5.784   2.909
 2621SOL    HW2 8763   1.597   5.637   2.849
 2622SOL     OW 8764   2.084   3.114   5.455
 2622SOL    HW1 8765   2.181   3.107   5.431
 2622SOL    HW2 8766   2.043   3.189   5.405
 2623SOL     OW 8767   1.879   1.693   5.478
 2623SOL    HW1 8768   1.950   1.638   5.433
 2623SOL    HW2 8769   1.791   1.674   5.436
 2624SOL     OW 8770   6.830   2.000   5.954
 2624SOL    HW1 8771   6.750   1.950   5.920
 2624SOL    HW2 8772   6.813   2.027   6.049
 2625SOL     OW 8773   2.179   2.623   5.192
 2625SOL    HW1 8774   2.125   2.692   5.144
 2625SOL    HW2 8775   2.276   2.635   5.170
 2626SOL     OW 8776   0.544   0.284   5.754
 2626SOL    HW1 8777   0.547   0.248   5.661
 2626SOL    HW2 8778   0.604   0.230   5.813
 2627SOL     OW 8779   1.679   1.387   5.642
 2627SOL    HW1 8780   1.639   1.323   5.576
 2627SOL    HW2 8781   1.775   1.403   5.619
 2628SOL     OW 8782   1.807   4.514   5.608
 2628SOL    HW1 8783   1.749   4.590   5.637
 2628SOL    HW2 8784   1.890   4.513   5.663
 2629SOL     OW 8785   2.897   3.216   1.439
 2629SOL    HW1 8786   2.940   3.303   1.465
 2629SOL    HW2 8787   2.939   3.141   1.490
 2630SOL     OW 8788   2.932   1.936   2.565
 2630SOL    HW1 8789   3.009   1.887   2.524
 2630SOL    HW2 8790   2.964   2.023   2.602
 2631SOL     OW 8791   5.385   0.780   5.395
 2631SOL    HW1 8792   5.437   0.777   5.310
 2631SOL    HW2 8793   5.424   0.849   5.456
 2632SOL     OW 8794   4.024   3.055   6.487
 2632SOL    HW1 8795   4.074   3.019   6.566
 2632SOL    HW2 8796   3.928   3.029   6.494
 2633SOL     OW 8797   0.355   1.189   4.616
 2633SOL    HW1 8798   0.373   1.286   4.628
 2633SOL    HW2 8799   0.409   1.137   4.683
 2634SOL     OW 8800   0.605   4.763   3.544
 2634SOL    HW1 8801   0.596   4.863   3.543
 2634SOL    HW2 8802   0.688   4.738   3.592
 2635SOL     OW 8803   6.497   6.305   5.464
 2635SOL    HW1 8804   6.493   6.278   5.368
 2635SOL    HW2 8805   6.405   6.315   5.500
 2636SOL     OW 8806   4.921   0.689   5.557
 2636SOL    HW1 8807   5.003   0.742   5.533
 2636SOL    HW2 8808   4.943   0.591   5.555
 2637SOL     OW 8809   4.699   1.753   3.518
 2637SOL    HW1 8810   4.796   1.770   3.532
 2637SOL    HW2 8811   4.671   1.791   3.430
 2638SOL     OW 8812   6.747   6.959   3.744
 2638SOL    HW1 8813   6.663   7.013   3.734
 2638SOL    HW2 8814   6.726   6.862   3.738
 2639SOL     OW 8815   0.156   6.034   0.740
 2639SOL    HW1 8816   0.106   6.120   0.756
 2639SOL    HW2 8817   0.099   5.957   0.767
 2640SOL     OW 8818   0.558   6.080   5.289
 2640SOL    HW1 8819   0.518   5.992   5.318
 2640SOL    HW2 8820   0.655   6.082   5.315
 2641SOL     OW 8821   5.005   3.314   2.691
 2641SOL    HW1 8822   4.955   3.329   2.606
 2641SOL    HW2 8823   5.099   3.287   2.670
 2642SOL     OW 8824   4.356   6.612   3.899
 2642SOL    HW1 8825   4.430   6.679   3.901
 2642SOL    HW2 8826   4.275   6.650   3.944
 2643SOL     OW 8827   0.463   3.992   3.287
 2643SOL    HW1 8828   0.416   3.935   3.354
 2643SOL    HW2 8829   0.432   4.087   3.297
 2644SOL     OW 8830   5.576   6.368   5.653
 2644SOL    HW1 8831   5.673   6.344   5.659
 2644SOL    HW2 8832   5.550   6.426   5.730
 2645SOL     OW 8833   4.493   5.926   4.552
 2645SOL    HW1 8834   4.516   5.882   4.465
 2645SOL    HW2 8835   4.403   5.895   4.583
 2646SOL     OW 8836   6.151   0.931   6.933
 2646SOL    HW1 8837   6.152   0.945   0.005
 2646SOL    HW2 8838   6.167   0.834   6.913
 2647SOL     OW 8839   6.741   0.114   2.307
 2647SOL    HW1 8840   6.760   0.085   2.401
 2647SOL    HW2 8841   6.721   0.034   2.251
 2648SOL     OW 8842   0.674   0.218   4.157
 2648SOL    HW1 8843   0.711   0.147   4.217
 2648SOL    HW2 8844   0.598   0.180   4.104
 2649SOL     OW 8845   5.667   2.814   6.754
 2649SOL    HW1 8846   5.647   2.732   6.702
 2649SOL    HW2 8847   5.745   2.861   6.714
 2650SOL     OW 8848   1.109   4.330   4.434
 2650SOL    HW1 8849   1.054   4.391   4.490
 2650SOL    HW2 8850   1.184   4.293   4.488
 2651SOL     OW 8851   1.009   1.111   0.467
 2651SOL    HW1 8852   1.069   1.183   0.432
 2651SOL    HW2 8853   1.059   1.024   0.469
 2652SOL     OW 8854   4.062   3.310   4.430
 2652SOL    HW1 8855   4.125   3.286   4.503
 2652SOL    HW2 8856   3.969   3.319   4.467
 2653SOL     OW 8857   4.927   7.000   4.976
 2653SOL    HW1 8858   4.837   6.970   5.007
 2653SOL    HW2 8859   4.920   0.066   4.937
 2654SOL     OW 8860   4.396   6.063   2.132
 2654SOL    HW1 8861   4.351   6.082   2.219
 2654SOL    HW2 8862   4.494   6.079   2.140
 2655SOL     OW 8863   4.377   6.089   4.343
 2655SOL    HW1 8864   4.387   6.175   4.394
 2655SOL    HW2 8865   4.327   6.023   4.399
 2656SOL     OW 8866   3.895   4.901   4.672
 2656SOL    HW1 8867   3.801   4.880   4.648
 2656SOL    HW2 8868   3.897   4.961   4.752
 2657SOL     OW 8869   0.810   4.006   5.961
 2657SOL    HW1 8870   0.763   3.929   6.005
 2657SOL    HW2 8871   0.860   3.974   5.881
 2658SOL     OW 8872   4.859   4.383   0.673
 2658SOL    HW1 8873   4.876   4.292   0.636
 2658SOL    HW2 8874   4.844   4.448   0.598
 2659SOL     OW 8875   5.268   3.003   4.371
 2659SOL    HW1 8876   5.272   2.990   4.272
 2659SOL    HW2 8877   5.359   2.988   4.410
 2660SOL     OW 8878   1.882   0.217   1.612
 2660SOL    HW1 8879   1.935   0.208   1.696
 2660SOL    HW2 8880   1.801   0.159   1.617
 2661SOL     OW 8881   2.617   6.955   1.026
 2661SOL    HW1 8882   2.645   7.018   0.954
 2661SOL    HW2 8883   2.521   6.929   1.012
 2662SOL     OW 8884   5.177   6.636   4.534
 2662SOL    HW1 8885   5.142   6.548   4.501
 2662SOL    HW2 8886   5.200   6.694   4.455
 2663SOL     OW 8887   3.054   4.086   6.688
 2663SOL    HW1 8888   3.116   4.039   6.751
 2663SOL    HW2 8889   2.964   4.095   6.731
 2664SOL     OW 8890   4.670   3.961   5.249
 2664SOL    HW1 8891   4.642   4.033   5.313
 2664SOL    HW2 8892   4.718   4.002   5.172
 2665SOL     OW 8893   2.455   2.685   5.183
 2665SOL    HW1 8894   2.544   2.654   5.217
 2665SOL    HW2 8895   2.447   2.784   5.196
 2666SOL     OW 8896   5.992   4.829   1.261
 2666SOL    HW1 8897   5.923   4.771   1.304
 2666SOL    HW2 8898   6.072   4.773   1.238
 2667SOL     OW 8899   0.451   6.396   3.900
 2667SOL    HW1 8900   0.507   6.363   3.976
 2667SOL    HW2 8901   0.497   6.473   3.855
 2668SOL     OW 8902   0.456   3.287   4.624
 2668SOL    HW1 8903   0.490   3.252   4.711
 2668SOL    HW2 8904   0.532   3.298   4.561
 2669SOL     OW 8905   2.721   4.489   5.354
 2669SOL    HW1 8906   2.778   4.515   5.276
 2669SOL    HW2 8907   2.730   4.557   5.426
 2670SOL     OW 8908   6.000   3.414   6.390
 2670SOL    HW1 8909   5.927   3.432   6.323
 2670SOL    HW2 8910   5.959   3.394   6.479
 2671SOL     OW 8911   4.436   5.493   5.879
 2671SOL    HW1 8912   4.535   5.511   5.875
 2671SOL    HW2 8913   4.410   5.473   5.973
 2672SOL     OW 8914   1.497   5.085   0.778
 2672SOL    HW1 8915   1.471   5.030   0.699
 2672SOL    HW2 8916   1.588   5.123   0.764
 2673SOL     OW 8917   5.863   0.841   2.913
 2673SOL    HW1 8918   5.875   0.912   2.982
 2673SOL    HW2 8919   5.911   0.758   2.941
 2674SOL     OW 8920   1.248   4.111   3.863
 2674SOL    HW1 8921   1.273   4.028   3.813
 2674SOL    HW2 8922   1.150   4.109   3.883
 2675SOL     OW 8923   6.399   5.411   3.676
 2675SOL    HW1 8924   6.447   5.458   3.601
 2675SOL    HW2 8925   6.402   5.312   3.661
 2676SOL     OW 8926   3.953   2.574   0.959
 2676SOL    HW1 8927   3.945   2.587   1.058
 2676SOL    HW2 8928   3.863   2.552   0.921
 2677SOL     OW 8929   2.896   3.557   0.474
 2677SOL    HW1 8930   2.965   3.485   0.467
 2677SOL    HW2 8931   2.831   3.548   0.398
 2678SOL     OW 8932   0.414   2.912   1.541
 2678SOL    HW1 8933   0.441   2.973   1.615
 2678SOL    HW2 8934   0.356   2.962   1.476
 2679SOL     OW 8935   3.093   4.231   0.344
 2679SOL    HW1 8936   3.032   4.221   0.422
 2679SOL    HW2 8937   3.053   4.295   0.278
 2680SOL     OW 8938   0.849   1.767   0.575
 2680SOL    HW1 8939   0.809   1.829   0.642
 2680SOL    HW2 8940   0.926   1.719   0.617
 2681SOL     OW 8941   1.039   2.808   3.983
 2681SOL    HW1 8942   1.070   2.833   3.891
 2681SOL    HW2 8943   1.116   2.773   4.036
 2682SOL     OW 8944   4.806   4.108   2.859
 2682SOL    HW1 8945   4.750   4.191   2.868
 2682SOL    HW2 8946   4.851   4.108   2.769
 2683SOL     OW 8947   2.419   4.997   1.288
 2683SOL    HW1 8948   2.340   5.058   1.289
 2683SOL    HW2 8949   2.398   4.914   1.341
 2684SOL     OW 8950   4.221   5.722   1.877
 2684SOL    HW1 8951   4.313   5.754   1.857
 2684SOL    HW2 8952   4.212   5.627   1.847
 2685SOL     OW 8953   5.919   6.502   6.547
 2685SOL    HW1 8954   5.834   6.460   6.579
 2685SOL    HW2 8955   5.981   6.431   6.513
 2686SOL     OW 8956   1.744   2.089   6.136
 2686SOL    HW1 8957   1.760   2.185   6.116
 2686SOL    HW2 8958   1.699   2.080   6.225
 2687SOL     OW 8959   5.096   4.771   1.970
 2687SOL    HW1 8960   5.058   4.861   1.945
 2687SOL    HW2 8961   5.152   4.737   1.894
 2688SOL     OW 8962   3.805   3.794   0.037
 2688SOL    HW1 8963   3.826   3.736   6.985
 2688SOL    HW2 8964   3.739   3.864   0.011
 2689SOL     OW 8965   1.408   3.928   3.708
 2689SOL    HW1 8966   1.354   3.844   3.699
 2689SOL    HW2 8967   1.382   3.992   3.636
 2690SOL     OW 8968   3.607   3.254   4.066
 2690SOL    HW1 8969   3.607   3.165   4.019
 2690SOL    HW2 8970   3.612   3.240   4.165
 2691SOL     OW 8971   1.817   5.609   2.314
 2691SOL    HW1 8972   1.909   5.588   2.347
 2691SOL    HW2 8973   1.811   5.588   2.216
 2692SOL     OW 8974   3.194   5.259   2.628
 2692SOL    HW1 8975   3.212   5.354   2.652
 2692SOL    HW2 8976   3.096   5.244   2.620
 2693SOL     OW 8977   2.365   5.665   3.239
 2693SOL    HW1 8978   2.282   5.713   3.267
 2693SOL    HW2 8979   2.445   5.716   3.270
 2694SOL     OW 8980   3.625   5.775   2.936
 2694SOL    HW1 8981   3.640   5.796   3.032
 2694SOL    HW2 8982   3.686   5.833   2.880
 2695SOL     OW 8983   5.824   0.127   2.626
 2695SOL    HW1 8984   5.823   0.182   2.710
 2695SOL    HW2 8985   5.779   0.177   2.552
 2696SOL     OW 8986   3.718   3.140   5.278
 2696SOL    HW1 8987   3.780   3.077   5.231
 2696SOL    HW2 8988   3.770   3.201   5.337
 2697SOL     OW 8989   3.075   1.647   2.547
 2697SOL    HW1 8990   3.122   1.703   2.478
 2697SOL    HW2 8991   3.051   1.559   2.507
 2698SOL     OW 8992   2.014   6.231   0.376
 2698SOL    HW1 8993   1.951   6.285   0.432
 2698SOL    HW2 8994   1.973   6.215   0.287
 2699SOL     OW 8995   2.735   6.599   0.404
 2699SOL    HW1 8996   2.753   6.660   0.326
 2699SOL    HW2 8997   2.820   6.554   0.431
 2700SOL     OW 8998   2.403   3.542   0.080
 2700SOL    HW1 8999   2.406   3.473   0.152
 2700SOL    HW2 9000   2.439   3.504   7.022
 2701SOL     OW 9001   5.726   1.761   5.878
 2701SOL    HW1 9002   5.793   1.833   5.858
 2701SOL    HW2 9003   5.677   1.785   5.962
 2702SOL     OW 9004   0.107   2.514   3.656
 2702SOL    HW1 9005   0.019   2.546   3.620
 2702SOL    HW2 9006   0.138   2.577   3.728
 2703SOL     OW 9007   1.101   6.923   1.372
 2703SOL    HW1 9008   1.108   7.004   1.313
 2703SOL    HW2 9009   1.017   6.873   1.350
 2704SOL     OW 9010   6.894   5.574   1.237
 2704SOL    HW1 9011   6.840   5.574   1.321
 2704SOL    HW2 9012   6.965   5.503   1.244
 2705SOL     OW 9013   0.201   5.651   4.472
 2705SOL    HW1 9014   0.157   5.563   4.456
 2705SOL    HW2 9015   0.237   5.687   4.386
 2706SOL     OW 9016   6.982   5.954   1.452
 2706SOL    HW1 9017   6.890   5.914   1.457
 2706SOL    HW2 9018   0.007   5.909   1.379
 2707SOL     OW 9019   3.669   6.910   4.230
 2707SOL    HW1 9020   3.678   6.932   4.133
 2707SOL    HW2 9021   3.574   6.888   4.252
 2708SOL     OW 9022   0.496   2.471   0.099
 2708SOL    HW1 9023   0.500   2.420   0.185
 2708SOL    HW2 9024   0.550   2.424   0.030
 2709SOL     OW 9025   5.470   0.369   6.835
 2709SOL    HW1 9026   5.433   0.437   6.898
 2709SOL    HW2 9027   5.568   0.382   6.826
 2710SOL     OW 9028   0.518   3.981   3.628
 2710SOL    HW1 9029   0.492   3.922   3.552
 2710SOL    HW2 9030   0.452   4.056   3.637
 2711SOL     OW 9031   2.734   0.334   3.298
 2711SOL    HW1 9032   2.693   0.425   3.300
 2711SOL    HW2 9033   2.795   0.323   3.378
 2712SOL     OW 9034   3.084   4.345   1.171
 2712SOL    HW1 9035   3.064   4.345   1.268
 2712SOL    HW2 9036   3.015   4.398   1.122
 2713SOL     OW 9037   2.552   2.487   4.407
 2713SOL    HW1 9038   2.495   2.459   4.484
 2713SOL    HW2 9039   2.647   2.495   4.438
 2714SOL     OW 9040   3.389   2.089   0.539
 2714SOL    HW1 9041   3.333   2.172   0.533
 2714SOL    HW2 9042   3.484   2.110   0.517
 2715SOL     OW 9043   5.050   1.881   0.610
 2715SOL    HW1 9044   5.092   1.836   0.531
 2715SOL    HW2 9045   5.116   1.946   0.649
 2716SOL     OW 9046   5.211   4.132   2.315
 2716SOL    HW1 9047   5.161   4.046   2.301
 2716SOL    HW2 9048   5.242   4.167   2.226
 2717SOL     OW 9049   0.625   6.489   2.362
 2717SOL    HW1 9050   0.574   6.439   2.292
 2717SOL    HW2 9051   0.636   6.584   2.334
 2718SOL     OW 9052   1.757   2.080   4.989
 2718SOL    HW1 9053   1.783   2.005   5.050
 2718SOL    HW2 9054   1.788   2.060   4.896
 2719SOL     OW 9055   6.956   5.332   1.026
 2719SOL    HW1 9056   6.864   5.317   0.988
 2719SOL    HW2 9057   6.960   5.296   1.119
 2720SOL     OW 9058   2.227   6.026   1.860
 2720SOL    HW1 9059   2.232   5.932   1.895
 2720SOL    HW2 9060   2.238   6.090   1.936
 2721SOL     OW 9061   2.890   6.729   3.104
 2721SOL    HW1 9062   2.934   6.812   3.138
 2721SOL    HW2 9063   2.956   6.674   3.054
 2722SOL     OW 9064   6.682   5.407   0.804
 2722SOL    HW1 9065   6.636   5.496   0.802
 2722SOL    HW2 9066   6.776   5.417   0.772
 2723SOL     OW 9067   0.692   7.019   6.392
 2723SOL    HW1 9068   0.617   0.030   6.337
 2723SOL    HW2 9069   0.779   0.007   6.344
 2724SOL     OW 9070   1.665   6.457   6.941
 2724SOL    HW1 9071   1.697   6.506   7.022
 2724SOL    HW2 9072   1.741   6.405   6.901
 2725SOL     OW 9073   5.298   5.101   4.567
 2725SOL    HW1 9074   5.202   5.112   4.539
 2725SOL    HW2 9075   5.304   5.032   4.639
 2726SOL     OW 9076   0.060   2.416   0.885
 2726SOL    HW1 9077   0.009   2.349   0.940
 2726SOL    HW2 9078   0.152   2.379   0.866
 2727SOL     OW 9079   0.603   5.267   3.211
 2727SOL    HW1 9080   0.637   5.174   3.192
 2727SOL    HW2 9081   0.551   5.267   3.296
 2728SOL     OW 9082   4.872   6.807   5.466
 2728SOL    HW1 9083   4.848   6.744   5.540
 2728SOL    HW2 9084   4.817   6.786   5.385
 2729SOL     OW 9085   0.005   5.819   0.856
 2729SOL    HW1 9086   0.041   5.752   0.921
 2729SOL    HW2 9087   6.945   5.787   0.819
 2730SOL     OW 9088   1.454   5.768   1.491
 2730SOL    HW1 9089   1.423   5.676   1.514
 2730SOL    HW2 9090   1.475   5.774   1.393
 2731SOL     OW 9091   3.734   3.924   2.990
 2731SOL    HW1 9092   3.718   3.932   3.088
 2731SOL    HW2 9093   3.831   3.941   2.971
 2732SOL     OW 9094   5.506   2.045   1.796
 2732SOL    HW1 9095   5.572   1.993   1.850
 2732SOL    HW2 9096   5.414   2.011   1.816
 2733SOL     OW 9097   6.585   1.453   4.849
 2733SOL    HW1 9098   6.660   1.514   4.821
 2733SOL    HW2 9099   6.610   1.409   4.935
 2734SOL     OW 9100   2.563   6.198   1.422
 2734SOL    HW1 9101   2.498   6.146   1.368
 2734SOL    HW2 9102   2.605   6.138   1.490
 2735SOL     OW 9103   1.212   3.441   2.397
 2735SOL    HW1 9104   1.216   3.341   2.394
 2735SOL    HW2 9105   1.234   3.473   2.489
 2736SOL     OW 9106   5.086   6.839   5.313
 2736SOL    HW1 9107   5.092   6.747   5.272
 2736SOL    HW2 9108   5.009   6.842   5.376
 2737SOL     OW 9109   3.231   3.321   6.211
 2737SOL    HW1 9110   3.284   3.405   6.195
 2737SOL    HW2 9111   3.143   3.345   6.252
 2738SOL     OW 9112   5.122   6.169   2.035
 2738SOL    HW1 9113   5.062   6.200   2.109
 2738SOL    HW2 9114   5.188   6.240   2.013
 2739SOL     OW 9115   0.144   5.314   1.568
 2739SOL    HW1 9116   0.126   5.218   1.548
 2739SOL    HW2 9117   0.113   5.336   1.660
 2740SOL     OW 9118   0.159   3.942   2.318
 2740SOL    HW1 9119   0.254   3.916   2.298
 2740SOL    HW2 9120   0.131   4.016   2.257
 2741SOL     OW 9121   6.121   0.443   4.643
 2741SOL    HW1 9122   6.125   0.518   4.577
 2741SOL    HW2 9123   6.186   0.372   4.616
 2742SOL     OW 9124   2.106   5.377   6.791
 2742SOL    HW1 9125   2.202   5.403   6.800
 2742SOL    HW2 9126   2.062   5.433   6.722
 2743SOL     OW 9127   6.454   4.593   2.362
 2743SOL    HW1 9128   6.483   4.663   2.428
 2743SOL    HW2 9129   6.520   4.518   2.362
 2744SOL     OW 9130   5.394   2.042   6.176
 2744SOL    HW1 9131   5.459   2.111   6.145
 2744SOL    HW2 9132   5.397   2.036   6.276
 2745SOL     OW 9133   6.542   0.230   6.158
 2745SOL    HW1 9134   6.583   0.194   6.074
 2745SOL    HW2 9135   6.529   0.155   6.223
 2746SOL     OW 9136   2.596   1.855   3.858
 2746SOL    HW1 9137   2.658   1.804   3.799
 2746SOL    HW2 9138   2.641   1.938   3.892
 2747SOL     OW 9139   6.247   3.830   6.377
 2747SOL    HW1 9140   6.225   3.925   6.355
 2747SOL    HW2 9141   6.341   3.824   6.411
 2748SOL     OW 9142   5.135   1.463   1.042
 2748SOL    HW1 9143   5.043   1.429   1.060
 2748SOL    HW2 9144   5.163   1.523   1.117
 2749SOL     OW 9145   0.123   5.187   2.536
 2749SOL    HW1 9146   0.192   5.150   2.598
 2749SOL    HW2 9147   0.038   5.204   2.587
 2750SOL     OW 9148   0.635   5.146   1.055
 2750SOL    HW1 9149   0.640   5.117   1.151
 2750SOL    HW2 9150   0.667   5.241   1.048
 2751SOL     OW 9151   1.108   5.005   1.482
 2751SOL    HW1 9152   1.187   4.943   1.482
 2751SOL    HW2 9153   1.027   4.956   1.514
 2752SOL     OW 9154   4.083   5.726   5.748
 2752SOL    HW1 9155   4.076   5.818   5.787
 2752SOL    HW2 9156   4.132   5.731   5.662
 2753SOL     OW 9157   0.750   6.299   5.629
 2753SOL    HW1 9158   0.793   6.209   5.624
 2753SOL    HW2 9159   0.750   6.330   5.724
 2754SOL     OW 9160   0.680   0.514   2.342
 2754SOL    HW1 9161   0.773   0.549   2.348
 2754SOL    HW2 9162   0.619   0.587   2.311
 2755SOL     OW 9163   2.469   6.832   2.964
 2755SOL    HW1 9164   2.431   6.797   3.050
 2755SOL    HW2 9165   2.394   6.852   2.901
 2756SOL     OW 9166   5.977   4.677   6.935
 2756SOL    HW1 9167   5.933   4.590   6.961
 2756SOL    HW2 9168   5.955   4.698   6.840
 2757SOL     OW 9169   2.798   0.320   6.747
 2757SOL    HW1 9170   2.706   0.340   6.714
 2757SOL    HW2 9171   2.815   0.371   6.831
 2758SOL     OW 9172   3.983   6.736   4.467
 2758SOL    HW1 9173   3.890   6.704   4.489
 2758SOL    HW2 9174   3.985   6.769   4.372
 2759SOL     OW 9175   5.286   6.085   5.340
 2759SOL    HW1 9176   5.216   6.035   5.289
 2759SOL    HW2 9177   5.367   6.096   5.283
 2760SOL     OW 9178   1.064   5.593   2.578
 2760SOL    HW1 9179   0.999   5.541   2.523
 2760SOL    HW2 9180   1.110   5.661   2.520
 2761SOL     OW 9181   2.026   5.023   5.148
 2761SOL    HW1 9182   1.998   5.011   5.053
 2761SOL    HW2 9183   2.049   4.935   5.188
 2762SOL     OW 9184   1.910   0.501   5.297
 2762SOL    HW1 9185   1.832   0.516   5.357
 2762SOL    HW2 9186   1.954   0.588   5.276
 2763SOL     OW 9187   4.769   2.193   3.747
 2763SOL    HW1 9188   4.841   2.134   3.782
 2763SOL    HW2 9189   4.717   2.232   3.823
 2764SOL     OW 9190   6.741   0.839   1.410
 2764SOL    HW1 9191   6.705   0.782   1.484
 2764SOL    HW2 9192   6.747   0.934   1.441
 2765SOL     OW 9193   6.794   0.079   0.196
 2765SOL    HW1 9194   6.822   0.044   0.286
 2765SOL    HW2 9195   6.844   0.163   0.176
 2766SOL     OW 9196   5.140   2.590   0.589
 2766SOL    HW1 9197   5.136   2.639   0.675
 2766SOL    HW2 9198   5.209   2.631   0.530
 2767SOL     OW 9199   6.462   5.022   6.963
 2767SOL    HW1 9200   6.466   5.079   6.881
 2767SOL    HW2 9201   6.423   5.074   0.012
 2768SOL     OW 9202   4.204   0.658   0.961
 2768SOL    HW1 9203   4.132   0.589   0.958
 2768SOL    HW2 9204   4.260   0.643   1.042
 2769SOL     OW 9205   2.056   4.810   5.322
 2769SOL    HW1 9206   2.066   4.711   5.315
 2769SOL    HW2 9207   2.105   4.842   5.403
 2770SOL     OW 9208   4.024   5.945   5.925
 2770SOL    HW1 9209   4.099   6.002   5.961
 2770SOL    HW2 9210   3.941   5.963   5.978
 2771SOL     OW 9211   6.306   0.861   3.673
 2771SOL    HW1 9212   6.227   0.877   3.733
 2771SOL    HW2 9213   6.370   0.800   3.719
 2772SOL     OW 9214   3.994   2.038   0.513
 2772SOL    HW1 9215   3.954   1.948   0.493
 2772SOL    HW2 9216   3.944   2.080   0.589
 2773SOL     OW 9217   6.170   1.954   4.644
 2773SOL    HW1 9218   6.096   2.010   4.681
 2773SOL    HW2 9219   6.257   1.985   4.682
 2774SOL     OW 9220   5.126   2.888   3.002
 2774SOL    HW1 9221   5.169   2.901   2.913
 2774SOL    HW2 9222   5.078   2.801   3.004
 2775SOL     OW 9223   0.032   4.753   5.538
 2775SOL    HW1 9224   0.028   4.800   5.626
 2775SOL    HW2 9225   0.085   4.669   5.547
 2776SOL     OW 9226   4.815   4.757   5.971
 2776SOL    HW1 9227   4.764   4.725   5.891
 2776SOL    HW2 9228   4.815   4.686   6.041
 2777SOL     OW 9229   2.785   1.889   1.167
 2777SOL    HW1 9230   2.728   1.808   1.182
 2777SOL    HW2 9231   2.759   1.960   1.233
 2778SOL     OW 9232   1.626   6.923   5.384
 2778SOL    HW1 9233   1.701   6.982   5.413
 2778SOL    HW2 9234   1.613   6.850   5.451
 2779SOL     OW 9235   5.196   6.762   2.131
 2779SOL    HW1 9236   5.221   6.857   2.109
 2779SOL    HW2 9237   5.273   6.702   2.111
 2780SOL     OW 9238   0.669   6.777   0.171
 2780SOL    HW1 9239   0.732   6.700   0.173
 2780SOL    HW2 9240   0.584   6.750   0.126
 2781SOL     OW 9241   5.941   0.255   1.941
 2781SOL    HW1 9242   6.012   0.312   1.982
 2781SOL    HW2 9243   5.957   0.159   1.967
 2782SOL     OW 9244   4.841   1.626   5.719
 2782SOL    HW1 9245   4.826   1.598   5.813
 2782SOL    HW2 9246   4.787   1.569   5.657
 2783SOL     OW 9247   5.510   3.959   2.903
 2783SOL    HW1 9248   5.582   3.996   2.845
 2783SOL    HW2 9249   5.471   3.878   2.860
 2784SOL     OW 9250   3.270   1.591   2.249
 2784SOL    HW1 9251   3.272   1.678   2.299
 2784SOL    HW2 9252   3.339   1.530   2.288
 2785SOL     OW 9253   5.409   2.535   0.864
 2785SOL    HW1 9254   5.444   2.445   0.842
 2785SOL    HW2 9255   5.457   2.572   0.944
 2786SOL     OW 9256   5.055   0.260   2.393
 2786SOL    HW1 9257   5.035   0.165   2.372
 2786SOL    HW2 9258   5.095   0.267   2.484
 2787SOL     OW 9259   5.518   0.692   6.373
 2787SOL    HW1 9260   5.441   0.631   6.392
 2787SOL    HW2 9261   5.604   0.644   6.392
 2788SOL     OW 9262   1.772   5.595   5.797
 2788SOL    HW1 9263   1.713   5.666   5.758
 2788SOL    HW2 9264   1.827   5.555   5.724
 2789SOL     OW 9265   1.535   2.588   3.976
 2789SOL    HW1 9266   1.633   2.578   3.990
 2789SOL    HW2 9267   1.491   2.498   3.980
 2790SOL     OW 9268   3.689   6.326   1.992
 2790SOL    HW1 9269   3.735   6.246   2.029
 2790SOL    HW2 9270   3.754   6.379   1.937
 2791SOL     OW 9271   0.470   2.760   2.982
 2791SOL    HW1 9272   0.455   2.746   3.080
 2791SOL    HW2 9273   0.384   2.742   2.933
 2792SOL     OW 9274   1.764   0.119   4.209
 2792SOL    HW1 9275   1.779   0.030   4.167
 2792SOL    HW2 9276   1.836   0.182   4.179
 2793SOL     OW 9277   5.526   4.289   1.661
 2793SOL    HW1 9278   5.544   4.192   1.640
 2793SOL    HW2 9279   5.430   4.309   1.641
 2794SOL     OW 9280   0.068   2.152   6.167
 2794SOL    HW1 9281   0.076   2.084   6.094
 2794SOL    HW2 9282   0.045   2.107   6.253
 2795SOL     OW 9283   0.848   3.182   0.823
 2795SOL    HW1 9284   0.893   3.269   0.846
 2795SOL    HW2 9285   0.903   3.106   0.858
 2796SOL     OW 9286   0.403   6.327   3.328
 2796SOL    HW1 9287   0.471   6.364   3.264
 2796SOL    HW2 9288   0.445   6.311   3.417
 2797SOL     OW 9289   5.055   5.395   4.540
 2797SOL    HW1 9290   5.071   5.494   4.546
 2797SOL    HW2 9291   4.964   5.374   4.578
 2798SOL     OW 9292   0.239   5.375   2.343
 2798SOL    HW1 9293   0.330   5.333   2.334
 2798SOL    HW2 9294   0.191   5.334   2.420
 2799SOL     OW 9295   6.108   5.676   6.068
 2799SOL    HW1 9296   6.114   5.770   6.102
 2799SOL    HW2 9297   6.160   5.669   5.983
 2800SOL     OW 9298   4.805   6.273   6.751
 2800SOL    HW1 9299   4.889   6.326   6.763
 2800SOL    HW2 9300   4.774   6.279   6.656
 2801SOL     OW 9301   0.144   5.849   5.850
 2801SOL    HW1 9302   0.181   5.905   5.775
 2801SOL    HW2 9303   0.044   5.854   5.849
 2802SOL     OW 9304   5.486   6.456   5.373
 2802SOL    HW1 9305   5.546   6.410   5.439
 2802SOL    HW2 9306   5.410   6.499   5.421
 2803SOL     OW 9307   4.272   6.040   5.989
 2803SOL    HW1 9308   4.366   6.065   6.012
 2803SOL    HW2 9309   4.268   6.004   5.896
 2804SOL     OW 9310   0.174   4.514   5.523
 2804SOL    HW1 9311   0.220   4.447   5.581
 2804SOL    HW2 9312   0.100   4.470   5.472
 2805SOL     OW 9313   5.983   3.629   2.335
 2805SOL    HW1 9314   5.945   3.716   2.306
 2805SOL    HW2 9315   6.082   3.637   2.347
 2806SOL     OW 9316   0.265   4.188   5.761
 2806SOL    HW1 9317   0.347   4.135   5.785
 2806SOL    HW2 9318   0.189   4.125   5.743
 2807SOL     OW 9319   3.392   6.901   4.250
 2807SOL    HW1 9320   3.389   6.918   4.152
 2807SOL    HW2 9321   3.349   6.977   4.299
 2808SOL     OW 9322   6.575   4.745   2.076
 2808SOL    HW1 9323   6.497   4.747   2.139
 2808SOL    HW2 9324   6.658   4.725   2.128
 2809SOL     OW 9325   5.615   2.659   0.999
 2809SOL    HW1 9326   5.675   2.709   0.936
 2809SOL    HW2 9327   5.640   2.562   0.999
 2810SOL     OW 9328   3.027   5.609   3.124
 2810SOL    HW1 9329   3.059   5.515   3.118
 2810SOL    HW2 9330   2.953   5.615   3.191
 2811SOL     OW 9331   1.379   2.263   4.155
 2811SOL    HW1 9332   1.444   2.191   4.134
 2811SOL    HW2 9333   1.421   2.329   4.218
 2812SOL     OW 9334   5.177   2.548   6.761
 2812SOL    HW1 9335   5.257   2.519   6.708
 2812SOL    HW2 9336   5.199   2.631   6.812
 2813SOL     OW 9337   0.981   0.486   6.576
 2813SOL    HW1 9338   1.035   0.539   6.510
 2813SOL    HW2 9339   1.042   0.440   6.640
 2814SOL     OW 9340   3.861   3.697   5.783
 2814SOL    HW1 9341   3.882   3.741   5.696
 2814SOL    HW2 9342   3.801   3.756   5.837
 2815SOL     OW 9343   6.572   6.169   6.556
 2815SOL    HW1 9344   6.586   6.263   6.588
 2815SOL    HW2 9345   6.487   6.164   6.503
 2816SOL     OW 9346   6.069   5.551   3.472
 2816SOL    HW1 9347   5.978   5.560   3.433
 2816SOL    HW2 9348   6.126   5.497   3.410
 2817SOL     OW 9349   2.871   0.121   1.874
 2817SOL    HW1 9350   2.898   0.042   1.929
 2817SOL    HW2 9351   2.944   0.190   1.878
 2818SOL     OW 9352   0.514   0.309   2.218
 2818SOL    HW1 9353   0.444   0.253   2.263
 2818SOL    HW2 9354   0.499   0.405   2.242
 2819SOL     OW 9355   1.788   0.603   1.882
 2819SOL    HW1 9356   1.789   0.543   1.802
 2819SOL    HW2 9357   1.813   0.696   1.855
 2820SOL     OW 9358   0.709   2.568   3.380
 2820SOL    HW1 9359   0.785   2.593   3.320
 2820SOL    HW2 9360   0.658   2.650   3.405
 2821SOL     OW 9361   3.688   4.032   6.078
 2821SOL    HW1 9362   3.665   3.947   6.030
 2821SOL    HW2 9363   3.623   4.046   6.153
 2822SOL     OW 9364   3.876   2.325   0.623
 2822SOL    HW1 9365   3.947   2.306   0.691
 2822SOL    HW2 9366   3.821   2.403   0.653
 2823SOL     OW 9367   4.857   0.824   0.925
 2823SOL    HW1 9368   4.828   0.857   1.015
 2823SOL    HW2 9369   4.932   0.881   0.892
 2824SOL     OW 9370   2.449   1.181   3.900
 2824SOL    HW1 9371   2.493   1.249   3.842
 2824SOL    HW2 9372   2.365   1.220   3.939
 2825SOL     OW 9373   5.049   6.380   6.748
 2825SOL    HW1 9374   5.112   6.398   6.824
 2825SOL    HW2 9375   5.090   6.412   6.663
 2826SOL     OW 9376   4.683   1.285   6.813
 2826SOL    HW1 9377   4.756   1.315   6.750
 2826SOL    HW2 9378   4.685   1.186   6.822
 2827SOL     OW 9379   0.965   1.732   6.721
 2827SOL    HW1 9380   0.904   1.655   6.740
 2827SOL    HW2 9381   1.007   1.763   6.806
 2828SOL     OW 9382   2.641   1.676   0.546
 2828SOL    HW1 9383   2.614   1.719   0.460
 2828SOL    HW2 9384   2.596   1.587   0.555
 2829SOL     OW 9385   2.891   3.416   4.759
 2829SOL    HW1 9386   2.911   3.318   4.751
 2829SOL    HW2 9387   2.860   3.451   4.671
 2830SOL     OW 9388   3.134   3.892   5.832
 2830SOL    HW1 9389   3.059   3.941   5.877
 2830SOL    HW2 9390   3.106   3.864   5.741
 2831SOL     OW 9391   0.947   4.209   3.458
 2831SOL    HW1 9392   0.934   4.197   3.556
 2831SOL    HW2 9393   0.958   4.307   3.438
 2832SOL     OW 9394   1.175   3.236   1.830
 2832SOL    HW1 9395   1.270   3.216   1.807
 2832SOL    HW2 9396   1.120   3.153   1.817
 2833SOL     OW 9397   2.949   1.538   2.222
 2833SOL    HW1 9398   3.034   1.546   2.170
 2833SOL    HW2 9399   2.872   1.558   2.163
 2834SOL     OW 9400   4.495   6.398   5.950
 2834SOL    HW1 9401   4.422   6.347   5.904
 2834SOL    HW2 9402   4.458   6.483   5.987
 2835SOL     OW 9403   0.471   5.851   1.262
 2835SOL    HW1 9404   0.411   5.778   1.228
 2835SOL    HW2 9405   0.433   5.940   1.236
 2836SOL     OW 9406   0.290   6.567   2.047
 2836SOL    HW1 9407   0.203   6.541   2.005
 2836SOL    HW2 9408   0.362   6.565   1.977
 2837SOL     OW 9409   4.541   4.511   2.258
 2837SOL    HW1 9410   4.563   4.453   2.179
 2837SOL    HW2 9411   4.539   4.606   2.229
 2838SOL     OW 9412   3.765   3.909   0.753
 2838SOL    HW1 9413   3.684   3.955   0.716
 2838SOL    HW2 9414   3.785   3.828   0.698
 2839SOL     OW 9415   6.515   1.780   2.706
 2839SOL    HW1 9416   6.507   1.817   2.614
 2839SOL    HW2 9417   6.436   1.808   2.761
 2840SOL     OW 9418   1.489   0.351   2.048
 2840SOL    HW1 9419   1.390   0.346   2.050
 2840SOL    HW2 9420   1.526   0.269   2.003
 2841SOL     OW 9421   0.120   1.353   6.249
 2841SOL    HW1 9422   0.204   1.379   6.295
 2841SOL    HW2 9423   0.136   1.346   6.150
 2842SOL     OW 9424   6.916   4.371   3.709
 2842SOL    HW1 9425   6.901   4.451   3.767
 2842SOL    HW2 9426   6.888   4.288   3.758
 2843SOL     OW 9427   2.074   1.750   3.023
 2843SOL    HW1 9428   2.102   1.759   3.118
 2843SOL    HW2 9429   2.109   1.827   2.970
 2844SOL     OW 9430   6.192   5.342   6.886
 2844SOL    HW1 9431   6.186   5.320   6.788
 2844SOL    HW2 9432   6.151   5.267   6.939
 2845SOL     OW 9433   5.633   3.376   2.283
 2845SOL    HW1 9434   5.692   3.417   2.353
 2845SOL    HW2 9435   5.572   3.309   2.325
 2846SOL     OW 9436   4.249   0.765   0.063
 2846SOL    HW1 9437   4.246   0.792   6.994
 2846SOL    HW2 9438   4.240   0.846   0.122
 2847SOL     OW 9439   5.535   4.242   3.232
 2847SOL    HW1 9440   5.472   4.166   3.221
 2847SOL    HW2 9441   5.600   4.222   3.306
 2848SOL     OW 9442   2.191   2.600   5.469
 2848SOL    HW1 9443   2.179   2.592   5.370
 2848SOL    HW2 9444   2.123   2.664   5.506
 2849SOL     OW 9445   4.575   6.811   0.806
 2849SOL    HW1 9446   4.647   6.858   0.857
 2849SOL    HW2 9447   4.546   6.730   0.858
 2850SOL     OW 9448   1.798   6.838   2.527
 2850SOL    HW1 9449   1.738   6.758   2.523
 2850SOL    HW2 9450   1.837   6.855   2.437
 2851SOL     OW 9451   5.809   2.179   5.769
 2851SOL    HW1 9452   5.865   2.135   5.839
 2851SOL    HW2 9453   5.715   2.149   5.778
 2852SOL     OW 9454   6.870   4.224   6.566
 2852SOL    HW1 9455   6.832   4.256   6.479
 2852SOL    HW2 9456   6.820   4.267   6.642
 2853SOL     OW 9457   2.083   1.717   6.252
 2853SOL    HW1 9458   2.018   1.686   6.321
 2853SOL    HW2 9459   2.034   1.760   6.176
 2854SOL     OW 9460   4.711   0.811   5.687
 2854SOL    HW1 9461   4.792   0.782   5.636
 2854SOL    HW2 9462   4.731   0.896   5.736
 2855SOL     OW 9463   1.877   2.229   5.852
 2855SOL    HW1 9464   1.866   2.252   5.949
 2855SOL    HW2 9465   1.964   2.181   5.839
 2856SOL     OW 9466   0.514   3.645   5.561
 2856SOL    HW1 9467   0.523   3.713   5.488
 2856SOL    HW2 9468   0.604   3.620   5.595
 2857SOL     OW 9469   1.896   3.002   1.807
 2857SOL    HW1 9470   1.964   3.075   1.815
 2857SOL    HW2 9471   1.912   2.933   1.878
 2858SOL     OW 9472   4.900   4.464   1.911
 2858SOL    HW1 9473   4.890   4.366   1.926
 2858SOL    HW2 9474   4.863   4.514   1.990
 2859SOL     OW 9475   5.798   0.162   0.005
 2859SOL    HW1 9476   5.788   0.203   0.096
 2859SOL    HW2 9477   5.723   0.097   7.016
 2860SOL     OW 9478   2.250   1.713   1.719
 2860SOL    HW1 9479   2.181   1.654   1.677
 2860SOL    HW2 9480   2.286   1.669   1.801
 2861SOL     OW 9481   3.642   5.238   6.111
 2861SOL    HW1 9482   3.571   5.180   6.071
 2861SOL    HW2 9483   3.730   5.217   6.068
 2862SOL     OW 9484   4.254   1.739   2.214
 2862SOL    HW1 9485   4.317   1.816   2.223
 2862SOL    HW2 9486   4.298   1.667   2.160
 2863SOL     OW 9487   4.906   1.900   6.593
 2863SOL    HW1 9488   4.970   1.933   6.662
 2863SOL    HW2 9489   4.858   1.819   6.627
 2864SOL     OW 9490   4.845   1.837   1.803
 2864SOL    HW1 9491   4.829   1.758   1.744
 2864SOL    HW2 9492   4.898   1.809   1.883
 2865SOL     OW 9493   4.098   6.584   5.301
 2865SOL    HW1 9494   4.038   6.522   5.252
 2865SOL    HW2 9495   4.151   6.638   5.236
 2866SOL     OW 9496   5.996   5.234   6.343
 2866SOL    HW1 9497   5.929   5.183   6.396
 2866SOL    HW2 9498   6.029   5.312   6.397
 2867SOL     OW 9499   6.108   6.338   3.235
 2867SOL    HW1 9500   6.100   6.284   3.151
 2867SOL    HW2 9501   6.041   6.305   3.302
 2868SOL     OW 9502   2.021   1.372   5.051
 2868SOL    HW1 9503   1.963   1.450   5.028
 2868SOL    HW2 9504   1.976   1.317   5.122
 2869SOL     OW 9505   6.650   0.748   3.123
 2869SOL    HW1 9506   6.730   0.768   3.178
 2869SOL    HW2 9507   6.678   0.724   3.030
 2870SOL     OW 9508   0.132   1.691   5.507
 2870SOL    HW1 9509   0.207   1.626   5.512
 2870SOL    HW2 9510   0.073   1.679   5.587
 2871SOL     OW 9511   6.853   1.620   6.723
 2871SOL    HW1 9512   6.860   1.707   6.772
 2871SOL    HW2 9513   6.766   1.615   6.675
 2872SOL     OW 9514   2.961   2.093   1.915
 2872SOL    HW1 9515   2.943   2.175   1.968
 2872SOL    HW2 9516   3.000   2.023   1.974
 2873SOL     OW 9517   0.011   5.623   2.760
 2873SOL    HW1 9518   0.034   5.719   2.775
 2873SOL    HW2 9519   6.989   5.587   2.839
 2874SOL     OW 9520   4.832   0.069   3.290
 2874SOL    HW1 9521   4.876   0.126   3.360
 2874SOL    HW2 9522   4.850   0.106   3.200
 2875SOL     OW 9523   5.284   0.201   1.697
 2875SOL    HW1 9524   5.185   0.205   1.713
 2875SOL    HW2 9525   5.328   0.281   1.739
 2876SOL     OW 9526   1.802   0.265   2.263
 2876SOL    HW1 9527   1.862   0.258   2.343
 2876SOL    HW2 9528   1.851   0.309   2.188
 2877SOL     OW 9529   2.154   1.526   5.426
 2877SOL    HW1 9530   2.164   1.618   5.466
 2877SOL    HW2 9531   2.200   1.523   5.338
 2878SOL     OW 9532   4.077   4.078   5.347
 2878SOL    HW1 9533   4.076   4.052   5.444
 2878SOL    HW2 9534   4.168   4.109   5.322
 2879SOL     OW 9535   5.126   4.763   6.793
 2879SOL    HW1 9536   5.163   4.840   6.741
 2879SOL    HW2 9537   5.195   4.732   6.859
 2880SOL     OW 9538   0.263   1.436   3.072
 2880SOL    HW1 9539   0.257   1.533   3.048
 2880SOL    HW2 9540   0.190   1.386   3.025
 2881SOL     OW 9541   4.483   6.171   6.469
 2881SOL    HW1 9542   4.506   6.266   6.490
 2881SOL    HW2 9543   4.418   6.137   6.538
 2882SOL     OW 9544   0.042   5.478   2.122
 2882SOL    HW1 9545   0.114   5.440   2.181
 2882SOL    HW2 9546   7.004   5.529   2.179
 2883SOL     OW 9547   6.261   0.557   3.328
 2883SOL    HW1 9548   6.225   0.650   3.318
 2883SOL    HW2 9549   6.351   0.552   3.285
 2884SOL     OW 9550   1.030   6.794   3.565
 2884SOL    HW1 9551   1.063   6.779   3.472
 2884SOL    HW2 9552   0.944   6.844   3.562
 2885SOL     OW 9553   1.783   4.110   3.663
 2885SOL    HW1 9554   1.755   4.165   3.585
 2885SOL    HW2 9555   1.786   4.167   3.746
 2886SOL     OW 9556   1.157   3.169   6.102
 2886SOL    HW1 9557   1.169   3.082   6.053
 2886SOL    HW2 9558   1.125   3.151   6.195
 2887SOL     OW 9559   0.290   0.783   5.762
 2887SOL    HW1 9560   0.312   0.851   5.832
 2887SOL    HW2 9561   0.194   0.757   5.769
 2888SOL     OW 9562   7.011   4.487   6.444
 2888SOL    HW1 9563   6.982   4.448   6.356
 2888SOL    HW2 9564   6.930   4.512   6.497
 2889SOL     OW 9565   2.647   6.320   2.347
 2889SOL    HW1 9566   2.674   6.339   2.441
 2889SOL    HW2 9567   2.684   6.390   2.286
 2890SOL     OW 9568   1.347   5.902   0.351
 2890SOL    HW1 9569   1.277   5.868   0.289
 2890SOL    HW2 9570   1.430   5.926   0.300
 2891SOL     OW 9571   0.587   4.777   3.247
 2891SOL    HW1 9572   0.657   4.711   3.221
 2891SOL    HW2 9573   0.571   4.771   3.346
 2892SOL     OW 9574   6.385   3.275   0.599
 2892SOL    HW1 9575   6.397   3.213   0.677
 2892SOL    HW2 9576   6.338   3.358   0.630
 2893SOL     OW 9577   0.273   5.208   4.049
 2893SOL    HW1 9578   0.280   5.113   4.018
 2893SOL    HW2 9579   0.290   5.270   3.973
 2894SOL     OW 9580   0.736   3.360   1.936
 2894SOL    HW1 9581   0.670   3.428   1.903
 2894SOL    HW2 9582   0.701   3.317   2.019
 2895SOL     OW 9583   5.127   1.578   5.523
 2895SOL    HW1 9584   5.148   1.581   5.426
 2895SOL    HW2 9585   5.061   1.505   5.540
 2896SOL     OW 9586   4.668   6.386   5.323
 2896SOL    HW1 9587   4.731   6.375   5.400
 2896SOL    HW2 9588   4.719   6.419   5.243
 2897SOL     OW 9589   3.670   4.881   2.851
 2897SOL    HW1 9590   3.598   4.830   2.805
 2897SOL    HW2 9591   3.664   4.865   2.950
 2898SOL     OW 9592   4.455   4.537   4.178
 2898SOL    HW1 9593   4.373   4.591   4.199
 2898SOL    HW2 9594   4.504   4.580   4.103
 2899SOL     OW 9595   0.797   2.071   0.289
 2899SOL    HW1 9596   0.892   2.100   0.295
 2899SOL    HW2 9597   0.758   2.102   0.202
 2900SOL     OW 9598   2.160   3.934   5.999
 2900SOL    HW1 9599   2.113   3.848   5.982
 2900SOL    HW2 9600   2.116   4.008   5.948
 2901SOL     OW 9601   2.287   4.825   3.224
 2901SOL    HW1 9602   2.239   4.758   3.280
 2901SOL    HW2 9603   2.381   4.834   3.255
 2902SOL     OW 9604   5.756   5.334   3.297
 2902SOL    HW1 9605   5.745   5.358   3.393
 2902SOL    HW2 9606   5.704   5.251   3.276
 2903SOL     OW 9607   3.625   0.420   0.505
 2903SOL    HW1 9608   3.630   0.386   0.411
 2903SOL    HW2 9609   3.531   0.442   0.528
 2904SOL     OW 9610   2.600   4.994   4.138
 2904SOL    HW1 9611   2.546   4.947   4.068
 2904SOL    HW2 9612   2.693   4.958   4.139
 2905SOL     OW 9613   1.224   2.920   4.942
 2905SOL    HW1 9614   1.306   2.927   4.884
 2905SOL    HW2 9615   1.143   2.942   4.887
 2906SOL     OW 9616   5.034   5.269   2.308
 2906SOL    HW1 9617   5.076   5.346   2.356
 2906SOL    HW2 9618   4.953   5.239   2.359
 2907SOL     OW 9619   0.578   1.141   3.847
 2907SOL    HW1 9620   0.539   1.062   3.894
 2907SOL    HW2 9621   0.523   1.162   3.766
 2908SOL     OW 9622   4.996   6.631   3.816
 2908SOL    HW1 9623   4.935   6.557   3.788
 2908SOL    HW2 9624   5.064   6.647   3.745
 2909SOL     OW 9625   1.621   5.538   4.177
 2909SOL    HW1 9626   1.693   5.519   4.244
 2909SOL    HW2 9627   1.643   5.491   4.091
 2910SOL     OW 9628   5.230   0.964   4.444
 2910SOL    HW1 9629   5.290   0.884   4.439
 2910SOL    HW2 9630   5.213   1.000   4.353
 2911SOL     OW 9631   1.028   5.393   3.605
 2911SOL    HW1 9632   0.952   5.370   3.545
 2911SOL    HW2 9633   1.006   5.475   3.658
 2912SOL     OW 9634   5.281   0.189   6.940
 2912SOL    HW1 9635   5.363   0.242   6.924
 2912SOL    HW2 9636   5.304   0.091   6.945
 2913SOL     OW 9637   3.232   4.859   1.778
 2913SOL    HW1 9638   3.243   4.929   1.708
 2913SOL    HW2 9639   3.276   4.891   1.863
 2914SOL     OW 9640   6.241   6.624   6.036
 2914SOL    HW1 9641   6.203   6.604   6.126
 2914SOL    HW2 9642   6.338   6.600   6.034
 2915SOL     OW 9643   3.404   2.102   4.041
 2915SOL    HW1 9644   3.434   2.127   3.949
 2915SOL    HW2 9645   3.324   2.042   4.034
 2916SOL     OW 9646   0.964   5.498   0.610
 2916SOL    HW1 9647   0.948   5.414   0.661
 2916SOL    HW2 9648   0.888   5.561   0.625
 2917SOL     OW 9649   2.323   0.439   3.312
 2917SOL    HW1 9650   2.360   0.472   3.399
 2917SOL    HW2 9651   2.397   0.405   3.254
 2918SOL     OW 9652   5.873   4.540   5.122
 2918SOL    HW1 9653   5.970   4.514   5.127
 2918SOL    HW2 9654   5.822   4.468   5.074
 2919SOL     OW 9655   5.477   0.913   2.400
 2919SOL    HW1 9656   5.498   0.963   2.484
 2919SOL    HW2 9657   5.445   0.821   2.422
 2920SOL     OW 9658   3.031   1.078   1.646
 2920SOL    HW1 9659   3.079   1.156   1.606
 2920SOL    HW2 9660   2.940   1.071   1.606
 2921SOL     OW 9661   0.802   6.892   4.686
 2921SOL    HW1 9662   0.823   6.809   4.739
 2921SOL    HW2 9663   0.888   6.940   4.666
 2922SOL     OW 9664   4.698   0.472   1.336
 2922SOL    HW1 9665   4.783   0.429   1.305
 2922SOL    HW2 9666   4.661   0.528   1.261
 2923SOL     OW 9667   6.113   5.185   2.732
 2923SOL    HW1 9668   6.171   5.171   2.812
 2923SOL    HW2 9669   6.166   5.227   2.659
 2924SOL     OW 9670   6.131   1.987   5.696
 2924SOL    HW1 9671   6.061   2.000   5.766
 2924SOL    HW2 9672   6.100   2.029   5.610
 2925SOL     OW 9673   4.684   1.531   2.466
 2925SOL    HW1 9674   4.665   1.435   2.442
 2925SOL    HW2 9675   4.666   1.545   2.563
 2926SOL     OW 9676   6.314   1.339   5.037
 2926SOL    HW1 9677   6.384   1.383   5.093
 2926SOL    HW2 9678   6.265   1.409   4.985
 2927SOL     OW 9679   1.662   4.042   1.258
 2927SOL    HW1 9680   1.714   4.128   1.249
 2927SOL    HW2 9681   1.680   4.002   1.348
 2928SOL     OW 9682   0.397   0.515   6.741
 2928SOL    HW1 9683   0.441   0.539   6.828
 2928SOL    HW2 9684   0.370   0.419   6.744
 2929SOL     OW 9685   1.349   2.162   6.834
 2929SOL    HW1 9686   1.277   2.156   6.903
 2929SOL    HW2 9687   1.309   2.176   6.744
 2930SOL     OW 9688   5.695   6.713   5.295
 2930SOL    HW1 9689   5.599   6.686   5.287
 2930SOL    HW2 9690   5.707   6.805   5.256
 2931SOL     OW 9691   5.805   4.444   6.873
 2931SOL    HW1 9692   5.708   4.431   6.888
 2931SOL    HW2 9693   5.827   4.426   6.777
 2932SOL     OW 9694   0.582   5.499   1.954
 2932SOL    HW1 9695   0.660   5.498   1.891
 2932SOL    HW2 9696   0.550   5.405   1.969
 2933SOL     OW 9697   0.893   5.332   2.983
 2933SOL    HW1 9698   0.949   5.396   2.931
 2933SOL    HW2 9699   0.804   5.374   3.002
 2934SOL     OW 9700   5.188   1.671   0.138
 2934SOL    HW1 9701   5.197   1.583   0.184
 2934SOL    HW2 9702   5.112   1.668   0.074
 2935SOL     OW 9703   0.202   2.827   6.665
 2935SOL    HW1 9704   0.182   2.922   6.688
 2935SOL    HW2 9705   0.136   2.767   6.710
 2936SOL     OW 9706   3.983   0.087   0.814
 2936SOL    HW1 9707   4.005   0.051   0.904
 2936SOL    HW2 9708   4.063   0.130   0.774
 2937SOL     OW 9709   5.484   4.672   1.336
 2937SOL    HW1 9710   5.548   4.600   1.310
 2937SOL    HW2 9711   5.519   4.719   1.418
 2938SOL     OW 9712   4.572   5.324   6.475
 2938SOL    HW1 9713   4.601   5.371   6.559
 2938SOL    HW2 9714   4.476   5.344   6.457
 2939SOL     OW 9715   2.222   0.523   2.752
 2939SOL    HW1 9716   2.294   0.487   2.812
 2939SOL    HW2 9717   2.259   0.538   2.661
 2940SOL     OW 9718   5.505   4.801   5.289
 2940SOL    HW1 9719   5.495   4.708   5.253
 2940SOL    HW2 9720   5.415   4.836   5.316
 2941SOL     OW 9721   1.491   2.480   4.272
 2941SOL    HW1 9722   1.590   2.472   4.284
 2941SOL    HW2 9723   1.451   2.521   4.354
 2942SOL     OW 9724   3.001   2.612   0.277
 2942SOL    HW1 9725   3.099   2.629   0.286
 2942SOL    HW2 9726   2.952   2.699   0.276
 2943SOL     OW 9727   5.511   4.135   3.585
 2943SOL    HW1 9728   5.550   4.063   3.643
 2943SOL    HW2 9729   5.433   4.177   3.633
 2944SOL     OW 9730   2.927   5.937   4.148
 2944SOL    HW1 9731   2.844   5.952   4.095
 2944SOL    HW2 9732   2.932   6.005   4.221
 2945SOL     OW 9733   3.161   3.709   3.289
 2945SOL    HW1 9734   3.117   3.691   3.377
 2945SOL    HW2 9735   3.096   3.757   3.229
 2946SOL     OW 9736   1.391   4.838   5.533
 2946SOL    HW1 9737   1.336   4.870   5.457
 2946SOL    HW2 9738   1.350   4.866   5.619
 2947SOL     OW 9739   0.578   3.969   0.906
 2947SOL    HW1 9740   0.628   3.884   0.920
 2947SOL    HW2 9741   0.641   4.046   0.915
 2948SOL     OW 9742   0.747   3.472   4.815
 2948SOL    HW1 9743   0.690   3.413   4.756
 2948SOL    HW2 9744   0.779   3.419   4.894
 2949SOL     OW 9745   2.453   5.491   0.626
 2949SOL    HW1 9746   2.382   5.469   0.559
 2949SOL    HW2 9747   2.533   5.528   0.579
 2950SOL     OW 9748   5.384   5.082   4.217
 2950SOL    HW1 9749   5.469   5.094   4.166
 2950SOL    HW2 9750   5.403   5.045   4.308
 2951SOL     OW 9751   5.303   1.386   1.672
 2951SOL    HW1 9752   5.259   1.350   1.590
 2951SOL    HW2 9753   5.343   1.475   1.651
 2952SOL     OW 9754   0.095   4.402   4.908
 2952SOL    HW1 9755   0.005   4.445   4.895
 2952SOL    HW2 9756   0.154   4.463   4.961
 2953SOL     OW 9757   5.457   3.694   2.613
 2953SOL    HW1 9758   5.435   3.689   2.711
 2953SOL    HW2 9759   5.401   3.765   2.571
 2954SOL     OW 9760   1.043   4.800   2.046
 2954SOL    HW1 9761   1.007   4.736   2.114
 2954SOL    HW2 9762   1.135   4.828   2.072
 2955SOL     OW 9763   0.531   3.963   2.103
 2955SOL    HW1 9764   0.492   4.053   2.081
 2955SOL    HW2 9765   0.599   3.973   2.176
 2956SOL     OW 9766   5.458   6.056   2.700
 2956SOL    HW1 9767   5.363   6.028   2.685
 2956SOL    HW2 9768   5.462   6.155   2.706
 2957SOL     OW 9769   5.746   4.090   2.070
 2957SOL    HW1 9770   5.746   4.016   2.002
 2957SOL    HW2 9771   5.804   4.165   2.038
 2958SOL     OW 9772   2.566   4.811   3.230
 2958SOL    HW1 9773   2.540   4.719   3.199
 2958SOL    HW2 9774   2.664   4.825   3.213
 2959SOL     OW 9775   5.176   3.277   0.640
 2959SOL    HW1 9776   5.172   3.249   0.545
 2959SOL    HW2 9777   5.172   3.377   0.646
 2960SOL     OW 9778   3.218   0.911   0.448
 2960SOL    HW1 9779   3.201   0.984   0.514
 2960SOL    HW2 9780   3.280   0.844   0.489
 2961SOL     OW 9781   5.418   3.650   2.876
 2961SOL    HW1 9782   5.513   3.622   2.886
 2961SOL    HW2 9783   5.364   3.613   2.952
 2962SOL     OW 9784   4.243   6.348   3.083
 2962SOL    HW1 9785   4.313   6.278   3.071
 2962SOL    HW2 9786   4.182   6.321   3.158
 2963SOL     OW 9787   1.785   1.080   6.072
 2963SOL    HW1 9788   1.803   1.178   6.085
 2963SOL    HW2 9789   1.721   1.068   5.996
 2964SOL     OW 9790   0.598   0.570   3.997
 2964SOL    HW1 9791   0.675   0.633   3.997
 2964SOL    HW2 9792   0.627   0.481   3.963
 2965SOL     OW 9793   0.282   0.617   4.418
 2965SOL    HW1 9794   0.294   0.518   4.414
 2965SOL    HW2 9795   0.226   0.640   4.498
 2966SOL     OW 9796   4.763   5.702   3.404
 2966SOL    HW1 9797   4.807   5.613   3.409
 2966SOL    HW2 9798   4.724   5.725   3.493
 2967SOL     OW 9799   6.756   0.727   5.197
 2967SOL    HW1 9800   6.740   0.765   5.106
 2967SOL    HW2 9801   6.816   0.788   5.248
 2968SOL     OW 9802   1.109   2.710   0.074
 2968SOL    HW1 9803   1.141   2.790   0.124
 2968SOL    HW2 9804   1.098   2.734   7.004
 2969SOL     OW 9805   5.133   2.070   4.179
 2969SOL    HW1 9806   5.134   1.987   4.234
 2969SOL    HW2 9807   5.041   2.086   4.143
 2970SOL     OW 9808   2.011   3.894   5.654
 2970SOL    HW1 9809   2.096   3.855   5.621
 2970SOL    HW2 9810   2.031   3.972   5.715
 2971SOL     OW 9811   5.189   4.586   0.171
 2971SOL    HW1 9812   5.125   4.533   0.227
 2971SOL    HW2 9813   5.242   4.648   0.228
 2972SOL     OW 9814   6.352   4.913   6.629
 2972SOL    HW1 9815   6.451   4.912   6.641
 2972SOL    HW2 9816   6.318   4.819   6.621
 2973SOL     OW 9817   5.417   6.638   2.068
 2973SOL    HW1 9818   5.453   6.673   2.154
 2973SOL    HW2 9819   5.492   6.622   2.004
 2974SOL     OW 9820   1.052   4.585   3.426
 2974SOL    HW1 9821   1.128   4.573   3.491
 2974SOL    HW2 9822   0.966   4.559   3.470
 2975SOL     OW 9823   5.431   3.474   4.042
 2975SOL    HW1 9824   5.494   3.440   4.112
 2975SOL    HW2 9825   5.483   3.499   3.960
 2976SOL     OW 9826   3.837   1.742   2.800
 2976SOL    HW1 9827   3.894   1.771   2.723
 2976SOL    HW2 9828   3.768   1.677   2.768
 2977SOL     OW 9829   2.291   6.696   2.419
 2977SOL    HW1 9830   2.299   6.605   2.459
 2977SOL    HW2 9831   2.348   6.760   2.471
 2978SOL     OW 9832   4.636   4.597   6.959
 2978SOL    HW1 9833   4.564   4.658   6.929
 2978SOL    HW2 9834   4.662   4.619   0.026
 2979SOL     OW 9835   3.307   0.559   4.233
 2979SOL    HW1 9836   3.391   0.512   4.260
 2979SOL    HW2 9837   3.316   0.657   4.250
 2980SOL     OW 9838   1.357   5.743   4.455
 2980SOL    HW1 9839   1.314   5.782   4.537
 2980SOL    HW2 9840   1.437   5.690   4.483
 2981SOL     OW 9841   2.807   1.062   5.615
 2981SOL    HW1 9842   2.906   1.070   5.602
 2981SOL    HW2 9843   2.768   1.153   5.634
 2982SOL     OW 9844   3.281   5.411   2.149
 2982SOL    HW1 9845   3.214   5.355   2.197
 2982SOL    HW2 9846   3.243   5.443   2.063
 2983SOL     OW 9847   0.616   1.302   2.638
 2983SOL    HW1 9848   0.537   1.364   2.642
 2983SOL    HW2 9849   0.640   1.273   2.730
 2984SOL     OW 9850   5.384   4.968   0.734
 2984SOL    HW1 9851   5.342   4.937   0.820
 2984SOL    HW2 9852   5.382   4.893   0.668
 2985SOL     OW 9853   1.814   2.962   5.307
 2985SOL    HW1 9854   1.838   3.017   5.227
 2985SOL    HW2 9855   1.888   2.897   5.326
 2986SOL     OW 9856   3.674   3.853   3.260
 2986SOL    HW1 9857   3.577   3.840   3.237
 2986SOL    HW2 9858   3.683   3.875   3.357
 2987SOL     OW 9859   0.733   1.409   4.094
 2987SOL    HW1 9860   0.716   1.319   4.133
 2987SOL    HW2 9861   0.820   1.408   4.045
 2988SOL     OW 9862   1.901   5.662   3.096
 2988SOL    HW1 9863   1.830   5.615   3.043
 2988SOL    HW2 9864   1.958   5.716   3.034
 2989SOL     OW 9865   5.399   5.838   5.941
 2989SOL    HW1 9866   5.414   5.832   6.040
 2989SOL    HW2 9867   5.487   5.832   5.893
 2990SOL     OW 9868   3.814   2.119   4.830
 2990SOL    HW1 9869   3.738   2.110   4.765
 2990SOL    HW2 9870   3.781   2.098   4.922
 2991SOL     OW 9871   6.628   3.842   5.398
 2991SOL    HW1 9872   6.680   3.893   5.466
 2991SOL    HW2 9873   6.532   3.865   5.405
 2992SOL     OW 9874   2.456   6.242   4.626
 2992SOL    HW1 9875   2.360   6.219   4.607
 2992SOL    HW2 9876   2.504   6.256   4.540
 2993SOL     OW 9877   0.657   4.884   1.379
 2993SOL    HW1 9878   0.724   4.941   1.332
 2993SOL    HW2 9879   0.578   4.940   1.404
 2994SOL     OW 9880   4.036   6.575   6.813
 2994SOL    HW1 9881   3.939   6.597   6.806
 2994SOL    HW2 9882   4.054   6.490   6.763
 2995SOL     OW 9883   2.864   1.389   5.788
 2995SOL    HW1 9884   2.874   1.486   5.808
 2995SOL    HW2 9885   2.769   1.369   5.766
 2996SOL     OW 9886   1.494   1.272   4.040
 2996SOL    HW1 9887   1.456   1.299   4.128
 2996SOL    HW2 9888   1.499   1.352   3.979
 2997SOL     OW 9889   5.761   0.259   3.256
 2997SOL    HW1 9890   5.662   0.265   3.246
 2997SOL    HW2 9891   5.803   0.344   3.225
 2998SOL     OW 9892   4.196   0.074   3.820
 2998SOL    HW1 9893   4.204   0.147   3.752
 2998SOL    HW2 9894   4.274   0.012   3.812
 2999SOL     OW 9895   2.456   5.483   4.922
 2999SOL    HW1 9896   2.540   5.530   4.893
 2999SOL    HW2 9897   2.381   5.507   4.860
 3000SOL     OW 9898   3.406   3.786   6.122
 3000SOL    HW1 9899   3.367   3.827   6.205
 3000SOL    HW2 9900   3.383   3.842   6.043
 3001SOL     OW 9901   0.003   0.625   6.212
 3001SOL    HW1 9902   6.993   0.558   6.276
 3001SOL    HW2 9903   0.085   0.588   6.168
 3002SOL     OW 9904   3.221   1.613   0.165
 3002SOL    HW1 9905   3.197   1.519   0.140
 3002SOL    HW2 9906   3.138   1.667   0.178
 3003SOL     OW 9907   1.588   6.982   0.707
 3003SOL    HW1 9908   1.507   6.982   0.648
 3003SOL    HW2 9909   1.657   6.920   0.669
 3004SOL     OW 9910   0.778   4.482   3.509
 3004SOL    HW1 9911   0.708   4.484   3.438
 3004SOL    HW2 9912   0.749   4.539   3.586
 3005SOL     OW 9913   1.843   1.799   0.774
 3005SOL    HW1 9914   1.811   1.799   0.679
 3005SOL    HW2 9915   1.871   1.706   0.799
 3006SOL     OW 9916   5.443   1.474   4.791
 3006SOL    HW1 9917   5.444   1.570   4.763
 3006SOL    HW2 9918   5.378   1.423   4.735
 3007SOL     OW 9919   5.314   4.282   0.513
 3007SOL    HW1 9920   5.349   4.192   0.541
 3007SOL    HW2 9921   5.234   4.269   0.455
 3008SOL     OW 9922   3.748   2.435   5.679
 3008SOL    HW1 9923   3.719   2.460   5.587
 3008SOL    HW2 9924   3.676   2.381   5.724
 3009SOL     OW 9925   6.505   1.827   3.062
 3009SOL    HW1 9926   6.419   1.785   3.033
 3009SOL    HW2 9927   6.488   1.920   3.093
 3010SOL     OW 9928   4.098   5.650   3.251
 3010SOL    HW1 9929   4.185   5.625   3.294
 3010SOL    HW2 9930   4.056   5.568   3.213
 3011SOL     OW 9931   6.057   1.233   2.416
 3011SOL    HW1 9932   6.005   1.205   2.335
 3011SOL    HW2 9933   6.134   1.171   2.429
 3012SOL     OW 9934   2.129   3.362   6.143
 3012SOL    HW1 9935   2.107   3.333   6.050
 3012SOL    HW2 9936   2.134   3.282   6.202
 3013SOL     OW 9937   5.002   5.544   3.588
 3013SOL    HW1 9938   4.991   5.505   3.680
 3013SOL    HW2 9939   5.084   5.600   3.585
 3014SOL     OW 9940   4.476   2.463   4.516
 3014SOL    HW1 9941   4.571   2.431   4.504
 3014SOL    HW2 9942   4.444   2.436   4.607
 3015SOL     OW 9943   2.835   1.929   0.407
 3015SOL    HW1 9944   2.830   1.949   0.504
 3015SOL    HW2 9945   2.905   1.987   0.364
 3016SOL     OW 9946   2.621   6.275   3.907
 3016SOL    HW1 9947   2.534   6.239   3.942
 3016SOL    HW2 9948   2.603   6.352   3.846
 3017SOL     OW 9949   6.460   4.889   2.772
 3017SOL    HW1 9950   6.531   4.919   2.837
 3017SOL    HW2 9951   6.503   4.842   2.695
 3018SOL     OW 9952   2.840   6.648   6.164
 3018SOL    HW1 9953   2.862   6.555   6.136
 3018SOL    HW2 9954   2.912   6.682   6.225
 3019SOL     OW 9955   0.870   6.593   0.709
 3019SOL    HW1 9956   0.776   6.621   0.725
 3019SOL    HW2 9957   0.927   6.674   0.696
 3020SOL     OW 9958   3.697   2.522   1.233
 3020SOL    HW1 9959   3.740   2.522   1.323
 3020SOL    HW2 9960   3.703   2.430   1.193
 3021SOL     OW 9961   2.947   0.287   5.848
 3021SOL    HW1 9962   2.903   0.310   5.936
 3021SOL    HW2 9963   2.935   0.190   5.830
 3022SOL     OW 9964   4.241   5.163   4.735
 3022SOL    HW1 9965   4.197   5.251   4.754
 3022SOL    HW2 9966   4.277   5.125   4.820
 3023SOL     OW 9967   4.135   6.585   2.872
 3023SOL    HW1 9968   4.120   6.663   2.933
 3023SOL    HW2 9969   4.066   6.514   2.891
 3024SOL     OW 9970   5.077   0.274   4.679
 3024SOL    HW1 9971   5.031   0.354   4.641
 3024SOL    HW2 9972   5.044   0.191   4.633
 3025SOL     OW 9973   3.380   6.935   0.442
 3025SOL    HW1 9974   3.405   6.865   0.375
 3025SOL    HW2 9975   3.463   6.974   0.483
 3026SOL     OW 9976   1.393   0.700   6.583
 3026SOL    HW1 9977   1.404   0.799   6.579
 3026SOL    HW2 9978   1.312   0.673   6.530
 3027SOL     OW 9979   4.077   1.114   2.895
 3027SOL    HW1 9980   4.097   1.081   2.803
 3027SOL    HW2 9981   4.161   1.112   2.950
 3028SOL     OW 9982   1.254   3.422   6.072
 3028SOL    HW1 9983   1.228   3.327   6.053
 3028SOL    HW2 9984   1.256   3.473   5.987
 3029SOL     OW 9985   0.073   2.638   5.342
 3029SOL    HW1 9986   0.088   2.596   5.431
 3029SOL    HW2 9987   0.116   2.729   5.341
 3030SOL     OW 9988   0.172   3.380   0.319
 3030SOL    HW1 9989   0.182   3.479   0.327
 3030SOL    HW2 9990   0.078   3.358   0.294
 3031SOL     OW 9991   0.315   4.361   1.671
 3031SOL    HW1 9992   0.411   4.377   1.694
 3031SOL    HW2 9993   0.260   4.363   1.755
 3032SOL     OW 9994   2.776   6.362   1.355
 3032SOL    HW1 9995   2.799   6.421   1.433
 3032SOL    HW2 9996   2.700   6.302   1.380
 3033SOL     OW 9997   5.901   2.251   1.048
 3033SOL    HW1 9998   5.985   2.218   1.090
 3033SOL    HW2 9999   5.892   2.212   0.956
 3034SOL     OW10000   1.824   5.991   2.723
 3034SOL    HW110001   1.845   6.083   2.690
 3034SOL    HW210002   1.785   5.937   2.648
 3035SOL     OW10003   0.382   2.975   6.830
 3035SOL    HW110004   0.438   2.933   6.759
 3035SOL    HW210005   0.409   3.070   6.843
 3036SOL     OW10006   2.266   1.898   6.320
 3036SOL    HW110007   2.236   1.980   6.271
 3036SOL    HW210008   2.209   1.821   6.293
 3037SOL     OW10009   5.951   5.883   5.760
 3037SOL    HW110010   5.933   5.962   5.818
 3037SOL    HW210011   6.040   5.843   5.783
 3038SOL     OW10012   4.977   6.002   5.667
 3038SOL    HW110013   5.010   5.932   5.605
 3038SOL    HW210014   4.881   6.023   5.646
 3039SOL     OW10015   6.914   3.255   0.631
 3039SOL    HW110016   6.877   3.173   0.586
 3039SOL    HW210017   6.954   3.229   0.719
 3040SOL     OW10018   3.644   3.758   6.260
 3040SOL    HW110019   3.715   3.707   6.211
 3040SOL    HW210020   3.557   3.749   6.213
 3041SOL     OW10021   2.143   3.208   4.583
 3041SOL    HW110022   2.169   3.162   4.668
 3041SOL    HW210023   2.080   3.150   4.532
 3042SOL     OW10024   5.094   5.609   2.217
 3042SOL    HW110025   5.048   5.678   2.162
 3042SOL    HW210026   5.103   5.524   2.164
 3043SOL     OW10027   2.368   3.914   1.815
 3043SOL    HW110028   2.432   3.981   1.778
 3043SOL    HW210029   2.368   3.833   1.756
 3044SOL     OW10030   3.710   4.882   5.939
 3044SOL    HW110031   3.716   4.782   5.943
 3044SOL    HW210032   3.790   4.918   5.890
 3045SOL     OW10033   4.508   0.262   3.223
 3045SOL    HW110034   4.524   0.184   3.162
 3045SOL    HW210035   4.445   0.326   3.179
 3046SOL     OW10036   2.049   0.969   5.974
 3046SOL    HW110037   2.012   1.022   6.050
 3046SOL    HW210038   1.975   0.947   5.910
 3047SOL     OW10039   5.644   0.358   1.711
 3047SOL    HW110040   5.729   0.409   1.701
 3047SOL    HW210041   5.658   0.263   1.683
 3048SOL     OW10042   3.843   2.312   1.679
 3048SOL    HW110043   3.779   2.276   1.747
 3048SOL    HW210044   3.937   2.305   1.714
 3049SOL     OW10045   1.491   0.029   2.730
 3049SOL    HW110046   1.561   0.007   2.663
 3049SOL    HW210047   1.503   0.124   2.760
 3050SOL     OW10048   3.227   1.210   1.907
 3050SOL    HW110049   3.218   1.302   1.946
 3050SOL    HW210050   3.139   1.163   1.913
 3051SOL     OW10051   1.406   5.283   6.141
 3051SOL    HW110052   1.482   5.278   6.207
 3051SOL    HW210053   1.407   5.202   6.083
 3052SOL     OW10054   5.188   5.711   1.922
 3052SOL    HW110055   5.137   5.788   1.962
 3052SOL    HW210056   5.129   5.631   1.917
 3053SOL     OW10057   6.736   2.377   0.482
 3053SOL    HW110058   6.808   2.320   0.442
 3053SOL    HW210059   6.778   2.442   0.546
 3054SOL     OW10060   6.566   2.739   0.826
 3054SOL    HW110061   6.601   2.652   0.861
 3054SOL    HW210062   6.466   2.741   0.835
 3055SOL     OW10063   4.885   0.403   5.099
 3055SOL    HW110064   4.882   0.380   5.196
 3055SOL    HW210065   4.807   0.461   5.076
 3056SOL     OW10066   6.604   0.119   5.322
 3056SOL    HW110067   6.598   0.019   5.322
 3056SOL    HW210068   6.530   0.156   5.378
 3057SOL     OW10069   4.460   5.883   2.782
 3057SOL    HW110070   4.471   5.857   2.878
 3057SOL    HW210071   4.396   5.821   2.737
 3058SOL     OW10072   6.985   4.714   1.141
 3058SOL    HW110073   0.006   4.630   1.116
 3058SOL    HW210074   6.982   4.723   1.240
 3059SOL     OW10075   2.711   2.303   4.088
 3059SOL    HW110076   2.654   2.385   4.092
 3059SOL    HW210077   2.685   2.242   4.163
 3060SOL     OW10078   1.449   5.171   0.302
 3060SOL    HW110079   1.520   5.224   0.350
 3060SOL    HW210080   1.487   5.135   0.217
 3061SOL     OW10081   0.108   6.723   5.483
 3061SOL    HW110082   0.203   6.735   5.511
 3061SOL    HW210083   0.103   6.709   5.385
 3062SOL     OW10084   1.999   0.151   0.399
 3062SOL    HW110085   1.950   0.065   0.383
 3062SOL    HW210086   1.982   0.182   0.492
 3063SOL     OW10087   2.343   4.816   1.853
 3063SOL    HW110088   2.272   4.835   1.921
 3063SOL    HW210089   2.404   4.744   1.888
 3064SOL     OW10090   4.922   3.787   1.941
 3064SOL    HW110091   5.015   3.810   1.912
 3064SOL    HW210092   4.917   3.689   1.961
 3065SOL     OW10093   1.901   1.458   0.006
 3065SOL    HW110094   1.951   1.378   6.998
 3065SOL    HW210095   1.934   1.540   6.985
 3066SOL     OW10096   4.657   4.882   0.542
 3066SOL    HW110097   4.610   4.795   0.550
 3066SOL    HW210098   4.756   4.867   0.541
 3067SOL     OW10099   3.750   1.310   5.760
 3067SOL    HW110100   3.659   1.335   5.728
 3067SOL    HW210101   3.750   1.215   5.791
 3068SOL     OW10102   6.426   0.240   0.527
 3068SOL    HW110103   6.413   0.141   0.529
 3068SOL    HW210104   6.404   0.278   0.617
 3069SOL     OW10105   6.561   5.874   1.847
 3069SOL    HW110106   6.630   5.932   1.804
 3069SOL    HW210107   6.483   5.930   1.874
 3070SOL     OW10108   2.709   1.017   6.562
 3070SOL    HW110109   2.648   1.033   6.639
 3070SOL    HW210110   2.780   1.088   6.560
 3071SOL     OW10111   6.620   6.221   3.262
 3071SOL    HW110112   6.664   6.296   3.312
 3071SOL    HW210113   6.646   6.134   3.303
 3072SOL     OW10114   2.790   6.034   6.610
 3072SOL    HW110115   2.882   6.036   6.570
 3072SOL    HW210116   2.790   6.088   6.695
 3073SOL     OW10117   5.867   3.117   4.744
 3073SOL    HW110118   5.943   3.057   4.770
 3073SOL    HW210119   5.781   3.073   4.768
 3074SOL     OW10120   6.255   3.488   0.722
 3074SOL    HW110121   6.269   3.560   0.654
 3074SOL    HW210122   6.188   3.519   0.790
 3075SOL     OW10123   2.480   5.251   1.588
 3075SOL    HW110124   2.391   5.213   1.563
 3075SOL    HW210125   2.482   5.272   1.685
 3076SOL     OW10126   6.490   0.293   4.123
 3076SOL    HW110127   6.587   0.287   4.098
 3076SOL    HW210128   6.446   0.363   4.066
 3077SOL     OW10129   5.850   4.927   1.053
 3077SOL    HW110130   5.855   5.027   1.063
 3077SOL    HW210131   5.912   4.884   1.120
 3078SOL     OW10132   0.195   2.712   2.945
 3078SOL    HW110133   0.181   2.658   3.028
 3078SOL    HW210134   0.175   2.656   2.865
 3079SOL     OW10135   2.433   2.530   2.711
 3079SOL    HW110136   2.349   2.573   2.678
 3079SOL    HW210137   2.491   2.506   2.633
 3080SOL     OW10138   5.332   5.237   2.251
 3080SOL    HW110139   5.244   5.269   2.215
 3080SOL    HW210140   5.317   5.159   2.311
 3081SOL     OW10141   0.377   2.464   5.421
 3081SOL    HW110142   0.393   2.554   5.380
 3081SOL    HW210143   0.463   2.428   5.456
 3082SOL     OW10144   2.610   5.825   3.622
 3082SOL    HW110145   2.529   5.824   3.563
 3082SOL    HW210146   2.585   5.795   3.714
 3083SOL     OW10147   2.970   6.258   3.917
 3083SOL    HW110148   2.925   6.287   4.001
 3083SOL    HW210149   3.048   6.199   3.941
 3084SOL     OW10150   6.197   3.505   4.556
 3084SOL    HW110151   6.179   3.503   4.458
 3084SOL    HW210152   6.287   3.546   4.573
 3085SOL     OW10153   5.962   4.503   0.526
 3085SOL    HW110154   5.972   4.549   0.614
 3085SOL    HW210155   5.912   4.561   0.462
 3086SOL     OW10156   4.667   1.638   1.183
 3086SOL    HW110157   4.641   1.544   1.160
 3086SOL    HW210158   4.604   1.702   1.139
 3087SOL     OW10159   1.777   5.786   4.154
 3087SOL    HW110160   1.687   5.821   4.130
 3087SOL    HW210161   1.769   5.690   4.183
 3088SOL     OW10162   2.368   4.761   4.541
 3088SOL    HW110163   2.418   4.677   4.562
 3088SOL    HW210164   2.273   4.752   4.571
 3089SOL     OW10165   2.111   3.038   5.717
 3089SOL    HW110166   2.092   3.071   5.625
 3089SOL    HW210167   2.093   2.940   5.723
 3090SOL     OW10168   2.546   2.314   1.642
 3090SOL    HW110169   2.497   2.291   1.727
 3090SOL    HW210170   2.641   2.334   1.664
 3091SOL     OW10171   1.919   6.938   1.463
 3091SOL    HW110172   1.995   6.962   1.403
 3091SOL    HW210173   1.933   6.847   1.501
 3092SOL     OW10174   5.205   1.536   0.537
 3092SOL    HW110175   5.188   1.491   0.625
 3092SOL    HW210176   5.279   1.488   0.489
 3093SOL     OW10177   5.223   6.445   6.546
 3093SOL    HW110178   5.270   6.512   6.602
 3093SOL    HW210179   5.288   6.372   6.520
 3094SOL     OW10180   2.094   6.917   4.167
 3094SOL    HW110181   2.117   6.893   4.073
 3094SOL    HW210182   2.123   7.010   4.186
 3095SOL     OW10183   2.526   4.872   5.275
 3095SOL    HW110184   2.567   4.904   5.361
 3095SOL    HW210185   2.591   4.885   5.201
 3096SOL     OW10186   0.691   5.348   5.500
 3096SOL    HW110187   0.780   5.391   5.514
 3096SOL    HW210188   0.688   5.305   5.410
 3097SOL     OW10189   5.498   2.194   0.207
 3097SOL    HW110190   5.447   2.177   0.123
 3097SOL    HW210191   5.485   2.118   0.271
 3098SOL     OW10192   2.302   2.931   1.847
 3098SOL    HW110193   2.281   3.025   1.819
 3098SOL    HW210194   2.247   2.907   1.926
 3099SOL     OW10195   0.794   0.050   3.712
 3099SOL    HW110196   0.709   0.102   3.708
 3099SOL    HW210197   0.790   7.000   3.648
 3100SOL     OW10198   0.064   5.884   3.443
 3100SOL    HW110199   0.151   5.913   3.401
 3100SOL    HW210200   0.075   5.793   3.483
 3101SOL     OW10201   5.875   6.261   0.273
 3101SOL    HW110202   5.927   6.330   0.222
 3101SOL    HW210203   5.922   6.241   0.359
 3102SOL     OW10204   6.508   5.524   2.704
 3102SOL    HW110205   6.468   5.542   2.794
 3102SOL    HW210206   6.552   5.607   2.670
 3103SOL     OW10207   4.554   0.813   2.197
 3103SOL    HW110208   4.461   0.806   2.161
 3103SOL    HW210209   4.615   0.847   2.125
 3104SOL     OW10210   5.171   1.234   5.350
 3104SOL    HW110211   5.166   1.181   5.265
 3104SOL    HW210212   5.078   1.255   5.380
 3105SOL     OW10213   5.504   4.392   0.987
 3105SOL    HW110214   5.411   4.377   1.022
 3105SOL    HW210215   5.501   4.400   0.888
 3106SOL     OW10216   4.606   0.751   3.708
 3106SOL    HW110217   4.578   0.785   3.618
 3106SOL    HW210218   4.624   0.653   3.703
 3107SOL     OW10219   4.651   1.793   5.161
 3107SOL    HW110220   4.710   1.841   5.225
 3107SOL    HW210221   4.637   1.850   5.079
 3108SOL     OW10222   2.038   6.188   4.240
 3108SOL    HW110223   1.947   6.148   4.240
 3108SOL    HW210224   2.093   6.149   4.166
 3109SOL     OW10225   5.559   6.199   3.838
 3109SOL    HW110226   5.527   6.255   3.761
 3109SOL    HW210227   5.650   6.163   3.817
 3110SOL     OW10228   0.624   2.868   2.750
 3110SOL    HW110229   0.570   2.815   2.816
 3110SOL    HW210230   0.659   2.951   2.794
 3111SOL     OW10231   0.237   5.048   3.371
 3111SOL    HW110232   0.223   4.981   3.298
 3111SOL    HW210233   0.249   5.001   3.458
 3112SOL     OW10234   4.275   3.081   6.847
 3112SOL    HW110235   4.218   3.120   6.919
 3112SOL    HW210236   4.224   3.010   6.798
 3113SOL     OW10237   2.648   4.988   3.462
 3113SOL    HW110238   2.683   5.054   3.530
 3113SOL    HW210239   2.692   5.005   3.374
 3114SOL     OW10240   4.034   2.004   0.244
 3114SOL    HW110241   4.010   2.023   0.339
 3114SOL    HW210242   3.954   2.021   0.185
 3115SOL     OW10243   4.159   4.328   5.912
 3115SOL    HW110244   4.157   4.258   5.841
 3115SOL    HW210245   4.136   4.286   6.000
 3116SOL     OW10246   0.105   2.870   0.384
 3116SOL    HW110247   0.084   2.794   0.446
 3116SOL    HW210248   0.111   2.955   0.436
 3117SOL     OW10249   4.493   3.753   5.287
 3117SOL    HW110250   4.544   3.685   5.235
 3117SOL    HW210251   4.540   3.842   5.282
 3118SOL     OW10252   0.833   5.271   2.294
 3118SOL    HW110253   0.845   5.352   2.351
 3118SOL    HW210254   0.903   5.203   2.316
 3119SOL     OW10255   2.492   3.294   6.256
 3119SOL    HW110256   2.538   3.312   6.343
 3119SOL    HW210257   2.556   3.311   6.181
 3120SOL     OW10258   3.330   0.526   5.266
 3120SOL    HW110259   3.421   0.530   5.226
 3120SOL    HW210260   3.308   0.616   5.305
 3121SOL     OW10261   0.459   0.891   3.667
 3121SOL    HW110262   0.446   0.810   3.723
 3121SOL    HW210263   0.397   0.964   3.699
 3122SOL     OW10264   4.115   5.787   6.219
 3122SOL    HW110265   4.191   5.839   6.258
 3122SOL    HW210266   4.075   5.838   6.143
 3123SOL     OW10267   1.775   1.465   3.030
 3123SOL    HW110268   1.720   1.543   3.001
 3123SOL    HW210269   1.860   1.463   2.977
 3124SOL     OW10270   5.281   0.031   4.430
 3124SOL    HW110271   5.230   0.100   4.378
 3124SOL    HW210272   5.358   0.075   4.476
 3125SOL     OW10273   0.649   2.451   4.620
 3125SOL    HW110274   0.615   2.542   4.597
 3125SOL    HW210275   0.647   2.439   4.720
 3126SOL     OW10276   5.674   4.269   5.547
 3126SOL    HW110277   5.713   4.196   5.491
 3126SOL    HW210278   5.714   4.266   5.639
 3127SOL     OW10279   0.932   3.102   5.564
 3127SOL    HW110280   0.947   3.159   5.645
 3127SOL    HW210281   1.009   3.114   5.501
 3128SOL     OW10282   2.913   0.393   6.323
 3128SOL    HW110283   2.921   0.424   6.418
 3128SOL    HW210284   3.004   0.381   6.285
 3129SOL     OW10285   6.425   3.460   0.266
 3129SOL    HW110286   6.468   3.508   0.342
 3129SOL    HW210287   6.483   3.466   0.185
 3130SOL     OW10288   1.589   4.303   1.441
 3130SOL    HW110289   1.653   4.302   1.364
 3130SOL    HW210290   1.504   4.259   1.414
 3131SOL     OW10291   0.717   3.329   2.340
 3131SOL    HW110292   0.696   3.427   2.338
 3131SOL    HW210293   0.692   3.291   2.429
 3132SOL     OW10294   3.792   6.066   6.223
 3132SOL    HW110295   3.777   5.986   6.164
 3132SOL    HW210296   3.831   6.140   6.168
 3133SOL     OW10297   3.146   1.154   3.237
 3133SOL    HW110298   3.058   1.146   3.283
 3133SOL    HW210299   3.186   1.063   3.223
 3134SOL     OW10300   4.699   4.124   1.726
 3134SOL    HW110301   4.605   4.112   1.758
 3134SOL    HW210302   4.738   4.034   1.703
 3135SOL     OW10303   4.444   1.325   4.806
 3135SOL    HW110304   4.396   1.402   4.763
 3135SOL    HW210305   4.419   1.241   4.759
 3136SOL     OW10306   5.445   0.657   1.874
 3136SOL    HW110307   5.420   0.579   1.817
 3136SOL    HW210308   5.386   0.735   1.853
 3137SOL     OW10309   6.639   0.666   2.474
 3137SOL    HW110310   6.686   0.688   2.559
 3137SOL    HW210311   6.702   0.676   2.397
 3138SOL     OW10312   6.150   4.512   3.495
 3138SOL    HW110313   6.075   4.512   3.429
 3138SOL    HW210314   6.228   4.561   3.456
 3139SOL     OW10315   4.692   6.288   0.929
 3139SOL    HW110316   4.601   6.329   0.935
 3139SOL    HW210317   4.690   6.212   0.863
 3140SOL     OW10318   6.225   7.024   0.150
 3140SOL    HW110319   6.159   0.015   0.077
 3140SOL    HW210320   6.315   0.033   0.123
 3141SOL     OW10321   0.507   6.989   6.617
 3141SOL    HW110322   0.552   6.983   6.706
 3141SOL    HW210323   0.573   7.016   6.547
 3142SOL     OW10324   3.673   0.001   2.231
 3142SOL    HW110325   3.723   0.073   2.182
 3142SOL    HW210326   3.714   6.939   2.210
 3143SOL     OW10327   6.618   2.427   0.029
 3143SOL    HW110328   6.594   2.362   0.101
 3143SOL    HW210329   6.539   2.485   0.009
 3144SOL     OW10330   3.673   3.919   1.791
 3144SOL    HW110331   3.735   3.902   1.714
 3144SOL    HW210332   3.726   3.944   1.872
 3145SOL     OW10333   1.799   6.058   1.265
 3145SOL    HW110334   1.836   6.095   1.180
 3145SOL    HW210335   1.816   6.122   1.340
 3146SOL     OW10336   1.347   0.675   3.869
 3146SOL    HW110337   1.318   0.605   3.934
 3146SOL    HW210338   1.336   0.766   3.910
 3147SOL     OW10339   3.555   5.682   1.398
 3147SOL    HW110340   3.620   5.741   1.349
 3147SOL    HW210341   3.571   5.689   1.496
 3148SOL     OW10342   6.397   5.965   3.956
 3148SOL    HW110343   6.479   5.935   4.004
 3148SOL    HW210344   6.349   6.033   4.012
 3149SOL     OW10345   2.657   1.224   5.168
 3149SOL    HW110346   2.627   1.221   5.072
 3149SOL    HW210347   2.654   1.319   5.201
 3150SOL     OW10348   6.062   5.144   4.191
 3150SOL    HW110349   6.024   5.105   4.107
 3150SOL    HW210350   6.048   5.243   4.192
 3151SOL     OW10351   6.877   1.304   5.264
 3151SOL    HW110352   6.815   1.355   5.323
 3151SOL    HW210353   6.961   1.357   5.251
 3152SOL     OW10354   1.206   5.477   0.788
 3152SOL    HW110355   1.126   5.420   0.801
 3152SOL    HW210356   1.197   5.529   0.703
 3153SOL     OW10357   5.908   5.000   0.636
 3153SOL    HW110358   5.890   4.908   0.600
 3153SOL    HW210359   5.825   5.055   0.630
 3154SOL     OW10360   6.428   1.834   6.516
 3154SOL    HW110361   6.419   1.759   6.451
 3154SOL    HW210362   6.515   1.825   6.565
 3155SOL     OW10363   6.628   4.453   0.514
 3155SOL    HW110364   6.601   4.365   0.473
 3155SOL    HW210365   6.609   4.450   0.613
 3156SOL     OW10366   3.534   3.182   3.340
 3156SOL    HW110367   3.542   3.094   3.387
 3156SOL    HW210368   3.438   3.203   3.322
 3157SOL     OW10369   2.665   2.070   5.146
 3157SOL    HW110370   2.607   2.140   5.104
 3157SOL    HW210371   2.759   2.103   5.150
 3158SOL     OW10372   3.753   1.319   3.516
 3158SOL    HW110373   3.764   1.303   3.418
 3158SOL    HW210374   3.703   1.405   3.531
 3159SOL     OW10375   6.355   1.911   0.170
 3159SOL    HW110376   6.272   1.895   0.223
 3159SOL    HW210377   6.429   1.854   0.205
 3160SOL     OW10378   0.148   6.015   5.350
 3160SOL    HW110379   0.170   6.112   5.362
 3160SOL    HW210380   0.072   6.006   5.286
 3161SOL     OW10381   2.102   2.620   3.387
 3161SOL    HW110382   2.166   2.619   3.311
 3161SOL    HW210383   2.114   2.703   3.441
 3162SOL     OW10384   1.075   6.608   2.102
 3162SOL    HW110385   1.171   6.582   2.099
 3162SOL    HW210386   1.018   6.525   2.105
 3163SOL     OW10387   4.844   3.000   6.190
 3163SOL    HW110388   4.826   2.963   6.099
 3163SOL    HW210389   4.912   3.073   6.183
 3164SOL     OW10390   4.244   5.060   1.146
 3164SOL    HW110391   4.242   5.016   1.056
 3164SOL    HW210392   4.280   5.153   1.137
 3165SOL     OW10393   0.365   6.385   1.042
 3165SOL    HW110394   0.464   6.397   1.035
 3165SOL    HW210395   0.341   6.290   1.025
 3166SOL     OW10396   4.254   1.790   4.265
 3166SOL    HW110397   4.316   1.859   4.227
 3166SOL    HW210398   4.167   1.832   4.288
 3167SOL     OW10399   6.510   4.664   0.963
 3167SOL    HW110400   6.608   4.676   0.952
 3167SOL    HW210401   6.478   4.715   1.043
 3168SOL     OW10402   4.431   2.820   6.415
 3168SOL    HW110403   4.471   2.729   6.421
 3168SOL    HW210404   4.433   2.864   6.505
 3169SOL     OW10405   2.139   3.479   4.095
 3169SOL    HW110406   2.095   3.507   4.009
 3169SOL    HW210407   2.191   3.396   4.079
 3170SOL     OW10408   4.330   6.807   1.293
 3170SOL    HW110409   4.296   6.714   1.281
 3170SOL    HW210410   4.428   6.805   1.310
 3171SOL     OW10411   0.166   0.677   1.834
 3171SOL    HW110412   0.242   0.614   1.820
 3171SOL    HW210413   0.147   0.726   1.748
 3172SOL     OW10414   6.552   5.462   0.523
 3172SOL    HW110415   6.532   5.423   0.613
 3172SOL    HW210416   6.605   5.547   0.534
 3173SOL     OW10417   2.522   1.840   0.735
 3173SOL    HW110418   2.428   1.815   0.757
 3173SOL    HW210419   2.544   1.810   0.643
 3174SOL     OW10420   2.605   2.434   0.436
 3174SOL    HW110421   2.560   2.521   0.457
 3174SOL    HW210422   2.536   2.362   0.430
 3175SOL     OW10423   6.528   0.775   1.588
 3175SOL    HW110424   6.446   0.828   1.568
 3175SOL    HW210425   6.508   0.678   1.580
 3176SOL     OW10426   1.834   3.667   5.252
 3176SOL    HW110427   1.845   3.590   5.188
 3176SOL    HW210428   1.923   3.706   5.273
 3177SOL     OW10429   4.861   3.790   4.096
 3177SOL    HW110430   4.871   3.754   4.189
 3177SOL    HW210431   4.850   3.889   4.099
 3178SOL     OW10432   6.466   2.205   0.860
 3178SOL    HW110433   6.374   2.194   0.824
 3178SOL    HW210434   6.469   2.175   0.955
 3179SOL     OW10435   1.056   2.952   2.296
 3179SOL    HW110436   0.971   2.901   2.311
 3179SOL    HW210437   1.033   3.048   2.276
 3180SOL     OW10438   4.409   1.033   0.144
 3180SOL    HW110439   4.439   1.012   0.051
 3180SOL    HW210440   4.489   1.054   0.201
 3181SOL     OW10441   6.892   1.524   3.290
 3181SOL    HW110442   6.938   1.612   3.290
 3181SOL    HW210443   6.804   1.532   3.243
 3182SOL     OW10444   3.306   0.092   5.850
 3182SOL    HW110445   3.255   0.065   5.931
 3182SOL    HW210446   3.289   0.188   5.830
 3183SOL     OW10447   4.077   4.053   1.683
 3183SOL    HW110448   4.059   3.993   1.761
 3183SOL    HW210449   4.175   4.059   1.667
 3184SOL     OW10450   0.625   3.226   2.828
 3184SOL    HW110451   0.705   3.173   2.857
 3184SOL    HW210452   0.582   3.268   2.907
 3185SOL     OW10453   5.904   5.929   6.999
 3185SOL    HW110454   5.870   6.022   6.998
 3185SOL    HW210455   5.960   5.915   0.055
 3186SOL     OW10456   3.739   1.509   1.827
 3186SOL    HW110457   3.692   1.527   1.914
 3186SOL    HW210458   3.684   1.448   1.771
 3187SOL     OW10459   4.762   4.367   6.911
 3187SOL    HW110460   4.857   4.388   6.934
 3187SOL    HW210461   4.708   4.451   6.916
 3188SOL     OW10462   2.257   0.478   4.417
 3188SOL    HW110463   2.231   0.571   4.441
 3188SOL    HW210464   2.213   0.413   4.480
 3189SOL     OW10465   1.410   1.149   1.444
 3189SOL    HW110466   1.359   1.117   1.364
 3189SOL    HW210467   1.445   1.240   1.426
 3190SOL     OW10468   6.992   6.195   0.522
 3190SOL    HW110469   6.999   6.271   0.457
 3190SOL    HW210470   6.995   6.230   0.615
 3191SOL     OW10471   5.461   6.564   1.061
 3191SOL    HW110472   5.535   6.594   1.001
 3191SOL    HW210473   5.401   6.502   1.011
 3192SOL     OW10474   0.083   2.393   1.661
 3192SOL    HW110475   0.087   2.303   1.617
 3192SOL    HW210476   0.009   2.447   1.620
 3193SOL     OW10477   3.289   1.539   6.748
 3193SOL    HW110478   3.304   1.444   6.777
 3193SOL    HW210479   3.192   1.562   6.759
 3194SOL     OW10480   1.546   2.530   6.286
 3194SOL    HW110481   1.586   2.481   6.364
 3194SOL    HW210482   1.536   2.627   6.309
 3195SOL     OW10483   2.713   2.380   3.340
 3195SOL    HW110484   2.807   2.393   3.369
 3195SOL    HW210485   2.700   2.285   3.310
 3196SOL     OW10486   0.419   1.374   6.326
 3196SOL    HW110487   0.494   1.322   6.286
 3196SOL    HW210488   0.445   1.405   6.418
 3197SOL     OW10489   2.516   6.472   3.506
 3197SOL    HW110490   2.491   6.383   3.468
 3197SOL    HW210491   2.615   6.483   3.502
 3198SOL     OW10492   5.518   2.773   4.953
 3198SOL    HW110493   5.509   2.709   4.876
 3198SOL    HW210494   5.609   2.765   4.993
 3199SOL     OW10495   4.838   3.091   2.537
 3199SOL    HW110496   4.827   3.187   2.514
 3199SOL    HW210497   4.792   3.034   2.469
 3200SOL     OW10498   6.113   2.978   2.034
 3200SOL    HW110499   6.189   3.034   2.068
 3200SOL    HW210500   6.049   3.037   1.984
 3201SOL     OW10501   5.466   4.811   4.337
 3201SOL    HW110502   5.439   4.815   4.433
 3201SOL    HW210503   5.555   4.856   4.326
 3202SOL     OW10504   0.037   4.688   1.458
 3202SOL    HW110505   0.065   4.598   1.425
 3202SOL    HW210506   0.062   4.697   1.554
 3203SOL     OW10507   6.190   2.620   0.312
 3203SOL    HW110508   6.262   2.659   0.255
 3203SOL    HW210509   6.230   2.557   0.379
 3204SOL     OW10510   4.962   6.827   2.021
 3204SOL    HW110511   5.055   6.806   2.050
 3204SOL    HW210512   4.904   6.839   2.101
 3205SOL     OW10513   6.435   3.494   6.238
 3205SOL    HW110514   6.363   3.510   6.306
 3205SOL    HW210515   6.522   3.526   6.275
 3206SOL     OW10516   1.013   6.289   5.874
 3206SOL    HW110517   0.957   6.232   5.933
 3206SOL    HW210518   1.095   6.238   5.846
 3207SOL     OW10519   0.599   0.610   5.660
 3207SOL    HW110520   0.663   0.673   5.616
 3207SOL    HW210521   0.622   0.602   5.757
 3208SOL     OW10522   5.256   6.566   5.471
 3208SOL    HW110523   5.259   6.506   5.551
 3208SOL    HW210524   5.260   6.662   5.501
 3209SOL     OW10525   4.005   6.009   2.901
 3209SOL    HW110526   4.082   6.065   2.869
 3209SOL    HW210527   4.012   5.995   2.999
 3210SOL     OW10528   1.155   4.357   1.183
 3210SOL    HW110529   1.065   4.330   1.217
 3210SOL    HW210530   1.212   4.275   1.173
 3211SOL     OW10531   1.492   4.007   1.075
 3211SOL    HW110532   1.426   4.070   1.117
 3211SOL    HW210533   1.569   3.992   1.137
 3212SOL     OW10534   3.117   0.755   0.981
 3212SOL    HW110535   3.186   0.683   0.978
 3212SOL    HW210536   3.161   0.845   0.979
 3213SOL     OW10537   0.533   5.760   2.017
 3213SOL    HW110538   0.539   5.664   2.043
 3213SOL    HW210539   0.466   5.771   1.943
 3214SOL     OW10540   4.831   5.494   0.547
 3214SOL    HW110541   4.924   5.457   0.557
 3214SOL    HW210542   4.806   5.543   0.630
 3215SOL     OW10543   6.597   3.490   0.979
 3215SOL    HW110544   6.639   3.470   1.068
 3215SOL    HW210545   6.573   3.404   0.933
 3216SOL     OW10546   6.049   5.140   0.847
 3216SOL    HW110547   5.996   5.104   0.770
 3216SOL    HW210548   6.095   5.065   0.894
 3217SOL     OW10549   0.286   5.757   2.318
 3217SOL    HW110550   0.214   5.718   2.376
 3217SOL    HW210551   0.343   5.818   2.372
 3218SOL     OW10552   4.106   1.129   3.322
 3218SOL    HW110553   4.201   1.099   3.334
 3218SOL    HW210554   4.068   1.155   3.410
 3219SOL     OW10555   0.067   1.416   3.442
 3219SOL    HW110556   0.004   1.405   3.365
 3219SOL    HW210557   0.139   1.482   3.417
 3220SOL     OW10558   6.174   6.237   6.145
 3220SOL    HW110559   6.170   6.255   6.047
 3220SOL    HW210560   6.128   6.150   6.165
 3221SOL     OW10561   3.664   0.590   1.400
 3221SOL    HW110562   3.599   0.526   1.442
 3221SOL    HW210563   3.752   0.582   1.446
 3222SOL     OW10564   3.960   1.811   2.535
 3222SOL    HW110565   4.038   1.753   2.512
 3222SOL    HW210566   3.980   1.906   2.513
 3223SOL     OW10567   1.603   5.223   6.288
 3223SOL    HW110568   1.616   5.142   6.345
 3223SOL    HW210569   1.655   5.213   6.203
 3224SOL     OW10570   4.461   3.714   0.071
 3224SOL    HW110571   4.412   3.643   0.020
 3224SOL    HW210572   4.552   3.680   0.096
 3225SOL     OW10573   4.756   3.613   6.763
 3225SOL    HW110574   4.843   3.565   6.749
 3225SOL    HW210575   4.755   3.696   6.707
 3226SOL     OW10576   2.068   1.586   4.069
 3226SOL    HW110577   1.996   1.651   4.044
 3226SOL    HW210578   2.060   1.504   4.013
 3227SOL     OW10579   3.974   2.299   0.102
 3227SOL    HW110580   3.917   2.221   0.077
 3227SOL    HW210581   3.944   2.335   0.191
 3228SOL     OW10582   6.254   4.309   2.679
 3228SOL    HW110583   6.195   4.305   2.760
 3228SOL    HW210584   6.260   4.218   2.638
 3229SOL     OW10585   3.862   0.661   5.325
 3229SOL    HW110586   3.861   0.590   5.396
 3229SOL    HW210587   3.872   0.751   5.367
 3230SOL     OW10588   1.664   3.281   4.303
 3230SOL    HW110589   1.686   3.368   4.348
 3230SOL    HW210590   1.566   3.264   4.310
 3231SOL     OW10591   2.395   0.767   1.700
 3231SOL    HW110592   2.483   0.721   1.713
 3231SOL    HW210593   2.369   0.763   1.603
 3232SOL     OW10594   4.637   5.347   5.415
 3232SOL    HW110595   4.606   5.321   5.506
 3232SOL    HW210596   4.562   5.389   5.364
 3233SOL     OW10597   1.026   3.016   1.797
 3233SOL    HW110598   0.986   2.946   1.856
 3233SOL    HW210599   0.989   3.006   1.704
 3234SOL     OW10600   0.057   1.824   6.767
 3234SOL    HW110601   0.057   1.923   6.754
 3234SOL    HW210602   0.046   1.779   6.678
 3235SOL     OW10603   5.316   0.993   1.474
 3235SOL    HW110604   5.355   1.073   1.428
 3235SOL    HW210605   5.216   1.000   1.475
 3236SOL     OW10606   0.902   3.663   1.117
 3236SOL    HW110607   0.944   3.600   1.182
 3236SOL    HW210608   0.834   3.719   1.164
 3237SOL     OW10609   4.623   1.386   4.132
 3237SOL    HW110610   4.686   1.321   4.092
 3237SOL    HW210611   4.662   1.478   4.128
 3238SOL     OW10612   0.040   5.012   0.836
 3238SOL    HW110613   7.006   4.957   0.779
 3238SOL    HW210614   0.104   5.062   0.778
 3239SOL     OW10615   6.282   1.545   1.834
 3239SOL    HW110616   6.298   1.593   1.920
 3239SOL    HW210617   6.186   1.553   1.808
 3240SOL     OW10618   1.187   0.136   6.052
 3240SOL    HW110619   1.203   0.065   5.983
 3240SOL    HW210620   1.090   0.160   6.054
 3241SOL     OW10621   4.624   1.756   5.462
 3241SOL    HW110622   4.627   1.698   5.381
 3241SOL    HW210623   4.690   1.830   5.452
 3242SOL     OW10624   3.664   4.606   0.010
 3242SOL    HW110625   3.617   4.572   0.092
 3242SOL    HW210626   3.704   4.528   6.987
 3243SOL     OW10627   4.673   4.689   0.181
 3243SOL    HW110628   4.696   4.608   0.235
 3243SOL    HW210629   4.756   4.743   0.165
 3244SOL     OW10630   5.475   5.979   0.238
 3244SOL    HW110631   5.521   6.049   0.184
 3244SOL    HW210632   5.383   5.963   0.201
 3245SOL     OW10633   4.825   3.121   4.829
 3245SOL    HW110634   4.796   3.026   4.844
 3245SOL    HW210635   4.853   3.162   4.916
 3246SOL     OW10636   5.574   0.443   2.411
 3246SOL    HW110637   5.503   0.509   2.437
 3246SOL    HW210638   5.662   0.474   2.445
 3247SOL     OW10639   5.800   4.565   2.705
 3247SOL    HW110640   5.713   4.600   2.670
 3247SOL    HW210641   5.846   4.637   2.757
 3248SOL     OW10642   6.691   3.394   0.605
 3248SOL    HW110643   6.785   3.365   0.621
 3248SOL    HW210644   6.629   3.334   0.657
 3249SOL     OW10645   3.834   3.011   4.091
 3249SOL    HW110646   3.921   3.058   4.103
 3249SOL    HW210647   3.841   2.947   4.015
 3250SOL     OW10648   6.276   6.548   2.282
 3250SOL    HW110649   6.207   6.554   2.354
 3250SOL    HW210650   6.335   6.469   2.299
 3251SOL     OW10651   3.009   0.975   2.562
 3251SOL    HW110652   2.947   1.053   2.566
 3251SOL    HW210653   3.027   0.941   2.655
 3252SOL     OW10654   2.484   2.080   2.759
 3252SOL    HW110655   2.452   2.094   2.852
 3252SOL    HW210656   2.441   2.147   2.699
 3253SOL     OW10657   5.447   3.028   1.845
 3253SOL    HW110658   5.380   2.995   1.779
 3253SOL    HW210659   5.416   3.008   1.938
 3254SOL     OW10660   5.021   5.552   5.209
 3254SOL    HW110661   4.979   5.565   5.299
 3254SOL    HW210662   4.950   5.541   5.140
 3255SOL     OW10663   5.206   5.613   0.266
 3255SOL    HW110664   5.179   5.679   0.337
 3255SOL    HW210665   5.134   5.607   0.197
 3256SOL     OW10666   3.991   0.689   0.042
 3256SOL    HW110667   4.058   0.713   0.113
 3256SOL    HW210668   3.937   0.611   0.073
 3257SOL     OW10669   1.826   1.650   1.375
 3257SOL    HW110670   1.728   1.642   1.394
 3257SOL    HW210671   1.852   1.746   1.373
 3258SOL     OW10672   4.045   4.777   1.879
 3258SOL    HW110673   4.099   4.762   1.962
 3258SOL    HW210674   4.040   4.692   1.827
 3259SOL     OW10675   4.464   5.331   3.631
 3259SOL    HW110676   4.492   5.317   3.536
 3259SOL    HW210677   4.544   5.322   3.691
 3260SOL     OW10678   1.569   1.944   0.912
 3260SOL    HW110679   1.538   1.880   0.842
 3260SOL    HW210680   1.667   1.932   0.927
 3261SOL     OW10681   4.906   6.937   0.612
 3261SOL    HW110682   4.833   6.981   0.665
 3261SOL    HW210683   4.871   6.910   0.523
 3262SOL     OW10684   3.256   2.104   2.250
 3262SOL    HW110685   3.169   2.143   2.222
 3262SOL    HW210686   3.257   2.093   2.350
 3263SOL     OW10687   2.731   0.904   3.358
 3263SOL    HW110688   2.674   0.829   3.390
 3263SOL    HW210689   2.701   0.932   3.266
 3264SOL     OW10690   1.541   4.576   0.789
 3264SOL    HW110691   1.559   4.598   0.693
 3264SOL    HW210692   1.535   4.477   0.800
 3265SOL     OW10693   4.635   1.044   6.336
 3265SOL    HW110694   4.690   1.005   6.409
 3265SOL    HW210695   4.550   0.991   6.326
 3266SOL     OW10696   0.627   3.469   0.455
 3266SOL    HW110697   0.663   3.376   0.444
 3266SOL    HW210698   0.607   3.485   0.551
 3267SOL     OW10699   3.400   1.180   0.754
 3267SOL    HW110700   3.309   1.190   0.794
 3267SOL    HW210701   3.410   1.087   0.717
 3268SOL     OW10702   1.197   4.198   0.364
 3268SOL    HW110703   1.160   4.265   0.428
 3268SOL    HW210704   1.268   4.144   0.410
 3269SOL     OW10705   4.287   5.040   2.447
 3269SOL    HW110706   4.345   5.065   2.524
 3269SOL    HW210707   4.209   4.986   2.480
 3270SOL     OW10708   0.872   4.058   5.216
 3270SOL    HW110709   0.807   3.996   5.172
 3270SOL    HW210710   0.965   4.035   5.187
 3271SOL     OW10711   5.844   3.452   2.436
 3271SOL    HW110712   5.888   3.364   2.422
 3271SOL    HW210713   5.906   3.526   2.407
 3272SOL     OW10714   3.277   3.943   6.345
 3272SOL    HW110715   3.311   4.033   6.318
 3272SOL    HW210716   3.187   3.953   6.388
 3273SOL     OW10717   0.812   6.133   1.588
 3273SOL    HW110718   0.788   6.217   1.539
 3273SOL    HW210719   0.733   6.103   1.642
 3274SOL     OW10720   4.682   1.720   1.454
 3274SOL    HW110721   4.644   1.676   1.373
 3274SOL    HW210722   4.663   1.818   1.450
 3275SOL     OW10723   6.908   1.325   6.397
 3275SOL    HW110724   6.938   1.280   6.481
 3275SOL    HW210725   6.988   1.347   6.341
 3276SOL     OW10726   2.463   5.759   0.350
 3276SOL    HW110727   2.485   5.662   0.353
 3276SOL    HW210728   2.524   5.809   0.412
 3277SOL     OW10729   4.454   6.672   0.606
 3277SOL    HW110730   4.389   6.609   0.650
 3277SOL    HW210731   4.486   6.739   0.674
 3278SOL     OW10732   0.805   0.861   6.288
 3278SOL    HW110733   0.806   0.794   6.363
 3278SOL    HW210734   0.711   0.890   6.271
 3279SOL     OW10735   6.015   1.229   0.248
 3279SOL    HW110736   6.039   1.322   0.221
 3279SOL    HW210737   5.918   1.213   0.231
 3280SOL     OW10738   3.510   5.275   4.928
 3280SOL    HW110739   3.517   5.271   4.829
 3280SOL    HW210740   3.490   5.368   4.956
 3281SOL     OW10741   2.134   5.636   1.476
 3281SOL    HW110742   2.162   5.629   1.381
 3281SOL    HW210743   2.203   5.594   1.535
 3282SOL     OW10744   0.781   5.015   5.476
 3282SOL    HW110745   0.779   5.029   5.575
 3282SOL    HW210746   0.821   4.926   5.455
 3283SOL     OW10747   4.555   1.153   0.880
 3283SOL    HW110748   4.629   1.155   0.947
 3283SOL    HW210749   4.545   1.061   0.843
 3284SOL     OW10750   6.488   5.452   6.976
 3284SOL    HW110751   6.392   5.431   6.958
 3284SOL    HW210752   6.537   5.367   6.996
 3285SOL     OW10753   4.866   2.712   4.017
 3285SOL    HW110754   4.850   2.734   3.921
 3285SOL    HW210755   4.919   2.786   4.060
 3286SOL     OW10756   3.907   3.404   2.327
 3286SOL    HW110757   3.823   3.364   2.290
 3286SOL    HW210758   3.982   3.338   2.319
 3287SOL     OW10759   1.291   6.588   0.031
 3287SOL    HW110760   1.209   6.642   0.015
 3287SOL    HW210761   1.360   6.610   6.988
 3288SOL     OW10762   0.488   5.505   6.366
 3288SOL    HW110763   0.427   5.585   6.365
 3288SOL    HW210764   0.583   5.536   6.370
 3289SOL     OW10765   2.438   6.369   5.453
 3289SOL    HW110766   2.517   6.393   5.397
 3289SOL    HW210767   2.463   6.299   5.520
 3290SOL     OW10768   0.628   0.007   1.776
 3290SOL    HW110769   0.586   0.053   1.854
 3290SOL    HW210770   0.608   6.935   1.780
 3291SOL     OW10771   1.517   6.156   1.063
 3291SOL    HW110772   1.571   6.083   1.021
 3291SOL    HW210773   1.511   6.140   1.162
 3292SOL     OW10774   0.722   0.457   1.207
 3292SOL    HW110775   0.708   0.518   1.129
 3292SOL    HW210776   0.692   0.502   1.291
 3293SOL     OW10777   0.598   3.746   3.122
 3293SOL    HW110778   0.629   3.678   3.055
 3293SOL    HW210779   0.540   3.814   3.076
 3294SOL     OW10780   6.507   1.602   5.626
 3294SOL    HW110781   6.490   1.578   5.721
 3294SOL    HW210782   6.567   1.682   5.621
 3295SOL     OW10783   1.431   3.162   1.797
 3295SOL    HW110784   1.485   3.150   1.713
 3295SOL    HW210785   1.458   3.094   1.865
 3296SOL     OW10786   1.765   6.440   2.164
 3296SOL    HW110787   1.780   6.362   2.103
 3296SOL    HW210788   1.744   6.408   2.256
 3297SOL     OW10789   3.253   0.651   4.714
 3297SOL    HW110790   3.242   0.654   4.814
 3297SOL    HW210791   3.164   0.655   4.670
 3298SOL     OW10792   5.871   2.076   4.354
 3298SOL    HW110793   5.911   1.987   4.332
 3298SOL    HW210794   5.913   2.113   4.436
 3299SOL     OW10795   2.926   5.602   3.918
 3299SOL    HW110796   2.865   5.548   3.976
 3299SOL    HW210797   2.875   5.677   3.876
 3300SOL     OW10798   0.082   1.017   5.567
 3300SOL    HW110799   0.145   0.966   5.509
 3300SOL    HW210800   7.016   0.980   5.556
 3301SOL     OW10801   2.173   3.110   3.431
 3301SOL    HW110802   2.111   3.032   3.421
 3301SOL    HW210803   2.160   3.173   3.354
 3302SOL     OW10804   0.416   5.228   5.617
 3302SOL    HW110805   0.510   5.196   5.621
 3302SOL    HW210806   0.394   5.281   5.699
 3303SOL     OW10807   3.110   3.011   2.061
 3303SOL    HW110808   3.180   3.078   2.037
 3303SOL    HW210809   3.097   2.948   1.984
 3304SOL     OW10810   1.449   5.391   4.349
 3304SOL    HW110811   1.513   5.447   4.297
 3304SOL    HW210812   1.375   5.449   4.384
 3305SOL     OW10813   1.881   1.539   3.300
 3305SOL    HW110814   1.869   1.561   3.203
 3305SOL    HW210815   1.794   1.508   3.338
 3306SOL     OW10816   1.973   5.608   4.857
 3306SOL    HW110817   1.886   5.585   4.900
 3306SOL    HW210818   1.961   5.685   4.794
 3307SOL     OW10819   6.680   5.694   0.140
 3307SOL    HW110820   6.682   5.721   0.044
 3307SOL    HW210821   6.598   5.731   0.183
 3308SOL     OW10822   3.935   6.296   0.153
 3308SOL    HW110823   3.869   6.221   0.154
 3308SOL    HW210824   3.928   6.346   0.067
 3309SOL     OW10825   6.780   5.503   2.581
 3309SOL    HW110826   6.726   5.441   2.637
 3309SOL    HW210827   6.837   5.560   2.641
 3310SOL     OW10828   0.354   4.202   5.459
 3310SOL    HW110829   0.280   4.198   5.526
 3310SOL    HW210830   0.323   4.163   5.373
 3311SOL     OW10831   2.348   3.643   1.420
 3311SOL    HW110832   2.342   3.715   1.350
 3311SOL    HW210833   2.424   3.582   1.398
 3312SOL     OW10834   4.453   4.335   5.850
 3312SOL    HW110835   4.359   4.314   5.876
 3312SOL    HW210836   4.462   4.433   5.833
 3313SOL     OW10837   0.559   5.030   3.573
 3313SOL    HW110838   0.510   5.094   3.513
 3313SOL    HW210839   0.510   5.021   3.660
 3314SOL     OW10840   2.308   1.793   3.618
 3314SOL    HW110841   2.391   1.802   3.563
 3314SOL    HW210842   2.325   1.829   3.710
 3315SOL     OW10843   6.292   3.000   4.717
 3315SOL    HW110844   6.287   3.095   4.687
 3315SOL    HW210845   6.208   2.976   4.766
 3316SOL     OW10846   4.471   2.295   6.067
 3316SOL    HW110847   4.439   2.211   6.110
 3316SOL    HW210848   4.393   2.340   6.022
 3317SOL     OW10849   4.755   3.207   1.686
 3317SOL    HW110850   4.821   3.255   1.743
 3317SOL    HW210851   4.724   3.124   1.733
 3318SOL     OW10852   3.307   0.452   0.302
 3318SOL    HW110853   3.356   0.539   0.310
 3318SOL    HW210854   3.282   0.436   0.207
 3319SOL     OW10855   6.073   0.575   4.069
 3319SOL    HW110856   6.137   0.641   4.029
 3319SOL    HW210857   6.055   0.502   4.003
 3320SOL     OW10858   5.698   0.608   5.218
 3320SOL    HW110859   5.638   0.688   5.213
 3320SOL    HW210860   5.662   0.535   5.160
 3321SOL     OW10861   4.073   2.321   0.839
 3321SOL    HW110862   4.163   2.362   0.823
 3321SOL    HW210863   4.005   2.393   0.848
 3322SOL     OW10864   5.615   3.634   0.948
 3322SOL    HW110865   5.620   3.730   0.919
 3322SOL    HW210866   5.706   3.593   0.943
 3323SOL     OW10867   3.077   3.174   6.943
 3323SOL    HW110868   3.038   3.158   0.007
 3323SOL    HW210869   3.018   3.132   6.874
 3324SOL     OW10870   1.623   4.224   6.046
 3324SOL    HW110871   1.573   4.299   6.003
 3324SOL    HW210872   1.568   4.141   6.041
 3325SOL     OW10873   2.215   3.271   6.409
 3325SOL    HW110874   2.281   3.339   6.376
 3325SOL    HW210875   2.262   3.184   6.424
 3326SOL     OW10876   5.341   1.883   2.634
 3326SOL    HW110877   5.343   1.787   2.604
 3326SOL    HW210878   5.249   1.920   2.624
 3327SOL     OW10879   3.103   5.558   1.980
 3327SOL    HW110880   3.024   5.502   2.004
 3327SOL    HW210881   3.108   5.567   1.880
 3328SOL     OW10882   4.278   1.678   1.334
 3328SOL    HW110883   4.275   1.758   1.274
 3328SOL    HW210884   4.191   1.629   1.329
 3329SOL     OW10885   5.270   0.102   5.013
 3329SOL    HW110886   5.241   0.052   4.932
 3329SOL    HW210887   5.339   0.170   4.987
 3330SOL     OW10888   6.385   5.630   1.453
 3330SOL    HW110889   6.416   5.647   1.546
 3330SOL    HW210890   6.380   5.716   1.402
 3331SOL     OW10891   1.133   3.819   1.334
 3331SOL    HW110892   1.188   3.798   1.415
 3331SOL    HW210893   1.151   3.752   1.262
 3332SOL     OW10894   6.959   4.434   0.248
 3332SOL    HW110895   6.888   4.383   0.200
 3332SOL    HW210896   6.955   4.415   0.346
 3333SOL     OW10897   3.022   4.299   6.515
 3333SOL    HW110898   3.097   4.364   6.499
 3333SOL    HW210899   3.048   4.236   6.587
 3334SOL     OW10900   2.460   4.018   1.479
 3334SOL    HW110901   2.394   4.051   1.547
 3334SOL    HW210902   2.410   3.984   1.399
 3335SOL     OW10903   4.842   0.212   5.982
 3335SOL    HW110904   4.929   0.163   5.972
 3335SOL    HW210905   4.793   0.209   5.895
 3336SOL     OW10906   2.080   6.467   4.488
 3336SOL    HW110907   2.011   6.418   4.542
 3336SOL    HW210908   2.109   6.410   4.411
 3337SOL     OW10909   2.781   3.903   1.334
 3337SOL    HW110910   2.758   4.000   1.330
 3337SOL    HW210911   2.751   3.865   1.422
 3338SOL     OW10912   5.896   2.677   2.197
 3338SOL    HW110913   5.984   2.632   2.207
 3338SOL    HW210914   5.853   2.651   2.111
 3339SOL     OW10915   1.166   6.905   6.293
 3339SOL    HW110916   1.250   6.913   6.239
 3339SOL    HW210917   1.175   6.830   6.358
 3340SOL     OW10918   3.511   2.095   3.304
 3340SOL    HW110919   3.587   2.132   3.357
 3340SOL    HW210920   3.501   1.998   3.322
 3341SOL     OW10921   0.579   4.230   4.253
 3341SOL    HW110922   0.622   4.152   4.208
 3341SOL    HW210923   0.650   4.294   4.283
 3342SOL     OW10924   1.419   6.432   3.896
 3342SOL    HW110925   1.417   6.335   3.875
 3342SOL    HW210926   1.432   6.485   3.812
 3343SOL     OW10927   5.219   3.751   6.876
 3343SOL    HW110928   5.262   3.830   6.921
 3343SOL    HW210929   5.286   3.706   6.818
 3344SOL     OW10930   5.702   3.483   3.585
 3344SOL    HW110931   5.732   3.395   3.549
 3344SOL    HW210932   5.608   3.502   3.554
 3345SOL     OW10933   1.338   3.213   6.387
 3345SOL    HW110934   1.392   3.197   6.304
 3345SOL    HW210935   1.256   3.264   6.364
 3346SOL     OW10936   0.776   0.920   6.962
 3346SOL    HW110937   0.862   0.930   7.013
 3346SOL    HW210938   0.777   0.832   6.915
 3347SOL     OW10939   1.224   2.787   5.172
 3347SOL    HW110940   1.310   2.742   5.193
 3347SOL    HW210941   1.228   2.824   5.079
 3348SOL     OW10942   4.084   3.571   4.292
 3348SOL    HW110943   4.088   3.536   4.198
 3348SOL    HW210944   4.043   3.502   4.352
 3349SOL     OW10945   2.061   5.228   3.188
 3349SOL    HW110946   2.089   5.161   3.257
 3349SOL    HW210947   2.128   5.302   3.184
 3350SOL     OW10948   7.026   2.064   5.773
 3350SOL    HW110949   6.975   2.070   5.687
 3350SOL    HW210950   6.963   2.047   5.848
 3351SOL     OW10951   5.072   0.958   2.918
 3351SOL    HW110952   4.978   0.924   2.918
 3351SOL    HW210953   5.117   0.932   2.832
 3352SOL     OW10954   6.630   3.253   0.846
 3352SOL    HW110955   6.585   3.166   0.868
 3352SOL    HW210956   6.719   3.257   0.892
 3353SOL     OW10957   3.257   5.779   1.970
 3353SOL    HW110958   3.265   5.809   1.875
 3353SOL    HW210959   3.206   5.693   1.974
 3354SOL     OW10960   4.526   2.427   5.786
 3354SOL    HW110961   4.617   2.387   5.792
 3354SOL    HW210962   4.530   2.512   5.733
 3355SOL     OW10963   1.947   1.999   6.280
 3355SOL    HW110964   1.909   1.923   6.332
 3355SOL    HW210965   1.875   2.041   6.224
 3356SOL     OW10966   0.737   5.321   5.819
 3356SOL    HW110967   0.731   5.311   5.719
 3356SOL    HW210968   0.831   5.343   5.844
 3357SOL     OW10969   2.143   3.753   1.876
 3357SOL    HW110970   2.227   3.799   1.846
 3357SOL    HW210971   2.162   3.697   1.956
 3358SOL     OW10972   4.528   1.956   1.382
 3358SOL    HW110973   4.576   2.030   1.335
 3358SOL    HW210974   4.464   1.912   1.319
 3359SOL     OW10975   0.786   6.456   3.055
 3359SOL    HW110976   0.769   6.549   3.021
 3359SOL    HW210977   0.851   6.460   3.130
 3360SOL     OW10978   1.709   1.203   6.977
 3360SOL    HW110979   1.741   1.264   6.904
 3360SOL    HW210980   1.725   1.246   0.039
 3361SOL     OW10981   0.141   5.322   4.484
 3361SOL    HW110982   0.055   5.292   4.525
 3361SOL    HW210983   0.218   5.275   4.528
 3362SOL     OW10984   3.483   1.451   2.374
 3362SOL    HW110985   3.482   1.375   2.439
 3362SOL    HW210986   3.562   1.510   2.392
 3363SOL     OW10987   0.020   1.312   2.141
 3363SOL    HW110988   0.100   1.370   2.155
 3363SOL    HW210989   0.049   1.216   2.135
 3364SOL     OW10990   1.833   4.868   3.568
 3364SOL    HW110991   1.748   4.919   3.585
 3364SOL    HW210992   1.831   4.830   3.476
 3365SOL     OW10993   0.584   2.084   4.588
 3365SOL    HW110994   0.523   2.008   4.612
 3365SOL    HW210995   0.532   2.158   4.546
 3366SOL     OW10996   5.712   5.413   4.312
 3366SOL    HW110997   5.735   5.376   4.222
 3366SOL    HW210998   5.613   5.414   4.323
 3367SOL     OW10999   3.943   3.086   2.503
 3367SOL    HW111000   4.014   3.141   2.459
 3367SOL    HW211001   3.965   3.075   2.600
 3368SOL     OW11002   0.103   6.123   6.812
 3368SOL    HW111003   0.119   6.037   6.764
 3368SOL    HW211004   0.004   6.135   6.828
 3369SOL     OW11005   3.768   1.752   0.749
 3369SOL    HW111006   3.691   1.750   0.812
 3369SOL    HW211007   3.807   1.660   0.740
 3370SOL     OW11008   6.866   6.218   0.801
 3370SOL    HW111009   6.807   6.150   0.758
 3370SOL    HW211010   6.892   6.186   0.892
 3371SOL     OW11011   2.106   2.999   1.569
 3371SOL    HW111012   2.025   2.974   1.623
 3371SOL    HW211013   2.159   2.917   1.550
 3372SOL     OW11014   6.697   2.077   0.028
 3372SOL    HW111015   6.617   2.129   0.060
 3372SOL    HW211016   6.701   1.990   0.076
 3373SOL     OW11017   0.996   1.443   3.992
 3373SOL    HW111018   0.970   1.506   3.918
 3373SOL    HW211019   1.062   1.376   3.957
 3374SOL     OW11020   1.354   6.810   4.704
 3374SOL    HW111021   1.435   6.817   4.646
 3374SOL    HW211022   1.369   6.740   4.774
 3375SOL     OW11023   0.168   4.920   0.057
 3375SOL    HW111024   0.197   5.000   0.108
 3375SOL    HW211025   0.142   4.947   6.991
 3376SOL     OW11026   3.999   3.230   4.164
 3376SOL    HW111027   4.025   3.241   4.260
 3376SOL    HW211028   4.015   3.316   4.115
 3377SOL     OW11029   6.305   5.946   6.005
 3377SOL    HW111030   6.270   5.946   6.099
 3377SOL    HW211031   6.403   5.929   6.006
 3378SOL     OW11032   1.103   0.762   0.452
 3378SOL    HW111033   1.137   0.755   0.546
 3378SOL    HW211034   1.161   0.708   0.392
 3379SOL     OW11035   0.991   1.319   5.847
 3379SOL    HW111036   1.010   1.328   5.749
 3379SOL    HW211037   1.065   1.362   5.899
 3380SOL     OW11038   6.071   6.485   4.565
 3380SOL    HW111039   6.170   6.474   4.553
 3380SOL    HW211040   6.026   6.482   4.476
 3381SOL     OW11041   1.009   2.981   1.220
 3381SOL    HW111042   1.108   2.965   1.218
 3381SOL    HW211043   0.966   2.927   1.148
 3382SOL     OW11044   0.451   2.735   0.177
 3382SOL    HW111045   0.472   2.641   0.149
 3382SOL    HW211046   0.359   2.759   0.149
 3383SOL     OW11047   3.919   6.059   1.250
 3383SOL    HW111048   3.908   6.085   1.154
 3383SOL    HW211049   3.837   6.011   1.282
 3384SOL     OW11050   2.773   3.190   0.274
 3384SOL    HW111051   2.872   3.186   0.287
 3384SOL    HW211052   2.728   3.142   0.349
 3385SOL     OW11053   6.982   3.351   4.925
 3385SOL    HW111054   6.920   3.324   5.000
 3385SOL    HW211055   0.033   3.288   4.923
 3386SOL     OW11056   5.361   4.688   0.354
 3386SOL    HW111057   5.423   4.616   0.382
 3386SOL    HW211058   5.318   4.728   0.435
 3387SOL     OW11059   3.279   0.859   2.879
 3387SOL    HW111060   3.185   0.827   2.868
 3387SOL    HW211061   3.342   0.792   2.839
 3388SOL     OW11062   5.414   3.219   2.399
 3388SOL    HW111063   5.442   3.175   2.485
 3388SOL    HW211064   5.348   3.291   2.418
 3389SOL     OW11065   5.967   5.999   6.370
 3389SOL    HW111066   5.905   5.945   6.313
 3389SOL    HW211067   5.917   6.037   6.448
 3390SOL     OW11068   5.599   6.894   6.225
 3390SOL    HW111069   5.586   6.948   6.142
 3390SOL    HW211070   5.519   6.906   6.284
 3391SOL     OW11071   4.750   2.220   4.435
 3391SOL    HW111072   4.696   2.223   4.518
 3391SOL    HW211073   4.793   2.309   4.419
 3392SOL     OW11074   2.453   0.114   3.549
 3392SOL    HW111075   2.378   0.172   3.519
 3392SOL    HW211076   2.499   0.155   3.628
 3393SOL     OW11077   6.555   6.071   1.295
 3393SOL    HW111078   6.606   6.139   1.348
 3393SOL    HW211079   6.532   6.109   1.205
 3394SOL     OW11080   5.532   3.309   1.425
 3394SOL    HW111081   5.513   3.378   1.494
 3394SOL    HW211082   5.521   3.218   1.465
 3395SOL     OW11083   5.513   3.026   3.494
 3395SOL    HW111084   5.516   3.034   3.394
 3395SOL    HW211085   5.454   2.950   3.520
 3396SOL     OW11086   5.205   1.644   3.479
 3396SOL    HW111087   5.182   1.697   3.398
 3396SOL    HW211088   5.250   1.559   3.451
 3397SOL     OW11089   2.968   5.954   5.868
 3397SOL    HW111090   3.028   5.909   5.934
 3397SOL    HW211091   2.964   5.899   5.784
 3398SOL     OW11092   0.796   6.935   5.257
 3398SOL    HW111093   0.852   6.958   5.177
 3398SOL    HW211094   0.704   6.972   5.245
 3399SOL     OW11095   5.761   4.432   3.560
 3399SOL    HW111096   5.752   4.347   3.611
 3399SOL    HW211097   5.841   4.482   3.591
 3400SOL     OW11098   4.976   3.100   6.902
 3400SOL    HW111099   5.065   3.106   6.856
 3400SOL    HW211100   4.980   3.150   6.989
 3401SOL     OW11101   0.141   3.304   6.957
 3401SOL    HW111102   0.235   3.331   6.937
 3401SOL    HW211103   0.122   3.318   0.028
 3402SOL     OW11104   4.326   5.398   6.670
 3402SOL    HW111105   4.338   5.418   6.767
 3402SOL    HW211106   4.252   5.454   6.633
 3403SOL     OW11107   3.733   5.762   6.370
 3403SOL    HW111108   3.736   5.672   6.415
 3403SOL    HW211109   3.745   5.750   6.271
 3404SOL     OW11110   5.422   2.237   0.795
 3404SOL    HW111111   5.473   2.163   0.837
 3404SOL    HW211112   5.477   2.280   0.723
 3405SOL     OW11113   6.745   4.356   5.960
 3405SOL    HW111114   6.737   4.443   5.912
 3405SOL    HW211115   6.828   4.309   5.931
 3406SOL     OW11116   0.974   3.257   2.021
 3406SOL    HW111117   0.883   3.272   1.982
 3406SOL    HW211118   1.040   3.244   1.947
 3407SOL     OW11119   1.240   4.589   6.222
 3407SOL    HW111120   1.211   4.601   6.127
 3407SOL    HW211121   1.277   4.497   6.235
 3408SOL     OW11122   5.246   3.686   4.707
 3408SOL    HW111123   5.234   3.672   4.609
 3408SOL    HW211124   5.174   3.637   4.757
 3409SOL     OW11125   3.722   6.321   6.915
 3409SOL    HW111126   3.738   6.242   6.974
 3409SOL    HW211127   3.678   6.291   6.830
 3410SOL     OW11128   6.706   6.781   1.460
 3410SOL    HW111129   6.667   6.795   1.369
 3410SOL    HW211130   6.680   6.857   1.519
 3411SOL     OW11131   0.373   3.081   1.025
 3411SOL    HW111132   0.288   3.029   1.018
 3411SOL    HW211133   0.352   3.178   1.036
 3412SOL     OW11134   4.898   2.943   1.098
 3412SOL    HW111135   4.871   2.950   1.194
 3412SOL    HW211136   4.944   2.855   1.083
 3413SOL     OW11137   6.136   2.126   0.779
 3413SOL    HW111138   6.158   2.194   0.849
 3413SOL    HW211139   6.044   2.142   0.744
 3414SOL     OW11140   3.559   1.829   5.957
 3414SOL    HW111141   3.598   1.794   6.041
 3414SOL    HW211142   3.632   1.855   5.894
 3415SOL     OW11143   1.793   3.223   4.054
 3415SOL    HW111144   1.827   3.143   4.103
 3415SOL    HW211145   1.765   3.293   4.121
 3416SOL     OW11146   5.589   6.733   0.810
 3416SOL    HW111147   5.567   6.797   0.883
 3416SOL    HW211148   5.687   6.737   0.791
 3417SOL     OW11149   0.124   5.666   3.566
 3417SOL    HW111150   0.210   5.701   3.604
 3417SOL    HW211151   0.059   5.649   3.640
 3418SOL     OW11152   3.005   5.874   3.272
 3418SOL    HW111153   3.050   5.793   3.234
 3418SOL    HW211154   3.073   5.930   3.320
 3419SOL     OW11155   2.769   5.683   5.952
 3419SOL    HW111156   2.812   5.641   5.872
 3419SOL    HW211157   2.674   5.706   5.930
 3420SOL     OW11158   6.013   2.868   3.572
 3420SOL    HW111159   6.043   2.929   3.498
 3420SOL    HW211160   6.093   2.830   3.618
 3421SOL     OW11161   4.644   1.684   4.459
 3421SOL    HW111162   4.563   1.736   4.485
 3421SOL    HW211163   4.639   1.592   4.498
 3422SOL     OW11164   2.446   0.224   0.319
 3422SOL    HW111165   2.442   0.236   0.418
 3422SOL    HW211166   2.376   0.282   0.276
 3423SOL     OW11167   0.083   4.385   6.760
 3423SOL    HW111168   0.005   4.352   6.813
 3423SOL    HW211169   0.054   4.461   6.701
 3424SOL     OW11170   2.066   6.513   0.985
 3424SOL    HW111171   2.104   6.603   1.009
 3424SOL    HW211172   2.049   6.509   0.887
 3425SOL     OW11173   5.002   4.999   2.506
 3425SOL    HW111174   4.924   5.059   2.489
 3425SOL    HW211175   5.080   5.028   2.450
 3426SOL     OW11176   4.218   2.524   0.568
 3426SOL    HW111177   4.199   2.433   0.532
 3426SOL    HW211178   4.307   2.555   0.535
 3427SOL     OW11179   0.566   1.299   0.848
 3427SOL    HW111180   0.653   1.343   0.872
 3427SOL    HW211181   0.517   1.274   0.931
 3428SOL     OW11182   2.367   5.054   0.050
 3428SOL    HW111183   2.369   5.072   6.978
 3428SOL    HW211184   2.441   4.992   0.074
 3429SOL     OW11185   0.137   1.821   0.682
 3429SOL    HW111186   0.055   1.803   0.736
 3429SOL    HW211187   0.186   1.899   0.722
 3430SOL     OW11188   1.716   6.358   5.801
 3430SOL    HW111189   1.772   6.439   5.816
 3430SOL    HW211190   1.622   6.377   5.829
 3431SOL     OW11191   1.332   6.893   1.569
 3431SOL    HW111192   1.290   6.947   1.496
 3431SOL    HW211193   1.275   6.813   1.588
 3432SOL     OW11194   1.594   3.123   5.721
 3432SOL    HW111195   1.641   3.209   5.740
 3432SOL    HW211196   1.653   3.047   5.750
 3433SOL     OW11197   1.641   6.706   5.047
 3433SOL    HW111198   1.561   6.647   5.036
 3433SOL    HW211199   1.669   6.741   4.958
 3434SOL     OW11200   4.464   1.052   2.299
 3434SOL    HW111201   4.372   1.013   2.294
 3434SOL    HW211202   4.527   0.996   2.246
 3435SOL     OW11203   1.813   0.735   0.983
 3435SOL    HW111204   1.830   0.702   1.075
 3435SOL    HW211205   1.838   0.664   0.917
 3436SOL     OW11206   4.220   6.359   0.214
 3436SOL    HW111207   4.149   6.301   0.176
 3436SOL    HW211208   4.190   6.454   0.212
 3437SOL     OW11209   2.623   0.166   5.885
 3437SOL    HW111210   2.703   0.191   5.940
 3437SOL    HW211211   2.547   0.228   5.906
 3438SOL     OW11212   1.122   2.875   0.443
 3438SOL    HW111213   1.041   2.926   0.473
 3438SOL    HW211214   1.144   2.902   0.349
 3439SOL     OW11215   2.576   6.255   4.881
 3439SOL    HW111216   2.588   6.338   4.935
 3439SOL    HW211217   2.541   6.278   4.791
 3440SOL     OW11218   2.784   3.107   1.734
 3440SOL    HW111219   2.875   3.099   1.694
 3440SOL    HW211220   2.792   3.128   1.832
 3441SOL     OW11221   6.409   5.523   5.985
 3441SOL    HW111222   6.390   5.573   6.069
 3441SOL    HW211223   6.413   5.587   5.908
 3442SOL     OW11224   2.159   4.445   1.551
 3442SOL    HW111225   2.097   4.517   1.583
 3442SOL    HW211226   2.220   4.482   1.481
 3443SOL     OW11227   3.492   6.495   2.077
 3443SOL    HW111228   3.403   6.453   2.099
 3443SOL    HW211229   3.556   6.423   2.050
 3444SOL     OW11230   5.014   5.492   6.593
 3444SOL    HW111231   5.085   5.465   6.528
 3444SOL    HW211232   5.005   5.421   6.664
 3445SOL     OW11233   5.659   5.287   2.865
 3445SOL    HW111234   5.619   5.214   2.811
 3445SOL    HW211235   5.747   5.314   2.826
 3446SOL     OW11236   6.205   1.132   1.737
 3446SOL    HW111237   6.140   1.206   1.724
 3446SOL    HW211238   6.173   1.072   1.810
 3447SOL     OW11239   5.102   5.641   0.773
 3447SOL    HW111240   5.036   5.708   0.738
 3447SOL    HW211241   5.162   5.686   0.839
 3448SOL     OW11242   3.819   0.681   6.489
 3448SOL    HW111243   3.740   0.730   6.524
 3448SOL    HW211244   3.797   0.638   6.401
 3449SOL     OW11245   5.705   5.558   4.549
 3449SOL    HW111246   5.676   5.489   4.483
 3449SOL    HW211247   5.686   5.649   4.513
 3450SOL     OW11248   0.597   2.303   6.857
 3450SOL    HW111249   0.529   2.310   6.783
 3450SOL    HW211250   0.662   2.379   6.849
 3451SOL     OW11251   2.432   6.458   0.104
 3451SOL    HW111252   2.440   6.372   0.154
 3451SOL    HW211253   2.339   6.494   0.114
 3452SOL     OW11254   5.531   0.916   6.858
 3452SOL    HW111255   5.612   0.946   6.807
 3452SOL    HW211256   5.488   0.839   6.810
 3453SOL     OW11257   6.491   5.873   6.401
 3453SOL    HW111258   6.493   5.952   6.462
 3453SOL    HW211259   6.438   5.799   6.443
 3454SOL     OW11260   1.031   3.043   4.757
 3454SOL    HW111261   0.948   2.995   4.788
 3454SOL    HW211262   1.026   3.138   4.786
 3455SOL     OW11263   2.409   2.011   4.307
 3455SOL    HW111264   2.373   1.971   4.391
 3455SOL    HW211265   2.348   1.989   4.231
 3456SOL     OW11266   5.605   5.321   1.476
 3456SOL    HW111267   5.635   5.264   1.400
 3456SOL    HW211268   5.681   5.336   1.539
 3457SOL     OW11269   2.856   5.542   3.350
 3457SOL    HW111270   2.795   5.620   3.363
 3457SOL    HW211271   2.912   5.529   3.432
 3458SOL     OW11272   4.814   0.830   1.845
 3458SOL    HW111273   4.782   0.905   1.904
 3458SOL    HW211274   4.862   0.868   1.766
 3459SOL     OW11275   5.248   2.936   2.726
 3459SOL    HW111276   5.267   2.837   2.725
 3459SOL    HW211277   5.334   2.987   2.726
 3460SOL     OW11278   2.322   2.170   6.879
 3460SOL    HW111279   2.392   2.209   6.939
 3460SOL    HW211280   2.356   2.167   6.786
 3461SOL     OW11281   5.092   4.421   6.235
 3461SOL    HW111282   5.005   4.422   6.186
 3461SOL    HW211283   5.149   4.347   6.201
 3462SOL     OW11284   0.310   3.853   4.810
 3462SOL    HW111285   0.305   3.757   4.784
 3462SOL    HW211286   0.290   3.911   4.730
 3463SOL     OW11287   1.135   4.385   1.995
 3463SOL    HW111288   1.229   4.386   1.960
 3463SOL    HW211289   1.082   4.316   1.946
 3464SOL     OW11290   6.878   4.834   5.073
 3464SOL    HW111291   6.859   4.866   4.980
 3464SOL    HW211292   6.952   4.766   5.070
 3465SOL     OW11293   1.539   1.994   2.579
 3465SOL    HW111294   1.509   2.083   2.613
 3465SOL    HW211295   1.460   1.944   2.545
 3466SOL     OW11296   6.427   5.274   6.513
 3466SOL    HW111297   6.394   5.318   6.430
 3466SOL    HW211298   6.506   5.217   6.492
 3467SOL     OW11299   1.983   3.153   6.961
 3467SOL    HW111300   2.011   3.086   6.892
 3467SOL    HW211301   1.906   3.206   6.927
 3468SOL     OW11302   4.646   6.372   3.117
 3468SOL    HW111303   4.578   6.333   3.054
 3468SOL    HW211304   4.632   6.471   3.123
 3469SOL     OW11305   5.142   0.056   3.412
 3469SOL    HW111306   5.161   0.154   3.404
 3469SOL    HW211307   5.167   0.023   3.503
 3470SOL     OW11308   6.248   3.579   1.104
 3470SOL    HW111309   6.173   3.548   1.045
 3470SOL    HW211310   6.284   3.666   1.069
 3471SOL     OW11311   4.011   5.410   4.144
 3471SOL    HW111312   4.084   5.361   4.097
 3471SOL    HW211313   3.987   5.492   4.092
 3472SOL     OW11314   2.367   0.757   2.563
 3472SOL    HW111315   2.330   0.830   2.505
 3472SOL    HW211316   2.348   0.668   2.522
 3473SOL     OW11317   0.341   2.370   0.877
 3473SOL    HW111318   0.360   2.361   0.779
 3473SOL    HW211319   0.417   2.418   0.921
 3474SOL     OW11320   2.203   4.880   2.067
 3474SOL    HW111321   2.202   4.903   2.164
 3474SOL    HW211322   2.157   4.952   2.015
 3475SOL     OW11323   1.100   5.405   4.623
 3475SOL    HW111324   1.134   5.440   4.536
 3475SOL    HW211325   1.000   5.409   4.623
 3476SOL     OW11326   3.327   2.043   3.080
 3476SOL    HW111327   3.242   2.095   3.091
 3476SOL    HW211328   3.383   2.051   3.163
 3477SOL     OW11329   3.376   4.973   0.944
 3477SOL    HW111330   3.310   5.036   0.902
 3477SOL    HW211331   3.443   4.945   0.875
 3478SOL     OW11332   2.237   6.043   4.542
 3478SOL    HW111333   2.300   5.973   4.575
 3478SOL    HW211334   2.175   6.070   4.615
 3479SOL     OW11335   1.623   0.911   2.978
 3479SOL    HW111336   1.587   0.827   3.018
 3479SOL    HW211337   1.709   0.890   2.930
 3480SOL     OW11338   0.136   0.042   5.208
 3480SOL    HW111339   0.132   0.001   5.117
 3480SOL    HW211340   0.045   0.071   5.237
 3481SOL     OW11341   4.554   0.002   0.549
 3481SOL    HW111342   4.570   6.961   0.476
 3481SOL    HW211343   4.637   0.011   0.604
 3482SOL     OW11344   5.744   1.821   1.272
 3482SOL    HW111345   5.687   1.858   1.345
 3482SOL    HW211346   5.738   1.879   1.191
 3483SOL     OW11347   4.670   1.280   1.330
 3483SOL    HW111348   4.744   1.329   1.284
 3483SOL    HW211349   4.590   1.340   1.338
 3484SOL     OW11350   2.703   3.476   1.146
 3484SOL    HW111351   2.676   3.429   1.230
 3484SOL    HW211352   2.629   3.469   1.078
 3485SOL     OW11353   1.663   0.388   3.890
 3485SOL    HW111354   1.707   0.307   3.929
 3485SOL    HW211355   1.659   0.380   3.791
 3486SOL     OW11356   2.797   1.638   2.682
 3486SOL    HW111357   2.768   1.695   2.759
 3486SOL    HW211358   2.892   1.661   2.658
 3487SOL     OW11359   5.601   2.663   5.989
 3487SOL    HW111360   5.514   2.629   5.953
 3487SOL    HW211361   5.621   2.753   5.950
 3488SOL     OW11362   5.862   2.057   4.924
 3488SOL    HW111363   5.850   2.150   4.959
 3488SOL    HW211364   5.878   1.995   5.001
 3489SOL     OW11365   3.138   0.042   0.521
 3489SOL    HW111366   3.218   7.009   0.512
 3489SOL    HW211367   3.168   0.137   0.518
 3490SOL     OW11368   4.142   4.863   6.821
 3490SOL    HW111369   4.075   4.903   6.759
 3490SOL    HW211370   4.104   4.857   6.913
 3491SOL     OW11371   5.708   2.295   5.391
 3491SOL    HW111372   5.777   2.367   5.388
 3491SOL    HW211373   5.647   2.311   5.469
 3492SOL     OW11374   0.948   5.772   1.022
 3492SOL    HW111375   1.023   5.706   1.019
 3492SOL    HW211376   0.870   5.732   1.071
 3493SOL     OW11377   5.961   4.784   6.393
 3493SOL    HW111378   6.059   4.761   6.391
 3493SOL    HW211379   5.926   4.784   6.299
 3494SOL     OW11380   3.880   0.778   1.737
 3494SOL    HW111381   3.955   0.731   1.784
 3494SOL    HW211382   3.805   0.794   1.802
 3495SOL     OW11383   4.590   5.535   1.965
 3495SOL    HW111384   4.631   5.613   2.013
 3495SOL    HW211385   4.549   5.472   2.031
 3496SOL     OW11386   0.064   4.071   0.907
 3496SOL    HW111387   0.142   4.025   0.950
 3496SOL    HW211388   0.022   4.010   0.840
 3497SOL     OW11389   3.696   6.802   3.661
 3497SOL    HW111390   3.689   6.900   3.644
 3497SOL    HW211391   3.685   6.753   3.574
 3498SOL     OW11392   1.729   2.539   0.892
 3498SOL    HW111393   1.763   2.522   0.800
 3498SOL    HW211394   1.806   2.550   0.955
 3499SOL     OW11395   4.655   2.759   4.591
 3499SOL    HW111396   4.585   2.690   4.610
 3499SOL    HW211397   4.738   2.714   4.557
 3500SOL     OW11398   1.373   3.713   5.071
 3500SOL    HW111399   1.330   3.684   4.986
 3500SOL    HW211400   1.438   3.787   5.053
 3501SOL     OW11401   2.178   5.152   3.944
 3501SOL    HW111402   2.217   5.081   4.002
 3501SOL    HW211403   2.243   5.173   3.871
 3502SOL     OW11404   6.269   2.636   2.136
 3502SOL    HW111405   6.325   2.569   2.088
 3502SOL    HW211406   6.184   2.593   2.166
 3503SOL     OW11407   6.211   5.945   5.004
 3503SOL    HW111408   6.268   5.887   5.063
 3503SOL    HW211409   6.146   5.887   4.953
 3504SOL     OW11410   2.348   1.530   1.048
 3504SOL    HW111411   2.290   1.450   1.040
 3504SOL    HW211412   2.308   1.594   1.113
 3505SOL     OW11413   5.320   4.960   4.796
 3505SOL    HW111414   5.237   5.008   4.825
 3505SOL    HW211415   5.352   4.900   4.869
 3506SOL     OW11416   4.853   6.348   5.758
 3506SOL    HW111417   4.817   6.280   5.822
 3506SOL    HW211418   4.944   6.377   5.788
 3507SOL     OW11419   2.419   0.686   7.005
 3507SOL    HW111420   2.498   0.711   6.949
 3507SOL    HW211421   2.384   0.597   6.976
 3508SOL     OW11422   3.017   2.498   5.970
 3508SOL    HW111423   3.097   2.553   5.947
 3508SOL    HW211424   3.025   2.408   5.927
 3509SOL     OW11425   5.648   0.184   6.360
 3509SOL    HW111426   5.696   0.122   6.421
 3509SOL    HW211427   5.550   0.170   6.368
 3510SOL     OW11428   2.032   2.361   1.293
 3510SOL    HW111429   2.017   2.282   1.234
 3510SOL    HW211430   2.121   2.354   1.337
 3511SOL     OW11431   2.559   4.884   0.124
 3511SOL    HW111432   2.517   4.871   0.214
 3511SOL    HW211433   2.572   4.795   0.080
 3512SOL     OW11434   6.903   4.402   0.552
 3512SOL    HW111435   6.940   4.486   0.593
 3512SOL    HW211436   6.807   4.415   0.529
 3513SOL     OW11437   6.313   3.947   0.254
 3513SOL    HW111438   6.276   3.858   0.281
 3513SOL    HW211439   6.408   3.955   0.285
 3514SOL     OW11440   6.953   1.028   1.932
 3514SOL    HW111441   6.868   1.080   1.935
 3514SOL    HW211442   6.971   0.999   1.838
 3515SOL     OW11443   4.724   6.275   3.373
 3515SOL    HW111444   4.696   6.365   3.340
 3515SOL    HW211445   4.700   6.206   3.306
 3516SOL     OW11446   4.421   0.044   1.131
 3516SOL    HW111447   4.412   0.129   1.183
 3516SOL    HW211448   4.389   6.994   1.188
 3517SOL     OW11449   0.916   2.275   0.696
 3517SOL    HW111450   0.932   2.176   0.701
 3517SOL    HW211451   1.004   2.323   0.692
 3518SOL     OW11452   5.805   4.286   4.691
 3518SOL    HW111453   5.877   4.348   4.659
 3518SOL    HW211454   5.845   4.197   4.711
 3519SOL     OW11455   1.809   1.097   6.569
 3519SOL    HW111456   1.850   1.065   6.483
 3519SOL    HW211457   1.778   1.018   6.622
 3520SOL     OW11458   2.984   4.671   6.541
 3520SOL    HW111459   2.987   4.682   6.640
 3520SOL    HW211460   3.076   4.659   6.505
 3521SOL     OW11461   5.794   3.385   1.103
 3521SOL    HW111462   5.717   3.322   1.093
 3521SOL    HW211463   5.879   3.334   1.099
 3522SOL     OW11464   5.557   5.130   2.114
 3522SOL    HW111465   5.615   5.058   2.152
 3522SOL    HW211466   5.486   5.154   2.180
 3523SOL     OW11467   3.164   4.805   5.711
 3523SOL    HW111468   3.098   4.799   5.786
 3523SOL    HW211469   3.116   4.801   5.624
 3524SOL     OW11470   2.937   1.148   0.814
 3524SOL    HW111471   2.943   1.094   0.898
 3524SOL    HW211472   2.874   1.224   0.827
 3525SOL     OW11473   0.367   4.374   2.101
 3525SOL    HW111474   0.400   4.357   2.194
 3525SOL    HW211475   0.436   4.343   2.036
 3526SOL     OW11476   2.641   6.129   3.591
 3526SOL    HW111477   2.581   6.178   3.654
 3526SOL    HW211478   2.608   6.035   3.580
 3527SOL     OW11479   6.295   4.081   5.899
 3527SOL    HW111480   6.215   4.085   5.959
 3527SOL    HW211481   6.351   4.162   5.913
 3528SOL     OW11482   1.199   5.060   3.804
 3528SOL    HW111483   1.237   5.021   3.888
 3528SOL    HW211484   1.273   5.100   3.750
 3529SOL     OW11485   4.978   6.980   5.667
 3529SOL    HW111486   4.944   6.907   5.607
 3529SOL    HW211487   4.961   6.955   5.762
 3530SOL     OW11488   2.192   4.510   3.241
 3530SOL    HW111489   2.251   4.515   3.321
 3530SOL    HW211490   2.114   4.450   3.261
 3531SOL     OW11491   5.248   4.393   1.065
 3531SOL    HW111492   5.152   4.369   1.049
 3531SOL    HW211493   5.253   4.483   1.108
 3532SOL     OW11494   2.202   0.045   0.203
 3532SOL    HW111495   2.124   0.004   0.250
 3532SOL    HW211496   2.261   0.091   0.270
 3533SOL     OW11497   0.978   2.091   2.687
 3533SOL    HW111498   0.968   2.186   2.657
 3533SOL    HW211499   0.935   2.030   2.620
 3534SOL     OW11500   6.500   1.099   5.201
 3534SOL    HW111501   6.484   1.085   5.299
 3534SOL    HW211502   6.426   1.057   5.149
 3535SOL     OW11503   6.703   5.703   0.550
 3535SOL    HW111504   6.727   5.795   0.519
 3535SOL    HW211505   6.782   5.662   0.597
 3536SOL     OW11506   2.228   2.442   3.676
 3536SOL    HW111507   2.183   2.517   3.725
 3536SOL    HW211508   2.318   2.472   3.645
 3537SOL     OW11509   2.795   5.052   0.042
 3537SOL    HW111510   2.716   5.009   0.085
 3537SOL    HW211511   2.815   5.005   6.982
 3538SOL     OW11512   2.723   0.569   4.619
 3538SOL    HW111513   2.746   0.612   4.531
 3538SOL    HW211514   2.675   0.483   4.602
 3539SOL     OW11515   5.922   3.334   6.641
 3539SOL    HW111516   5.947   3.365   6.733
 3539SOL    HW211517   5.826   3.305   6.640
 3540SOL     OW11518   1.929   1.648   5.014
 3540SOL    HW111519   2.008   1.689   4.969
 3540SOL    HW211520   1.881   1.719   5.067
 3541SOL     OW11521   3.246   2.414   6.628
 3541SOL    HW111522   3.206   2.381   6.714
 3541SOL    HW211523   3.316   2.349   6.598
 3542SOL     OW11524   0.148   3.428   1.620
 3542SOL    HW111525   0.223   3.379   1.575
 3542SOL    HW211526   0.171   3.525   1.627
 3543SOL     OW11527   1.081   3.413   5.146
 3543SOL    HW111528   1.133   3.408   5.231
 3543SOL    HW211529   1.130   3.364   5.074
 3544SOL     OW11530   2.094   4.454   6.002
 3544SOL    HW111531   2.121   4.533   6.056
 3544SOL    HW211532   1.999   4.431   6.022
 3545SOL     OW11533   3.923   5.400   6.506
 3545SOL    HW111534   3.850   5.404   6.438
 3545SOL    HW211535   3.897   5.339   6.581
 3546SOL     OW11536   6.777   4.681   3.240
 3546SOL    HW111537   6.684   4.643   3.241
 3546SOL    HW211538   6.776   4.770   3.193
 3547SOL     OW11539   6.406   3.820   4.179
 3547SOL    HW111540   6.451   3.892   4.125
 3547SOL    HW211541   6.475   3.773   4.235
 3548SOL     OW11542   5.346   0.091   5.877
 3548SOL    HW111543   5.434   0.124   5.912
 3548SOL    HW211544   5.316   0.149   5.801
 3549SOL     OW11545   1.129   4.746   5.891
 3549SOL    HW111546   1.183   4.664   5.910
 3549SOL    HW211547   1.052   4.750   5.955
 3550SOL     OW11548   5.865   2.333   5.016
 3550SOL    HW111549   5.933   2.347   5.087
 3550SOL    HW211550   5.901   2.364   4.928
 3551SOL     OW11551   3.623   1.440   4.065
 3551SOL    HW111552   3.698   1.487   4.019
 3551SOL    HW211553   3.561   1.507   4.106
 3552SOL     OW11554   6.302   6.835   2.145
 3552SOL    HW111555   6.238   6.814   2.071
 3552SOL    HW211556   6.267   6.798   2.231
 3553SOL     OW11557   3.577   5.885   0.034
 3553SOL    HW111558   3.572   5.786   0.048
 3553SOL    HW211559   3.631   5.903   6.978
 3554SOL     OW11560   3.968   2.666   0.418
 3554SOL    HW111561   3.889   2.724   0.439
 3554SOL    HW211562   4.031   2.666   0.495
 3555SOL     OW11563   0.659   3.417   4.054
 3555SOL    HW111564   0.743   3.454   4.014
 3555SOL    HW211565   0.580   3.444   3.998
 3556SOL     OW11566   3.917   0.890   4.166
 3556SOL    HW111567   3.962   0.803   4.149
 3556SOL    HW211568   3.977   0.950   4.218
 3557SOL     OW11569   1.431   0.217   4.216
 3557SOL    HW111570   1.499   0.144   4.215
 3557SOL    HW211571   1.340   0.177   4.228
 3558SOL     OW11572   1.672   5.278   1.992
 3558SOL    HW111573   1.747   5.298   2.056
 3558SOL    HW211574   1.661   5.356   1.930
 3559SOL     OW11575   0.846   6.034   5.277
 3559SOL    HW111576   0.905   6.045   5.197
 3559SOL    HW211577   0.875   5.955   5.329
 3560SOL     OW11578   2.046   5.271   2.334
 3560SOL    HW111579   2.017   5.305   2.424
 3560SOL    HW211580   2.018   5.175   2.324
 3561SOL     OW11581   5.105   4.214   5.568
 3561SOL    HW111582   5.087   4.117   5.583
 3561SOL    HW211583   5.160   4.250   5.643
 3562SOL     OW11584   2.860   1.436   3.319
 3562SOL    HW111585   2.850   1.469   3.225
 3562SOL    HW211586   2.819   1.346   3.328
 3563SOL     OW11587   6.593   2.249   6.641
 3563SOL    HW111588   6.614   2.346   6.626
 3563SOL    HW211589   6.497   2.238   6.665
 3564SOL     OW11590   0.871   4.640   2.895
 3564SOL    HW111591   0.880   4.545   2.863
 3564SOL    HW211592   0.801   4.687   2.841
 3565SOL     OW11593   3.312   6.299   4.162
 3565SOL    HW111594   3.257   6.251   4.231
 3565SOL    HW211595   3.275   6.391   4.149
 3566SOL     OW11596   6.245   2.656   6.733
 3566SOL    HW111597   6.177   2.609   6.676
 3566SOL    HW211598   6.287   2.730   6.680
 3567SOL     OW11599   0.787   2.492   6.906
 3567SOL    HW111600   0.814   2.534   6.993
 3567SOL    HW211601   0.868   2.468   6.854
 3568SOL     OW11602   5.637   4.480   4.777
 3568SOL    HW111603   5.658   4.530   4.693
 3568SOL    HW211604   5.679   4.390   4.774
 3569SOL     OW11605   2.856   2.810   6.256
 3569SOL    HW111606   2.826   2.776   6.167
 3569SOL    HW211607   2.943   2.859   6.246
 3570SOL     OW11608   5.566   0.257   6.074
 3570SOL    HW111609   5.654   0.209   6.070
 3570SOL    HW211610   5.577   0.349   6.037
 3571SOL     OW11611   0.402   5.302   6.201
 3571SOL    HW111612   0.433   5.361   6.275
 3571SOL    HW211613   0.481   5.261   6.156
 3572SOL     OW11614   5.880   4.149   3.154
 3572SOL    HW111615   5.845   4.115   3.066
 3572SOL    HW211616   5.804   4.163   3.217
 3573SOL     OW11617   0.675   4.648   3.950
 3573SOL    HW111618   0.728   4.622   4.031
 3573SOL    HW211619   0.589   4.598   3.949
 3574SOL     OW11620   0.285   4.279   0.941
 3574SOL    HW111621   0.197   4.239   0.918
 3574SOL    HW211622   0.344   4.209   0.981
 3575SOL     OW11623   5.496   4.747   3.107
 3575SOL    HW111624   5.410   4.708   3.075
 3575SOL    HW211625   5.543   4.680   3.165
 3576SOL     OW11626   0.929   1.785   6.051
 3576SOL    HW111627   0.976   1.762   5.966
 3576SOL    HW211628   0.932   1.707   6.114
 3577SOL     OW11629   1.508   2.852   6.233
 3577SOL    HW111630   1.439   2.834   6.303
 3577SOL    HW211631   1.595   2.876   6.277
 3578SOL     OW11632   2.553   2.514   0.747
 3578SOL    HW111633   2.615   2.436   0.734
 3578SOL    HW211634   2.501   2.530   0.663
 3579SOL     OW11635   5.918   3.324   5.246
 3579SOL    HW111636   5.821   3.303   5.248
 3579SOL    HW211637   5.932   3.413   5.204
 3580SOL     OW11638   5.849   2.798   1.525
 3580SOL    HW111639   5.789   2.810   1.446
 3580SOL    HW211640   5.901   2.713   1.515
 3581SOL     OW11641   0.670   5.966   3.859
 3581SOL    HW111642   0.713   5.953   3.770
 3581SOL    HW211643   0.731   6.018   3.918
 3582SOL     OW11644   0.775   2.252   5.590
 3582SOL    HW111645   0.680   2.282   5.596
 3582SOL    HW211646   0.836   2.328   5.611
 3583SOL     OW11647   1.350   3.548   6.604
 3583SOL    HW111648   1.444   3.554   6.571
 3583SOL    HW211649   1.291   3.603   6.546
 3584SOL     OW11650   5.796   5.023   6.434
 3584SOL    HW111651   5.762   5.013   6.528
 3584SOL    HW211652   5.848   4.941   6.409
 3585SOL     OW11653   4.337   0.063   5.164
 3585SOL    HW111654   4.312   0.042   5.259
 3585SOL    HW211655   4.291   7.025   5.103
 3586SOL     OW11656   0.430   2.292   4.997
 3586SOL    HW111657   0.497   2.230   4.957
 3586SOL    HW211658   0.419   2.372   4.938
 3587SOL     OW11659   3.243   5.478   6.353
 3587SOL    HW111660   3.204   5.478   6.260
 3587SOL    HW211661   3.334   5.438   6.351
 3588SOL     OW11662   0.923   2.593   5.475
 3588SOL    HW111663   0.947   2.687   5.455
 3588SOL    HW211664   0.986   2.531   5.428
 3589SOL     OW11665   3.821   1.527   4.989
 3589SOL    HW111666   3.747   1.568   4.934
 3589SOL    HW211667   3.782   1.485   5.071
 3590SOL     OW11668   1.359   2.613   6.960
 3590SOL    HW111669   1.390   2.575   0.020
 3590SOL    HW211670   1.379   2.711   6.958
 3591SOL     OW11671   5.041   3.420   6.547
 3591SOL    HW111672   5.082   3.510   6.559
 3591SOL    HW211673   4.977   3.423   6.470
 3592SOL     OW11674   6.678   4.319   1.740
 3592SOL    HW111675   6.748   4.358   1.680
 3592SOL    HW211676   6.722   4.271   1.816
 3593SOL     OW11677   1.687   5.908   5.056
 3593SOL    HW111678   1.746   5.849   5.111
 3593SOL    HW211679   1.594   5.871   5.055
 3594SOL     OW11680   4.772   0.426   3.277
 3594SOL    HW111681   4.762   0.525   3.268
 3594SOL    HW211682   4.690   0.381   3.241
 3595SOL     OW11683   2.382   5.828   0.084
 3595SOL    HW111684   2.413   5.837   0.179
 3595SOL    HW211685   2.459   5.846   0.022
 3596SOL     OW11686   6.806   2.216   3.262
 3596SOL    HW111687   6.739   2.283   3.293
 3596SOL    HW211688   6.768   2.163   3.186
 3597SOL     OW11689   1.952   1.616   3.767
 3597SOL    HW111690   1.952   1.716   3.757
 3597SOL    HW211691   2.011   1.576   3.697
 3598SOL     OW11692   0.764   5.313   6.267
 3598SOL    HW111693   0.846   5.278   6.313
 3598SOL    HW211694   0.722   5.383   6.325
 3599SOL     OW11695   0.557   1.755   5.891
 3599SOL    HW111696   0.496   1.817   5.941
 3599SOL    HW211697   0.567   1.787   5.797
 3600SOL     OW11698   0.690   4.111   0.138
 3600SOL    HW111699   0.736   4.028   0.105
 3600SOL    HW211700   0.742   4.150   0.214
 3601SOL     OW11701   5.526   4.657   6.285
 3601SOL    HW111702   5.493   4.683   6.376
 3601SOL    HW211703   5.494   4.724   6.218
 3602SOL     OW11704   1.474   2.514   1.066
 3602SOL    HW111705   1.393   2.502   1.008
 3602SOL    HW211706   1.528   2.592   1.032
 3603SOL     OW11707   3.328   0.223   3.397
 3603SOL    HW111708   3.332   0.248   3.300
 3603SOL    HW211709   3.416   0.242   3.440
 3604SOL     OW11710   6.918   4.743   2.916
 3604SOL    HW111711   6.913   4.774   3.011
 3604SOL    HW211712   7.013   4.726   2.892
 3605SOL     OW11713   6.197   4.139   5.360
 3605SOL    HW111714   6.215   4.085   5.278
 3605SOL    HW211715   6.271   4.125   5.426
 3606SOL     OW11716   6.672   6.806   5.527
 3606SOL    HW111717   6.643   6.785   5.434
 3606SOL    HW211718   6.626   6.744   5.591
 3607SOL     OW11719   5.477   6.081   1.882
 3607SOL    HW111720   5.419   6.131   1.818
 3607SOL    HW211721   5.515   6.000   1.838
 3608SOL     OW11722   5.636   1.498   3.489
 3608SOL    HW111723   5.631   1.447   3.403
 3608SOL    HW211724   5.575   1.577   3.484
 3609SOL     OW11725   1.009   6.900   4.234
 3609SOL    HW111726   1.042   6.852   4.152
 3609SOL    HW211727   0.977   6.833   4.301
 3610SOL     OW11728   1.585   7.025   5.913
 3610SOL    HW111729   1.659   6.979   5.864
 3610SOL    HW211730   1.594   0.097   5.902
 3611SOL     OW11731   4.686   6.075   5.559
 3611SOL    HW111732   4.714   6.154   5.504
 3611SOL    HW211733   4.667   5.997   5.498
 3612SOL     OW11734   6.518   0.294   0.022
 3612SOL    HW111735   6.610   0.310   7.012
 3612SOL    HW211736   6.451   0.302   6.976
 3613SOL     OW11737   4.745   5.238   1.938
 3613SOL    HW111738   4.754   5.294   2.020
 3613SOL    HW211739   4.833   5.197   1.916
 3614SOL     OW11740   3.960   3.345   1.577
 3614SOL    HW111741   4.035   3.371   1.637
 3614SOL    HW211742   3.936   3.422   1.518
 3615SOL     OW11743   4.869   5.277   0.203
 3615SOL    HW111744   4.830   5.226   0.126
 3615SOL    HW211745   4.796   5.324   0.252
 3616SOL     OW11746   1.045   2.637   6.745
 3616SOL    HW111747   1.118   2.623   6.678
 3616SOL    HW211748   1.058   2.725   6.790
 3617SOL     OW11749   4.112   2.060   6.873
 3617SOL    HW111750   4.098   2.158   6.866
 3617SOL    HW211751   4.024   2.013   6.876
 3618SOL     OW11752   2.485   2.013   5.665
 3618SOL    HW111753   2.411   1.963   5.710
 3618SOL    HW211754   2.482   1.997   5.567
 3619SOL     OW11755   5.780   2.672   4.427
 3619SOL    HW111756   5.808   2.746   4.366
 3619SOL    HW211757   5.691   2.637   4.399
 3620SOL     OW11758   5.872   6.540   5.996
 3620SOL    HW111759   5.922   6.564   5.912
 3620SOL    HW211760   5.937   6.523   6.070
 3621SOL     OW11761   3.329   2.667   5.461
 3621SOL    HW111762   3.372   2.746   5.416
 3621SOL    HW211763   3.330   2.680   5.560
 3622SOL     OW11764   1.943   1.377   4.756
 3622SOL    HW111765   1.882   1.455   4.744
 3622SOL    HW211766   1.982   1.378   4.848
 3623SOL     OW11767   6.009   5.843   4.192
 3623SOL    HW111768   6.020   5.909   4.119
 3623SOL    HW211769   5.926   5.788   4.176
 3624SOL     OW11770   1.882   6.471   1.767
 3624SOL    HW111771   1.790   6.432   1.767
 3624SOL    HW211772   1.943   6.414   1.822
 3625SOL     OW11773   6.171   2.958   0.268
 3625SOL    HW111774   6.208   2.937   0.358
 3625SOL    HW211775   6.084   2.910   0.255
 3626SOL     OW11776   1.026   3.093   6.353
 3626SOL    HW111777   1.074   3.018   6.397
 3626SOL    HW211778   1.055   3.180   6.392
 3627SOL     OW11779   3.690   2.914   3.306
 3627SOL    HW111780   3.620   2.881   3.369
 3627SOL    HW211781   3.772   2.940   3.357
 3628SOL     OW11782   1.492   1.437   1.352
 3628SOL    HW111783   1.518   1.522   1.399
 3628SOL    HW211784   1.568   1.406   1.295
 3629SOL     OW11785   6.899   1.919   5.162
 3629SOL    HW111786   6.933   1.987   5.097
 3629SOL    HW211787   6.972   1.853   5.181
 3630SOL     OW11788   5.206   2.714   4.178
 3630SOL    HW111789   5.283   2.728   4.116
 3630SOL    HW211790   5.128   2.770   4.148
 3631SOL     OW11791   2.082   6.780   3.743
 3631SOL    HW111792   1.989   6.747   3.762
 3631SOL    HW211793   2.139   6.768   3.824
 3632SOL     OW11794   5.046   5.913   1.431
 3632SOL    HW111795   4.956   5.937   1.397
 3632SOL    HW211796   5.116   5.948   1.369
 3633SOL     OW11797   4.051   1.849   5.821
 3633SOL    HW111798   4.090   1.766   5.863
 3633SOL    HW211799   4.098   1.929   5.858
 3634SOL     OW11800   0.993   4.982   4.577
 3634SOL    HW111801   0.938   5.040   4.516
 3634SOL    HW211802   0.963   4.995   4.671
 3635SOL     OW11803   3.549   0.063   6.152
 3635SOL    HW111804   3.562   0.134   6.221
 3635SOL    HW211805   3.634   0.049   6.101
 3636SOL     OW11806   0.132   5.623   0.319
 3636SOL    HW111807   0.142   5.599   0.223
 3636SOL    HW211808   0.090   5.547   0.368
 3637SOL     OW11809   6.783   1.357   2.102
 3637SOL    HW111810   6.881   1.367   2.121
 3637SOL    HW211811   6.731   1.375   2.185
 3638SOL     OW11812   0.144   3.846   3.805
 3638SOL    HW111813   0.226   3.798   3.775
 3638SOL    HW211814   0.093   3.788   3.868
 3639SOL     OW11815   3.529   4.285   0.701
 3639SOL    HW111816   3.616   4.323   0.670
 3639SOL    HW211817   3.504   4.207   0.643
 3640SOL     OW11818   3.952   1.078   0.872
 3640SOL    HW111819   4.014   1.034   0.807
 3640SOL    HW211820   3.900   1.150   0.827
 3641SOL     OW11821   5.232   3.549   3.112
 3641SOL    HW111822   5.174   3.474   3.145
 3641SOL    HW211823   5.313   3.557   3.169
 3642SOL     OW11824   5.234   1.164   6.761
 3642SOL    HW111825   5.239   1.141   6.859
 3642SOL    HW211826   5.245   1.263   6.750
 3643SOL     OW11827   3.034   5.815   4.894
 3643SOL    HW111828   3.102   5.750   4.929
 3643SOL    HW211829   3.074   5.865   4.816
 3644SOL     OW11830   6.851   1.081   1.522
 3644SOL    HW111831   6.880   1.011   1.586
 3644SOL    HW211832   6.857   1.171   1.565
 3645SOL     OW11833   0.392   2.811   3.504
 3645SOL    HW111834   0.446   2.891   3.479
 3645SOL    HW211835   0.378   2.808   3.603
 3646SOL     OW11836   0.702   3.934   6.594
 3646SOL    HW111837   0.693   3.987   6.510
 3646SOL    HW211838   0.762   3.983   6.658
 3647SOL     OW11839   2.703   4.746   6.232
 3647SOL    HW111840   2.691   4.692   6.315
 3647SOL    HW211841   2.774   4.814   6.247
 3648SOL     OW11842   3.736   4.933   1.825
 3648SOL    HW111843   3.672   5.002   1.794
 3648SOL    HW211844   3.689   4.845   1.835
 3649SOL     OW11845   5.092   2.375   1.920
 3649SOL    HW111846   5.137   2.335   1.999
 3649SOL    HW211847   4.994   2.387   1.940
 3650SOL     OW11848   0.082   5.617   1.022
 3650SOL    HW111849   0.011   5.549   1.039
 3650SOL    HW211850   0.165   5.592   1.073
 3651SOL     OW11851   0.679   6.281   4.805
 3651SOL    HW111852   0.607   6.338   4.766
 3651SOL    HW211853   0.656   6.259   4.900
 3652SOL     OW11854   5.315   6.538   3.380
 3652SOL    HW111855   5.267   6.451   3.383
 3652SOL    HW211856   5.329   6.565   3.285
 3653SOL     OW11857   0.403   0.758   3.894
 3653SOL    HW111858   0.310   0.739   3.928
 3653SOL    HW211859   0.466   0.691   3.933
 3654SOL     OW11860   2.993   4.122   1.046
 3654SOL    HW111861   3.007   4.215   1.079
 3654SOL    HW211862   3.003   4.058   1.122
 3655SOL     OW11863   1.539   5.930   4.089
 3655SOL    HW111864   1.471   5.904   4.020
 3655SOL    HW211865   1.492   5.967   4.169
 3656SOL     OW11866   0.588   4.272   1.975
 3656SOL    HW111867   0.523   4.201   1.950
 3656SOL    HW211868   0.593   4.341   1.902
 3657SOL     OW11869   4.832   5.550   5.467
 3657SOL    HW111870   4.771   5.485   5.422
 3657SOL    HW211871   4.860   5.514   5.556
 3658SOL     OW11872   1.806   4.824   5.449
 3658SOL    HW111873   1.886   4.825   5.389
 3658SOL    HW211874   1.758   4.737   5.440
 3659SOL     OW11875   1.711   3.328   5.292
 3659SOL    HW111876   1.686   3.253   5.354
 3659SOL    HW211877   1.659   3.410   5.317
 3660SOL     OW11878   6.129   6.552   4.063
 3660SOL    HW111879   6.097   6.573   4.155
 3660SOL    HW211880   6.211   6.495   4.067
 3661SOL     OW11881   5.688   1.079   5.319
 3661SOL    HW111882   5.749   1.002   5.300
 3661SOL    HW211883   5.612   1.078   5.254
 3662SOL     OW11884   3.705   6.862   3.920
 3662SOL    HW111885   3.701   6.836   3.823
 3662SOL    HW211886   3.781   6.925   3.934
 3663SOL     OW11887   2.026   1.542   0.277
 3663SOL    HW111888   2.057   1.554   0.371
 3663SOL    HW211889   2.018   1.444   0.256
 3664SOL     OW11890   4.922   2.886   1.565
 3664SOL    HW111891   4.979   2.805   1.556
 3664SOL    HW211892   4.911   2.929   1.475
 3665SOL     OW11893   1.837   6.231   5.517
 3665SOL    HW111894   1.775   6.173   5.571
 3665SOL    HW211895   1.813   6.224   5.420
 3666SOL     OW11896   1.020   3.936   3.054
 3666SOL    HW111897   1.087   3.993   3.007
 3666SOL    HW211898   1.061   3.898   3.137
 3667SOL     OW11899   0.992   0.915   2.654
 3667SOL    HW111900   0.941   0.858   2.718
 3667SOL    HW211901   1.087   0.882   2.648
 3668SOL     OW11902   1.495   0.840   1.277
 3668SOL    HW111903   1.586   0.848   1.238
 3668SOL    HW211904   1.437   0.915   1.244
 3669SOL     OW11905   4.669   0.894   3.481
 3669SOL    HW111906   4.662   0.982   3.435
 3669SOL    HW211907   4.761   0.858   3.470
 3670SOL     OW11908   2.222   4.829   6.922
 3670SOL    HW111909   2.267   4.838   7.011
 3670SOL    HW211910   2.203   4.919   6.885
 3671SOL     OW11911   6.309   1.229   4.255
 3671SOL    HW111912   6.307   1.200   4.159
 3671SOL    HW211913   6.403   1.254   4.280
 3672SOL     OW11914   5.431   1.718   1.022
 3672SOL    HW111915   5.406   1.699   0.927
 3672SOL    HW211916   5.506   1.659   1.050
 3673SOL     OW11917   4.248   6.163   6.631
 3673SOL    HW111918   4.234   6.077   6.679
 3673SOL    HW211919   4.171   6.224   6.648
 3674SOL     OW11920   1.115   5.994   5.876
 3674SOL    HW111921   1.075   5.918   5.927
 3674SOL    HW211922   1.104   5.977   5.778
 3675SOL     OW11923   2.062   3.270   3.645
 3675SOL    HW111924   2.095   3.206   3.576
 3675SOL    HW211925   2.063   3.226   3.735
 3676SOL     OW11926   5.196   4.324   3.083
 3676SOL    HW111927   5.244   4.318   2.996
 3676SOL    HW211928   5.097   4.326   3.066
 3677SOL     OW11929   2.160   5.847   3.612
 3677SOL    HW111930   2.101   5.898   3.675
 3677SOL    HW211931   2.155   5.749   3.633
 3678SOL     OW11932   0.662   2.142   4.943
 3678SOL    HW111933   0.657   2.088   5.026
 3678SOL    HW211934   0.754   2.182   4.935
 3679SOL     OW11935   1.035   0.481   3.219
 3679SOL    HW111936   1.070   0.509   3.308
 3679SOL    HW211937   1.073   0.540   3.148
 3680SOL     OW11938   5.680   3.352   4.097
 3680SOL    HW111939   5.754   3.411   4.066
 3680SOL    HW211940   5.623   3.325   4.019
 3681SOL     OW11941   0.938   0.027   6.740
 3681SOL    HW111942   0.957   0.096   6.671
 3681SOL    HW211943   0.922   0.072   6.828
 3682SOL     OW11944   5.177   2.088   0.766
 3682SOL    HW111945   5.250   2.157   0.757
 3682SOL    HW211946   5.184   2.043   0.855
 3683SOL     OW11947   6.474   0.561   3.159
 3683SOL    HW111948   6.475   0.486   3.093
 3683SOL    HW211949   6.551   0.623   3.140
 3684SOL     OW11950   1.924   4.938   0.523
 3684SOL    HW111951   1.897   5.034   0.536
 3684SOL    HW211952   1.908   4.887   0.607
 3685SOL     OW11953   0.279   6.207   0.084
 3685SOL    HW111954   0.308   6.156   0.003
 3685SOL    HW211955   0.224   6.286   0.055
 3686SOL     OW11956   5.253   5.770   3.560
 3686SOL    HW111957   5.171   5.826   3.554
 3686SOL    HW211958   5.288   5.773   3.654
 3687SOL     OW11959   3.618   5.851   5.003
 3687SOL    HW111960   3.592   5.911   4.928
 3687SOL    HW211961   3.577   5.883   5.088
 3688SOL     OW11962   6.895   3.957   6.505
 3688SOL    HW111963   6.894   4.046   6.549
 3688SOL    HW211964   6.844   3.891   6.561
 3689SOL     OW11965   2.085   6.783   5.747
 3689SOL    HW111966   2.177   6.804   5.779
 3689SOL    HW211967   2.072   6.822   5.656
 3690SOL     OW11968   4.428   5.736   0.727
 3690SOL    HW111969   4.408   5.741   0.825
 3690SOL    HW211970   4.347   5.707   0.677
 3691SOL     OW11971   2.676   1.769   6.656
 3691SOL    HW111972   2.639   1.692   6.708
 3691SOL    HW211973   2.710   1.737   6.568
 3692SOL     OW11974   6.348   5.690   5.171
 3692SOL    HW111975   6.398   5.690   5.085
 3692SOL    HW211976   6.387   5.622   5.233
 3693SOL     OW11977   2.108   3.770   3.163
 3693SOL    HW111978   2.127   3.808   3.073
 3693SOL    HW211979   2.154   3.824   3.233
 3694SOL     OW11980   1.849   6.175   3.185
 3694SOL    HW111981   1.858   6.220   3.274
 3694SOL    HW211982   1.757   6.192   3.148
 3695SOL     OW11983   6.335   3.089   1.621
 3695SOL    HW111984   6.308   2.997   1.651
 3695SOL    HW211985   6.310   3.156   1.690
 3696SOL     OW11986   3.351   6.196   5.185
 3696SOL    HW111987   3.329   6.128   5.115
 3696SOL    HW211988   3.280   6.196   5.255
 3697SOL     OW11989   0.359   6.370   2.814
 3697SOL    HW111990   0.365   6.382   2.714
 3697SOL    HW211991   0.447   6.338   2.848
 3698SOL     OW11992   2.585   0.396   4.127
 3698SOL    HW111993   2.579   0.445   4.214
 3698SOL    HW211994   2.677   0.407   4.089
 3699SOL     OW11995   1.153   2.195   3.650
 3699SOL    HW111996   1.238   2.245   3.665
 3699SOL    HW211997   1.127   2.200   3.554
 3700SOL     OW11998   0.285   5.824   4.680
 3700SOL    HW111999   0.236   5.759   4.622
 3700SOL    HW212000   0.298   5.785   4.770
 3701SOL     OW12001   1.415   0.649   3.580
 3701SOL    HW112002   1.399   0.634   3.677
 3701SOL    HW212003   1.452   0.740   3.566
 3702SOL     OW12004   5.690   6.623   3.062
 3702SOL    HW112005   5.723   6.716   3.049
 3702SOL    HW212006   5.599   6.625   3.104
 3703SOL     OW12007   5.884   1.453   5.662
 3703SOL    HW112008   5.957   1.455   5.730
 3703SOL    HW212009   5.912   1.396   5.584
 3704SOL     OW12010   3.450   1.745   1.380
 3704SOL    HW112011   3.506   1.825   1.359
 3704SOL    HW212012   3.449   1.730   1.479
 3705SOL     OW12013   4.282   4.852   3.976
 3705SOL    HW112014   4.369   4.884   4.013
 3705SOL    HW212015   4.285   4.753   3.965
 3706SOL     OW12016   1.792   3.522   6.997
 3706SOL    HW112017   1.887   3.538   7.023
 3706SOL    HW212018   1.744   3.610   6.989
 3707SOL     OW12019   5.324   4.591   3.757
 3707SOL    HW112020   5.400   4.548   3.709
 3707SOL    HW212021   5.259   4.628   3.691
 3708SOL     OW12022   0.235   0.497   6.444
 3708SOL    HW112023   0.269   0.404   6.426
 3708SOL    HW212024   0.311   0.562   6.439
 3709SOL     OW12025   3.474   0.903   0.722
 3709SOL    HW112026   3.488   0.854   0.637
 3709SOL    HW212027   3.554   0.892   0.781
 3710SOL     OW12028   6.118   5.485   5.441
 3710SOL    HW112029   6.055   5.434   5.382
 3710SOL    HW212030   6.072   5.568   5.474
 3711SOL     OW12031   1.176   6.428   4.057
 3711SOL    HW112032   1.152   6.523   4.075
 3711SOL    HW212033   1.249   6.424   3.988
 3712SOL     OW12034   6.787   5.228   6.727
 3712SOL    HW112035   6.807   5.320   6.695
 3712SOL    HW212036   6.838   5.162   6.672
 3713SOL     OW12037   1.414   6.287   6.155
 3713SOL    HW112038   1.478   6.211   6.141
 3713SOL    HW212039   1.324   6.261   6.119
 3714SOL     OW12040   5.284   6.472   5.997
 3714SOL    HW112041   5.189   6.496   6.014
 3714SOL    HW212042   5.298   6.375   6.014
 3715SOL     OW12043   0.483   4.219   2.552
 3715SOL    HW112044   0.532   4.209   2.638
 3715SOL    HW212045   0.385   4.219   2.568
 3716SOL     OW12046   6.514   6.982   4.907
 3716SOL    HW112047   6.419   6.957   4.921
 3716SOL    HW212048   6.519   0.044   4.861
 3717SOL     OW12049   6.451   6.803   6.971
 3717SOL    HW112050   6.482   6.876   0.006
 3717SOL    HW212051   6.511   6.800   6.891
 3718SOL     OW12052   1.585   0.891   6.957
 3718SOL    HW112053   1.639   0.973   6.935
 3718SOL    HW212054   1.646   0.813   6.969
 3719SOL     OW12055   5.122   4.120   1.820
 3719SOL    HW112056   5.038   4.130   1.873
 3719SOL    HW212057   5.126   4.192   1.751
 3720SOL     OW12058   6.257   2.639   6.331
 3720SOL    HW112059   6.173   2.615   6.282
 3720SOL    HW212060   6.282   2.733   6.309
 3721SOL     OW12061   6.419   4.371   1.639
 3721SOL    HW112062   6.499   4.319   1.669
 3721SOL    HW212063   6.343   4.356   1.704
 3722SOL     OW12064   6.271   6.199   0.985
 3722SOL    HW112065   6.357   6.162   0.951
 3722SOL    HW212066   6.276   6.207   1.085
 3723SOL     OW12067   6.117   5.569   1.535
 3723SOL    HW112068   6.186   5.585   1.465
 3723SOL    HW212069   6.161   5.530   1.616
 3724SOL     OW12070   1.750   4.429   4.238
 3724SOL    HW112071   1.747   4.453   4.141
 3724SOL    HW212072   1.657   4.425   4.274
 3725SOL     OW12073   6.466   5.833   0.631
 3725SOL    HW112074   6.522   5.764   0.585
 3725SOL    HW212075   6.442   5.905   0.566
 3726SOL     OW12076   5.982   3.793   0.622
 3726SOL    HW112077   6.000   3.743   0.537
 3726SOL    HW212078   6.069   3.809   0.670
 3727SOL     OW12079   6.832   1.568   4.820
 3727SOL    HW112080   6.863   1.602   4.731
 3727SOL    HW212081   6.803   1.644   4.877
 3728SOL     OW12082   1.579   4.052   6.678
 3728SOL    HW112083   1.598   3.955   6.695
 3728SOL    HW212084   1.514   4.060   6.602
 3729SOL     OW12085   0.946   2.484   3.636
 3729SOL    HW112086   0.885   2.562   3.649
 3729SOL    HW212087   0.963   2.440   3.725
 3730SOL     OW12088   2.382   5.367   6.000
 3730SOL    HW112089   2.445   5.408   5.933
 3730SOL    HW212090   2.298   5.339   5.954
 3731SOL     OW12091   6.873   1.910   0.663
 3731SOL    HW112092   6.826   1.957   0.739
 3731SOL    HW212093   6.950   1.966   0.632
 3732SOL     OW12094   2.999   1.440   0.392
 3732SOL    HW112095   3.083   1.456   0.443
 3732SOL    HW212096   2.929   1.403   0.454
 3733SOL     OW12097   1.294   3.711   2.796
 3733SOL    HW112098   1.290   3.682   2.701
 3733SOL    HW212099   1.231   3.654   2.850
 3734SOL     OW12100   4.979   0.404   2.049
 3734SOL    HW112101   5.062   0.425   1.997
 3734SOL    HW212102   4.990   0.315   2.093
 3735SOL     OW12103   2.085   1.128   3.595
 3735SOL    HW112104   2.172   1.100   3.555
 3735SOL    HW212105   2.063   1.221   3.568
 3736SOL     OW12106   6.968   2.214   1.040
 3736SOL    HW112107   6.931   2.271   1.114
 3736SOL    HW212108   6.897   2.150   1.010
 3737SOL     OW12109   5.566   1.262   3.627
 3737SOL    HW112110   5.606   1.352   3.610
 3737SOL    HW212111   5.507   1.266   3.708
 3738SOL     OW12112   0.353   6.974   2.497
 3738SOL    HW112113   0.303   6.964   2.582
 3738SOL    HW212114   0.446   7.005   2.517
 3739SOL     OW12115   2.064   4.831   1.369
 3739SOL    HW112116   2.132   4.798   1.303
 3739SOL    HW212117   2.048   4.929   1.354
 3740SOL     OW12118   5.605   1.108   1.193
 3740SOL    HW112119   5.684   1.169   1.189
 3740SOL    HW212120   5.579   1.081   1.100
 3741SOL     OW12121   5.259   2.730   6.944
 3741SOL    HW112122   5.304   2.643   6.967
 3741SOL    HW212123   5.301   2.804   6.997
 3742SOL     OW12124   2.445   2.075   0.265
 3742SOL    HW112125   2.370   2.021   0.228
 3742SOL    HW212126   2.467   2.149   0.201
 3743SOL     OW12127   5.514   4.032   0.443
 3743SOL    HW112128   5.613   4.038   0.436
 3743SOL    HW212129   5.485   4.063   0.534
 3744SOL     OW12130   1.719   6.341   2.400
 3744SOL    HW112131   1.817   6.336   2.418
 3744SOL    HW212132   1.672   6.272   2.456
 3745SOL     OW12133   4.238   4.996   1.708
 3745SOL    HW112134   4.224   4.920   1.645
 3745SOL    HW212135   4.336   5.011   1.721
 3746SOL     OW12136   5.321   0.662   2.950
 3746SOL    HW112137   5.415   0.643   2.979
 3746SOL    HW212138   5.322   0.722   2.870
 3747SOL     OW12139   2.839   6.567   5.156
 3747SOL    HW112140   2.923   6.523   5.124
 3747SOL    HW212141   2.860   6.661   5.184
 3748SOL     OW12142   5.418   1.244   1.407
 3748SOL    HW112143   5.446   1.274   1.316
 3748SOL    HW212144   5.460   1.303   1.476
 3749SOL     OW12145   1.760   5.251   3.625
 3749SOL    HW112146   1.787   5.207   3.710
 3749SOL    HW212147   1.724   5.183   3.562
 3750SOL     OW12148   0.684   4.426   1.245
 3750SOL    HW112149   0.720   4.347   1.196
 3750SOL    HW212150   0.726   4.510   1.209
 3751SOL     OW12151   6.691   3.256   1.557
 3751SOL    HW112152   6.748   3.174   1.551
 3751SOL    HW212153   6.629   3.259   1.479
 3752SOL     OW12154   5.485   0.263   0.844
 3752SOL    HW112155   5.412   0.315   0.889
 3752SOL    HW212156   5.448   0.177   0.810
 3753SOL     OW12157   6.195   6.841   4.625
 3753SOL    HW112158   6.197   6.941   4.624
 3753SOL    HW212159   6.123   6.808   4.563
 3754SOL     OW12160   2.937   1.012   1.156
 3754SOL    HW112161   2.964   0.916   1.164
 3754SOL    HW212162   2.863   1.031   1.220
 3755SOL     OW12163   4.784   5.233   4.203
 3755SOL    HW112164   4.761   5.172   4.279
 3755SOL    HW212165   4.882   5.254   4.206
 3756SOL     OW12166   3.157   5.153   6.518
 3756SOL    HW112167   3.182   5.181   6.611
 3756SOL    HW212168   3.238   5.122   6.469
 3757SOL     OW12169   5.233   5.904   0.083
 3757SOL    HW112170   5.168   5.967   0.126
 3757SOL    HW212171   5.193   5.867   7.026
 3758SOL     OW12172   2.324   1.079   4.833
 3758SOL    HW112173   2.310   1.117   4.742
 3758SOL    HW212174   2.407   1.116   4.874
 3759SOL     OW12175   4.258   0.098   6.548
 3759SOL    HW112176   4.229   0.159   6.475
 3759SOL    HW212177   4.281   0.151   6.629
 3760SOL     OW12178   1.899   1.493   4.374
 3760SOL    HW112179   1.841   1.459   4.301
 3760SOL    HW212180   1.892   1.592   4.380
 3761SOL     OW12181   1.087   1.100   4.863
 3761SOL    HW112182   1.162   1.159   4.832
 3761SOL    HW212183   1.047   1.138   4.946
 3762SOL     OW12184   1.698   4.793   1.266
 3762SOL    HW112185   1.663   4.745   1.185
 3762SOL    HW212186   1.767   4.860   1.238
 3763SOL     OW12187   6.612   4.031   1.036
 3763SOL    HW112188   6.524   4.027   1.084
 3763SOL    HW212189   6.643   3.939   1.015
 3764SOL     OW12190   1.542   0.239   2.315
 3764SOL    HW112191   1.497   0.272   2.232
 3764SOL    HW212192   1.636   0.213   2.293
 3765SOL     OW12193   4.921   1.786   1.247
 3765SOL    HW112194   4.922   1.844   1.166
 3765SOL    HW212195   4.832   1.742   1.256
 3766SOL     OW12196   2.297   1.503   4.398
 3766SOL    HW112197   2.284   1.578   4.333
 3766SOL    HW212198   2.330   1.422   4.350
 3767SOL     OW12199   2.088   4.660   6.763
 3767SOL    HW112200   2.128   4.730   6.823
 3767SOL    HW212201   2.003   4.626   6.803
 3768SOL     OW12202   1.063   6.292   4.275
 3768SOL    HW112203   1.104   6.334   4.193
 3768SOL    HW212204   1.031   6.364   4.336
 3769SOL     OW12205   6.220   5.978   4.355
 3769SOL    HW112206   6.143   5.916   4.337
 3769SOL    HW212207   6.212   6.015   4.447
 3770SOL     OW12208   1.451   0.998   6.250
 3770SOL    HW112209   1.495   0.969   6.164
 3770SOL    HW212210   1.515   1.053   6.304
 3771SOL     OW12211   5.267   2.992   0.424
 3771SOL    HW112212   5.255   2.964   0.519
 3771SOL    HW212213   5.200   2.946   0.366
 3772SOL     OW12214   0.400   1.253   0.022
 3772SOL    HW112215   0.308   1.225   0.052
 3772SOL    HW212216   0.408   1.240   6.950
 3773SOL     OW12217   5.688   3.435   5.768
 3773SOL    HW112218   5.601   3.412   5.811
 3773SOL    HW212219   5.721   3.358   5.714
 3774SOL     OW12220   6.368   5.869   1.302
 3774SOL    HW112221   6.449   5.927   1.300
 3774SOL    HW212222   6.288   5.924   1.323
 3775SOL     OW12223   4.553   5.118   2.311
 3775SOL    HW112224   4.483   5.081   2.372
 3775SOL    HW212225   4.515   5.197   2.263
 3776SOL     OW12226   4.610   1.956   6.569
 3776SOL    HW112227   4.708   1.938   6.578
 3776SOL    HW212228   4.563   1.927   6.652
 3777SOL     OW12229   3.446   5.724   3.503
 3777SOL    HW112230   3.470   5.790   3.575
 3777SOL    HW212231   3.504   5.643   3.511
 3778SOL     OW12232   2.936   4.933   2.762
 3778SOL    HW112233   2.846   4.963   2.730
 3778SOL    HW212234   2.989   4.898   2.685
 3779SOL     OW12235   1.104   4.715   0.425
 3779SOL    HW112236   1.109   4.815   0.427
 3779SOL    HW212237   1.162   4.680   0.350
 3780SOL     OW12238   5.766   5.107   4.590
 3780SOL    HW112239   5.674   5.146   4.580
 3780SOL    HW212240   5.834   5.179   4.584
 3781SOL     OW12241   0.628   6.526   4.462
 3781SOL    HW112242   0.610   6.488   4.552
 3781SOL    HW212243   0.563   6.488   4.396
 3782SOL     OW12244   2.411   0.045   3.281
 3782SOL    HW112245   2.433   6.976   3.261
 3782SOL    HW212246   2.442   0.067   3.373
 3783SOL     OW12247   5.498   5.232   3.629
 3783SOL    HW112248   5.540   5.321   3.610
 3783SOL    HW212249   5.564   5.160   3.611
 3784SOL     OW12250   4.590   2.666   2.963
 3784SOL    HW112251   4.636   2.694   2.878
 3784SOL    HW212252   4.640   2.703   3.041
 3785SOL     OW12253   1.720   3.364   5.747
 3785SOL    HW112254   1.754   3.411   5.829
 3785SOL    HW212255   1.715   3.429   5.672
 3786SOL     OW12256   2.252   5.155   2.873
 3786SOL    HW112257   2.204   5.115   2.951
 3786SOL    HW212258   2.345   5.118   2.868
 3787SOL     OW12259   5.591   1.272   2.959
 3787SOL    HW112260   5.671   1.289   2.901
 3787SOL    HW212261   5.510   1.314   2.919
 3788SOL     OW12262   0.140   5.155   4.730
 3788SOL    HW112263   0.101   5.158   4.822
 3788SOL    HW212264   0.120   5.067   4.688
 3789SOL     OW12265   0.056   2.671   4.598
 3789SOL    HW112266   7.003   2.618   4.628
 3789SOL    HW212267   0.060   2.671   4.498
 3790SOL     OW12268   1.272   4.241   5.978
 3790SOL    HW112269   1.320   4.171   5.925
 3790SOL    HW212270   1.184   4.206   6.008
 3791SOL     OW12271   5.108   1.303   6.478
 3791SOL    HW112272   5.202   1.324   6.508
 3791SOL    HW212273   5.111   1.260   6.388
 3792SOL     OW12274   1.195   2.429   4.056
 3792SOL    HW112275   1.245   2.346   4.082
 3792SOL    HW212276   1.109   2.434   4.106
 3793SOL     OW12277   4.781   6.221   1.924
 3793SOL    HW112278   4.755   6.314   1.900
 3793SOL    HW212279   4.879   6.209   1.911
 3794SOL     OW12280   2.050   2.799   1.105
 3794SOL    HW112281   2.117   2.819   1.176
 3794SOL    HW212282   1.989   2.727   1.136
 3795SOL     OW12283   4.173   6.161   0.626
 3795SOL    HW112284   4.146   6.078   0.578
 3795SOL    HW212285   4.263   6.190   0.594
 3796SOL     OW12286   3.328   2.147   1.804
 3796SOL    HW112287   3.377   2.150   1.891
 3796SOL    HW212288   3.241   2.194   1.813
 3797SOL     OW12289   0.340   3.427   2.038
 3797SOL    HW112290   0.250   3.470   2.027
 3797SOL    HW212291   0.328   3.332   2.069
 3798SOL     OW12292   2.651   5.176   2.887
 3798SOL    HW112293   2.588   5.202   2.959
 3798SOL    HW212294   2.634   5.081   2.860
 3799SOL     OW12295   6.711   2.435   3.660
 3799SOL    HW112296   6.733   2.337   3.661
 3799SOL    HW212297   6.756   2.480   3.738
 3800SOL     OW12298   5.873   2.893   4.252
 3800SOL    HW112299   5.787   2.940   4.234
 3800SOL    HW212300   5.939   2.958   4.289
 3801SOL     OW12301   5.944   0.009   2.049
 3801SOL    HW112302   5.971   6.988   1.965
 3801SOL    HW212303   5.957   6.975   2.127
 3802SOL     OW12304   1.384   2.307   1.653
 3802SOL    HW112305   1.403   2.394   1.698
 3802SOL    HW212306   1.441   2.298   1.571
 3803SOL     OW12307   3.983   3.193   2.090
 3803SOL    HW112308   3.889   3.203   2.058
 3803SOL    HW212309   4.041   3.165   2.014
 3804SOL     OW12310   4.433   1.564   3.871
 3804SOL    HW112311   4.451   1.557   3.969
 3804SOL    HW212312   4.519   1.578   3.822
 3805SOL     OW12313   2.293   2.873   1.234
 3805SOL    HW112314   2.315   2.957   1.283
 3805SOL    HW212315   2.376   2.821   1.218
 3806SOL     OW12316   3.428   3.516   6.140
 3806SOL    HW112317   3.391   3.608   6.126
 3806SOL    HW212318   3.506   3.502   6.079
 3807SOL     OW12319   1.549   6.201   2.849
 3807SOL    HW112320   1.587   6.224   2.939
 3807SOL    HW212321   1.530   6.285   2.799
 3808SOL     OW12322   4.819   1.206   0.966
 3808SOL    HW112323   4.890   1.212   0.896
 3808SOL    HW212324   4.814   1.293   1.016
 3809SOL     OW12325   5.628   2.450   1.766
 3809SOL    HW112326   5.693   2.510   1.811
 3809SOL    HW212327   5.565   2.504   1.710
 3810SOL     OW12328   4.509   2.513   3.803
 3810SOL    HW112329   4.519   2.554   3.712
 3810SOL    HW212330   4.543   2.576   3.872
 3811SOL     OW12331   1.295   5.298   4.789
 3811SOL    HW112332   1.225   5.344   4.734
 3811SOL    HW212333   1.251   5.238   4.855
 3812SOL     OW12334   4.728   5.736   5.069
 3812SOL    HW112335   4.644   5.770   5.029
 3812SOL    HW212336   4.751   5.647   5.028
 3813SOL     OW12337   4.068   3.270   0.908
 3813SOL    HW112338   4.162   3.304   0.908
 3813SOL    HW212339   4.069   3.171   0.893
 3814SOL     OW12340   0.405   0.233   6.751
 3814SOL    HW112341   0.369   0.141   6.755
 3814SOL    HW212342   0.440   0.259   6.841
 3815SOL     OW12343   4.202   2.579   0.832
 3815SOL    HW112344   4.184   2.565   0.734
 3815SOL    HW212345   4.117   2.602   0.878
 3816SOL     OW12346   1.080   5.450   6.872
 3816SOL    HW112347   1.155   5.513   6.848
 3816SOL    HW212348   1.001   5.470   6.815
 3817SOL     OW12349   4.947   3.453   2.959
 3817SOL    HW112350   4.902   3.366   2.938
 3817SOL    HW212351   5.041   3.452   2.925
 3818SOL     OW12352   6.136   1.153   6.784
 3818SOL    HW112353   6.171   1.064   6.814
 3818SOL    HW212354   6.148   1.162   6.685
 3819SOL     OW12355   5.225   5.417   2.045
 3819SOL    HW112356   5.288   5.487   2.076
 3819SOL    HW212357   5.269   5.362   1.974
 3820SOL     OW12358   4.944   6.858   3.949
 3820SOL    HW112359   4.854   6.876   3.989
 3820SOL    HW212360   4.943   6.768   3.905
 3821SOL     OW12361   2.582   1.366   1.008
 3821SOL    HW112362   2.577   1.283   1.063
 3821SOL    HW212363   2.503   1.425   1.028
 3822SOL     OW12364   2.180   0.053   1.021
 3822SOL    HW112365   2.235   0.135   1.009
 3822SOL    HW212366   2.099   0.058   0.962
 3823SOL     OW12367   3.480   3.554   5.754
 3823SOL    HW112368   3.506   3.503   5.671
 3823SOL    HW212369   3.390   3.596   5.739
 3824SOL     OW12370   6.807   2.664   0.386
 3824SOL    HW112371   6.816   2.575   0.343
 3824SOL    HW212372   6.898   2.697   0.414
 3825SOL     OW12373   0.568   5.443   0.795
 3825SOL    HW112374   0.490   5.402   0.843
 3825SOL    HW212375   0.638   5.469   0.861
 3826SOL     OW12376   1.071   3.308   6.560
 3826SOL    HW112377   1.088   3.371   6.485
 3826SOL    HW212378   1.088   3.354   6.647
 3827SOL     OW12379   1.403   1.240   2.265
 3827SOL    HW112380   1.491   1.202   2.235
 3827SOL    HW212381   1.330   1.205   2.206
 3828SOL     OW12382   3.372   3.453   2.670
 3828SOL    HW112383   3.462   3.497   2.674
 3828SOL    HW212384   3.383   3.357   2.644
 3829SOL     OW12385   1.596   4.924   3.188
 3829SOL    HW112386   1.629   5.008   3.144
 3829SOL    HW212387   1.515   4.890   3.140
 3830SOL     OW12388   0.794   1.611   5.091
 3830SOL    HW112389   0.770   1.515   5.109
 3830SOL    HW212390   0.804   1.659   5.178
 3831SOL     OW12391   4.542   2.507   2.348
 3831SOL    HW112392   4.588   2.546   2.269
 3831SOL    HW212393   4.448   2.484   2.324
 3832SOL     OW12394   5.692   0.773   2.687
 3832SOL    HW112395   5.761   0.772   2.760
 3832SOL    HW212396   5.707   0.853   2.628
 3833SOL     OW12397   0.350   6.586   6.145
 3833SOL    HW112398   0.269   6.631   6.108
 3833SOL    HW212399   0.361   6.612   6.241
 3834SOL     OW12400   4.250   4.483   1.523
 3834SOL    HW112401   4.281   4.419   1.452
 3834SOL    HW212402   4.300   4.464   1.608
 3835SOL     OW12403   3.689   5.625   4.577
 3835SOL    HW112404   3.699   5.714   4.532
 3835SOL    HW212405   3.651   5.637   4.669
 3836SOL     OW12406   1.516   3.978   6.020
 3836SOL    HW112407   1.551   3.885   6.034
 3836SOL    HW212408   1.422   3.974   5.988
 3837SOL     OW12409   4.615   5.074   6.326
 3837SOL    HW112410   4.622   5.163   6.373
 3837SOL    HW212411   4.686   5.068   6.256
 3838SOL     OW12412   0.579   3.869   4.741
 3838SOL    HW112413   0.483   3.876   4.771
 3838SOL    HW212414   0.627   3.806   4.802
 3839SOL     OW12415   5.094   0.850   3.792
 3839SOL    HW112416   5.087   0.761   3.747
 3839SOL    HW212417   5.143   0.839   3.879
 3840SOL     OW12418   2.339   0.464   6.418
 3840SOL    HW112419   2.242   0.484   6.431
 3840SOL    HW212420   2.390   0.488   6.501
 3841SOL     OW12421   6.981   3.138   4.301
 3841SOL    HW112422   0.017   3.094   4.365
 3841SOL    HW212423   6.902   3.079   4.287
 3842SOL     OW12424   1.977   3.084   1.083
 3842SOL    HW112425   1.988   2.985   1.087
 3842SOL    HW212426   1.923   3.108   1.002
 3843SOL     OW12427   5.986   4.650   2.255
 3843SOL    HW112428   6.070   4.601   2.275
 3843SOL    HW212429   5.908   4.588   2.262
 3844SOL     OW12430   0.761   2.685   6.240
 3844SOL    HW112431   0.819   2.762   6.212
 3844SOL    HW212432   0.789   2.655   6.331
 3845SOL     OW12433   3.178   3.210   5.267
 3845SOL    HW112434   3.147   3.281   5.204
 3845SOL    HW212435   3.273   3.228   5.293
 3846SOL     OW12436   0.662   5.558   3.660
 3846SOL    HW112437   0.586   5.571   3.596
 3846SOL    HW212438   0.686   5.461   3.665
 3847SOL     OW12439   5.443   1.127   5.154
 3847SOL    HW112440   5.345   1.113   5.141
 3847SOL    HW212441   5.460   1.223   5.176
 3848SOL     OW12442   4.467   5.564   3.255
 3848SOL    HW112443   4.546   5.534   3.203
 3848SOL    HW212444   4.460   5.664   3.252
 3849SOL     OW12445   1.436   1.441   5.712
 3849SOL    HW112446   1.395   1.514   5.658
 3849SOL    HW212447   1.529   1.424   5.679
 3850SOL     OW12448   1.933   3.185   0.798
 3850SOL    HW112449   1.847   3.222   0.832
 3850SOL    HW212450   2.009   3.243   0.826
 3851SOL     OW12451   0.990   4.548   2.170
 3851SOL    HW112452   0.932   4.500   2.236
 3851SOL    HW212453   1.037   4.482   2.112
 3852SOL     OW12454   4.078   6.655   4.001
 3852SOL    HW112455   4.082   6.558   4.024
 3852SOL    HW212456   4.007   6.699   4.055
 3853SOL     OW12457   1.173   4.139   3.311
 3853SOL    HW112458   1.098   4.157   3.374
 3853SOL    HW212459   1.214   4.226   3.282
 3854SOL     OW12460   1.809   3.140   2.368
 3854SOL    HW112461   1.819   3.198   2.287
 3854SOL    HW212462   1.737   3.177   2.427
 3855SOL     OW12463   5.346   6.640   6.678
 3855SOL    HW112464   5.301   6.720   6.717
 3855SOL    HW212465   5.437   6.665   6.646
 3856SOL     OW12466   0.168   0.454   6.055
 3856SOL    HW112467   0.255   0.456   6.007
 3856SOL    HW212468   0.117   0.372   6.028
 3857SOL     OW12469   0.445   5.965   0.011
 3857SOL    HW112470   0.377   5.926   0.073
 3857SOL    HW212471   0.454   5.907   6.957
 3858SOL     OW12472   1.484   0.233   5.754
 3858SOL    HW112473   1.541   0.314   5.745
 3858SOL    HW212474   1.388   0.259   5.755
 3859SOL     OW12475   6.216   1.622   2.976
 3859SOL    HW112476   6.147   1.581   3.035
 3859SOL    HW212477   6.182   1.627   2.882
 3860SOL     OW12478   2.747   0.301   5.652
 3860SOL    HW112479   2.795   0.378   5.694
 3860SOL    HW212480   2.762   0.219   5.707
 3861SOL     OW12481   4.773   4.591   3.303
 3861SOL    HW112482   4.833   4.641   3.365
 3861SOL    HW212483   4.729   4.656   3.241
 3862SOL     OW12484   1.213   6.993   5.447
 3862SOL    HW112485   1.286   6.985   5.379
 3862SOL    HW212486   1.184   6.902   5.476
 3863SOL     OW12487   4.565   3.125   6.508
 3863SOL    HW112488   4.650   3.171   6.533
 3863SOL    HW212489   4.562   3.113   6.408
 3864SOL     OW12490   2.462   0.394   5.673
 3864SOL    HW112491   2.444   0.392   5.772
 3864SOL    HW212492   2.547   0.345   5.654
 3865SOL     OW12493   3.500   6.761   6.935
 3865SOL    HW112494   3.407   6.741   6.968
 3865SOL    HW212495   3.559   6.682   6.952
 3866SOL     OW12496   3.690   0.826   1.947
 3866SOL    HW112497   3.618   0.798   2.011
 3866SOL    HW212498   3.649   0.843   1.857
 3867SOL     OW12499   1.404   4.266   4.045
 3867SOL    HW112500   1.338   4.213   3.992
 3867SOL    HW212501   1.446   4.208   4.114
 3868SOL     OW12502   3.567   6.819   0.213
 3868SOL    HW112503   3.565   6.900   0.156
 3868SOL    HW212504   3.648   6.820   0.271
 3869SOL     OW12505   5.886   4.017   5.045
 3869SOL    HW112506   5.882   3.939   5.107
 3869SOL    HW212507   5.969   4.071   5.063
 3870SOL     OW12508   4.359   5.543   6.895
 3870SOL    HW112509   4.400   5.626   6.858
 3870SOL    HW212510   4.270   5.565   6.936
 3871SOL     OW12511   3.544   0.416   2.809
 3871SOL    HW112512   3.490   0.339   2.774
 3871SOL    HW212513   3.592   0.459   2.732
 3872SOL     OW12514   3.705   3.248   2.950
 3872SOL    HW112515   3.741   3.319   3.010
 3872SOL    HW212516   3.765   3.168   2.954
 3873SOL     OW12517   5.714   3.172   2.113
 3873SOL    HW112518   5.714   3.096   2.179
 3873SOL    HW212519   5.685   3.256   2.159
 3874SOL     OW12520   3.679   6.016   6.835
 3874SOL    HW112521   3.771   5.976   6.831
 3874SOL    HW212522   3.673   6.092   6.771
 3875SOL     OW12523   1.816   2.427   1.687
 3875SOL    HW112524   1.864   2.489   1.749
 3875SOL    HW212525   1.779   2.350   1.739
 3876SOL     OW12526   4.797   5.197   0.633
 3876SOL    HW112527   4.721   5.147   0.592
 3876SOL    HW212528   4.838   5.257   0.564
 3877SOL     OW12529   6.958   2.964   6.961
 3877SOL    HW112530   7.009   2.905   6.898
 3877SOL    HW212531   7.021   3.014   7.020
 3878SOL     OW12532   2.972   6.546   4.608
 3878SOL    HW112533   3.062   6.590   4.599
 3878SOL    HW212534   2.910   6.608   4.657
 3879SOL     OW12535   4.594   6.354   1.462
 3879SOL    HW112536   4.509   6.349   1.410
 3879SOL    HW212537   4.585   6.303   1.547
 3880SOL     OW12538   6.487   4.638   3.754
 3880SOL    HW112539   6.507   4.680   3.843
 3880SOL    HW212540   6.407   4.683   3.714
 3881SOL     OW12541   1.218   4.363   0.888
 3881SOL    HW112542   1.201   4.453   0.847
 3881SOL    HW212543   1.155   4.350   0.965
 3882SOL     OW12544   0.935   1.817   4.917
 3882SOL    HW112545   0.876   1.824   4.837
 3882SOL    HW212546   0.897   1.748   4.980
 3883SOL     OW12547   4.352   0.982   3.695
 3883SOL    HW112548   4.347   0.883   3.710
 3883SOL    HW212549   4.260   1.020   3.694
 3884SOL     OW12550   0.901   5.085   3.311
 3884SOL    HW112551   0.886   5.182   3.335
 3884SOL    HW212552   0.919   5.033   3.394
 3885SOL     OW12553   6.225   0.440   2.840
 3885SOL    HW112554   6.161   0.392   2.779
 3885SOL    HW212555   6.174   0.498   2.903
 3886SOL     OW12556   6.623   6.032   5.005
 3886SOL    HW112557   6.605   6.097   4.932
 3886SOL    HW212558   6.581   5.944   4.983
 3887SOL     OW12559   6.739   1.108   6.270
 3887SOL    HW112560   6.696   1.121   6.359
 3887SOL    HW212561   6.821   1.165   6.264
 3888SOL     OW12562   1.075   0.179   6.551
 3888SOL    HW112563   1.027   0.217   6.472
 3888SOL    HW212564   1.161   0.139   6.522
 3889SOL     OW12565   6.421   3.693   6.021
 3889SOL    HW112566   6.395   3.603   6.056
 3889SOL    HW212567   6.341   3.737   5.980
 3890SOL     OW12568   5.554   5.776   2.615
 3890SOL    HW112569   5.508   5.863   2.635
 3890SOL    HW212570   5.633   5.765   2.675
 3891SOL     OW12571   5.724   4.865   4.052
 3891SOL    HW112572   5.635   4.873   4.007
 3891SOL    HW212573   5.724   4.919   4.136
 3892SOL     OW12574   0.120   2.126   1.557
 3892SOL    HW112575   0.058   2.079   1.494
 3892SOL    HW212576   0.184   2.061   1.597
 3893SOL     OW12577   3.241   5.329   1.230
 3893SOL    HW112578   3.229   5.294   1.323
 3893SOL    HW212579   3.257   5.428   1.233
 3894SOL     OW12580   2.590   1.748   0.998
 3894SOL    HW112581   2.582   1.728   0.900
 3894SOL    HW212582   2.659   1.820   1.012
 3895SOL     OW12583   1.376   0.313   5.300
 3895SOL    HW112584   1.463   0.288   5.344
 3895SOL    HW212585   1.395   0.355   5.211
 3896SOL     OW12586   0.366   2.108   6.370
 3896SOL    HW112587   0.425   2.078   6.445
 3896SOL    HW212588   0.343   2.030   6.312
 3897SOL     OW12589   3.510   6.785   2.005
 3897SOL    HW112590   3.440   6.807   2.073
 3897SOL    HW212591   3.504   6.688   1.982
 3898SOL     OW12592   3.464   3.818   4.088
 3898SOL    HW112593   3.472   3.719   4.073
 3898SOL    HW212594   3.458   3.837   4.186
 3899SOL     OW12595   4.919   1.242   4.429
 3899SOL    HW112596   4.904   1.152   4.470
 3899SOL    HW212597   4.962   1.231   4.339
 3900SOL     OW12598   5.206   2.466   3.922
 3900SOL    HW112599   5.237   2.561   3.914
 3900SOL    HW212600   5.123   2.453   3.867
 3901SOL     OW12601   3.105   6.166   5.306
 3901SOL    HW112602   3.033   6.102   5.334
 3901SOL    HW212603   3.110   6.241   5.372
 3902SOL     OW12604   6.056   3.606   1.688
 3902SOL    HW112605   6.001   3.548   1.750
 3902SOL    HW212606   6.010   3.611   1.599
 3903SOL     OW12607   5.032   4.540   6.669
 3903SOL    HW112608   5.051   4.631   6.706
 3903SOL    HW212609   5.097   4.520   6.596
 3904SOL     OW12610   2.176   6.446   5.441
 3904SOL    HW112611   2.275   6.432   5.446
 3904SOL    HW212612   2.157   6.535   5.400
 3905SOL     OW12613   5.911   6.964   5.785
 3905SOL    HW112614   5.998   6.914   5.783
 3905SOL    HW212615   5.838   6.906   5.748
 3906SOL     OW12616   2.035   5.237   5.364
 3906SOL    HW112617   1.970   5.307   5.335
 3906SOL    HW212618   2.037   5.163   5.297
 3907SOL     OW12619   6.557   6.763   4.285
 3907SOL    HW112620   6.589   6.855   4.308
 3907SOL    HW212621   6.458   6.765   4.269
 3908SOL     OW12622   1.431   0.984   6.612
 3908SOL    HW112623   1.469   1.026   6.529
 3908SOL    HW212624   1.373   1.050   6.659
 3909SOL     OW12625   0.124   4.835   6.628
 3909SOL    HW112626   0.187   4.778   6.680
 3909SOL    HW212627   0.114   4.797   6.536
 3910SOL     OW12628   3.705   3.878   2.062
 3910SOL    HW112629   3.607   3.878   2.044
 3910SOL    HW212630   3.737   3.783   2.071
 3911SOL     OW12631   4.697   1.541   6.955
 3911SOL    HW112632   4.677   1.468   6.889
 3911SOL    HW212633   4.745   1.503   0.007
 3912SOL     OW12634   3.643   1.600   6.322
 3912SOL    HW112635   3.545   1.578   6.315
 3912SOL    HW212636   3.697   1.518   6.304
 3913SOL     OW12637   2.777   6.225   6.839
 3913SOL    HW112638   2.714   6.286   6.790
 3913SOL    HW212639   2.785   6.255   6.934
 3914SOL     OW12640   4.985   0.614   1.308
 3914SOL    HW112641   4.962   0.537   1.368
 3914SOL    HW212642   4.912   0.682   1.313
 3915SOL     OW12643   4.294   6.462   0.714
 3915SOL    HW112644   4.217   6.492   0.658
 3915SOL    HW212645   4.349   6.396   0.661
 3916SOL     OW12646   2.047   6.778   2.344
 3916SOL    HW112647   2.018   6.731   2.261
 3916SOL    HW212648   2.143   6.756   2.362
 3917SOL     OW12649   1.494   4.303   0.864
 3917SOL    HW112650   1.398   4.282   0.849
 3917SOL    HW212651   1.551   4.228   0.830
 3918SOL     OW12652   4.390   6.487   2.048
 3918SOL    HW112653   4.405   6.410   1.986
 3918SOL    HW212654   4.417   6.461   2.140
 3919SOL     OW12655   3.503   0.153   6.510
 3919SOL    HW112656   3.448   0.192   6.436
 3919SOL    HW212657   3.485   0.055   6.517
 3920SOL     OW12658   2.365   2.236   6.001
 3920SOL    HW112659   2.344   2.232   6.099
 3920SOL    HW212660   2.454   2.195   5.984
 3921SOL     OW12661   6.819   2.896   0.211
 3921SOL    HW112662   6.879   2.888   0.131
 3921SOL    HW212663   6.821   2.811   0.262
 3922SOL     OW12664   4.290   4.893   0.406
 3922SOL    HW112665   4.324   4.844   0.326
 3922SOL    HW212666   4.250   4.828   0.470
 3923SOL     OW12667   6.430   1.880   0.644
 3923SOL    HW112668   6.363   1.935   0.594
 3923SOL    HW212669   6.522   1.912   0.621
 3924SOL     OW12670   0.187   4.590   3.245
 3924SOL    HW112671   0.215   4.618   3.336
 3924SOL    HW212672   0.114   4.522   3.251
 3925SOL     OW12673   4.375   4.441   0.859
 3925SOL    HW112674   4.369   4.342   0.852
 3925SOL    HW212675   4.471   4.467   0.871
 3926SOL     OW12676   6.994   0.042   4.527
 3926SOL    HW112677   7.021   0.044   4.431
 3926SOL    HW212678   6.958   6.978   4.551
 3927SOL     OW12679   0.264   2.375   4.405
 3927SOL    HW112680   0.258   2.448   4.472
 3927SOL    HW212681   0.359   2.344   4.397
 3928SOL     OW12682   3.959   5.843   4.547
 3928SOL    HW112683   4.003   5.796   4.623
 3928SOL    HW212684   3.950   5.780   4.470
 3929SOL     OW12685   0.111   1.627   6.567
 3929SOL    HW112686   0.137   1.708   6.515
 3929SOL    HW212687   0.038   1.578   6.520
 3930SOL     OW12688   1.006   1.994   3.404
 3930SOL    HW112689   1.044   2.086   3.412
 3930SOL    HW212690   1.079   1.927   3.416
 3931SOL     OW12691   1.768   1.582   2.188
 3931SOL    HW112692   1.747   1.646   2.262
 3931SOL    HW212693   1.756   1.488   2.220
 3932SOL     OW12694   1.773   4.229   3.915
 3932SOL    HW112695   1.856   4.203   3.964
 3932SOL    HW212696   1.693   4.189   3.960
 3933SOL     OW12697   1.748   6.687   0.348
 3933SOL    HW112698   1.722   6.764   0.291
 3933SOL    HW212699   1.699   6.605   0.317
 3934SOL     OW12700   0.360   0.834   2.328
 3934SOL    HW112701   0.454   0.864   2.314
 3934SOL    HW212702   0.299   0.914   2.328
 3935SOL     OW12703   1.653   0.982   5.458
 3935SOL    HW112704   1.630   0.950   5.550
 3935SOL    HW212705   1.623   1.077   5.447
 3936SOL     OW12706   6.789   6.301   5.588
 3936SOL    HW112707   6.699   6.340   5.605
 3936SOL    HW212708   6.798   6.279   5.490
 3937SOL     OW12709   0.089   6.508   2.570
 3937SOL    HW112710   0.053   6.564   2.645
 3937SOL    HW212711   0.051   6.540   2.483
 3938SOL     OW12712   6.354   3.113   3.818
 3938SOL    HW112713   6.300   3.196   3.808
 3938SOL    HW212714   6.315   3.056   3.890
 3939SOL     OW12715   2.817   1.910   3.199
 3939SOL    HW112716   2.870   1.961   3.131
 3939SOL    HW212717   2.857   1.819   3.210
 3940SOL     OW12718   3.157   4.825   2.123
 3940SOL    HW112719   3.182   4.832   2.219
 3940SOL    HW212720   3.118   4.734   2.105
 3941SOL     OW12721   5.750   0.331   4.717
 3941SOL    HW112722   5.745   0.294   4.810
 3941SOL    HW212723   5.764   0.256   4.653
 3942SOL     OW12724   0.893   6.052   5.623
 3942SOL    HW112725   0.835   6.023   5.699
 3942SOL    HW212726   0.894   5.982   5.552
 3943SOL     OW12727   0.288   3.463   2.335
 3943SOL    HW112728   0.299   3.382   2.277
 3943SOL    HW212729   0.234   3.439   2.416
 3944SOL     OW12730   5.666   3.939   5.793
 3944SOL    HW112731   5.757   3.979   5.799
 3944SOL    HW212732   5.673   3.844   5.760
 3945SOL     OW12733   0.894   2.319   2.610
 3945SOL    HW112734   0.909   2.368   2.524
 3945SOL    HW212735   0.870   2.385   2.682
 3946SOL     OW12736   0.158   3.893   6.070
 3946SOL    HW112737   0.134   3.888   6.167
 3946SOL    HW212738   0.243   3.843   6.054
 3947SOL     OW12739   5.682   5.344   0.754
 3947SOL    HW112740   5.767   5.396   0.748
 3947SOL    HW212741   5.646   5.351   0.847
 3948SOL     OW12742   0.945   4.683   0.149
 3948SOL    HW112743   0.871   4.733   0.194
 3948SOL    HW212744   0.951   4.591   0.186
 3949SOL     OW12745   5.938   6.648   2.951
 3949SOL    HW112746   5.866   6.607   3.007
 3949SOL    HW212747   5.950   6.743   2.976
 3950SOL     OW12748   3.605   4.136   1.549
 3950SOL    HW112749   3.623   4.180   1.637
 3950SOL    HW212750   3.513   4.098   1.548
 3951SOL     OW12751   0.515   0.644   6.943
 3951SOL    HW112752   0.469   0.698   7.014
 3951SOL    HW212753   0.596   0.599   6.982
 3952SOL     OW12754   6.041   3.501   5.076
 3952SOL    HW112755   6.139   3.479   5.072
 3952SOL    HW212756   5.990   3.436   5.021
 3953SOL     OW12757   3.781   4.407   6.902
 3953SOL    HW112758   3.785   4.387   6.804
 3953SOL    HW212759   3.744   4.328   6.951
 3954SOL     OW12760   5.675   5.398   5.309
 3954SOL    HW112761   5.754   5.403   5.247
 3954SOL    HW212762   5.706   5.409   5.403
 3955SOL     OW12763   4.752   6.845   6.801
 3955SOL    HW112764   4.732   6.941   6.782
 3955SOL    HW212765   4.712   6.819   6.889
 3956SOL     OW12766   1.396   2.000   4.631
 3956SOL    HW112767   1.405   1.998   4.731
 3956SOL    HW212768   1.307   2.037   4.607
 3957SOL     OW12769   4.489   6.834   3.411
 3957SOL    HW112770   4.459   6.760   3.470
 3957SOL    HW212771   4.411   6.890   3.383
 3958SOL     OW12772   5.864   6.943   6.314
 3958SOL    HW112773   5.781   6.912   6.268
 3958SOL    HW212774   5.940   6.944   6.249
 3959SOL     OW12775   3.336   6.392   1.114
 3959SOL    HW112776   3.434   6.388   1.096
 3959SOL    HW212777   3.296   6.301   1.106
 3960SOL     OW12778   5.985   2.351   6.163
 3960SOL    HW112779   5.980   2.320   6.068
 3960SOL    HW212780   6.006   2.274   6.223
 3961SOL     OW12781   5.312   2.771   2.403
 3961SOL    HW112782   5.225   2.818   2.382
 3961SOL    HW212783   5.333   2.780   2.500
 3962SOL     OW12784   1.255   5.646   6.795
 3962SOL    HW112785   1.278   5.617   6.702
 3962SOL    HW212786   1.338   5.680   6.840
 3963SOL     OW12787   5.489   4.444   3.605
 3963SOL    HW112788   5.480   4.360   3.658
 3963SOL    HW212789   5.576   4.444   3.556
 3964SOL     OW12790   4.349   4.682   4.745
 3964SOL    HW112791   4.350   4.660   4.843
 3964SOL    HW212792   4.271   4.740   4.725
 3965SOL     OW12793   4.112   4.204   6.142
 3965SOL    HW112794   4.079   4.111   6.124
 3965SOL    HW212795   4.090   4.229   6.236
 3966SOL     OW12796   6.686   5.020   0.105
 3966SOL    HW112797   6.611   5.000   0.041
 3966SOL    HW212798   6.667   4.976   0.193
 3967SOL     OW12799   1.552   4.481   2.691
 3967SOL    HW112800   1.625   4.549   2.688
 3967SOL    HW212801   1.471   4.516   2.643
 3968SOL     OW12802   6.510   0.654   1.139
 3968SOL    HW112803   6.437   0.686   1.199
 3968SOL    HW212804   6.476   0.646   1.046
 3969SOL     OW12805   0.351   3.626   2.994
 3969SOL    HW112806   0.409   3.700   2.959
 3969SOL    HW212807   0.317   3.650   3.085
 3970SOL     OW12808   4.716   5.017   3.485
 3970SOL    HW112809   4.688   5.108   3.453
 3970SOL    HW212810   4.634   4.960   3.498
 3971SOL     OW12811   2.306   4.755   2.370
 3971SOL    HW112812   2.379   4.739   2.303
 3971SOL    HW212813   2.309   4.684   2.440
 3972SOL     OW12814   1.706   5.745   1.665
 3972SOL    HW112815   1.628   5.766   1.607
 3972SOL    HW212816   1.783   5.805   1.642
 3973SOL     OW12817   2.356   3.808   5.326
 3973SOL    HW112818   2.368   3.877   5.256
 3973SOL    HW212819   2.442   3.761   5.343
 3974SOL     OW12820   1.820   0.927   5.802
 3974SOL    HW112821   1.839   1.025   5.795
 3974SOL    HW212822   1.726   0.909   5.772
 3975SOL     OW12823   5.716   7.023   6.617
 3975SOL    HW112824   5.797   0.049   6.590
 3975SOL    HW212825   5.736   6.925   6.609
 3976SOL     OW12826   2.129   5.039   1.044
 3976SOL    HW112827   2.121   5.069   1.139
 3976SOL    HW212828   2.112   5.117   0.983
 3977SOL     OW12829   3.256   5.031   5.802
 3977SOL    HW112830   3.226   4.948   5.755
 3977SOL    HW212831   3.356   5.037   5.799
 3978SOL     OW12832   5.767   0.735   4.650
 3978SOL    HW112833   5.757   0.818   4.595
 3978SOL    HW212834   5.850   0.742   4.706
 3979SOL     OW12835   2.592   5.947   1.547
 3979SOL    HW112836   2.533   6.005   1.603
 3979SOL    HW212837   2.537   5.874   1.505
 3980SOL     OW12838   0.159   4.538   5.996
 3980SOL    HW112839   0.202   4.616   6.041
 3980SOL    HW212840   0.223   4.497   5.931
 3981SOL     OW12841   1.773   2.036   6.598
 3981SOL    HW112842   1.824   2.120   6.612
 3981SOL    HW212843   1.712   2.020   6.675
 3982SOL     OW12844   2.550   0.826   4.328
 3982SOL    HW112845   2.514   0.866   4.244
 3982SOL    HW212846   2.565   0.898   4.395
 3983SOL     OW12847   3.391   5.851   4.556
 3983SOL    HW112848   3.490   5.848   4.569
 3983SOL    HW212849   3.368   5.829   4.461
 3984SOL     OW12850   2.212   0.455   2.265
 3984SOL    HW112851   2.222   0.493   2.173
 3984SOL    HW212852   2.238   0.358   2.264
 3985SOL     OW12853   2.383   4.297   6.841
 3985SOL    HW112854   2.374   4.388   6.882
 3985SOL    HW212855   2.327   4.232   6.891
 3986SOL     OW12856   6.711   1.292   3.302
 3986SOL    HW112857   6.758   1.378   3.323
 3986SOL    HW212858   6.615   1.299   3.329
 3987SOL     OW12859   1.445   5.788   5.085
 3987SOL    HW112860   1.421   5.704   5.133
 3987SOL    HW212861   1.430   5.776   4.987
 3988SOL     OW12862   3.714   2.738   5.699
 3988SOL    HW112863   3.714   2.711   5.795
 3988SOL    HW212864   3.762   2.668   5.645
 3989SOL     OW12865   6.606   1.374   0.041
 3989SOL    HW112866   6.701   1.400   0.056
 3989SOL    HW212867   6.548   1.456   0.043
 3990SOL     OW12868   6.263   1.581   3.788
 3990SOL    HW112869   6.260   1.642   3.867
 3990SOL    HW212870   6.178   1.529   3.782
 3991SOL     OW12871   6.281   1.666   2.484
 3991SOL    HW112872   6.314   1.721   2.408
 3991SOL    HW212873   6.261   1.726   2.562
 3992SOL     OW12874   4.304   2.111   6.243
 3992SOL    HW112875   4.396   2.081   6.267
 3992SOL    HW212876   4.286   2.200   6.284
 3993SOL     OW12877   1.288   2.028   3.210
 3993SOL    HW112878   1.271   1.952   3.273
 3993SOL    HW212879   1.244   2.009   3.122
 3994SOL     OW12880   1.604   2.713   5.487
 3994SOL    HW112881   1.700   2.688   5.496
 3994SOL    HW212882   1.595   2.785   5.417
 3995SOL     OW12883   2.064   3.831   4.199
 3995SOL    HW112884   1.975   3.873   4.186
 3995SOL    HW212885   2.053   3.740   4.239
 3996SOL     OW12886   1.624   0.801   5.017
 3996SOL    HW112887   1.623   0.738   5.095
 3996SOL    HW212888   1.594   0.892   5.048
 3997SOL     OW12889   4.845   3.002   3.350
 3997SOL    HW112890   4.897   3.061   3.288
 3997SOL    HW212891   4.790   3.058   3.412
 3998SOL     OW12892   4.667   1.717   2.280
 3998SOL    HW112893   4.681   1.628   2.325
 3998SOL    HW212894   4.709   1.715   2.189
 3999SOL     OW12895   5.605   3.536   3.849
 3999SOL    HW112896   5.623   3.567   3.756
 3999SOL    HW212897   5.689   3.536   3.902
 4000SOL     OW12898   3.552   5.679   2.626
 4000SOL    HW112899   3.529   5.607   2.560
 4000SOL    HW212900   3.604   5.640   2.702
 4001SOL     OW12901   1.966   2.869   4.789
 4001SOL    HW112902   1.930   2.816   4.864
 4001SOL    HW212903   2.019   2.810   4.728
 4002SOL     OW12904   2.913   2.832   6.542
 4002SOL    HW112905   2.838   2.834   6.476
 4002SOL    HW212906   2.967   2.749   6.528
 4003SOL     OW12907   2.604   0.026   6.238
 4003SOL    HW112908   2.636   7.009   6.322
 4003SOL    HW212909   2.517   7.012   6.210
 4004SOL     OW12910   6.148   2.450   3.873
 4004SOL    HW112911   6.132   2.444   3.972
 4004SOL    HW212912   6.063   2.476   3.827
 4005SOL     OW12913   5.412   5.187   1.158
 4005SOL    HW112914   5.466   5.105   1.142
 4005SOL    HW212915   5.473   5.266   1.165
 4006SOL     OW12916   4.526   4.764   2.171
 4006SOL    HW112917   4.526   4.804   2.263
 4006SOL    HW212918   4.535   4.837   2.103
 4007SOL     OW12919   0.799   2.786   1.638
 4007SOL    HW112920   0.838   2.712   1.583
 4007SOL    HW212921   0.801   2.871   1.585
 4008SOL     OW12922   3.873   1.613   5.468
 4008SOL    HW112923   3.796   1.628   5.530
 4008SOL    HW212924   3.839   1.598   5.375
 4009SOL     OW12925   4.728   2.701   0.841
 4009SOL    HW112926   4.787   2.621   0.834
 4009SOL    HW212927   4.706   2.718   0.937
 4010SOL     OW12928   1.919   3.516   1.208
 4010SOL    HW112929   1.995   3.516   1.273
 4010SOL    HW212930   1.847   3.455   1.241
 4011SOL     OW12931   1.022   6.650   1.819
 4011SOL    HW112932   1.041   6.642   1.917
 4011SOL    HW212933   0.937   6.700   1.805
 4012SOL     OW12934   4.741   4.679   1.827
 4012SOL    HW112935   4.645   4.665   1.849
 4012SOL    HW212936   4.795   4.602   1.861
 4013SOL     OW12937   2.852   0.327   0.685
 4013SOL    HW112938   2.796   0.347   0.765
 4013SOL    HW212939   2.905   0.244   0.701
 4014SOL     OW12940   4.136   5.719   3.803
 4014SOL    HW112941   4.204   5.789   3.824
 4014SOL    HW212942   4.182   5.633   3.782
 4015SOL     OW12943   4.339   5.033   6.238
 4015SOL    HW112944   4.429   5.013   6.277
 4015SOL    HW212945   4.304   5.118   6.278
 4016SOL     OW12946   0.879   5.581   6.725
 4016SOL    HW112947   0.906   5.677   6.713
 4016SOL    HW212948   0.785   5.569   6.692
 4017SOL     OW12949   0.654   6.552   0.471
 4017SOL    HW112950   0.577   6.611   0.493
 4017SOL    HW212951   0.642   6.463   0.516
 4018SOL     OW12952   6.052   6.499   1.777
 4018SOL    HW112953   6.098   6.570   1.831
 4018SOL    HW212954   6.042   6.417   1.833
 4019SOL     OW12955   5.957   3.899   2.266
 4019SOL    HW112956   5.947   3.986   2.313
 4019SOL    HW212957   6.004   3.913   2.179
 4020SOL     OW12958   6.451   2.703   5.844
 4020SOL    HW112959   6.369   2.712   5.901
 4020SOL    HW212960   6.479   2.793   5.812
 4021SOL     OW12961   3.107   4.116   5.615
 4021SOL    HW112962   3.131   4.195   5.671
 4021SOL    HW212963   3.190   4.080   5.571
 4022SOL     OW12964   4.626   0.204   6.635
 4022SOL    HW112965   4.582   0.123   6.596
 4022SOL    HW212966   4.608   0.208   6.733
 4023SOL     OW12967   6.880   0.823   4.491
 4023SOL    HW112968   6.976   0.801   4.476
 4023SOL    HW212969   6.872   0.915   4.529
 4024SOL     OW12970   3.215   5.161   4.438
 4024SOL    HW112971   3.221   5.200   4.530
 4024SOL    HW212972   3.213   5.235   4.370
 4025SOL     OW12973   0.237   6.259   4.518
 4025SOL    HW112974   0.149   6.291   4.552
 4025SOL    HW212975   0.264   6.176   4.566
 4026SOL     OW12976   6.305   0.149   3.137
 4026SOL    HW112977   6.242   0.076   3.107
 4026SOL    HW212978   6.254   0.217   3.189
 4027SOL     OW12979   2.690   2.845   1.004
 4027SOL    HW112980   2.724   2.771   1.062
 4027SOL    HW212981   2.694   2.931   1.054
 4028SOL     OW12982   2.760   2.207   2.716
 4028SOL    HW112983   2.684   2.143   2.711
 4028SOL    HW212984   2.739   2.279   2.782
 4029SOL     OW12985   2.908   4.874   6.356
 4029SOL    HW112986   2.982   4.875   6.289
 4029SOL    HW212987   2.924   4.802   6.424
 4030SOL     OW12988   1.097   1.604   0.659
 4030SOL    HW112989   1.028   1.546   0.702
 4030SOL    HW212990   1.174   1.548   0.629
 4031SOL     OW12991   4.938   6.285   3.577
 4031SOL    HW112992   4.889   6.302   3.492
 4031SOL    HW212993   4.893   6.336   3.651
 4032SOL     OW12994   6.170   0.110   2.754
 4032SOL    HW112995   6.249   0.138   2.699
 4032SOL    HW212996   6.102   0.184   2.753
 4033SOL     OW12997   3.023   3.836   1.929
 4033SOL    HW112998   3.047   3.933   1.934
 4033SOL    HW212999   2.965   3.820   1.849
 4034SOL     OW13000   0.103   1.411   4.219
 4034SOL    HW113001   0.127   1.502   4.185
 4034SOL    HW213002   0.186   1.362   4.245
 4035SOL     OW13003   6.211   2.574   0.853
 4035SOL    HW113004   6.265   2.658   0.850
 4035SOL    HW213005   6.128   2.590   0.906
 4036SOL     OW13006   4.982   6.571   2.425
 4036SOL    HW113007   4.907   6.552   2.489
 4036SOL    HW213008   5.057   6.507   2.442
 4037SOL     OW13009   2.410   0.913   0.721
 4037SOL    HW113010   2.371   0.826   0.752
 4037SOL    HW213011   2.507   0.915   0.742
 4038SOL     OW13012   4.351   4.090   1.621
 4038SOL    HW113013   4.410   4.132   1.553
 4038SOL    HW213014   4.369   4.131   1.711
 4039SOL     OW13015   4.790   4.312   1.493
 4039SOL    HW113016   4.697   4.295   1.459
 4039SOL    HW213017   4.801   4.268   1.582
 4040SOL     OW13018   3.788   6.944   6.054
 4040SOL    HW113019   3.859   7.011   6.079
 4040SOL    HW213020   3.787   6.932   5.955
 4041SOL     OW13021   1.773   5.216   1.141
 4041SOL    HW113022   1.798   5.277   1.217
 4041SOL    HW213023   1.699   5.257   1.088
 4042SOL     OW13024   6.439   5.494   2.963
 4042SOL    HW113025   6.400   5.574   3.007
 4042SOL    HW213026   6.507   5.452   3.023
 4043SOL     OW13027   5.119   1.824   4.304
 4043SOL    HW113028   5.104   1.741   4.250
 4043SOL    HW213029   5.068   1.817   4.390
 4044SOL     OW13030   4.693   6.971   3.508
 4044SOL    HW113031   4.616   6.908   3.500
 4044SOL    HW213032   4.712   7.012   3.419
 4045SOL     OW13033   2.845   5.304   5.931
 4045SOL    HW113034   2.788   5.222   5.918
 4045SOL    HW213035   2.934   5.290   5.889
 4046SOL     OW13036   1.174   1.268   3.842
 4046SOL    HW113037   1.235   1.319   3.782
 4046SOL    HW213038   1.151   1.181   3.800
 4047SOL     OW13039   1.311   2.089   0.883
 4047SOL    HW113040   1.275   2.038   0.804
 4047SOL    HW213041   1.409   2.074   0.890
 4048SOL     OW13042   5.416   1.787   2.238
 4048SOL    HW113043   5.430   1.863   2.302
 4048SOL    HW213044   5.410   1.701   2.290
 4049SOL     OW13045   6.696   5.685   6.327
 4049SOL    HW113046   6.691   5.702   6.425
 4049SOL    HW213047   6.624   5.736   6.280
 4050SOL     OW13048   1.190   6.388   0.551
 4050SOL    HW113049   1.160   6.399   0.646
 4050SOL    HW213050   1.178   6.293   0.523
 4051SOL     OW13051   3.926   2.567   7.009
 4051SOL    HW113052   3.856   2.596   0.048
 4051SOL    HW213053   3.936   2.467   7.013
 4052SOL     OW13054   6.848   0.780   2.670
 4052SOL    HW113055   6.912   0.738   2.734
 4052SOL    HW213056   6.759   0.791   2.715
 4053SOL     OW13057   3.540   4.986   4.145
 4053SOL    HW113058   3.465   4.999   4.080
 4053SOL    HW213059   3.626   5.012   4.101
 4054SOL     OW13060   6.716   3.384   2.149
 4054SOL    HW113061   6.786   3.445   2.185
 4054SOL    HW213062   6.758   3.308   2.100
 4055SOL     OW13063   3.634   3.206   6.504
 4055SOL    HW113064   3.582   3.283   6.466
 4055SOL    HW213065   3.682   3.236   6.586
 4056SOL     OW13066   3.765   3.923   1.029
 4056SOL    HW113067   3.758   3.891   0.934
 4056SOL    HW213068   3.716   4.009   1.039
 4057SOL     OW13069   5.296   2.117   1.547
 4057SOL    HW113070   5.285   2.055   1.624
 4057SOL    HW213071   5.281   2.211   1.578
 4058SOL     OW13072   1.866   0.213   3.921
 4058SOL    HW113073   1.904   0.283   3.982
 4058SOL    HW213074   1.936   0.184   3.856
 4059SOL     OW13075   1.158   2.597   3.489
 4059SOL    HW113076   1.093   2.563   3.558
 4059SOL    HW213077   1.249   2.606   3.530
 4060SOL     OW13078   4.851   5.251   4.639
 4060SOL    HW113079   4.790   5.323   4.606
 4060SOL    HW213080   4.806   5.199   4.711
 4061SOL     OW13081   2.975   5.334   1.652
 4061SOL    HW113082   2.979   5.255   1.713
 4061SOL    HW213083   2.907   5.318   1.580
 4062SOL     OW13084   2.449   1.890   2.574
 4062SOL    HW113085   2.472   1.801   2.613
 4062SOL    HW213086   2.476   1.962   2.638
 4063SOL     OW13087   5.922   6.205   5.104
 4063SOL    HW113088   5.904   6.294   5.147
 4063SOL    HW213089   6.021   6.191   5.098
 4064SOL     OW13090   1.836   6.738   3.762
 4064SOL    HW113091   1.812   6.834   3.775
 4064SOL    HW213092   1.849   6.721   3.664
 4065SOL     OW13093   6.896   0.021   0.489
 4065SOL    HW113094   6.966   6.978   0.471
 4065SOL    HW213095   6.940   0.107   0.514
 4066SOL     OW13096   5.191   6.083   2.677
 4066SOL    HW113097   5.138   6.110   2.758
 4066SOL    HW213098   5.153   5.999   2.640
 4067SOL     OW13099   6.128   3.456   3.085
 4067SOL    HW113100   6.162   3.517   3.012
 4067SOL    HW213101   6.203   3.435   3.147
 4068SOL     OW13102   3.147   0.328   4.593
 4068SOL    HW113103   3.106   0.418   4.578
 4068SOL    HW213104   3.162   0.313   4.691
 4069SOL     OW13105   4.184   4.700   6.478
 4069SOL    HW113106   4.166   4.651   6.563
 4069SOL    HW213107   4.097   4.724   6.435
 4070SOL     OW13108   0.390   3.785   2.451
 4070SOL    HW113109   0.457   3.860   2.452
 4070SOL    HW213110   0.438   3.698   2.447
 4071SOL     OW13111   1.132   0.800   5.551
 4071SOL    HW113112   1.142   0.775   5.647
 4071SOL    HW213113   1.222   0.823   5.513
 4072SOL     OW13114   0.916   5.782   4.134
 4072SOL    HW113115   0.903   5.858   4.071
 4072SOL    HW213116   0.943   5.817   4.224
 4073SOL     OW13117   2.430   5.880   6.348
 4073SOL    HW113118   2.472   5.954   6.295
 4073SOL    HW213119   2.481   5.795   6.333
 4074SOL     OW13120   0.357   2.997   2.017
 4074SOL    HW113121   0.317   2.925   1.960
 4074SOL    HW213122   0.446   2.968   2.051
 4075SOL     OW13123   4.083   2.206   2.838
 4075SOL    HW113124   3.988   2.193   2.866
 4075SOL    HW213125   4.132   2.119   2.848
 4076SOL     OW13126   3.215   3.489   5.113
 4076SOL    HW113127   3.261   3.469   5.200
 4076SOL    HW213128   3.282   3.519   5.046
 4077SOL     OW13129   3.566   0.078   0.150
 4077SOL    HW113130   3.654   0.088   0.197
 4077SOL    HW213131   3.580   0.082   0.051
 4078SOL     OW13132   6.147   5.776   2.288
 4078SOL    HW113133   6.072   5.841   2.298
 4078SOL    HW213134   6.199   5.771   2.373
 4079SOL     OW13135   0.786   1.844   3.719
 4079SOL    HW113136   0.786   1.805   3.811
 4079SOL    HW213137   0.694   1.840   3.681
 4080SOL     OW13138   2.417   3.446   0.374
 4080SOL    HW113139   2.325   3.427   0.340
 4080SOL    HW213140   2.414   3.455   0.474
 4081SOL     OW13141   1.765   2.273   3.882
 4081SOL    HW113142   1.665   2.272   3.883
 4081SOL    HW213143   1.798   2.295   3.790
 4082SOL     OW13144   1.301   2.722   0.848
 4082SOL    HW113145   1.203   2.708   0.859
 4082SOL    HW213146   1.322   2.819   0.855
 4083SOL     OW13147   6.384   4.296   2.066
 4083SOL    HW113148   6.465   4.350   2.043
 4083SOL    HW213149   6.411   4.200   2.075
 4084SOL     OW13150   4.408   2.482   3.043
 4084SOL    HW113151   4.405   2.523   3.134
 4084SOL    HW213152   4.471   2.534   2.985
 4085SOL     OW13153   2.630   5.736   0.782
 4085SOL    HW113154   2.637   5.674   0.859
 4085SOL    HW213155   2.535   5.744   0.754
 4086SOL     OW13156   0.246   4.569   1.241
 4086SOL    HW113157   0.214   4.532   1.154
 4086SOL    HW213158   0.229   4.501   1.313
 4087SOL     OW13159   1.591   1.758   3.299
 4087SOL    HW113160   1.514   1.699   3.275
 4087SOL    HW213161   1.664   1.745   3.231
 4088SOL     OW13162   6.522   0.869   6.531
 4088SOL    HW113163   6.433   0.828   6.511
 4088SOL    HW213164   6.521   0.966   6.506
 4089SOL     OW13165   6.249   4.833   3.966
 4089SOL    HW113166   6.302   4.771   4.024
 4089SOL    HW213167   6.153   4.805   3.966
 4090SOL     OW13168   1.508   5.713   5.750
 4090SOL    HW113169   1.533   5.760   5.665
 4090SOL    HW213170   1.518   5.614   5.738
 4091SOL     OW13171   0.498   6.235   0.282
 4091SOL    HW113172   0.408   6.252   0.241
 4091SOL    HW213173   0.556   6.188   0.216
 4092SOL     OW13174   5.803   2.675   4.072
 4092SOL    HW113175   5.853   2.638   3.993
 4092SOL    HW213176   5.851   2.756   4.107
 4093SOL     OW13177   4.778   6.552   1.366
 4093SOL    HW113178   4.869   6.517   1.345
 4093SOL    HW213179   4.720   6.477   1.396
 4094SOL     OW13180   1.707   4.726   5.734
 4094SOL    HW113181   1.637   4.722   5.663
 4094SOL    HW213182   1.742   4.820   5.740
 4095SOL     OW13183   0.233   4.028   0.565
 4095SOL    HW113184   0.253   3.946   0.512
 4095SOL    HW213185   0.314   4.054   0.619
 4096SOL     OW13186   4.972   0.874   6.844
 4096SOL    HW113187   5.018   0.820   6.774
 4096SOL    HW213188   4.944   0.962   6.806
 4097SOL     OW13189   4.568   4.401   4.372
 4097SOL    HW113190   4.651   4.453   4.391
 4097SOL    HW213191   4.519   4.443   4.296
 4098SOL     OW13192   0.951   2.026   1.880
 4098SOL    HW113193   1.012   2.079   1.939
 4098SOL    HW213194   0.998   1.942   1.852
 4099SOL     OW13195   4.099   5.451   1.127
 4099SOL    HW113196   4.114   5.397   1.209
 4099SOL    HW213197   4.157   5.417   1.053
 4100SOL     OW13198   0.419   6.562   4.265
 4100SOL    HW113199   0.423   6.580   4.166
 4100SOL    HW213200   0.398   6.646   4.313
 4101SOL     OW13201   0.386   1.702   0.627
 4101SOL    HW113202   0.298   1.749   0.630
 4101SOL    HW213203   0.412   1.685   0.532
 4102SOL     OW13204   1.168   0.476   0.837
 4102SOL    HW113205   1.175   0.506   0.742
 4102SOL    HW213206   1.231   0.530   0.893
 4103SOL     OW13207   0.523   6.914   0.693
 4103SOL    HW113208   0.590   6.972   0.648
 4103SOL    HW213209   0.439   6.966   0.708
 4104SOL     OW13210   0.021   4.716   3.626
 4104SOL    HW113211   0.105   4.678   3.586
 4104SOL    HW213212   6.970   4.693   3.567
 4105SOL     OW13213   5.607   0.572   3.029
 4105SOL    HW113214   5.620   0.480   2.993
 4105SOL    HW213215   5.696   0.618   3.036
 4106SOL     OW13216   6.905   2.878   3.355
 4106SOL    HW113217   6.858   2.965   3.372
 4106SOL    HW213218   6.845   2.818   3.303
 4107SOL     OW13219   1.255   5.667   0.960
 4107SOL    HW113220   1.215   5.610   0.888
 4107SOL    HW213221   1.324   5.727   0.920
 4108SOL     OW13222   6.419   5.120   4.593
 4108SOL    HW113223   6.388   5.025   4.586
 4108SOL    HW213224   6.478   5.129   4.673
 4109SOL     OW13225   6.501   0.192   4.743
 4109SOL    HW113226   6.555   0.273   4.765
 4109SOL    HW213227   6.431   0.216   4.676
 4110SOL     OW13228   4.300   3.659   5.677
 4110SOL    HW113229   4.317   3.733   5.613
 4110SOL    HW213230   4.243   3.693   5.752
 4111SOL     OW13231   5.819   4.553   6.248
 4111SOL    HW113232   5.722   4.573   6.248
 4111SOL    HW213233   5.868   4.625   6.199
 4112SOL     OW13234   4.868   6.176   4.641
 4112SOL    HW113235   4.933   6.242   4.677
 4112SOL    HW213236   4.781   6.222   4.622
 4113SOL     OW13237   5.558   5.546   5.108
 4113SOL    HW113238   5.599   5.490   5.180
 4113SOL    HW213239   5.458   5.538   5.114
 4114SOL     OW13240   3.849   2.184   4.251
 4114SOL    HW113241   3.819   2.105   4.198
 4114SOL    HW213242   3.913   2.238   4.197
 4115SOL     OW13243   2.947   5.018   2.108
 4115SOL    HW113244   2.939   5.046   2.204
 4115SOL    HW213245   3.022   4.954   2.097
 4116SOL     OW13246   3.743   1.504   2.685
 4116SOL    HW113247   3.808   1.447   2.736
 4116SOL    HW213248   3.650   1.470   2.701
 4117SOL     OW13249   0.974   3.616   2.509
 4117SOL    HW113250   1.021   3.696   2.471
 4117SOL    HW213251   0.878   3.617   2.480
 4118SOL     OW13252   5.053   6.639   0.441
 4118SOL    HW113253   5.025   6.614   0.534
 4118SOL    HW213254   4.971   6.650   0.384
 4119SOL     OW13255   2.988   1.555   3.911
 4119SOL    HW113256   2.929   1.575   3.989
 4119SOL    HW213257   2.947   1.592   3.828
 4120SOL     OW13258   3.923   0.897   5.429
 4120SOL    HW113259   3.941   0.878   5.525
 4120SOL    HW213260   3.880   0.987   5.420
 4121SOL     OW13261   6.645   0.169   3.493
 4121SOL    HW113262   6.722   0.217   3.536
 4121SOL    HW213263   6.591   0.123   3.563
 4122SOL     OW13264   1.333   0.103   4.750
 4122SOL    HW113265   1.387   0.187   4.745
 4122SOL    HW213266   1.299   0.079   4.659
 4123SOL     OW13267   4.151   4.717   5.334
 4123SOL    HW113268   4.195   4.807   5.344
 4123SOL    HW213269   4.108   4.692   5.421
 4124SOL     OW13270   6.500   6.368   0.747
 4124SOL    HW113271   6.518   6.282   0.794
 4124SOL    HW213272   6.477   6.438   0.814
 4125SOL     OW13273   4.471   2.084   2.705
 4125SOL    HW113274   4.483   2.141   2.624
 4125SOL    HW213275   4.469   2.142   2.786
 4126SOL     OW13276   1.888   2.997   3.074
 4126SOL    HW113277   1.824   2.984   2.997
 4126SOL    HW213278   1.980   3.013   3.038
 4127SOL     OW13279   5.650   3.694   5.675
 4127SOL    HW113280   5.558   3.720   5.703
 4127SOL    HW213281   5.668   3.599   5.703
 4128SOL     OW13282   0.883   3.261   1.336
 4128SOL    HW113283   0.920   3.184   1.284
 4128SOL    HW213284   0.942   3.341   1.326
 4129SOL     OW13285   3.399   1.035   0.025
 4129SOL    HW113286   3.316   1.034   6.996
 4129SOL    HW213287   3.452   0.952   0.005
 4130SOL     OW13288   6.301   2.843   0.852
 4130SOL    HW113289   6.323   2.922   0.794
 4130SOL    HW213290   6.263   2.874   0.939
 4131SOL     OW13291   0.211   1.158   3.476
 4131SOL    HW113292   0.305   1.146   3.443
 4131SOL    HW213293   0.176   1.246   3.446
 4132SOL     OW13294   4.941   4.004   3.370
 4132SOL    HW113295   4.973   3.910   3.381
 4132SOL    HW213296   4.866   4.006   3.303
 4133SOL     OW13297   3.309   5.991   1.462
 4133SOL    HW113298   3.388   6.045   1.433
 4133SOL    HW213299   3.225   6.042   1.442
 4134SOL     OW13300   2.329   3.908   1.231
 4134SOL    HW113301   2.381   3.894   1.147
 4134SOL    HW213302   2.236   3.874   1.220
 4135SOL     OW13303   0.587   2.233   2.055
 4135SOL    HW113304   0.525   2.298   2.012
 4135SOL    HW213305   0.680   2.272   2.057
 4136SOL     OW13306   1.078   3.107   2.863
 4136SOL    HW113307   1.153   3.059   2.907
 4136SOL    HW213308   1.039   3.173   2.926
 4137SOL     OW13309   1.541   3.791   1.317
 4137SOL    HW113310   1.603   3.778   1.394
 4137SOL    HW213311   1.541   3.887   1.290
 4138SOL     OW13312   3.953   5.630   2.672
 4138SOL    HW113313   3.869   5.684   2.660
 4138SOL    HW213314   3.988   5.644   2.765
 4139SOL     OW13315   1.633   1.810   5.348
 4139SOL    HW113316   1.671   1.868   5.420
 4139SOL    HW213317   1.549   1.767   5.380
 4140SOL     OW13318   3.399   0.870   5.130
 4140SOL    HW113319   3.377   0.868   5.032
 4140SOL    HW213320   3.491   0.832   5.143
 4141SOL     OW13321   5.042   6.288   1.266
 4141SOL    HW113322   4.978   6.269   1.339
 4141SOL    HW213323   4.996   6.280   1.177
 4142SOL     OW13324   6.426   4.869   1.156
 4142SOL    HW113325   6.378   4.894   1.240
 4142SOL    HW213326   6.502   4.933   1.141
 4143SOL     OW13327   5.866   2.470   0.739
 4143SOL    HW113328   5.773   2.453   0.705
 4143SOL    HW213329   5.921   2.388   0.725
 4144SOL     OW13330   4.981   1.649   6.975
 4144SOL    HW113331   4.912   1.578   6.988
 4144SOL    HW213332   5.024   1.638   6.885
 4145SOL     OW13333   0.435   6.431   1.315
 4145SOL    HW113334   0.417   6.421   1.218
 4145SOL    HW213335   0.421   6.526   1.343
 4146SOL     OW13336   5.915   0.457   3.173
 4146SOL    HW113337   5.932   0.502   3.086
 4146SOL    HW213338   5.893   0.526   3.242
 4147SOL     OW13339   4.794   5.004   6.107
 4147SOL    HW113340   4.844   5.041   6.029
 4147SOL    HW213341   4.775   4.907   6.090
 4148SOL     OW13342   2.506   0.402   4.942
 4148SOL    HW113343   2.512   0.378   5.039
 4148SOL    HW213344   2.470   0.323   4.891
 4149SOL     OW13345   0.020   4.064   1.524
 4149SOL    HW113346   7.016   4.129   1.455
 4149SOL    HW213347   0.115   4.038   1.505
 4150SOL     OW13348   1.379   0.476   5.935
 4150SOL    HW113349   1.324   0.416   5.878
 4150SOL    HW213350   1.401   0.559   5.883
 4151SOL     OW13351   3.000   5.861   5.602
 4151SOL    HW113352   3.078   5.798   5.610
 4151SOL    HW213353   2.986   5.884   5.505
 4152SOL     OW13354   4.160   5.707   1.167
 4152SOL    HW113355   4.189   5.732   1.259
 4152SOL    HW213356   4.129   5.612   1.167
 4153SOL     OW13357   5.924   5.216   1.096
 4153SOL    HW113358   5.968   5.257   1.176
 4153SOL    HW213359   5.994   5.195   1.027
 4154SOL     OW13360   6.911   4.973   3.648
 4154SOL    HW113361   6.990   4.912   3.646
 4154SOL    HW213362   6.937   5.061   3.688
 4155SOL     OW13363   0.267   0.939   1.635
 4155SOL    HW113364   0.343   0.880   1.665
 4155SOL    HW213365   0.276   1.028   1.679
 4156SOL     OW13366   5.939   6.142   4.742
 4156SOL    HW113367   5.896   6.081   4.809
 4156SOL    HW213368   5.978   6.221   4.789
 4157SOL     OW13369   4.916   5.738   4.099
 4157SOL    HW113370   5.006   5.779   4.114
 4157SOL    HW213371   4.921   5.672   4.024
 4158SOL     OW13372   0.428   3.113   1.707
 4158SOL    HW113373   0.364   3.108   1.783
 4158SOL    HW213374   0.394   3.176   1.637
 4159SOL     OW13375   2.232   2.852   3.043
 4159SOL    HW113376   2.200   2.945   3.025
 4159SOL    HW213377   2.293   2.852   3.122
 4160SOL     OW13378   5.508   1.131   0.592
 4160SOL    HW113379   5.517   1.051   0.533
 4160SOL    HW213380   5.591   1.142   0.646
 4161SOL     OW13381   0.930   2.006   0.761
 4161SOL    HW113382   1.022   2.012   0.723
 4161SOL    HW213383   0.935   1.965   0.852
 4162SOL     OW13384   6.465   5.833   0.224
 4162SOL    HW113385   6.465   5.901   0.151
 4162SOL    HW213386   6.419   5.870   0.304
 4163SOL     OW13387   5.059   0.448   2.818
 4163SOL    HW113388   5.101   0.448   2.908
 4163SOL    HW213389   5.049   0.541   2.785
 4164SOL     OW13390   1.892   6.568   5.824
 4164SOL    HW113391   1.933   6.658   5.814
 4164SOL    HW213392   1.910   6.533   5.916
 4165SOL     OW13393   4.247   0.637   5.866
 4165SOL    HW113394   4.171   0.604   5.811
 4165SOL    HW213395   4.309   0.690   5.808
 4166SOL     OW13396   5.466   1.758   0.522
 4166SOL    HW113397   5.523   1.686   0.484
 4166SOL    HW213398   5.370   1.740   0.499
 4167SOL     OW13399   2.291   4.307   0.265
 4167SOL    HW113400   2.260   4.218   0.299
 4167SOL    HW213401   2.211   4.360   0.235
 4168SOL     OW13402   0.120   4.416   1.452
 4168SOL    HW113403   0.045   4.362   1.414
 4168SOL    HW213404   0.139   4.386   1.546
 4169SOL     OW13405   5.749   5.073   4.897
 4169SOL    HW113406   5.736   4.999   4.963
 4169SOL    HW213407   5.741   5.037   4.804
 4170SOL     OW13408   4.506   3.550   6.705
 4170SOL    HW113409   4.456   3.540   6.791
 4170SOL    HW213410   4.603   3.565   6.724
 4171SOL     OW13411   6.693   6.002   0.735
 4171SOL    HW113412   6.630   5.998   0.657
 4171SOL    HW213413   6.721   5.910   0.760
 4172SOL     OW13414   1.277   2.012   6.121
 4172SOL    HW113415   1.185   2.041   6.093
 4172SOL    HW213416   1.345   2.069   6.076
 4173SOL     OW13417   5.131   4.350   4.478
 4173SOL    HW113418   5.037   4.380   4.462
 4173SOL    HW213419   5.130   4.268   4.536
 4174SOL     OW13420   4.605   1.569   2.730
 4174SOL    HW113421   4.555   1.656   2.730
 4174SOL    HW213422   4.546   1.497   2.764
 4175SOL     OW13423   2.289   5.526   4.723
 4175SOL    HW113424   2.192   5.544   4.739
 4175SOL    HW213425   2.301   5.429   4.699
 4176SOL     OW13426   3.485   6.190   1.792
 4176SOL    HW113427   3.517   6.250   1.865
 4176SOL    HW213428   3.560   6.170   1.729
 4177SOL     OW13429   5.819   5.081   5.271
 4177SOL    HW113430   5.814   5.041   5.179
 4177SOL    HW213431   5.769   5.023   5.335
 4178SOL     OW13432   3.992   0.001   4.278
 4178SOL    HW113433   4.044   6.976   4.211
 4178SOL    HW213434   3.946   0.078   4.232
 4179SOL     OW13435   5.565   3.166   2.998
 4179SOL    HW113436   5.664   3.182   3.006
 4179SOL    HW213437   5.524   3.165   3.089
 4180SOL     OW13438   4.657   4.159   0.748
 4180SOL    HW113439   4.741   4.161   0.695
 4180SOL    HW213440   4.674   4.199   0.838
 4181SOL     OW13441   3.595   1.087   0.380
 4181SOL    HW113442   3.611   1.186   0.372
 4181SOL    HW213443   3.511   1.063   0.333
 4182SOL     OW13444   1.154   6.758   3.817
 4182SOL    HW113445   1.119   6.787   3.728
 4182SOL    HW213446   1.254   6.761   3.816
 4183SOL     OW13447   2.833   1.396   0.044
 4183SOL    HW113448   2.824   1.488   0.081
 4183SOL    HW213449   2.816   1.397   6.972
 4184SOL     OW13450   4.074   6.273   2.483
 4184SOL    HW113451   4.036   6.337   2.550
 4184SOL    HW213452   4.054   6.305   2.391
 4185SOL     OW13453   0.726   4.864   2.796
 4185SOL    HW113454   0.670   4.908   2.866
 4185SOL    HW213455   0.731   4.924   2.716
 4186SOL     OW13456   3.082   4.845   6.899
 4186SOL    HW113457   3.053   4.768   6.955
 4186SOL    HW213458   3.002   4.889   6.858
 4187SOL     OW13459   3.528   3.413   5.525
 4187SOL    HW113460   3.565   3.345   5.589
 4187SOL    HW213461   3.598   3.437   5.458
 4188SOL     OW13462   5.125   0.560   5.012
 4188SOL    HW113463   5.043   0.503   5.006
 4188SOL    HW213464   5.145   0.599   4.922
 4189SOL     OW13465   3.346   4.916   5.447
 4189SOL    HW113466   3.427   4.936   5.503
 4189SOL    HW213467   3.273   4.980   5.469
 4190SOL     OW13468   0.651   0.619   0.323
 4190SOL    HW113469   0.705   0.573   0.252
 4190SOL    HW213470   0.711   0.654   0.394
 4191SOL     OW13471   4.929   4.407   3.138
 4191SOL    HW113472   4.894   4.453   3.220
 4191SOL    HW213473   4.873   4.327   3.118
 4192SOL     OW13474   0.830   0.721   3.988
 4192SOL    HW113475   0.892   0.644   4.007
 4192SOL    HW213476   0.842   0.751   3.893
 4193SOL     OW13477   0.322   1.399   1.843
 4193SOL    HW113478   0.367   1.411   1.932
 4193SOL    HW213479   0.353   1.314   1.801
 4194SOL     OW13480   5.997   0.292   4.144
 4194SOL    HW113481   6.019   0.371   4.200
 4194SOL    HW213482   6.069   0.223   4.151
 4195SOL     OW13483   3.892   6.482   1.867
 4195SOL    HW113484   3.851   6.552   1.809
 4195SOL    HW213485   3.984   6.510   1.895
 4196SOL     OW13486   6.083   2.031   3.002
 4196SOL    HW113487   6.036   1.986   2.926
 4196SOL    HW213488   6.019   2.092   3.049
 4197SOL     OW13489   4.685   5.645   5.793
 4197SOL    HW113490   4.762   5.586   5.770
 4197SOL    HW213491   4.624   5.653   5.713
 4198SOL     OW13492   5.682   2.400   0.207
 4198SOL    HW113493   5.621   2.326   0.181
 4198SOL    HW213494   5.652   2.485   0.165
 4199SOL     OW13495   1.684   2.672   6.499
 4199SOL    HW113496   1.736   2.717   6.425
 4199SOL    HW213497   1.741   2.666   6.580
 4200SOL     OW13498   3.970   0.126   5.970
 4200SOL    HW113499   4.024   0.163   5.894
 4200SOL    HW213500   4.017   0.145   6.056
 4201SOL     OW13501   6.048   6.916   3.714
 4201SOL    HW113502   6.073   7.008   3.686
 4201SOL    HW213503   6.130   6.859   3.718
 4202SOL     OW13504   3.644   5.545   5.308
 4202SOL    HW113505   3.596   5.588   5.385
 4202SOL    HW213506   3.704   5.612   5.264
 4203SOL     OW13507   4.095   5.065   0.303
 4203SOL    HW113508   4.164   4.998   0.332
 4203SOL    HW213509   4.119   5.155   0.337
 4204SOL     OW13510   3.591   3.867   2.767
 4204SOL    HW113511   3.624   3.894   2.676
 4204SOL    HW213512   3.669   3.859   2.829
 4205SOL     OW13513   4.273   5.569   3.438
 4205SOL    HW113514   4.288   5.544   3.533
 4205SOL    HW213515   4.358   5.555   3.386
 4206SOL     OW13516   6.803   0.548   6.051
 4206SOL    HW113517   6.828   0.466   6.000
 4206SOL    HW213518   6.885   0.592   6.086
 4207SOL     OW13519   1.820   1.636   1.062
 4207SOL    HW113520   1.860   1.600   1.147
 4207SOL    HW213521   1.798   1.733   1.074
 4208SOL     OW13522   0.187   2.667   6.006
 4208SOL    HW113523   0.166   2.676   5.909
 4208SOL    HW213524   0.102   2.667   6.059
 4209SOL     OW13525   0.160   0.308   4.246
 4209SOL    HW113526   0.236   0.345   4.192
 4209SOL    HW213527   0.091   0.379   4.260
 4210SOL     OW13528   3.373   3.450   2.351
 4210SOL    HW113529   3.438   3.491   2.415
 4210SOL    HW213530   3.286   3.499   2.357
 4211SOL     OW13531   4.602   6.429   6.487
 4211SOL    HW113532   4.625   6.493   6.561
 4211SOL    HW213533   4.682   6.413   6.430
 4212SOL     OW13534   5.980   1.875   2.814
 4212SOL    HW113535   6.021   1.804   2.756
 4212SOL    HW213536   5.900   1.837   2.860
 4213SOL     OW13537   1.948   1.140   1.186
 4213SOL    HW113538   2.035   1.135   1.136
 4213SOL    HW213539   1.930   1.235   1.211
 4214SOL     OW13540   1.097   5.412   5.204
 4214SOL    HW113541   1.079   5.417   5.106
 4214SOL    HW213542   1.061   5.327   5.241
 4215SOL     OW13543   5.645   0.054   5.527
 4215SOL    HW113544   5.604   7.000   5.570
 4215SOL    HW213545   5.659   0.125   5.595
 4216SOL     OW13546   1.378   1.271   2.782
 4216SOL    HW113547   1.347   1.195   2.839
 4216SOL    HW213548   1.469   1.300   2.812
 4217SOL     OW13549   0.972   0.506   2.086
 4217SOL    HW113550   0.900   0.438   2.069
 4217SOL    HW213551   0.945   0.593   2.046
 4218SOL     OW13552   4.409   0.926   1.718
 4218SOL    HW113553   4.367   0.933   1.627
 4218SOL    HW213554   4.349   0.968   1.786
 4219SOL     OW13555   3.529   5.340   3.981
 4219SOL    HW113556   3.542   5.349   4.080
 4219SOL    HW213557   3.608   5.291   3.942
 4220SOL     OW13558   5.839   2.430   4.217
 4220SOL    HW113559   5.761   2.373   4.245
 4220SOL    HW213560   5.819   2.474   4.130
 4221SOL     OW13561   5.728   5.185   6.948
 4221SOL    HW113562   5.668   5.112   6.981
 4221SOL    HW213563   5.725   5.186   6.848
 4222SOL     OW13564   6.219   2.303   2.870
 4222SOL    HW113565   6.156   2.227   2.883
 4222SOL    HW213566   6.264   2.324   2.957
 4223SOL     OW13567   3.941   3.095   6.216
 4223SOL    HW113568   4.002   3.056   6.147
 4223SOL    HW213569   3.993   3.116   6.298
 4224SOL     OW13570   5.262   3.660   4.158
 4224SOL    HW113571   5.317   3.743   4.151
 4224SOL    HW213572   5.310   3.585   4.113
 4225SOL     OW13573   4.027   0.825   5.703
 4225SOL    HW113574   4.111   0.852   5.750
 4225SOL    HW213575   3.993   0.739   5.741
 4226SOL     OW13576   0.910   0.492   2.606
 4226SOL    HW113577   0.825   0.446   2.633
 4226SOL    HW213578   0.936   0.463   2.515
 4227SOL     OW13579   3.791   4.747   1.175
 4227SOL    HW113580   3.771   4.675   1.242
 4227SOL    HW213581   3.745   4.726   1.089
 4228SOL     OW13582   0.733   4.292   4.928
 4228SOL    HW113583   0.696   4.212   4.881
 4228SOL    HW213584   0.822   4.269   4.969
 4229SOL     OW13585   5.011   5.792   5.516
 4229SOL    HW113586   4.997   5.828   5.423
 4229SOL    HW213587   4.937   5.729   5.539
 4230SOL     OW13588   1.476   6.518   2.828
 4230SOL    HW113589   1.544   6.573   2.875
 4230SOL    HW213590   1.488   6.527   2.729
 4231SOL     OW13591   5.845   6.682   5.531
 4231SOL    HW113592   5.924   6.742   5.520
 4231SOL    HW213593   5.781   6.696   5.456
 4232SOL     OW13594   0.141   4.874   2.708
 4232SOL    HW113595   0.096   4.935   2.772
 4232SOL    HW213596   0.183   4.927   2.635
 4233SOL     OW13597   6.779   0.837   6.422
 4233SOL    HW113598   6.753   0.920   6.372
 4233SOL    HW213599   6.709   0.816   6.490
 4234SOL     OW13600   2.665   6.609   5.434
 4234SOL    HW113601   2.614   6.608   5.520
 4234SOL    HW213602   2.608   6.653   5.364
 4235SOL     OW13603   5.937   4.011   5.782
 4235SOL    HW113604   5.975   4.010   5.689
 4235SOL    HW213605   6.007   3.984   5.847
 4236SOL     OW13606   6.556   3.516   3.135
 4236SOL    HW113607   6.483   3.468   3.184
 4236SOL    HW213608   6.551   3.614   3.154
 4237SOL     OW13609   5.527   5.477   2.101
 4237SOL    HW113610   5.588   5.424   2.161
 4237SOL    HW213611   5.480   5.547   2.155
 4238SOL     OW13612   2.909   5.205   2.977
 4238SOL    HW113613   2.820   5.216   2.932
 4238SOL    HW213614   2.960   5.130   2.934
 4239SOL     OW13615   5.432   1.683   3.175
 4239SOL    HW113616   5.441   1.729   3.087
 4239SOL    HW213617   5.386   1.595   3.162
 4240SOL     OW13618   2.288   6.829   6.792
 4240SOL    HW113619   2.373   6.817   6.741
 4240SOL    HW213620   2.306   6.884   6.873
 4241SOL     OW13621   6.230   1.317   0.434
 4241SOL    HW113622   6.164   1.268   0.376
 4241SOL    HW213623   6.205   1.414   0.437
 4242SOL     OW13624   2.493   0.855   3.629
 4242SOL    HW113625   2.582   0.859   3.674
 4242SOL    HW213626   2.455   0.762   3.639
 4243SOL     OW13627   6.605   3.022   3.141
 4243SOL    HW113628   6.643   3.047   3.230
 4243SOL    HW213629   6.649   3.078   3.070
 4244SOL     OW13630   4.483   4.443   1.265
 4244SOL    HW113631   4.437   4.513   1.210
 4244SOL    HW213632   4.568   4.481   1.303
 4245SOL     OW13633   0.256   0.989   6.300
 4245SOL    HW113634   0.192   0.935   6.354
 4245SOL    HW213635   0.246   1.085   6.323
 4246SOL     OW13636   6.756   3.849   2.797
 4246SOL    HW113637   6.703   3.767   2.816
 4246SOL    HW213638   6.836   3.852   2.856
 4247SOL     OW13639   2.825   4.884   3.208
 4247SOL    HW113640   2.814   4.983   3.207
 4247SOL    HW213641   2.877   4.856   3.126
 4248SOL     OW13642   1.912   1.910   3.763
 4248SOL    HW113643   1.813   1.911   3.769
 4248SOL    HW213644   1.951   1.963   3.839
 4249SOL     OW13645   5.529   2.468   3.896
 4249SOL    HW113646   5.514   2.492   3.800
 4249SOL    HW213647   5.622   2.433   3.908
 4250SOL     OW13648   6.870   5.554   3.392
 4250SOL    HW113649   6.889   5.466   3.436
 4250SOL    HW213650   6.954   5.610   3.391
 4251SOL     OW13651   5.243   4.056   1.260
 4251SOL    HW113652   5.240   4.154   1.279
 4251SOL    HW213653   5.276   4.007   1.341
 4252SOL     OW13654   5.836   6.771   6.551
 4252SOL    HW113655   5.853   6.673   6.557
 4252SOL    HW213656   5.888   6.810   6.475
 4253SOL     OW13657   3.194   6.985   1.159
 4253SOL    HW113658   3.249   6.951   1.083
 4253SOL    HW213659   3.106   7.018   1.125
 4254SOL     OW13660   1.213   3.662   1.999
 4254SOL    HW113661   1.174   3.694   1.912
 4254SOL    HW213662   1.142   3.614   2.051
 4255SOL     OW13663   6.986   3.970   4.106
 4255SOL    HW113664   6.985   3.883   4.155
 4255SOL    HW213665   0.054   3.995   4.084
 4256SOL     OW13666   1.943   6.134   0.742
 4256SOL    HW113667   1.903   6.074   0.811
 4256SOL    HW213668   1.956   6.084   0.657
 4257SOL     OW13669   2.851   0.694   4.351
 4257SOL    HW113670   2.893   0.775   4.392
 4257SOL    HW213671   2.778   0.722   4.290
 4258SOL     OW13672   3.631   6.026   0.625
 4258SOL    HW113673   3.623   6.017   0.724
 4258SOL    HW213674   3.545   6.060   0.588
 4259SOL     OW13675   2.372   0.723   1.000
 4259SOL    HW113676   2.368   0.660   0.922
 4259SOL    HW213677   2.465   0.758   1.010
 4260SOL     OW13678   5.867   0.626   1.554
 4260SOL    HW113679   5.859   0.571   1.637
 4260SOL    HW213680   5.793   0.603   1.491
 4261SOL     OW13681   2.443   0.274   2.626
 4261SOL    HW113682   2.492   0.201   2.578
 4261SOL    HW213683   2.509   0.333   2.672
 4262SOL     OW13684   0.464   4.234   6.295
 4262SOL    HW113685   0.376   4.273   6.321
 4262SOL    HW213686   0.536   4.301   6.311
 4263SOL     OW13687   2.935   0.702   2.516
 4263SOL    HW113688   2.840   0.732   2.526
 4263SOL    HW213689   2.974   0.742   2.434
 4264SOL     OW13690   6.437   1.711   3.449
 4264SOL    HW113691   6.533   1.688   3.463
 4264SOL    HW213692   6.412   1.788   3.507
 4265SOL     OW13693   4.321   1.673   0.794
 4265SOL    HW113694   4.271   1.759   0.803
 4265SOL    HW213695   4.286   1.622   0.715
 4266SOL     OW13696   1.549   5.672   6.152
 4266SOL    HW113697   1.468   5.628   6.113
 4266SOL    HW213698   1.624   5.665   6.087
 4267SOL     OW13699   2.032   4.017   3.732
 4267SOL    HW113700   2.075   4.103   3.758
 4267SOL    HW213701   1.935   4.032   3.714
 4268SOL     OW13702   1.028   5.640   6.433
 4268SOL    HW113703   1.062   5.686   6.351
 4268SOL    HW213704   0.933   5.614   6.419
 4269SOL     OW13705   2.658   0.764   2.600
 4269SOL    HW113706   2.562   0.755   2.576
 4269SOL    HW213707   2.691   0.854   2.572
 4270SOL     OW13708   4.121   3.688   3.348
 4270SOL    HW113709   4.126   3.612   3.283
 4270SOL    HW213710   4.104   3.773   3.298
 4271SOL     OW13711   6.651   1.152   6.908
 4271SOL    HW113712   6.645   1.241   6.954
 4271SOL    HW213713   6.746   1.134   6.882
 4272SOL     OW13714   6.666   2.284   4.502
 4272SOL    HW113715   6.671   2.223   4.423
 4272SOL    HW213716   6.720   2.247   4.577
 4273SOL     OW13717   4.659   6.901   4.970
 4273SOL    HW113718   4.694   6.831   4.907
 4273SOL    HW213719   4.580   6.945   4.929
 4274SOL     OW13720   0.980   6.935   1.652
 4274SOL    HW113721   0.934   6.855   1.612
 4274SOL    HW213722   1.079   6.924   1.645
 4275SOL     OW13723   6.414   2.303   4.639
 4275SOL    HW113724   6.480   2.323   4.567
 4275SOL    HW213725   6.461   2.294   4.727
 4276SOL     OW13726   1.980   5.581   3.948
 4276SOL    HW113727   2.023   5.549   3.864
 4276SOL    HW213728   1.881   5.585   3.936
 4277SOL     OW13729   6.265   4.797   3.299
 4277SOL    HW113730   6.328   4.805   3.376
 4277SOL    HW213731   6.183   4.851   3.316
 4278SOL     OW13732   6.890   6.818   5.218
 4278SOL    HW113733   6.870   6.907   5.260
 4278SOL    HW213734   6.938   6.832   5.132
 4279SOL     OW13735   3.652   1.053   3.927
 4279SOL    HW113736   3.679   0.957   3.919
 4279SOL    HW213737   3.640   1.075   4.024
 4280SOL     OW13738   4.997   0.668   6.425
 4280SOL    HW113739   4.927   0.699   6.361
 4280SOL    HW213740   4.958   0.662   6.517
 4281SOL     OW13741   6.851   4.166   3.312
 4281SOL    HW113742   6.782   4.158   3.239
 4281SOL    HW213743   6.806   4.197   3.396
 4282SOL     OW13744   3.736   4.295   6.059
 4282SOL    HW113745   3.804   4.334   5.997
 4282SOL    HW213746   3.734   4.196   6.049
 4283SOL     OW13747   1.840   0.793   2.814
 4283SOL    HW113748   1.877   0.700   2.816
 4283SOL    HW213749   1.773   0.800   2.740
 4284SOL     OW13750   4.391   4.845   1.269
 4284SOL    HW113751   4.372   4.757   1.226
 4284SOL    HW213752   4.342   4.918   1.220
 4285SOL     OW13753   1.741   0.571   5.500
 4285SOL    HW113754   1.697   0.508   5.564
 4285SOL    HW213755   1.791   0.641   5.551
 4286SOL     OW13756   5.081   6.606   5.785
 4286SOL    HW113757   5.165   6.555   5.797
 4286SOL    HW213758   5.067   6.668   5.863
 4287SOL     OW13759   5.916   0.913   5.694
 4287SOL    HW113760   5.853   0.902   5.771
 4287SOL    HW213761   5.939   1.010   5.683
 4288SOL     OW13762   0.610   5.695   3.899
 4288SOL    HW113763   0.632   5.645   3.816
 4288SOL    HW213764   0.636   5.791   3.889
 4289SOL     OW13765   0.171   3.041   6.342
 4289SOL    HW113766   0.118   2.970   6.389
 4289SOL    HW213767   0.232   3.085   6.408
 4290SOL     OW13768   1.307   6.174   3.790
 4290SOL    HW113769   1.209   6.161   3.800
 4290SOL    HW213770   1.330   6.184   3.693
 4291SOL     OW13771   4.888   3.393   0.433
 4291SOL    HW113772   4.979   3.432   0.417
 4291SOL    HW213773   4.819   3.447   0.385
 4292SOL     OW13774   5.473   2.909   0.198
 4292SOL    HW113775   5.450   2.903   0.296
 4292SOL    HW213776   5.500   2.818   0.165
 4293SOL     OW13777   2.849   2.444   6.733
 4293SOL    HW113778   2.849   2.495   6.647
 4293SOL    HW213779   2.768   2.470   6.787
 4294SOL     OW13780   2.082   2.268   6.868
 4294SOL    HW113781   2.062   2.286   6.964
 4294SOL    HW213782   2.164   2.212   6.861
 4295SOL     OW13783   3.988   5.563   4.992
 4295SOL    HW113784   3.914   5.605   5.045
 4295SOL    HW213785   3.951   5.491   4.933
 4296SOL     OW13786   3.299   6.825   0.703
 4296SOL    HW113787   3.359   6.856   0.630
 4296SOL    HW213788   3.228   6.766   0.665
 4297SOL     OW13789   5.078   6.886   0.229
 4297SOL    HW113790   5.139   6.923   0.298
 4297SOL    HW213791   5.022   6.813   0.269
 4298SOL     OW13792   3.776   5.038   0.490
 4298SOL    HW113793   3.808   5.132   0.504
 4298SOL    HW213794   3.827   4.976   0.549
 4299SOL     OW13795   1.391   3.284   6.649
 4299SOL    HW113796   1.367   3.245   6.561
 4299SOL    HW213797   1.375   3.383   6.648
 4300SOL     OW13798   3.327   6.693   0.227
 4300SOL    HW113799   3.326   6.595   0.247
 4300SOL    HW213800   3.419   6.721   0.202
 4301SOL     OW13801   4.043   1.003   1.675
 4301SOL    HW113802   3.984   0.923   1.674
 4301SOL    HW213803   4.097   1.006   1.591
 4302SOL     OW13804   0.965   0.302   6.321
 4302SOL    HW113805   1.005   0.316   6.231
 4302SOL    HW213806   0.918   0.386   6.350
 4303SOL     OW13807   6.789   4.566   4.139
 4303SOL    HW113808   6.881   4.605   4.138
 4303SOL    HW213809   6.724   4.636   4.170
 4304SOL     OW13810   3.107   3.940   2.435
 4304SOL    HW113811   3.074   4.011   2.372
 4304SOL    HW213812   3.155   3.984   2.512
 4305SOL     OW13813   0.214   0.040   5.463
 4305SOL    HW113814   0.139   7.007   5.489
 4305SOL    HW213815   0.198   0.077   5.372
 4306SOL     OW13816   5.093   5.076   5.519
 4306SOL    HW113817   5.010   5.102   5.470
 4306SOL    HW213818   5.143   5.158   5.545
 4307SOL     OW13819   5.578   3.981   6.061
 4307SOL    HW113820   5.502   4.045   6.070
 4307SOL    HW213821   5.599   3.965   5.965
 4308SOL     OW13822   5.813   4.560   1.092
 4308SOL    HW113823   5.830   4.612   1.176
 4308SOL    HW213824   5.760   4.617   1.029
 4309SOL     OW13825   0.752   1.136   6.768
 4309SOL    HW113826   0.756   1.104   6.862
 4309SOL    HW213827   0.721   1.232   6.766
 4310SOL     OW13828   2.184   2.863   2.085
 4310SOL    HW113829   2.158   2.948   2.130
 4310SOL    HW213830   2.244   2.811   2.147
 4311SOL     OW13831   1.890   6.244   2.695
 4311SOL    HW113832   1.840   6.329   2.708
 4311SOL    HW213833   1.950   6.253   2.616
 4312SOL     OW13834   1.959   5.823   1.597
 4312SOL    HW113835   2.033   5.771   1.555
 4312SOL    HW213836   1.994   5.911   1.629
 4313SOL     OW13837   4.448   1.481   1.331
 4313SOL    HW113838   4.411   1.574   1.319
 4313SOL    HW213839   4.388   1.430   1.392
 4314SOL     OW13840   5.854   1.646   4.581
 4314SOL    HW113841   5.787   1.574   4.560
 4314SOL    HW213842   5.853   1.715   4.508
 4315SOL     OW13843   2.611   6.042   2.315
 4315SOL    HW113844   2.694   6.010   2.270
 4315SOL    HW213845   2.611   6.142   2.318
 4316SOL     OW13846   5.374   1.099   1.727
 4316SOL    HW113847   5.401   1.195   1.715
 4316SOL    HW213848   5.368   1.055   1.638
 4317SOL     OW13849   5.144   2.564   4.931
 4317SOL    HW113850   5.146   2.515   4.844
 4317SOL    HW213851   5.118   2.659   4.915
 4318SOL     OW13852   0.257   2.498   4.661
 4318SOL    HW113853   0.192   2.573   4.647
 4318SOL    HW213854   0.220   2.433   4.727
 4319SOL     OW13855   1.852   1.235   0.489
 4319SOL    HW113856   1.911   1.221   0.409
 4319SOL    HW213857   1.757   1.216   0.465
 4320SOL     OW13858   4.927   4.830   0.416
 4320SOL    HW113859   4.933   4.927   0.394
 4320SOL    HW213860   4.997   4.779   0.367
 4321SOL     OW13861   6.790   6.243   5.320
 4321SOL    HW113862   6.704   6.212   5.280
 4321SOL    HW213863   6.850   6.278   5.248
 4322SOL     OW13864   6.062   2.975   6.980
 4322SOL    HW113865   6.154   2.988   7.018
 4322SOL    HW213866   6.052   2.882   6.947
 4323SOL     OW13867   4.801   4.128   0.272
 4323SOL    HW113868   4.710   4.090   0.286
 4323SOL    HW213869   4.840   4.090   0.189
 4324SOL     OW13870   5.668   3.780   6.745
 4324SOL    HW113871   5.658   3.803   6.842
 4324SOL    HW213872   5.764   3.792   6.719
 4325SOL     OW13873   2.011   1.320   1.583
 4325SOL    HW113874   2.085   1.267   1.542
 4325SOL    HW213875   1.923   1.278   1.562
 4326SOL     OW13876   4.645   4.946   3.787
 4326SOL    HW113877   4.683   5.005   3.716
 4326SOL    HW213878   4.656   4.989   3.877
 4327SOL     OW13879   5.811   6.134   1.612
 4327SOL    HW113880   5.794   6.051   1.560
 4327SOL    HW213881   5.725   6.183   1.626
 4328SOL     OW13882   4.418   3.976   5.686
 4328SOL    HW113883   4.476   3.924   5.623
 4328SOL    HW213884   4.342   4.016   5.637
 4329SOL     OW13885   4.931   2.241   5.496
 4329SOL    HW113886   4.864   2.192   5.551
 4329SOL    HW213887   4.895   2.329   5.468
 4330SOL     OW13888   2.274   6.328   4.324
 4330SOL    HW113889   2.236   6.237   4.338
 4330SOL    HW213890   2.374   6.324   4.333
 4331SOL     OW13891   5.612   1.566   2.101
 4331SOL    HW113892   5.520   1.531   2.116
 4331SOL    HW213893   5.669   1.494   2.060
 4332SOL     OW13894   4.875   3.237   2.188
 4332SOL    HW113895   4.830   3.157   2.150
 4332SOL    HW213896   4.962   3.253   2.140
 4333SOL     OW13897   4.072   1.086   5.829
 4333SOL    HW113898   4.000   1.032   5.785
 4333SOL    HW213899   4.030   1.154   5.889
 4334SOL     OW13900   1.798   2.029   2.684
 4334SOL    HW113901   1.721   2.041   2.621
 4334SOL    HW213902   1.824   2.118   2.723
 4335SOL     OW13903   3.309   4.086   2.611
 4335SOL    HW113904   3.339   4.122   2.699
 4335SOL    HW213905   3.386   4.089   2.546
 4336SOL     OW13906   3.431   6.265   5.941
 4336SOL    HW113907   3.457   6.342   5.882
 4336SOL    HW213908   3.351   6.219   5.902
 4337SOL     OW13909   0.964   4.483   0.422
 4337SOL    HW113910   1.020   4.565   0.411
 4337SOL    HW213911   0.972   4.449   0.515
 4338SOL     OW13912   6.390   0.003   5.833
 4338SOL    HW113913   6.314   0.067   5.846
 4338SOL    HW213914   6.476   0.048   5.858
 4339SOL     OW13915   4.762   3.402   5.725
 4339SOL    HW113916   4.697   3.478   5.736
 4339SOL    HW213917   4.831   3.426   5.657
 4340SOL     OW13918   6.304   3.634   1.793
 4340SOL    HW113919   6.299   3.634   1.893
 4340SOL    HW213920   6.213   3.616   1.755
 4341SOL     OW13921   0.613   4.842   1.845
 4341SOL    HW113922   0.693   4.832   1.905
 4341SOL    HW213923   0.622   4.781   1.767
 4342SOL     OW13924   5.401   3.760   3.777
 4342SOL    HW113925   5.313   3.806   3.783
 4342SOL    HW213926   5.461   3.792   3.851
 4343SOL     OW13927   2.674   5.895   5.248
 4343SOL    HW113928   2.733   5.844   5.186
 4343SOL    HW213929   2.589   5.845   5.263
 4344SOL     OW13930   0.137   3.992   1.939
 4344SOL    HW113931   0.046   3.987   1.897
 4344SOL    HW213932   0.188   3.909   1.919
 4345SOL     OW13933   3.685   4.034   5.107
 4345SOL    HW113934   3.605   4.057   5.163
 4345SOL    HW213935   3.666   4.054   5.011
 4346SOL     OW13936   1.695   3.219   2.843
 4346SOL    HW113937   1.763   3.153   2.810
 4346SOL    HW213938   1.698   3.302   2.787
 4347SOL     OW13939   6.319   6.488   2.924
 4347SOL    HW113940   6.374   6.417   2.969
 4347SOL    HW213941   6.373   6.529   2.850
 4348SOL     OW13942   7.026   5.271   3.782
 4348SOL    HW113943   6.944   5.300   3.733
 4348SOL    HW213944   7.012   5.179   3.818
 4349SOL     OW13945   5.385   1.732   2.908
 4349SOL    HW113946   5.376   1.635   2.890
 4349SOL    HW213947   5.456   1.771   2.849
 4350SOL     OW13948   3.667   1.710   3.844
 4350SOL    HW113949   3.603   1.708   3.920
 4350SOL    HW213950   3.760   1.695   3.877
 4351SOL     OW13951   1.569   5.577   0.730
 4351SOL    HW113952   1.646   5.639   0.719
 4351SOL    HW213953   1.516   5.602   0.810
 4352SOL     OW13954   6.427   3.842   2.638
 4352SOL    HW113955   6.481   3.785   2.700
 4352SOL    HW213956   6.484   3.872   2.562
 4353SOL     OW13957   4.135   2.891   6.701
 4353SOL    HW113958   4.077   2.826   6.651
 4353SOL    HW213959   4.198   2.840   6.760
 4354SOL     OW13960   1.999   0.658   5.910
 4354SOL    HW113961   1.951   0.723   5.851
 4354SOL    HW213962   2.016   0.573   5.860
 4355SOL     OW13963   2.465   6.856   2.571
 4355SOL    HW113964   2.530   6.781   2.555
 4355SOL    HW213965   2.425   6.847   2.662
 4356SOL     OW13966   5.520   3.604   0.083
 4356SOL    HW113967   5.500   3.528   0.022
 4356SOL    HW213968   5.599   3.581   0.139
 4357SOL     OW13969   6.161   1.005   1.300
 4357SOL    HW113970   6.091   0.947   1.258
 4357SOL    HW213971   6.232   1.026   1.233
 4358SOL     OW13972   0.151   0.966   0.519
 4358SOL    HW113973   0.132   0.870   0.544
 4358SOL    HW213974   0.249   0.984   0.531
 4359SOL     OW13975   1.698   1.523   5.973
 4359SOL    HW113976   1.658   1.477   5.893
 4359SOL    HW213977   1.629   1.583   6.015
 4360SOL     OW13978   1.460   3.314   3.417
 4360SOL    HW113979   1.511   3.232   3.388
 4360SOL    HW213980   1.524   3.381   3.453
 4361SOL     OW13981   2.120   3.497   1.394
 4361SOL    HW113982   2.201   3.551   1.417
 4361SOL    HW213983   2.140   3.400   1.409
 4362SOL     OW13984   6.470   5.160   3.625
 4362SOL    HW113985   6.533   5.123   3.693
 4362SOL    HW213986   6.406   5.088   3.597
 4363SOL     OW13987   5.673   2.385   1.032
 4363SOL    HW113988   5.762   2.343   1.048
 4363SOL    HW213989   5.602   2.329   1.076
 4364SOL     OW13990   2.999   3.949   4.216
 4364SOL    HW113991   3.089   3.991   4.229
 4364SOL    HW213992   2.932   4.019   4.193
 4365SOL     OW13993   2.889   0.601   1.978
 4365SOL    HW113994   2.835   0.563   1.902
 4365SOL    HW213995   2.836   0.671   2.025
 4366SOL     OW13996   5.739   0.384   6.829
 4366SOL    HW113997   5.775   0.312   6.888
 4366SOL    HW213998   5.780   0.472   6.853
 4367SOL     OW13999   2.416   4.370   4.433
 4367SOL    HW114000   2.445   4.455   4.388
 4367SOL    HW214001   2.385   4.304   4.364
 4368SOL     OW14002   3.543   5.391   0.264
 4368SOL    HW114003   3.508   5.297   0.255
 4368SOL    HW214004   3.476   5.455   0.228
 4369SOL     OW14005   4.661   5.477   3.072
 4369SOL    HW114006   4.719   5.527   3.007
 4369SOL    HW214007   4.615   5.402   3.026
 4370SOL     OW14008   3.557   4.847   1.324
 4370SOL    HW114009   3.650   4.881   1.321
 4370SOL    HW214010   3.499   4.903   1.265
 4371SOL     OW14011   0.842   1.996   2.451
 4371SOL    HW114012   0.879   2.047   2.373
 4371SOL    HW214013   0.878   1.903   2.450
 4372SOL     OW14014   2.438   2.153   3.033
 4372SOL    HW114015   2.454   2.101   3.117
 4372SOL    HW214016   2.345   2.190   3.034
 4373SOL     OW14017   5.747   1.404   0.275
 4373SOL    HW114018   5.757   1.305   0.263
 4373SOL    HW214019   5.712   1.444   0.190
 4374SOL     OW14020   0.639   1.624   0.713
 4374SOL    HW114021   0.542   1.633   0.689
 4374SOL    HW214022   0.665   1.696   0.776
 4375SOL     OW14023   4.577   6.640   3.158
 4375SOL    HW114024   4.614   6.731   3.176
 4375SOL    HW214025   4.478   6.640   3.173
 4376SOL     OW14026   6.447   6.829   2.976
 4376SOL    HW114027   6.468   6.923   2.949
 4376SOL    HW214028   6.370   6.795   2.923
 4377SOL     OW14029   5.854   4.955   0.152
 4377SOL    HW114030   5.833   5.027   0.219
 4377SOL    HW214031   5.783   4.955   0.081
 4378SOL     OW14032   2.153   2.911   2.493
 4378SOL    HW114033   2.176   2.921   2.590
 4378SOL    HW214034   2.189   2.989   2.442
 4379SOL     OW14035   2.156   2.612   2.519
 4379SOL    HW114036   2.165   2.708   2.495
 4379SOL    HW214037   2.060   2.592   2.543
 4380SOL     OW14038   1.011   6.975   3.199
 4380SOL    HW114039   1.075   6.913   3.153
 4380SOL    HW214040   1.055   0.038   3.210
 4381SOL     OW14041   1.753   4.076   5.636
 4381SOL    HW114042   1.796   3.987   5.652
 4381SOL    HW214043   1.780   4.110   5.546
 4382SOL     OW14044   5.945   3.626   6.040
 4382SOL    HW114045   5.882   3.585   6.106
 4382SOL    HW214046   6.007   3.687   6.088
 4383SOL     OW14047   0.876   2.251   5.941
 4383SOL    HW114048   0.808   2.179   5.928
 4383SOL    HW214049   0.887   2.302   5.856
 4384SOL     OW14050   6.319   2.281   5.880
 4384SOL    HW114051   6.299   2.327   5.794
 4384SOL    HW214052   6.313   2.346   5.955
 4385SOL     OW14053   5.953   2.772   5.335
 4385SOL    HW114054   5.979   2.677   5.322
 4385SOL    HW214055   5.992   2.829   5.262
 4386SOL     OW14056   2.080   3.542   0.072
 4386SOL    HW114057   2.092   3.456   0.122
 4386SOL    HW214058   2.017   3.602   0.122
 4387SOL     OW14059   6.825   1.520   1.407
 4387SOL    HW114060   6.730   1.503   1.381
 4387SOL    HW214061   6.850   1.459   1.483
 4388SOL     OW14062   5.121   1.794   6.321
 4388SOL    HW114063   5.046   1.853   6.350
 4388SOL    HW214064   5.158   1.826   6.234
 4389SOL     OW14065   0.561   3.514   0.708
 4389SOL    HW114066   0.540   3.417   0.725
 4389SOL    HW214067   0.476   3.564   0.691
 4390SOL     OW14068   3.849   1.173   1.335
 4390SOL    HW114069   3.915   1.206   1.268
 4390SOL    HW214070   3.832   1.076   1.319
 4391SOL     OW14071   1.915   5.816   0.038
 4391SOL    HW114072   1.872   5.835   6.976
 4391SOL    HW214073   1.986   5.747   0.025
 4392SOL     OW14074   6.928   3.716   5.733
 4392SOL    HW114075   6.862   3.664   5.788
 4392SOL    HW214076   6.924   3.813   5.758
 4393SOL     OW14077   6.012   0.464   2.132
 4393SOL    HW114078   5.971   0.555   2.133
 4393SOL    HW214079   5.985   0.415   2.215
 4394SOL     OW14080   5.882   6.099   2.523
 4394SOL    HW114081   5.859   6.158   2.601
 4394SOL    HW214082   5.963   6.135   2.477
 4395SOL     OW14083   3.163   6.782   1.940
 4395SOL    HW114084   3.189   6.784   2.036
 4395SOL    HW214085   3.143   6.687   1.913
 4396SOL     OW14086   1.948   2.099   4.015
 4396SOL    HW114087   1.865   2.151   3.994
 4396SOL    HW214088   1.980   2.122   4.106
 4397SOL     OW14089   0.586   0.813   4.587
 4397SOL    HW114090   0.550   0.891   4.636
 4397SOL    HW214091   0.552   0.728   4.628
 4398SOL     OW14092   0.835   4.199   5.445
 4398SOL    HW114093   0.854   4.154   5.358
 4398SOL    HW214094   0.737   4.218   5.452
 4399SOL     OW14095   1.978   0.707   1.534
 4399SOL    HW114096   2.019   0.797   1.551
 4399SOL    HW214097   2.007   0.643   1.605
 4400SOL     OW14098   3.542   6.925   5.702
 4400SOL    HW114099   3.635   6.940   5.736
 4400SOL    HW214100   3.489   7.009   5.715
 4401SOL     OW14101   4.500   6.981   6.462
 4401SOL    HW114102   4.429   0.025   6.456
 4401SOL    HW214103   4.463   6.894   6.430
 4402SOL     OW14104   2.605   0.196   1.940
 4402SOL    HW114105   2.695   0.170   1.904
 4402SOL    HW214106   2.585   0.291   1.914
 4403SOL     OW14107   0.861   0.257   2.920
 4403SOL    HW114108   0.824   0.232   2.830
 4403SOL    HW214109   0.844   0.183   2.985
 4404SOL     OW14110   0.291   4.800   6.099
 4404SOL    HW114111   0.389   4.782   6.088
 4404SOL    HW214112   0.277   4.887   6.145
 4405SOL     OW14113   1.791   4.301   1.225
 4405SOL    HW114114   1.820   4.392   1.257
 4405SOL    HW214115   1.842   4.277   1.142
 4406SOL     OW14116   6.904   3.826   0.746
 4406SOL    HW114117   6.931   3.807   0.652
 4406SOL    HW214118   6.839   3.756   0.777
 4407SOL     OW14119   6.466   4.717   0.661
 4407SOL    HW114120   6.415   4.716   0.575
 4407SOL    HW214121   6.412   4.673   0.732
 4408SOL     OW14122   3.516   0.901   1.715
 4408SOL    HW114123   3.547   0.915   1.621
 4408SOL    HW214124   3.483   0.988   1.752
 4409SOL     OW14125   4.993   0.770   2.402
 4409SOL    HW114126   4.927   0.796   2.472
 4409SOL    HW214127   4.945   0.740   2.320
 4410SOL     OW14128   1.106   5.336   6.577
 4410SOL    HW114129   1.124   5.425   6.537
 4410SOL    HW214130   1.073   5.348   6.671
 4411SOL     OW14131   3.897   4.023   4.224
 4411SOL    HW114132   3.937   4.115   4.219
 4411SOL    HW214133   3.971   3.955   4.221
 4412SOL     OW14134   4.390   6.584   4.944
 4412SOL    HW114135   4.458   6.510   4.949
 4412SOL    HW214136   4.371   6.605   4.848
 4413SOL     OW14137   6.584   5.267   4.107
 4413SOL    HW114138   6.505   5.212   4.081
 4413SOL    HW214139   6.626   5.227   4.189
 4414SOL     OW14140   3.453   4.556   1.018
 4414SOL    HW114141   3.400   4.471   1.016
 4414SOL    HW214142   3.471   4.582   1.113
 4415SOL     OW14143   3.872   3.010   0.668
 4415SOL    HW114144   3.781   3.049   0.682
 4415SOL    HW214145   3.865   2.926   0.613
 4416SOL     OW14146   2.839   0.619   3.574
 4416SOL    HW114147   2.834   0.530   3.528
 4416SOL    HW214148   2.908   0.676   3.531
 4417SOL     OW14149   6.033   4.390   3.190
 4417SOL    HW114150   5.973   4.316   3.158
 4417SOL    HW214151   5.978   4.467   3.221
 4418SOL     OW14152   5.717   1.912   2.329
 4418SOL    HW114153   5.672   1.949   2.248
 4418SOL    HW214154   5.694   1.815   2.339
 4419SOL     OW14155   6.049   6.305   6.381
 4419SOL    HW114156   5.994   6.222   6.391
 4419SOL    HW214157   6.071   6.319   6.284
 4420SOL     OW14158   5.375   1.108   1.986
 4420SOL    HW114159   5.369   1.089   1.888
 4420SOL    HW214160   5.284   1.104   2.026
 4421SOL     OW14161   1.979   0.768   5.199
 4421SOL    HW114162   1.917   0.840   5.229
 4421SOL    HW214163   1.946   0.731   5.111
 4422SOL     OW14164   2.626   3.849   6.962
 4422SOL    HW114165   2.560   3.833   0.009
 4422SOL    HW214166   2.658   3.762   6.925
 4423SOL     OW14167   0.486   2.959   5.859
 4423SOL    HW114168   0.435   2.994   5.937
 4423SOL    HW214169   0.575   3.005   5.854
 4424SOL     OW14170   5.574   0.938   4.697
 4424SOL    HW114171   5.586   0.842   4.723
 4424SOL    HW214172   5.634   0.995   4.753
 4425SOL     OW14173   2.981   4.611   0.404
 4425SOL    HW114174   2.929   4.673   0.463
 4425SOL    HW214175   3.074   4.646   0.393
 4426SOL     OW14176   0.158   0.869   4.498
 4426SOL    HW114177   0.223   0.823   4.438
 4426SOL    HW214178   0.154   0.967   4.476
 4427SOL     OW14179   0.417   6.367   2.200
 4427SOL    HW114180   0.382   6.448   2.153
 4427SOL    HW214181   0.481   6.319   2.140
 4428SOL     OW14182   3.549   0.011   2.473
 4428SOL    HW114183   3.599   6.989   2.401
 4428SOL    HW214184   3.594   0.098   2.492
 4429SOL     OW14185   2.640   6.566   2.785
 4429SOL    HW114186   2.562   6.533   2.838
 4429SOL    HW214187   2.668   6.656   2.819
 4430SOL     OW14188   4.844   4.053   4.790
 4430SOL    HW114189   4.914   4.074   4.859
 4430SOL    HW214190   4.790   4.135   4.772
 4431SOL     OW14191   2.187   1.130   1.874
 4431SOL    HW114192   2.244   1.209   1.850
 4431SOL    HW214193   2.240   1.064   1.926
 4432SOL     OW14194   3.090   3.766   5.557
 4432SOL    HW114195   3.000   3.753   5.516
 4432SOL    HW214196   3.160   3.760   5.485
 4433SOL     OW14197   4.623   1.552   4.765
 4433SOL    HW114198   4.569   1.476   4.802
 4433SOL    HW214199   4.638   1.537   4.667
 4434SOL     OW14200   4.976   1.799   4.029
 4434SOL    HW114201   4.942   1.717   3.982
 4434SOL    HW214202   5.018   1.772   4.116
 4435SOL     OW14203   5.188   3.394   1.447
 4435SOL    HW114204   5.132   3.470   1.414
 4435SOL    HW214205   5.267   3.430   1.498
 4436SOL     OW14206   4.692   0.912   0.715
 4436SOL    HW114207   4.598   0.877   0.713
 4436SOL    HW214208   4.734   0.889   0.803
 4437SOL     OW14209   5.921   2.400   3.074
 4437SOL    HW114210   5.835   2.421   3.119
 4437SOL    HW214211   5.912   2.314   3.023
 4438SOL     OW14212   5.403   0.569   7.019
 4438SOL    HW114213   5.466   0.620   0.051
 4438SOL    HW214214   5.329   0.531   0.049
 4439SOL     OW14215   0.476   4.897   2.173
 4439SOL    HW114216   0.512   4.939   2.090
 4439SOL    HW214217   0.451   4.802   2.155
 4440SOL     OW14218   2.671   4.925   0.426
 4440SOL    HW114219   2.622   4.970   0.500
 4440SOL    HW214220   2.610   4.861   0.378
 4441SOL     OW14221   6.927   1.435   2.669
 4441SOL    HW114222   6.899   1.372   2.742
 4441SOL    HW214223   6.921   1.388   2.581
 4442SOL     OW14224   2.706   5.733   4.266
 4442SOL    HW114225   2.709   5.669   4.342
 4442SOL    HW214226   2.800   5.759   4.241
 4443SOL     OW14227   0.195   3.104   0.555
 4443SOL    HW114228   0.138   3.186   0.543
 4443SOL    HW214229   0.287   3.132   0.581
 4444SOL     OW14230   3.223   4.540   5.441
 4444SOL    HW114231   3.177   4.480   5.376
 4444SOL    HW214232   3.167   4.549   5.524
 4445SOL     OW14233   1.146   6.699   0.924
 4445SOL    HW114234   1.229   6.755   0.931
 4445SOL    HW214235   1.071   6.745   0.971
 4446SOL     OW14236   5.674   0.752   2.026
 4446SOL    HW114237   5.662   0.830   2.087
 4446SOL    HW214238   5.586   0.729   1.984
 4447SOL     OW14239   5.432   3.741   6.161
 4447SOL    HW114240   5.460   3.833   6.133
 4447SOL    HW214241   5.513   3.690   6.190
 4448SOL     OW14242   2.658   3.847   1.587
 4448SOL    HW114243   2.607   3.908   1.526
 4448SOL    HW214244   2.597   3.777   1.623
 4449SOL     OW14245   5.632   0.692   6.127
 4449SOL    HW114246   5.593   0.623   6.065
 4449SOL    HW214247   5.576   0.697   6.210
 4450SOL     OW14248   3.379   3.202   4.924
 4450SOL    HW114249   3.462   3.244   4.960
 4450SOL    HW214250   3.401   3.112   4.885
 4451SOL     OW14251   6.483   4.849   3.126
 4451SOL    HW114252   6.429   4.865   3.209
 4451SOL    HW214253   6.460   4.759   3.089
 4452SOL     OW14254   5.003   6.452   4.437
 4452SOL    HW114255   4.923   6.405   4.475
 4452SOL    HW214256   5.082   6.391   4.442
 4453SOL     OW14257   0.798   2.529   1.511
 4453SOL    HW114258   0.738   2.525   1.591
 4453SOL    HW214259   0.743   2.517   1.428
 4454SOL     OW14260   1.616   2.146   0.639
 4454SOL    HW114261   1.660   2.087   0.707
 4454SOL    HW214262   1.620   2.103   0.549
 4455SOL     OW14263   4.259   6.585   5.812
 4455SOL    HW114264   4.333   6.623   5.867
 4455SOL    HW214265   4.281   6.491   5.786
 4456SOL     OW14266   3.434   5.999   2.072
 4456SOL    HW114267   3.388   5.911   2.059
 4456SOL    HW214268   3.366   6.068   2.097
 4457SOL     OW14269   4.574   1.286   2.422
 4457SOL    HW114270   4.543   1.196   2.392
 4457SOL    HW214271   4.500   1.352   2.413
 4458SOL     OW14272   1.864   2.938   0.117
 4458SOL    HW114273   1.896   3.009   0.054
 4458SOL    HW214274   1.815   2.980   0.193
 4459SOL     OW14275   3.631   1.195   4.974
 4459SOL    HW114276   3.615   1.172   4.878
 4459SOL    HW214277   3.728   1.186   4.995
 4460SOL     OW14278   2.684   2.880   5.877
 4460SOL    HW114279   2.761   2.944   5.872
 4460SOL    HW214280   2.714   2.796   5.923
 4461SOL     OW14281   1.281   0.498   1.177
 4461SOL    HW114282   1.189   0.459   1.184
 4461SOL    HW214283   1.298   0.559   1.255
 4462SOL     OW14284   6.265   4.913   1.550
 4462SOL    HW114285   6.198   4.946   1.483
 4462SOL    HW214286   6.219   4.898   1.637
 4463SOL     OW14287   5.313   2.087   0.014
 4463SOL    HW114288   5.333   1.990   0.030
 4463SOL    HW214289   5.342   2.112   6.948
 4464SOL     OW14290   6.770   5.758   0.825
 4464SOL    HW114291   6.775   5.771   0.924
 4464SOL    HW214292   6.690   5.703   0.801
 4465SOL     OW14293   2.782   5.478   1.384
 4465SOL    HW114294   2.777   5.385   1.420
 4465SOL    HW214295   2.767   5.477   1.285
 4466SOL     OW14296   1.687   1.443   3.468
 4466SOL    HW114297   1.590   1.465   3.476
 4466SOL    HW214298   1.710   1.374   3.537
 4467SOL     OW14299   1.790   6.496   2.716
 4467SOL    HW114300   1.761   6.564   2.648
 4467SOL    HW214301   1.849   6.539   2.784
 4468SOL     OW14302   1.851   3.164   0.505
 4468SOL    HW114303   1.907   3.179   0.587
 4468SOL    HW214304   1.856   3.245   0.447
 4469SOL     OW14305   3.462   0.759   1.317
 4469SOL    HW114306   3.485   0.843   1.366
 4469SOL    HW214307   3.538   0.695   1.322
 4470SOL     OW14308   6.079   2.442   2.210
 4470SOL    HW114309   6.135   2.387   2.272
 4470SOL    HW214310   6.042   2.384   2.137
 4471SOL     OW14311   1.170   2.218   6.626
 4471SOL    HW114312   1.113   2.141   6.654
 4471SOL    HW214313   1.160   2.233   6.528
 4472SOL     OW14314   1.338   3.486   2.642
 4472SOL    HW114315   1.413   3.517   2.584
 4472SOL    HW214316   1.375   3.453   2.729
 4473SOL     OW14317   6.178   2.605   4.965
 4473SOL    HW114318   6.246   2.653   5.021
 4473SOL    HW214319   6.218   2.521   4.929
 4474SOL     OW14320   2.485   0.692   2.042
 4474SOL    HW114321   2.562   0.730   1.992
 4474SOL    HW214322   2.518   0.632   2.115
 4475SOL     OW14323   1.828   3.922   2.883
 4475SOL    HW114324   1.812   3.833   2.925
 4475SOL    HW214325   1.925   3.944   2.886
 4476SOL     OW14326   4.090   0.428   3.082
 4476SOL    HW114327   4.055   0.442   2.990
 4476SOL    HW214328   4.028   0.471   3.148
 4477SOL     OW14329   2.173   6.995   5.152
 4477SOL    HW114330   2.217   6.915   5.192
 4477SOL    HW214331   2.160   6.980   5.054
 4478SOL     OW14332   4.131   6.804   3.029
 4478SOL    HW114333   4.054   6.845   2.980
 4478SOL    HW214334   4.104   6.786   3.123
 4479SOL     OW14335   0.521   1.172   2.005
 4479SOL    HW114336   0.486   1.203   2.093
 4479SOL    HW214337   0.583   1.241   1.968
 4480SOL     OW14338   1.617   3.858   5.088
 4480SOL    HW114339   1.616   3.796   5.166
 4480SOL    HW214340   1.611   3.952   5.120
 4481SOL     OW14341   3.294   6.211   4.817
 4481SOL    HW114342   3.299   6.295   4.870
 4481SOL    HW214343   3.340   6.137   4.867
 4482SOL     OW14344   0.841   2.916   4.557
 4482SOL    HW114345   0.883   2.825   4.556
 4482SOL    HW214346   0.830   2.947   4.651
 4483SOL     OW14347   5.516   2.767   2.224
 4483SOL    HW114348   5.597   2.782   2.280
 4483SOL    HW214349   5.437   2.749   2.283
 4484SOL     OW14350   2.808   2.217   6.345
 4484SOL    HW114351   2.816   2.138   6.284
 4484SOL    HW214352   2.895   2.230   6.394
 4485SOL     OW14353   5.835   1.917   5.164
 4485SOL    HW114354   5.847   1.821   5.137
 4485SOL    HW214355   5.816   1.921   5.263
 4486SOL     OW14356   5.385   4.373   5.097
 4486SOL    HW114357   5.398   4.298   5.161
 4486SOL    HW214358   5.443   4.450   5.123
 4487SOL     OW14359   2.323   2.858   6.256
 4487SOL    HW114360   2.326   2.951   6.220
 4487SOL    HW214361   2.362   2.856   6.348
 4488SOL     OW14362   0.269   3.361   6.319
 4488SOL    HW114363   0.311   3.337   6.231
 4488SOL    HW214364   0.335   3.349   6.392
 4489SOL     OW14365   5.488   5.318   4.539
 4489SOL    HW114366   5.422   5.243   4.531
 4489SOL    HW214367   5.517   5.327   4.634
 4490SOL     OW14368   6.046   3.042   2.587
 4490SOL    HW114369   5.990   2.966   2.553
 4490SOL    HW214370   6.026   3.057   2.684
 4491SOL     OW14371   6.896   2.489   4.653
 4491SOL    HW114372   6.950   2.475   4.737
 4491SOL    HW214373   6.915   2.414   4.589
 4492SOL     OW14374   5.684   4.496   1.510
 4492SOL    HW114375   5.639   4.488   1.599
 4492SOL    HW214376   5.681   4.408   1.463
 4493SOL     OW14377   4.861   5.498   4.997
 4493SOL    HW114378   4.943   5.450   4.965
 4493SOL    HW214379   4.781   5.464   4.947
 4494SOL     OW14380   0.387   1.207   6.715
 4494SOL    HW114381   0.340   1.121   6.733
 4494SOL    HW214382   0.320   1.281   6.707
 4495SOL     OW14383   3.542   6.811   4.512
 4495SOL    HW114384   3.490   6.825   4.427
 4495SOL    HW214385   3.627   6.761   4.491
 4496SOL     OW14386   5.736   6.056   1.156
 4496SOL    HW114387   5.662   6.074   1.221
 4496SOL    HW214388   5.815   6.112   1.180
 4497SOL     OW14389   5.001   1.226   0.309
 4497SOL    HW114390   5.063   1.154   0.340
 4497SOL    HW214391   4.932   1.186   0.248
 4498SOL     OW14392   6.993   4.142   0.514
 4498SOL    HW114393   0.061   4.115   0.534
 4498SOL    HW214394   6.970   4.224   0.566
 4499SOL     OW14395   6.355   3.544   5.167
 4499SOL    HW114396   6.420   3.504   5.232
 4499SOL    HW214397   6.404   3.578   5.087
 4500SOL     OW14398   3.163   3.279   4.398
 4500SOL    HW114399   3.145   3.357   4.459
 4500SOL    HW214400   3.228   3.306   4.328
 4501SOL     OW14401   0.093   3.179   3.346
 4501SOL    HW114402   0.136   3.264   3.314
 4501SOL    HW214403   0.006   3.166   3.298
 4502SOL     OW14404   0.814   3.024   6.797
 4502SOL    HW114405   0.733   2.978   6.834
 4502SOL    HW214406   0.895   2.996   6.849
 4503SOL     OW14407   3.485   0.047   1.537
 4503SOL    HW114408   3.442   7.011   1.472
 4503SOL    HW214409   3.429   0.051   1.621
 4504SOL     OW14410   6.800   1.048   5.216
 4504SOL    HW114411   6.705   1.047   5.247
 4504SOL    HW214412   6.844   1.132   5.247
 4505SOL     OW14413   5.658   5.111   1.738
 4505SOL    HW114414   5.639   5.025   1.785
 4505SOL    HW214415   5.586   5.127   1.670
 4506SOL     OW14416   4.504   2.525   3.512
 4506SOL    HW114417   4.416   2.478   3.526
 4506SOL    HW214418   4.563   2.469   3.454
 4507SOL     OW14419   5.317   4.462   2.752
 4507SOL    HW114420   5.354   4.430   2.665
 4507SOL    HW214421   5.371   4.424   2.827
 4508SOL     OW14422   1.339   5.170   6.535
 4508SOL    HW114423   1.254   5.219   6.556
 4508SOL    HW214424   1.414   5.212   6.585
 4509SOL     OW14425   4.305   2.375   2.794
 4509SOL    HW114426   4.232   2.309   2.807
 4509SOL    HW214427   4.325   2.421   2.881
 4510SOL     OW14428   3.508   1.693   4.078
 4510SOL    HW114429   3.491   1.754   4.156
 4510SOL    HW214430   3.422   1.658   4.043
 4511SOL     OW14431   6.217   3.302   0.347
 4511SOL    HW114432   6.297   3.277   0.402
 4511SOL    HW214433   6.229   3.395   0.313
 4512SOL     OW14434   2.979   1.393   5.551
 4512SOL    HW114435   2.915   1.433   5.484
 4512SOL    HW214436   2.933   1.385   5.640
 4513SOL     OW14437   6.285   5.399   0.501
 4513SOL    HW114438   6.362   5.462   0.499
 4513SOL    HW214439   6.253   5.382   0.408
 4514SOL     OW14440   4.352   1.639   6.366
 4514SOL    HW114441   4.409   1.683   6.296
 4514SOL    HW214442   4.320   1.708   6.430
 4515SOL     OW14443   7.001   1.447   5.878
 4515SOL    HW114444   6.932   1.436   5.949
 4515SOL    HW214445   6.968   1.408   5.792
 4516SOL     OW14446   2.012   0.043   6.823
 4516SOL    HW114447   1.966   7.012   6.890
 4516SOL    HW214448   2.090   0.089   6.866
 4517SOL     OW14449   4.052   1.093   6.919
 4517SOL    HW114450   3.964   1.133   6.895
 4517SOL    HW214451   4.056   1.078   7.018
 4518SOL     OW14452   6.424   0.277   2.942
 4518SOL    HW114453   6.364   0.340   2.893
 4518SOL    HW214454   6.386   0.260   3.033
 4519SOL     OW14455   6.781   0.245   1.316
 4519SOL    HW114456   6.799   0.177   1.244
 4519SOL    HW214457   6.793   0.202   1.406
 4520SOL     OW14458   4.721   6.367   4.514
 4520SOL    HW114459   4.719   6.458   4.556
 4520SOL    HW214460   4.643   6.314   4.547
 4521SOL     OW14461   6.546   1.671   4.218
 4521SOL    HW114462   6.530   1.752   4.275
 4521SOL    HW214463   6.634   1.679   4.172
 4522SOL     OW14464   5.442   5.922   2.932
 4522SOL    HW114465   5.449   5.973   2.846
 4522SOL    HW214466   5.421   5.826   2.913
 4523SOL     OW14467   0.931   4.474   6.996
 4523SOL    HW114468   0.934   4.559   6.943
 4523SOL    HW214469   0.992   4.483   0.049
 4524SOL     OW14470   6.711   2.514   3.075
 4524SOL    HW114471   6.681   2.488   2.983
 4524SOL    HW214472   6.805   2.546   3.071
 4525SOL     OW14473   5.104   1.503   5.792
 4525SOL    HW114474   5.052   1.556   5.725
 4525SOL    HW214475   5.143   1.566   5.860
 4526SOL     OW14476   6.573   0.369   1.012
 4526SOL    HW114477   6.632   0.331   0.940
 4526SOL    HW214478   6.579   0.468   1.011
 4527SOL     OW14479   5.129   1.260   3.919
 4527SOL    HW114480   5.208   1.320   3.930
 4527SOL    HW214481   5.128   1.222   3.826
 4528SOL     OW14482   4.907   0.682   0.696
 4528SOL    HW114483   4.905   0.764   0.639
 4528SOL    HW214484   4.896   0.708   0.792
 4529SOL     OW14485   2.517   0.488   5.405
 4529SOL    HW114486   2.487   0.465   5.498
 4529SOL    HW214487   2.537   0.586   5.400
 4530SOL     OW14488   2.400   5.129   4.917
 4530SOL    HW114489   2.461   5.050   4.909
 4530SOL    HW214490   2.361   5.132   5.009
 4531SOL     OW14491   0.014   3.028   5.038
 4531SOL    HW114492   6.955   3.009   5.086
 4531SOL    HW214493   0.008   2.998   4.943
 4532SOL     OW14494   6.392   1.552   2.752
 4532SOL    HW114495   6.343   1.566   2.838
 4532SOL    HW214496   6.424   1.641   2.718
 4533SOL     OW14497   1.086   1.526   1.842
 4533SOL    HW114498   1.171   1.476   1.824
 4533SOL    HW214499   1.056   1.509   1.936
 4534SOL     OW14500   4.788   4.114   4.064
 4534SOL    HW114501   4.833   4.088   4.150
 4534SOL    HW214502   4.723   4.188   4.081
 4535SOL     OW14503   4.025   0.829   2.706
 4535SOL    HW114504   3.928   0.817   2.688
 4535SOL    HW214505   4.056   0.914   2.664
 4536SOL     OW14506   3.288   1.513   4.131
 4536SOL    HW114507   3.276   1.606   4.165
 4536SOL    HW214508   3.215   1.454   4.167
 4537SOL     OW14509   4.230   3.628   0.330
 4537SOL    HW114510   4.148   3.580   0.299
 4537SOL    HW214511   4.309   3.600   0.276
 4538SOL     OW14512   1.543   0.365   3.063
 4538SOL    HW114513   1.515   0.338   2.971
 4538SOL    HW214514   1.472   0.340   3.128
 4539SOL     OW14515   2.807   6.953   5.061
 4539SOL    HW114516   2.727   6.905   5.025
 4539SOL    HW214517   2.822   6.928   5.156
 4540SOL     OW14518   2.728   2.535   5.576
 4540SOL    HW114519   2.797   2.608   5.575
 4540SOL    HW214520   2.637   2.577   5.579
 4541SOL     OW14521   6.429   1.810   1.095
 4541SOL    HW114522   6.519   1.825   1.135
 4541SOL    HW214523   6.431   1.730   1.036
 4542SOL     OW14524   0.213   1.477   2.243
 4542SOL    HW114525   0.190   1.574   2.235
 4542SOL    HW214526   0.305   1.462   2.208
 4543SOL     OW14527   4.407   2.010   1.882
 4543SOL    HW114528   4.394   1.928   1.826
 4543SOL    HW214529   4.320   2.057   1.893
 4544SOL     OW14530   3.199   6.138   5.839
 4544SOL    HW114531   3.119   6.174   5.791
 4544SOL    HW214532   3.170   6.076   5.912
 4545SOL     OW14533   5.518   3.691   4.471
 4545SOL    HW114534   5.476   3.600   4.462
 4545SOL    HW214535   5.494   3.730   4.560
 4546SOL     OW14536   1.553   1.253   5.443
 4546SOL    HW114537   1.469   1.199   5.446
 4546SOL    HW214538   1.543   1.326   5.376
 4547SOL     OW14539   5.775   2.534   2.572
 4547SOL    HW114540   5.783   2.469   2.497
 4547SOL    HW214541   5.852   2.524   2.635
 4548SOL     OW14542   1.220   3.314   3.934
 4548SOL    HW114543   1.288   3.387   3.924
 4548SOL    HW214544   1.164   3.332   4.015
 4549SOL     OW14545   6.733   3.775   1.621
 4549SOL    HW114546   6.665   3.834   1.665
 4549SOL    HW214547   6.746   3.805   1.526
 4550SOL     OW14548   1.031   4.718   3.209
 4550SOL    HW114549   1.067   4.811   3.217
 4550SOL    HW214550   1.042   4.670   3.296
 4551SOL     OW14551   0.270   2.817   4.889
 4551SOL    HW114552   0.275   2.829   4.988
 4551SOL    HW214553   0.183   2.854   4.856
 4552SOL     OW14554   6.244   3.230   1.960
 4552SOL    HW114555   6.201   3.286   2.030
 4552SOL    HW214556   6.202   3.248   1.872
 4553SOL     OW14557   3.256   4.711   6.444
 4553SOL    HW114558   3.238   4.757   6.531
 4553SOL    HW214559   3.311   4.771   6.385
 4554SOL     OW14560   6.034   0.150   1.565
 4554SOL    HW114561   6.055   0.094   1.485
 4554SOL    HW214562   6.064   0.244   1.549
 4555SOL     OW14563   2.482   2.666   6.089
 4555SOL    HW114564   2.434   2.715   6.017
 4555SOL    HW214565   2.464   2.709   6.177
 4556SOL     OW14566   5.584   3.051   4.314
 4556SOL    HW114567   5.498   3.056   4.263
 4556SOL    HW214568   5.638   3.133   4.295
 4557SOL     OW14569   4.862   6.312   5.491
 4557SOL    HW114570   4.952   6.336   5.455
 4557SOL    HW214571   4.870   6.288   5.588
 4558SOL     OW14572   0.183   4.401   5.172
 4558SOL    HW114573   0.242   4.323   5.151
 4558SOL    HW214574   0.115   4.373   5.240
 4559SOL     OW14575   0.393   4.113   1.896
 4559SOL    HW114576   0.405   4.055   1.815
 4559SOL    HW214577   0.303   4.096   1.935
 4560SOL     OW14578   5.219   4.340   1.368
 4560SOL    HW114579   5.202   4.356   1.465
 4560SOL    HW214580   5.226   4.427   1.321
 4561SOL     OW14581   2.056   1.954   2.678
 4561SOL    HW114582   2.059   1.859   2.645
 4561SOL    HW214583   1.961   1.983   2.688
 4562SOL     OW14584   2.517   6.161   5.627
 4562SOL    HW114585   2.582   6.090   5.654
 4562SOL    HW214586   2.493   6.217   5.706
 4563SOL     OW14587   0.102   2.975   1.355
 4563SOL    HW114588   0.066   3.036   1.285
 4563SOL    HW214589   0.040   2.973   1.433
 4564SOL     OW14590   6.720   6.028   1.680
 4564SOL    HW114591   6.733   5.994   1.587
 4564SOL    HW214592   6.808   6.038   1.725
 4565SOL     OW14593   0.830   1.006   4.796
 4565SOL    HW114594   0.792   0.915   4.810
 4565SOL    HW214595   0.929   0.999   4.781
 4566SOL     OW14596   6.637   3.034   0.067
 4566SOL    HW114597   6.581   2.974   0.011
 4566SOL    HW214598   6.710   2.981   0.111
 4567SOL     OW14599   6.325   0.612   6.868
 4567SOL    HW114600   6.412   0.605   6.820
 4567SOL    HW214601   6.339   0.657   6.956
 4568SOL     OW14602   2.913   4.052   5.908
 4568SOL    HW114603   2.938   4.127   5.846
 4568SOL    HW214604   2.836   4.079   5.965
 4569SOL     OW14605   1.982   1.580   2.842
 4569SOL    HW114606   1.945   1.637   2.769
 4569SOL    HW214607   2.037   1.637   2.904
 4570SOL     OW14608   0.898   6.556   3.265
 4570SOL    HW114609   0.955   6.635   3.286
 4570SOL    HW214610   0.933   6.475   3.312
 4571SOL     OW14611   4.061   4.274   6.396
 4571SOL    HW114612   4.075   4.359   6.446
 4571SOL    HW214613   4.100   4.198   6.448
 4572SOL     OW14614   1.920   0.313   6.468
 4572SOL    HW114615   1.838   0.298   6.412
 4572SOL    HW214616   1.898   0.295   6.564
 4573SOL     OW14617   6.360   1.281   0.165
 4573SOL    HW114618   6.434   1.339   0.131
 4573SOL    HW214619   6.363   1.279   0.265
 4574SOL     OW14620   5.733   4.188   0.831
 4574SOL    HW114621   5.752   4.222   0.923
 4574SOL    HW214622   5.809   4.130   0.801
 4575SOL     OW14623   5.990   0.856   6.571
 4575SOL    HW114624   6.040   0.788   6.624
 4575SOL    HW214625   5.941   0.811   6.496
 4576SOL     OW14626   2.570   6.632   5.700
 4576SOL    HW114627   2.563   6.727   5.729
 4576SOL    HW214628   2.649   6.590   5.744
 4577SOL     OW14629   2.011   2.502   4.841
 4577SOL    HW114630   2.005   2.584   4.784
 4577SOL    HW214631   1.920   2.479   4.876
 4578SOL     OW14632   0.663   2.829   5.353
 4578SOL    HW114633   0.679   2.926   5.370
 4578SOL    HW214634   0.686   2.776   5.434
 4579SOL     OW14635   3.977   0.797   3.460
 4579SOL    HW114636   4.055   0.755   3.506
 4579SOL    HW214637   3.904   0.812   3.526
 4580SOL     OW14638   5.789   5.153   0.314
 4580SOL    HW114639   5.782   5.118   0.408
 4580SOL    HW214640   5.755   5.247   0.311
 4581SOL     OW14641   2.074   5.298   2.692
 4581SOL    HW114642   2.158   5.283   2.744
 4581SOL    HW214643   2.033   5.385   2.718
 4582SOL     OW14644   5.475   0.022   5.203
 4582SOL    HW114645   5.408   0.026   5.128
 4582SOL    HW214646   5.493   6.953   5.227
 4583SOL     OW14647   2.322   2.744   6.556
 4583SOL    HW114648   2.310   2.685   6.476
 4583SOL    HW214649   2.276   2.703   6.635
 4584SOL     OW14650   0.650   4.674   5.781
 4584SOL    HW114651   0.697   4.715   5.702
 4584SOL    HW214652   0.629   4.746   5.847
 4585SOL     OW14653   3.353   5.817   3.156
 4585SOL    HW114654   3.401   5.749   3.100
 4585SOL    HW214655   3.304   5.770   3.229
 4586SOL     OW14656   3.162   5.015   0.356
 4586SOL    HW114657   3.070   5.046   0.330
 4586SOL    HW214658   3.157   4.922   0.391
 4587SOL     OW14659   3.853   3.646   3.128
 4587SOL    HW114660   3.917   3.715   3.093
 4587SOL    HW214661   3.763   3.687   3.143
 4588SOL     OW14662   2.802   3.414   5.282
 4588SOL    HW114663   2.803   3.332   5.340
 4588SOL    HW214664   2.823   3.387   5.187
 4589SOL     OW14665   6.258   1.089   2.500
 4589SOL    HW114666   6.239   0.994   2.476
 4589SOL    HW214667   6.262   1.098   2.599
 4590SOL     OW14668   4.822   6.016   1.306
 4590SOL    HW114669   4.837   6.087   1.374
 4590SOL    HW214670   4.746   5.958   1.334
 4591SOL     OW14671   1.135   6.797   4.858
 4591SOL    HW114672   1.199   6.824   4.786
 4591SOL    HW214673   1.118   6.698   4.852
 4592SOL     OW14674   2.760   1.766   2.179
 4592SOL    HW114675   2.738   1.826   2.256
 4592SOL    HW214676   2.701   1.787   2.101
 4593SOL     OW14677   4.922   5.643   2.603
 4593SOL    HW114678   4.944   5.737   2.629
 4593SOL    HW214679   4.868   5.600   2.675
 4594SOL     OW14680   2.801   1.513   3.044
 4594SOL    HW114681   2.735   1.486   2.974
 4594SOL    HW214682   2.804   1.612   3.052
 4595SOL     OW14683   3.642   3.545   5.976
 4595SOL    HW114684   3.576   3.577   5.908
 4595SOL    HW214685   3.689   3.464   5.940
 4596SOL     OW14686   5.746   0.226   2.191
 4596SOL    HW114687   5.726   0.311   2.141
 4596SOL    HW214688   5.793   0.162   2.130
 4597SOL     OW14689   3.882   5.442   5.871
 4597SOL    HW114690   3.964   5.450   5.926
 4597SOL    HW214691   3.903   5.394   5.785
 4598SOL     OW14692   2.510   6.044   6.561
 4598SOL    HW114693   2.609   6.060   6.560
 4598SOL    HW214694   2.490   5.961   6.509
 4599SOL     OW14695   1.271   4.972   0.904
 4599SOL    HW114696   1.367   4.995   0.886
 4599SOL    HW214697   1.259   4.873   0.900
 4600SOL     OW14698   1.081   5.357   5.542
 4600SOL    HW114699   1.020   5.434   5.526
 4600SOL    HW214700   1.058   5.282   5.480
 4601SOL     OW14701   1.898   1.201   5.784
 4601SOL    HW114702   1.902   1.256   5.867
 4601SOL    HW214703   1.925   1.256   5.705
 4602SOL     OW14704   2.125   6.461   1.276
 4602SOL    HW114705   2.096   6.502   1.189
 4602SOL    HW214706   2.218   6.426   1.266
 4603SOL     OW14707   3.016   6.137   0.716
 4603SOL    HW114708   2.963   6.111   0.797
 4603SOL    HW214709   3.098   6.081   0.710
 4604SOL     OW14710   4.305   0.697   0.533
 4604SOL    HW114711   4.376   0.655   0.590
 4604SOL    HW214712   4.253   0.625   0.487
 4605SOL     OW14713   2.975   0.084   2.436
 4605SOL    HW114714   2.944   0.178   2.421
 4605SOL    HW214715   3.049   0.084   2.503
 4606SOL     OW14716   0.772   6.203   2.233
 4606SOL    HW114717   0.780   6.129   2.300
 4606SOL    HW214718   0.734   6.166   2.148
 4607SOL     OW14719   1.569   3.356   1.523
 4607SOL    HW114720   1.594   3.383   1.616
 4607SOL    HW214721   1.479   3.392   1.501
 4608SOL     OW14722   0.535   6.261   3.573
 4608SOL    HW114723   0.479   6.251   3.655
 4608SOL    HW214724   0.627   6.290   3.598
 4609SOL     OW14725   4.173   5.177   6.629
 4609SOL    HW114726   4.227   5.095   6.610
 4609SOL    HW214727   4.233   5.248   6.666
 4610SOL     OW14728   4.897   2.465   0.794
 4610SOL    HW114729   4.844   2.483   0.711
 4610SOL    HW214730   4.992   2.493   0.779
 4611SOL     OW14731   0.861   6.256   6.621
 4611SOL    HW114732   0.919   6.328   6.658
 4611SOL    HW214733   0.901   6.166   6.640
 4612SOL     OW14734   1.547   5.724   0.053
 4612SOL    HW114735   1.533   5.735   6.981
 4612SOL    HW214736   1.459   5.718   0.099
 4613SOL     OW14737   2.649   5.943   1.886
 4613SOL    HW114738   2.737   5.906   1.915
 4613SOL    HW214739   2.592   5.869   1.851
 4614SOL     OW14740   7.007   2.861   3.727
 4614SOL    HW114741   6.912   2.852   3.696
 4614SOL    HW214742   0.035   2.905   3.655
 4615SOL     OW14743   1.847   0.248   6.743
 4615SOL    HW114744   1.860   0.304   6.825
 4615SOL    HW214745   1.911   0.171   6.744
 4616SOL     OW14746   6.462   0.856   4.818
 4616SOL    HW114747   6.436   0.846   4.721
 4616SOL    HW214748   6.433   0.946   4.851
 4617SOL     OW14749   0.467   2.533   2.374
 4617SOL    HW114750   0.444   2.542   2.471
 4617SOL    HW214751   0.454   2.438   2.345
 4618SOL     OW14752   2.354   2.821   4.855
 4618SOL    HW114753   2.443   2.774   4.850
 4618SOL    HW214754   2.366   2.909   4.902
 4619SOL     OW14755   3.336   6.479   3.128
 4619SOL    HW114756   3.275   6.428   3.189
 4619SOL    HW214757   3.413   6.421   3.102
 4620SOL     OW14758   2.849   4.860   0.856
 4620SOL    HW114759   2.895   4.829   0.940
 4620SOL    HW214760   2.846   4.960   0.855
 4621SOL     OW14761   5.094   0.828   2.089
 4621SOL    HW114762   5.066   0.737   2.059
 4621SOL    HW214763   5.168   0.820   2.156
 4622SOL     OW14764   2.679   4.650   0.841
 4622SOL    HW114765   2.611   4.702   0.892
 4622SOL    HW214766   2.763   4.704   0.832
 4623SOL     OW14767   4.958   6.539   0.686
 4623SOL    HW114768   5.018   6.462   0.667
 4623SOL    HW214769   4.864   6.514   0.664
 4624SOL     OW14770   4.294   0.009   3.251
 4624SOL    HW114771   4.374   0.009   3.191
 4624SOL    HW214772   4.270   0.103   3.274
 4625SOL     OW14773   2.299   4.343   1.056
 4625SOL    HW114774   2.220   4.288   1.084
 4625SOL    HW214775   2.352   4.292   0.987
 4626SOL     OW14776   5.165   4.362   1.656
 4626SOL    HW114777   5.228   4.404   1.721
 4626SOL    HW214778   5.078   4.412   1.657
 4627SOL     OW14779   2.544   4.570   4.625
 4627SOL    HW114780   2.528   4.474   4.600
 4627SOL    HW214781   2.540   4.579   4.725
 4628SOL     OW14782   6.528   4.058   4.069
 4628SOL    HW114783   6.625   4.057   4.092
 4628SOL    HW214784   6.517   4.082   3.972
 4629SOL     OW14785   2.593   5.453   5.844
 4629SOL    HW114786   2.677   5.436   5.896
 4629SOL    HW214787   2.614   5.457   5.746
 4630SOL     OW14788   2.764   5.448   2.592
 4630SOL    HW114789   2.669   5.439   2.625
 4630SOL    HW214790   2.821   5.487   2.664
 4631SOL     OW14791   1.794   5.709   3.391
 4631SOL    HW114792   1.833   5.678   3.305
 4631SOL    HW214793   1.788   5.633   3.455
 4632SOL     OW14794   2.947   4.837   2.509
 4632SOL    HW114795   2.920   4.743   2.486
 4632SOL    HW214796   3.028   4.862   2.457
 4633SOL     OW14797   5.500   0.197   4.527
 4633SOL    HW114798   5.579   0.171   4.471
 4633SOL    HW214799   5.487   0.296   4.521
 4634SOL     OW14800   3.620   4.279   5.628
 4634SOL    HW114801   3.667   4.207   5.679
 4634SOL    HW214802   3.687   4.345   5.593
 4635SOL     OW14803   4.500   3.967   1.189
 4635SOL    HW114804   4.406   3.934   1.186
 4635SOL    HW214805   4.537   3.969   1.097
 4636SOL     OW14806   1.453   4.678   6.876
 4636SOL    HW114807   1.509   4.660   6.795
 4636SOL    HW214808   1.365   4.632   6.866
 4637SOL     OW14809   0.879   6.054   1.289
 4637SOL    HW114810   0.948   6.111   1.244
 4637SOL    HW214811   0.855   6.095   1.377
 4638SOL     OW14812   4.577   4.446   6.469
 4638SOL    HW114813   4.672   4.438   6.498
 4638SOL    HW214814   4.574   4.457   6.369
 4639SOL     OW14815   3.639   3.829   5.913
 4639SOL    HW114816   3.550   3.860   5.880
 4639SOL    HW214817   3.627   3.750   5.973
 4640SOL     OW14818   4.896   4.212   3.839
 4640SOL    HW114819   4.853   4.151   3.773
 4640SOL    HW214820   4.875   4.181   3.932
 4641SOL     OW14821   2.323   6.942   4.840
 4641SOL    HW114822   2.240   6.887   4.848
 4641SOL    HW214823   2.299   0.012   4.849
 4642SOL     OW14824   1.207   5.517   4.411
 4642SOL    HW114825   1.248   5.607   4.423
 4642SOL    HW214826   1.124   5.526   4.355
 4643SOL     OW14827   6.418   2.516   1.177
 4643SOL    HW114828   6.324   2.488   1.198
 4643SOL    HW214829   6.425   2.616   1.185
 4644SOL     OW14830   6.539   5.317   5.041
 4644SOL    HW114831   6.452   5.297   5.086
 4644SOL    HW214832   6.535   5.408   4.999
 4645SOL     OW14833   0.369   0.433   4.113
 4645SOL    HW114834   0.458   0.476   4.100
 4645SOL    HW214835   0.324   0.419   4.025
 4646SOL     OW14836   2.121   6.037   4.010
 4646SOL    HW114837   2.055   6.023   3.937
 4646SOL    HW214838   2.126   5.955   4.067
 4647SOL     OW14839   1.759   0.179   3.070
 4647SOL    HW114840   1.737   0.103   3.130
 4647SOL    HW214841   1.692   0.252   3.082
 4648SOL     OW14842   3.514   1.212   2.499
 4648SOL    HW114843   3.549   1.196   2.591
 4648SOL    HW214844   3.470   1.129   2.466
 4649SOL     OW14845   5.216   0.450   0.129
 4649SOL    HW114846   5.139   0.514   0.127
 4649SOL    HW214847   5.249   0.440   0.223
 4650SOL     OW14848   4.760   5.439   2.520
 4650SOL    HW114849   4.813   5.517   2.555
 4650SOL    HW214850   4.677   5.473   2.476
 4651SOL     OW14851   6.805   3.045   0.531
 4651SOL    HW114852   6.781   2.960   0.577
 4651SOL    HW214853   6.784   3.038   0.434
 4652SOL     OW14854   6.681   6.992   4.314
 4652SOL    HW114855   6.642   0.056   4.332
 4652SOL    HW214856   6.753   7.001   4.245
 4653SOL     OW14857   5.299   5.233   0.819
 4653SOL    HW114858   5.383   5.287   0.824
 4653SOL    HW214859   5.321   5.140   0.788
 4654SOL     OW14860   1.006   6.990   0.340
 4654SOL    HW114861   0.976   0.059   0.337
 4654SOL    HW214862   0.935   6.935   0.383
 4655SOL     OW14863   4.763   4.199   1.032
 4655SOL    HW114864   4.807   4.153   1.109
 4655SOL    HW214865   4.669   4.222   1.056
 4656SOL     OW14866   1.254   0.320   2.429
 4656SOL    HW114867   1.323   0.295   2.361
 4656SOL    HW214868   1.259   0.257   2.506
 4657SOL     OW14869   4.444   6.673   1.589
 4657SOL    HW114870   4.543   6.657   1.585
 4657SOL    HW214871   4.426   6.771   1.588
 4658SOL     OW14872   3.516   1.165   2.986
 4658SOL    HW114873   3.425   1.151   2.949
 4658SOL    HW214874   3.514   1.242   3.051
 4659SOL     OW14875   3.451   4.932   5.161
 4659SOL    HW114876   3.399   4.933   5.075
 4659SOL    HW214877   3.421   4.854   5.216
 4660SOL     OW14878   1.127   3.601   5.537
 4660SOL    HW114879   1.177   3.538   5.478
 4660SOL    HW214880   1.029   3.582   5.530
 4661SOL     OW14881   2.961   4.457   5.708
 4661SOL    HW114882   3.023   4.420   5.777
 4661SOL    HW214883   2.902   4.527   5.750
 4662SOL     OW14884   3.201   7.020   5.573
 4662SOL    HW114885   3.164   6.931   5.599
 4662SOL    HW214886   3.225   0.045   5.655
 4663SOL     OW14887   0.489   1.833   1.628
 4663SOL    HW114888   0.514   1.873   1.716
 4663SOL    HW214889   0.511   1.898   1.555
 4664SOL     OW14890   1.261   0.977   1.205
 4664SOL    HW114891   1.172   0.938   1.226
 4664SOL    HW214892   1.253   1.037   1.125
 4665SOL     OW14893   3.667   0.357   6.512
 4665SOL    HW114894   3.603   0.280   6.510
 4665SOL    HW214895   3.651   0.411   6.595
 4666SOL     OW14896   1.587   2.938   0.643
 4666SOL    HW114897   1.584   2.838   0.633
 4666SOL    HW214898   1.538   2.964   0.726
 4667SOL     OW14899   6.641   3.259   2.402
 4667SOL    HW114900   6.647   3.304   2.313
 4667SOL    HW214901   6.546   3.235   2.421
 4668SOL     OW14902   4.142   2.296   2.539
 4668SOL    HW114903   4.197   2.295   2.623
 4668SOL    HW214904   4.171   2.372   2.481
 4669SOL     OW14905   4.472   6.691   6.364
 4669SOL    HW114906   4.571   6.677   6.367
 4669SOL    HW214907   4.426   6.603   6.352
 4670SOL     OW14908   2.286   2.626   5.869
 4670SOL    HW114909   2.363   2.563   5.880
 4670SOL    HW214910   2.321   2.719   5.859
 4671SOL     OW14911   6.865   2.504   0.702
 4671SOL    HW114912   6.902   2.579   0.648
 4671SOL    HW214913   6.933   2.475   0.770
 4672SOL     OW14914   2.413   4.388   5.935
 4672SOL    HW114915   2.414   4.486   5.918
 4672SOL    HW214916   2.376   4.370   6.026
 4673SOL     OW14917   5.198   0.556   2.007
 4673SOL    HW114918   5.204   0.537   2.105
 4673SOL    HW214919   5.279   0.605   1.977
 4674SOL     OW14920   5.589   0.933   6.453
 4674SOL    HW114921   5.553   0.849   6.411
 4674SOL    HW214922   5.513   0.990   6.482
 4675SOL     OW14923   2.028   1.410   6.693
 4675SOL    HW114924   1.982   1.494   6.663
 4675SOL    HW214925   2.104   1.434   6.754
 4676SOL     OW14926   6.984   6.069   3.630
 4676SOL    HW114927   7.016   6.006   3.560
 4676SOL    HW214928   0.036   6.119   3.668
 4677SOL     OW14929   2.326   1.652   6.596
 4677SOL    HW114930   2.335   1.749   6.615
 4677SOL    HW214931   2.338   1.636   6.498
 4678SOL     OW14932   1.942   4.359   3.254
 4678SOL    HW114933   1.952   4.292   3.181
 4678SOL    HW214934   1.982   4.323   3.338
 4679SOL     OW14935   3.836   1.177   0.636
 4679SOL    HW114936   3.878   1.216   0.554
 4679SOL    HW214937   3.789   1.091   0.612
 4680SOL     OW14938   3.248   1.427   0.574
 4680SOL    HW114939   3.230   1.524   0.558
 4680SOL    HW214940   3.341   1.404   0.546
 4681SOL     OW14941   4.907   6.137   6.262
 4681SOL    HW114942   5.002   6.166   6.270
 4681SOL    HW214943   4.901   6.038   6.274
 4682SOL     OW14944   4.397   4.572   5.724
 4682SOL    HW114945   4.364   4.664   5.702
 4682SOL    HW214946   4.367   4.509   5.653
 4683SOL     OW14947   4.408   4.875   2.844
 4683SOL    HW114948   4.504   4.868   2.816
 4683SOL    HW214949   4.355   4.803   2.799
 4684SOL     OW14950   6.449   1.697   4.998
 4684SOL    HW114951   6.505   1.642   4.936
 4684SOL    HW214952   6.493   1.703   5.087
 4685SOL     OW14953   0.748   5.992   5.832
 4685SOL    HW114954   0.668   5.942   5.865
 4685SOL    HW214955   0.804   6.019   5.910
 4686SOL     OW14956   4.091   5.217   6.884
 4686SOL    HW114957   4.091   5.204   6.784
 4686SOL    HW214958   4.110   5.129   6.928
 4687SOL     OW14959   6.342   4.024   4.844
 4687SOL    HW114960   6.243   4.021   4.861
 4687SOL    HW214961   6.391   3.994   4.925
 4688SOL     OW14962   5.898   4.513   4.560
 4688SOL    HW114963   5.988   4.524   4.518
 4688SOL    HW214964   5.847   4.598   4.552
 4689SOL     OW14965   5.559   0.915   0.456
 4689SOL    HW114966   5.489   0.864   0.407
 4689SOL    HW214967   5.649   0.879   0.433
 4690SOL     OW14968   1.080   6.754   0.004
 4690SOL    HW114969   1.091   6.741   6.932
 4690SOL    HW214970   1.098   6.849   0.028
 4691SOL     OW14971   2.959   5.001   1.623
 4691SOL    HW114972   2.872   5.028   1.581
 4691SOL    HW214973   2.953   4.905   1.652
 4692SOL     OW14974   6.067   5.484   1.888
 4692SOL    HW114975   6.107   5.557   1.943
 4692SOL    HW214976   6.035   5.411   1.948
 4693SOL     OW14977   0.615   1.447   3.316
 4693SOL    HW114978   0.712   1.444   3.341
 4693SOL    HW214979   0.604   1.499   3.231
 4694SOL     OW14980   1.962   0.506   7.021
 4694SOL    HW114981   1.947   0.423   0.048
 4694SOL    HW214982   2.049   0.498   6.971
 4695SOL     OW14983   1.598   3.459   1.776
 4695SOL    HW114984   1.683   3.478   1.824
 4695SOL    HW214985   1.531   3.422   1.840
 4696SOL     OW14986   0.543   4.345   0.156
 4696SOL    HW114987   0.597   4.261   0.144
 4696SOL    HW214988   0.546   4.398   0.071
 4697SOL     OW14989   1.967   3.141   1.380
 4697SOL    HW114990   2.034   3.096   1.439
 4697SOL    HW214991   1.969   3.100   1.289
 4698SOL     OW14992   4.673   4.842   2.736
 4698SOL    HW114993   4.693   4.776   2.663
 4698SOL    HW214994   4.732   4.922   2.726
 4699SOL     OW14995   1.957   6.645   2.121
 4699SOL    HW114996   1.967   6.689   2.032
 4699SOL    HW214997   1.868   6.600   2.127
 4700SOL     OW14998   6.429   1.425   3.230
 4700SOL    HW114999   6.407   1.404   3.135
 4700SOL    HW215000   6.352   1.402   3.289
 4701SOL     OW15001   2.488   2.291   0.053
 4701SOL    HW115002   2.438   2.362   0.102
 4701SOL    HW215003   2.583   2.320   0.040
 4702SOL     OW15004   3.963   5.397   0.244
 4702SOL    HW115005   4.046   5.357   0.282
 4702SOL    HW215006   3.977   5.416   0.147
 4703SOL     OW15007   1.179   1.366   1.548
 4703SOL    HW115008   1.185   1.465   1.531
 4703SOL    HW215009   1.188   1.317   1.462
 4704SOL     OW15010   0.430   6.474   0.761
 4704SOL    HW115011   0.391   6.421   0.837
 4704SOL    HW215012   0.468   6.412   0.693
 4705SOL     OW15013   3.656   3.264   2.229
 4705SOL    HW115014   3.683   3.169   2.240
 4705SOL    HW215015   3.559   3.275   2.252
 4706SOL     OW15016   3.706   0.497   6.762
 4706SOL    HW115017   3.633   0.563   6.744
 4706SOL    HW215018   3.791   0.545   6.784
 4707SOL     OW15019   2.206   6.749   1.128
 4707SOL    HW115020   2.298   6.719   1.105
 4707SOL    HW215021   2.204   6.781   1.222
 4708SOL     OW15022   1.251   1.755   6.521
 4708SOL    HW115023   1.154   1.749   6.498
 4708SOL    HW215024   1.306   1.724   6.443
 4709SOL     OW15025   4.528   6.070   5.783
 4709SOL    HW115026   4.575   6.005   5.842
 4709SOL    HW215027   4.580   6.083   5.698
 4710SOL     OW15028   4.345   0.610   5.490
 4710SOL    HW115029   4.255   0.568   5.504
 4710SOL    HW215030   4.372   0.658   5.573
 4711SOL     OW15031   5.865   0.974   1.237
 4711SOL    HW115032   5.810   0.890   1.247
 4711SOL    HW215033   5.906   0.996   1.325
 4712SOL     OW15034   2.698   4.279   6.928
 4712SOL    HW115035   2.768   4.272   6.999
 4712SOL    HW215036   2.607   4.275   6.969
 4713SOL     OW15037   3.422   3.825   0.536
 4713SOL    HW115038   3.352   3.815   0.607
 4713SOL    HW215039   3.383   3.799   0.448
 4714SOL     OW15040   1.160   2.410   0.190
 4714SOL    HW115041   1.202   2.469   0.121
 4714SOL    HW215042   1.078   2.453   0.226
 4715SOL     OW15043   5.567   2.272   2.513
 4715SOL    HW115044   5.476   2.303   2.540
 4715SOL    HW215045   5.572   2.172   2.521
 4716SOL     OW15046   4.877   5.845   6.362
 4716SOL    HW115047   4.858   5.748   6.376
 4716SOL    HW215048   4.792   5.896   6.363
 4717SOL     OW15049   0.186   0.375   3.929
 4717SOL    HW115050   0.089   0.398   3.939
 4717SOL    HW215051   0.196   0.298   3.866
 4718SOL     OW15052   5.485   2.605   1.611
 4718SOL    HW115053   5.510   2.701   1.596
 4718SOL    HW215054   5.391   2.600   1.644
 4719SOL     OW15055   5.201   2.942   1.739
 4719SOL    HW115056   5.178   2.874   1.669
 4719SOL    HW215057   5.127   2.946   1.806
 4720SOL     OW15058   2.162   5.469   5.753
 4720SOL    HW115059   2.099   5.430   5.820
 4720SOL    HW215060   2.192   5.398   5.690
 4721SOL     OW15061   6.431   2.185   2.188
 4721SOL    HW115062   6.503   2.137   2.138
 4721SOL    HW215063   6.365   2.222   2.123
 4722SOL     OW15064   1.039   6.053   6.517
 4722SOL    HW115065   1.134   6.053   6.486
 4722SOL    HW215066   1.015   5.960   6.546
 4723SOL     OW15067   2.593   3.897   5.819
 4723SOL    HW115068   2.503   3.854   5.814
 4723SOL    HW215069   2.583   3.997   5.819
 4724SOL     OW15070   6.277   6.190   2.711
 4724SOL    HW115071   6.347   6.259   2.730
 4724SOL    HW215072   6.190   6.220   2.750
 4725SOL     OW15073   6.274   5.659   2.491
 4725SOL    HW115074   6.327   5.640   2.573
 4725SOL    HW215075   6.301   5.596   2.418
 4726SOL     OW15076   1.482   2.407   6.012
 4726SOL    HW115077   1.484   2.444   6.104
 4726SOL    HW215078   1.575   2.409   5.973
 4727SOL     OW15079   1.215   5.964   1.011
 4727SOL    HW115080   1.184   6.024   1.085
 4727SOL    HW215081   1.165   5.878   1.016
 4728SOL     OW15082   6.471   0.930   2.153
 4728SOL    HW115083   6.520   0.927   2.240
 4728SOL    HW215084   6.531   0.967   2.082
 4729SOL     OW15085   2.798   1.318   0.549
 4729SOL    HW115086   2.779   1.220   0.551
 4729SOL    HW215087   2.759   1.361   0.630
 4730SOL     OW15088   3.303   5.987   5.007
 4730SOL    HW115089   3.306   5.899   5.054
 4730SOL    HW215090   3.208   6.020   5.004
 4731SOL     OW15091   4.421   0.090   0.126
 4731SOL    HW115092   4.440   7.018   0.120
 4731SOL    HW215093   4.487   0.133   0.188
 4732SOL     OW15094   0.800   2.975   6.210
 4732SOL    HW115095   0.867   3.035   6.253
 4732SOL    HW215096   0.785   3.005   6.115
 4733SOL     OW15097   1.163   3.857   3.295
 4733SOL    HW115098   1.244   3.812   3.257
 4733SOL    HW215099   1.183   3.953   3.312
 4734SOL     OW15100   4.417   2.697   0.454
 4734SOL    HW115101   4.484   2.684   0.527
 4734SOL    HW215102   4.351   2.767   0.481
 4735SOL     OW15103   6.861   5.562   4.368
 4735SOL    HW115104   6.924   5.502   4.417
 4735SOL    HW215105   6.778   5.574   4.422
 4736SOL     OW15106   0.133   1.662   6.030
 4736SOL    HW115107   0.067   1.592   6.002
 4736SOL    HW215108   0.212   1.618   6.072
 4737SOL     OW15109   2.393   4.503   2.143
 4737SOL    HW115110   2.304   4.539   2.171
 4737SOL    HW215111   2.443   4.470   2.223
 4738SOL     OW15112   0.083   6.294   2.787
 4738SOL    HW115113   0.076   6.340   2.699
 4738SOL    HW215114   0.177   6.300   2.821
 4739SOL     OW15115   4.057   6.730   3.279
 4739SOL    HW115116   4.042   6.820   3.321
 4739SOL    HW215117   4.031   6.659   3.345
 4740SOL     OW15118   1.081   1.187   1.764
 4740SOL    HW115119   1.127   1.251   1.703
 4740SOL    HW215120   1.047   1.109   1.712
 4741SOL     OW15121   3.921   3.495   1.044
 4741SOL    HW115122   3.959   3.515   1.134
 4741SOL    HW215123   3.995   3.479   0.979
 4742SOL     OW15124   3.576   6.789   6.299
 4742SOL    HW115125   3.520   6.733   6.239
 4742SOL    HW215126   3.632   6.851   6.244
 4743SOL     OW15127   1.841   3.172   3.288
 4743SOL    HW115128   1.856   3.125   3.201
 4743SOL    HW215129   1.811   3.266   3.271
 4744SOL     OW15130   1.865   4.481   0.392
 4744SOL    HW115131   1.914   4.530   0.319
 4744SOL    HW215132   1.907   4.502   0.480
 4745SOL     OW15133   3.461   4.232   5.877
 4745SOL    HW115134   3.552   4.226   5.835
 4745SOL    HW215135   3.454   4.318   5.928
 4746SOL     OW15136   5.432   5.619   1.885
 4746SOL    HW115137   5.342   5.635   1.924
 4746SOL    HW215138   5.490   5.574   1.952
 4747SOL     OW15139   1.473   4.125   0.193
 4747SOL    HW115140   1.455   4.094   0.287
 4747SOL    HW215141   1.512   4.217   0.196
 4748SOL     OW15142   2.142   5.317   0.975
 4748SOL    HW115143   2.080   5.348   1.047
 4748SOL    HW215144   2.205   5.391   0.952
 4749SOL     OW15145   2.073   6.279   5.648
 4749SOL    HW115146   2.134   6.327   5.585
 4749SOL    HW215147   1.982   6.273   5.608
 4750SOL     OW15148   0.293   3.994   4.587
 4750SOL    HW115149   0.237   3.971   4.507
 4750SOL    HW215150   0.352   4.071   4.565
 4751SOL     OW15151   3.857   2.107   2.257
 4751SOL    HW115152   3.923   2.054   2.204
 4751SOL    HW215153   3.784   2.140   2.197
 4752SOL     OW15154   4.107   1.337   6.550
 4752SOL    HW115155   4.101   1.322   6.648
 4752SOL    HW215156   4.073   1.256   6.502
 4753SOL     OW15157   6.043   0.175   3.677
 4753SOL    HW115158   6.107   0.195   3.603
 4753SOL    HW215159   5.951   0.164   3.640
 4754SOL     OW15160   5.890   5.441   4.721
 4754SOL    HW115161   5.852   5.465   4.810
 4754SOL    HW215162   5.826   5.469   4.649
 4755SOL     OW15163   2.985   0.522   0.174
 4755SOL    HW115164   3.017   0.581   0.248
 4755SOL    HW215165   3.051   0.448   0.159
 4756SOL     OW15166   5.919   2.850   0.225
 4756SOL    HW115167   5.948   2.917   0.156
 4756SOL    HW215168   5.858   2.783   0.184
 4757SOL     OW15169   2.631   1.321   0.752
 4757SOL    HW115170   2.630   1.336   0.851
 4757SOL    HW215171   2.543   1.350   0.713
 4758SOL     OW15172   1.649   6.341   3.640
 4758SOL    HW115173   1.622   6.246   3.624
 4758SOL    HW215174   1.723   6.343   3.707
 4759SOL     OW15175   6.425   4.503   4.845
 4759SOL    HW115176   6.469   4.509   4.756
 4759SOL    HW215177   6.376   4.589   4.864
 4760SOL     OW15178   2.207   2.260   0.674
 4760SOL    HW115179   2.238   2.228   0.764
 4760SOL    HW215180   2.139   2.332   0.686
 4761SOL     OW15181   0.592   5.837   0.254
 4761SOL    HW115182   0.549   5.924   0.230
 4761SOL    HW215183   0.571   5.769   0.184
 4762SOL     OW15184   1.480   5.806   2.269
 4762SOL    HW115185   1.409   5.868   2.235
 4762SOL    HW215186   1.562   5.859   2.292
 4763SOL     OW15187   5.831   6.858   3.098
 4763SOL    HW115188   5.801   6.936   3.044
 4763SOL    HW215189   5.854   6.888   3.191
 4764SOL     OW15190   4.946   3.962   5.063
 4764SOL    HW115191   5.021   4.006   5.113
 4764SOL    HW215192   4.942   3.865   5.088
 4765SOL     OW15193   4.808   1.222   5.013
 4765SOL    HW115194   4.711   1.226   5.037
 4765SOL    HW215195   4.858   1.292   5.064
 4766SOL     OW15196   5.460   5.527   4.082
 4766SOL    HW115197   5.459   5.563   4.175
 4766SOL    HW215198   5.538   5.566   4.033
 4767SOL     OW15199   2.861   5.420   5.072
 4767SOL    HW115200   2.932   5.420   5.002
 4767SOL    HW215201   2.781   5.370   5.037
 4768SOL     OW15202   4.283   2.339   6.410
 4768SOL    HW115203   4.362   2.374   6.360
 4768SOL    HW215204   4.300   2.347   6.509
 4769SOL     OW15205   4.725   5.106   0.030
 4769SOL    HW115206   4.758   5.078   6.966
 4769SOL    HW215207   4.698   5.025   0.081
 4770SOL     OW15208   0.425   0.979   4.084
 4770SOL    HW115209   0.438   0.934   4.172
 4770SOL    HW215210   0.401   0.910   4.015
 4771SOL     OW15211   2.847   5.580   5.426
 4771SOL    HW115212   2.753   5.589   5.393
 4771SOL    HW215213   2.911   5.602   5.352
 4772SOL     OW15214   4.256   4.970   0.893
 4772SOL    HW115215   4.184   4.901   0.887
 4772SOL    HW215216   4.342   4.932   0.859
 4773SOL     OW15217   6.625   5.197   4.399
 4773SOL    HW115218   6.669   5.282   4.428
 4773SOL    HW215219   6.546   5.178   4.457
 4774SOL     OW15220   1.858   3.307   1.562
 4774SOL    HW115221   1.791   3.245   1.603
 4774SOL    HW215222   1.905   3.260   1.487
 4775SOL     OW15223   5.145   6.741   2.850
 4775SOL    HW115224   5.054   6.743   2.809
 4775SOL    HW215225   5.184   6.650   2.840
 4776SOL     OW15226   1.200   6.100   6.123
 4776SOL    HW115227   1.205   6.086   6.024
 4776SOL    HW215228   1.106   6.122   6.149
 4777SOL     OW15229   2.172   5.367   1.384
 4777SOL    HW115230   2.117   5.419   1.450
 4777SOL    HW215231   2.264   5.405   1.380
 4778SOL     OW15232   6.648   2.435   4.034
 4778SOL    HW115233   6.577   2.392   3.979
 4778SOL    HW215234   6.639   2.535   4.029
 4779SOL     OW15235   5.908   5.950   2.287
 4779SOL    HW115236   5.879   6.000   2.368
 4779SOL    HW215237   5.834   5.889   2.257
 4780SOL     OW15238   5.878   1.685   0.091
 4780SOL    HW115239   5.922   1.721   0.009
 4780SOL    HW215240   5.830   1.759   0.138
 4781SOL     OW15241   2.430   5.869   2.447
 4781SOL    HW115242   2.492   5.935   2.403
 4781SOL    HW215243   2.406   5.798   2.382
 4782SOL     OW15244   6.068   5.550   7.012
 4782SOL    HW115245   6.122   5.478   6.968
 4782SOL    HW215246   5.971   5.525   7.009
 4783SOL     OW15247   5.020   3.781   0.033
 4783SOL    HW115248   4.986   3.870   0.001
 4783SOL    HW215249   5.093   3.750   7.000
 4784SOL     OW15250   6.374   3.591   6.670
 4784SOL    HW115251   6.328   3.549   6.591
 4784SOL    HW215252   6.332   3.680   6.689
 4785SOL     OW15253   1.622   6.267   3.108
 4785SOL    HW115254   1.577   6.356   3.113
 4785SOL    HW215255   1.562   6.197   3.145
 4786SOL     OW15256   2.651   0.211   0.145
 4786SOL    HW115257   2.570   0.231   0.200
 4786SOL    HW215258   2.732   0.210   0.204
 4787SOL     OW15259   3.866   1.279   2.870
 4787SOL    HW115260   3.936   1.208   2.860
 4787SOL    HW215261   3.901   1.352   2.929
 4788SOL     OW15262   6.455   6.135   6.820
 4788SOL    HW115263   6.436   6.230   6.845
 4788SOL    HW215264   6.469   6.129   6.721
 4789SOL     OW15265   4.678   2.406   1.286
 4789SOL    HW115266   4.676   2.315   1.329
 4789SOL    HW215267   4.723   2.400   1.197
 4790SOL     OW15268   6.366   1.982   5.582
 4790SOL    HW115269   6.389   1.886   5.571
 4790SOL    HW215270   6.283   1.991   5.637
 4791SOL     OW15271   0.096   2.987   1.046
 4791SOL    HW115272   0.077   3.068   1.102
 4791SOL    HW215273   0.048   2.908   1.086
 4792SOL     OW15274   2.830   4.701   3.399
 4792SOL    HW115275   2.843   4.766   3.324
 4792SOL    HW215276   2.891   4.623   3.386
 4793SOL     OW15277   2.532   2.569   4.935
 4793SOL    HW115278   2.496   2.636   5.001
 4793SOL    HW215279   2.462   2.500   4.917
 4794SOL     OW15280   5.351   0.262   4.791
 4794SOL    HW115281   5.398   0.191   4.738
 4794SOL    HW215282   5.254   0.264   4.767
 4795SOL     OW15283   6.451   2.239   4.077
 4795SOL    HW115284   6.429   2.264   3.983
 4795SOL    HW215285   6.373   2.192   4.118
 4796SOL     OW15286   4.803   1.615   4.986
 4796SOL    HW115287   4.741   1.667   5.045
 4796SOL    HW215288   4.755   1.586   4.903
 4797SOL     OW15289   0.747   6.390   5.273
 4797SOL    HW115290   0.759   6.388   5.373
 4797SOL    HW215291   0.787   6.474   5.236
 4798SOL     OW15292   0.015   4.082   5.664
 4798SOL    HW115293   0.057   4.001   5.624
 4798SOL    HW215294   6.954   4.100   5.619
 4799SOL     OW15295   4.602   1.747   0.497
 4799SOL    HW115296   4.631   1.705   0.583
 4799SOL    HW215297   4.502   1.746   0.491
 4800SOL     OW15298   3.079   2.392   6.864
 4800SOL    HW115299   2.991   2.401   6.817
 4800SOL    HW215300   3.065   2.390   6.963
 4801SOL     OW15301   3.273   2.188   6.427
 4801SOL    HW115302   3.252   2.265   6.367
 4801SOL    HW215303   3.195   2.171   6.487
 4802SOL     OW15304   0.466   6.533   1.863
 4802SOL    HW115305   0.539   6.528   1.932
 4802SOL    HW215306   0.497   6.492   1.778
 4803SOL     OW15307   6.887   4.708   0.161
 4803SOL    HW115308   6.926   4.616   0.172
 4803SOL    HW215309   6.790   4.699   0.137
 4804SOL     OW15310   6.829   6.536   1.806
 4804SOL    HW115311   6.855   6.609   1.869
 4804SOL    HW215312   6.790   6.460   1.858
 4805SOL     OW15313   6.069   1.527   2.326
 4805SOL    HW115314   6.120   1.606   2.358
 4805SOL    HW215315   6.122   1.443   2.341
 4806SOL     OW15316   0.972   4.184   2.812
 4806SOL    HW115317   1.031   4.108   2.786
 4806SOL    HW215318   1.027   4.258   2.852
 4807SOL     OW15319   0.688   4.981   0.303
 4807SOL    HW115320   0.685   4.884   0.281
 4807SOL    HW215321   0.610   5.005   0.360
 4808SOL     OW15322   4.675   5.368   0.837
 4808SOL    HW115323   4.704   5.318   0.756
 4808SOL    HW215324   4.696   5.465   0.825
 4809SOL     OW15325   3.271   4.677   0.104
 4809SOL    HW115326   3.253   4.741   0.179
 4809SOL    HW215327   3.269   4.727   0.017
 4810SOL     OW15328   1.796   4.401   2.480
 4810SOL    HW115329   1.733   4.363   2.547
 4810SOL    HW215330   1.753   4.479   2.434
 4811SOL     OW15331   2.579   4.138   1.710
 4811SOL    HW115332   2.654   4.073   1.703
 4811SOL    HW215333   2.609   4.227   1.675
 4812SOL     OW15334   0.526   5.556   2.296
 4812SOL    HW115335   0.534   5.457   2.308
 4812SOL    HW215336   0.432   5.584   2.312
 4813SOL     OW15337   6.039   1.723   6.555
 4813SOL    HW115338   6.084   1.638   6.528
 4813SOL    HW215339   6.097   1.772   6.621
 4814SOL     OW15340   0.002   3.187   1.208
 4814SOL    HW115341   0.035   3.260   1.268
 4814SOL    HW215342   6.940   3.214   1.169
 4815SOL     OW15343   5.136   3.785   2.760
 4815SOL    HW115344   5.192   3.801   2.679
 4815SOL    HW215345   5.047   3.749   2.734
 4816SOL     OW15346   2.255   4.788   1.111
 4816SOL    HW115347   2.226   4.881   1.090
 4816SOL    HW215348   2.352   4.787   1.137
 4817SOL     OW15349   2.193   1.455   6.933
 4817SOL    HW115350   2.141   1.377   6.967
 4817SOL    HW215351   2.288   1.449   6.965
 4818SOL     OW15352   1.017   6.618   4.580
 4818SOL    HW115353   1.112   6.587   4.581
 4818SOL    HW215354   0.975   6.594   4.493
 4819SOL     OW15355   1.861   1.496   0.625
 4819SOL    HW115356   1.838   1.482   0.721
 4819SOL    HW215357   1.838   1.414   0.573
 4820SOL     OW15358   5.980   2.801   2.467
 4820SOL    HW115359   5.977   2.786   2.368
 4820SOL    HW215360   5.901   2.756   2.510
 4821SOL     OW15361   0.334   6.667   2.294
 4821SOL    HW115362   0.257   6.721   2.327
 4821SOL    HW215363   0.321   6.647   2.197
 4822SOL     OW15364   2.002   3.579   4.308
 4822SOL    HW115365   2.008   3.539   4.399
 4822SOL    HW215366   2.054   3.523   4.243
 4823SOL     OW15367   1.467   0.359   4.663
 4823SOL    HW115368   1.474   0.398   4.571
 4823SOL    HW215369   1.402   0.412   4.717
 4824SOL     OW15370   5.495   2.209   4.515
 4824SOL    HW115371   5.505   2.174   4.608
 4824SOL    HW215372   5.398   2.222   4.495
 4825SOL     OW15373   1.800   2.317   4.517
 4825SOL    HW115374   1.804   2.266   4.431
 4825SOL    HW215375   1.882   2.299   4.571
 4826SOL     OW15376   6.789   1.445   6.059
 4826SOL    HW115377   6.701   1.399   6.044
 4826SOL    HW215378   6.782   1.504   6.140
 4827SOL     OW15379   6.316   1.598   1.551
 4827SOL    HW115380   6.311   1.587   1.650
 4827SOL    HW215381   6.235   1.557   1.509
 4828SOL     OW15382   5.472   3.079   0.827
 4828SOL    HW115383   5.537   3.008   0.801
 4828SOL    HW215384   5.441   3.127   0.745
 4829SOL     OW15385   4.424   6.838   0.139
 4829SOL    HW115386   4.330   6.852   0.171
 4829SOL    HW215387   4.422   6.786   0.053
 4830SOL     OW15388   4.051   6.781   3.613
 4830SOL    HW115389   3.992   6.823   3.544
 4830SOL    HW215390   4.024   6.814   3.703
 4831SOL     OW15391   0.363   4.648   6.352
 4831SOL    HW115392   0.405   4.663   6.263
 4831SOL    HW215393   0.285   4.710   6.363
 4832SOL     OW15394   3.453   3.844   4.596
 4832SOL    HW115395   3.387   3.803   4.659
 4832SOL    HW215396   3.543   3.846   4.639
 4833SOL     OW15397   4.705   2.366   3.381
 4833SOL    HW115398   4.784   2.319   3.421
 4833SOL    HW215399   4.628   2.303   3.376
 4834SOL     OW15400   3.754   6.412   0.796
 4834SOL    HW115401   3.797   6.337   0.747
 4834SOL    HW215402   3.819   6.452   0.861
 4835SOL     OW15403   6.668   1.463   6.426
 4835SOL    HW115404   6.752   1.434   6.380
 4835SOL    HW215405   6.639   1.391   6.490
 4836SOL     OW15406   5.134   2.922   4.629
 4836SOL    HW115407   5.215   2.863   4.631
 4836SOL    HW215408   5.161   3.015   4.607
 4837SOL     OW15409   6.185   3.763   2.620
 4837SOL    HW115410   6.277   3.800   2.634
 4837SOL    HW215411   6.174   3.735   2.525
 4838SOL     OW15412   1.094   5.083   0.115
 4838SOL    HW115413   1.069   5.117   0.024
 4838SOL    HW215414   1.121   4.987   0.108
 4839SOL     OW15415   2.028   3.389   6.581
 4839SOL    HW115416   2.067   3.400   6.673
 4839SOL    HW215417   2.088   3.330   6.526
 4840SOL     OW15418   6.912   4.990   6.570
 4840SOL    HW115419   6.857   4.933   6.509
 4840SOL    HW215420   6.987   4.935   6.607
 4841SOL     OW15421   3.107   5.594   1.710
 4841SOL    HW115422   3.153   5.631   1.629
 4841SOL    HW215423   3.062   5.508   1.687
 4842SOL     OW15424   3.725   5.108   2.702
 4842SOL    HW115425   3.718   5.011   2.728
 4842SOL    HW215426   3.817   5.127   2.669
 4843SOL     OW15427   6.666   3.008   0.966
 4843SOL    HW115428   6.759   3.011   1.003
 4843SOL    HW215429   6.645   2.916   0.934
 4844SOL     OW15430   0.353   3.039   6.103
 4844SOL    HW115431   0.323   3.019   6.196
 4844SOL    HW215432   0.289   3.102   6.060
 4845SOL     OW15433   5.191   5.420   6.378
 4845SOL    HW115434   5.222   5.338   6.427
 4845SOL    HW215435   5.137   5.392   6.298
 4846SOL     OW15436   6.781   3.204   3.833
 4846SOL    HW115437   6.838   3.254   3.897
 4846SOL    HW215438   6.824   3.203   3.743
 4847SOL     OW15439   2.820   1.045   6.148
 4847SOL    HW115440   2.810   1.144   6.153
 4847SOL    HW215441   2.889   1.022   6.080
 4848SOL     OW15442   1.645   0.723   3.925
 4848SOL    HW115443   1.554   0.719   3.884
 4848SOL    HW215444   1.644   0.673   4.012
 4849SOL     OW15445   1.043   5.851   6.768
 4849SOL    HW115446   1.125   5.795   6.761
 4849SOL    HW215447   1.064   5.933   6.822
 4850SOL     OW15448   3.962   1.591   2.136
 4850SOL    HW115449   3.928   1.610   2.228
 4850SOL    HW215450   3.947   1.670   2.077
 4851SOL     OW15451   4.578   6.690   5.667
 4851SOL    HW115452   4.675   6.666   5.672
 4851SOL    HW215453   4.554   6.747   5.745
 4852SOL     OW15454   1.610   6.148   4.786
 4852SOL    HW115455   1.612   6.097   4.700
 4852SOL    HW215456   1.613   6.085   4.863
 4853SOL     OW15457   3.217   1.203   2.947
 4853SOL    HW115458   3.144   1.262   2.914
 4853SOL    HW215459   3.205   1.186   3.045
 4854SOL     OW15460   4.617   6.794   1.320
 4854SOL    HW115461   4.624   6.802   1.221
 4854SOL    HW215462   4.672   6.716   1.351
 4855SOL     OW15463   6.201   2.808   3.278
 4855SOL    HW115464   6.236   2.721   3.312
 4855SOL    HW215465   6.258   2.839   3.202
 4856SOL     OW15466   1.337   3.392   2.934
 4856SOL    HW115467   1.365   3.371   3.028
 4856SOL    HW215468   1.245   3.431   2.935
 4857SOL     OW15469   2.616   1.659   4.900
 4857SOL    HW115470   2.543   1.726   4.906
 4857SOL    HW215471   2.703   1.702   4.925
 4858SOL     OW15472   0.730   0.632   4.282
 4858SOL    HW115473   0.751   0.633   4.184
 4858SOL    HW215474   0.713   0.725   4.314
 4859SOL     OW15475   0.818   0.189   4.492
 4859SOL    HW115476   0.794   0.119   4.424
 4859SOL    HW215477   0.767   0.172   4.576
 4860SOL     OW15478   4.414   4.449   1.726
 4860SOL    HW115479   4.417   4.358   1.767
 4860SOL    HW215480   4.441   4.517   1.794
 4861SOL     OW15481   6.170   5.318   0.261
 4861SOL    HW115482   6.121   5.271   0.187
 4861SOL    HW215483   6.143   5.414   0.263
 4862SOL     OW15484   2.386   4.420   4.979
 4862SOL    HW115485   2.322   4.401   4.905
 4862SOL    HW215486   2.357   4.373   5.062
 4863SOL     OW15487   5.501   3.617   1.212
 4863SOL    HW115488   5.535   3.636   1.120
 4863SOL    HW215489   5.471   3.522   1.218
 4864SOL     OW15490   4.047   1.290   2.520
 4864SOL    HW115491   4.011   1.232   2.447
 4864SOL    HW215492   3.982   1.292   2.596
 4865SOL     OW15493   2.042   6.462   4.104
 4865SOL    HW115494   2.106   6.516   4.159
 4865SOL    HW215495   2.039   6.368   4.139
 4866SOL     OW15496   5.908   3.421   1.849
 4866SOL    HW115497   5.834   3.395   1.787
 4866SOL    HW215498   5.870   3.444   1.939
 4867SOL     OW15499   3.613   5.510   1.872
 4867SOL    HW115500   3.687   5.542   1.931
 4867SOL    HW215501   3.559   5.442   1.920
 4868SOL     OW15502   6.697   4.949   2.919
 4868SOL    HW115503   6.769   4.881   2.930
 4868SOL    HW215504   6.624   4.931   2.986
 4869SOL     OW15505   1.422   1.208   1.704
 4869SOL    HW115506   1.408   1.122   1.753
 4869SOL    HW215507   1.430   1.190   1.606
 4870SOL     OW15508   0.474   5.915   2.448
 4870SOL    HW115509   0.508   5.944   2.359
 4870SOL    HW215510   0.549   5.876   2.501
 4871SOL     OW15511   1.216   0.588   4.116
 4871SOL    HW115512   1.238   0.617   4.209
 4871SOL    HW215513   1.264   0.502   4.096
 4872SOL     OW15514   6.528   6.221   3.868
 4872SOL    HW115515   6.472   6.139   3.878
 4872SOL    HW215516   6.554   6.231   3.771
 4873SOL     OW15517   6.849   4.651   3.821
 4873SOL    HW115518   6.782   4.717   3.856
 4873SOL    HW215519   6.916   4.698   3.765
 4874SOL     OW15520   6.306   3.198   3.103
 4874SOL    HW115521   6.364   3.238   3.031
 4874SOL    HW215522   6.314   3.099   3.101
 4875SOL     OW15523   5.705   2.360   1.410
 4875SOL    HW115524   5.628   2.424   1.405
 4875SOL    HW215525   5.673   2.271   1.443
 4876SOL     OW15526   5.604   1.928   4.345
 4876SOL    HW115527   5.696   1.891   4.335
 4876SOL    HW215528   5.610   2.023   4.376
 4877SOL     OW15529   1.718   2.435   6.728
 4877SOL    HW115530   1.762   2.511   6.776
 4877SOL    HW215531   1.621   2.433   6.751
 4878SOL     OW15532   6.223   0.745   3.004
 4878SOL    HW115533   6.296   0.760   3.070
 4878SOL    HW215534   6.136   0.774   3.043
 4879SOL     OW15535   4.427   6.071   2.589
 4879SOL    HW115536   4.404   6.029   2.677
 4879SOL    HW215537   4.527   6.070   2.578
 4880SOL     OW15538   5.717   3.565   0.263
 4880SOL    HW115539   5.783   3.493   0.243
 4880SOL    HW215540   5.688   3.557   0.359
 4881SOL     OW15541   1.600   1.151   6.410
 4881SOL    HW115542   1.680   1.128   6.466
 4881SOL    HW215543   1.583   1.250   6.416
 4882SOL     OW15544   5.189   1.491   5.232
 4882SOL    HW115545   5.256   1.519   5.163
 4882SOL    HW215546   5.209   1.399   5.264
 4883SOL     OW15547   5.588   4.604   1.981
 4883SOL    HW115548   5.545   4.543   2.047
 4883SOL    HW215549   5.674   4.565   1.951
 4884SOL     OW15550   3.055   0.076   1.377
 4884SOL    HW115551   2.973   0.094   1.322
 4884SOL    HW215552   3.134   0.065   1.316
 4885SOL     OW15553   1.878   5.398   2.129
 4885SOL    HW115554   1.936   5.377   2.207
 4885SOL    HW215555   1.930   5.449   2.061
 4886SOL     OW15556   1.367   5.418   1.171
 4886SOL    HW115557   1.331   5.508   1.149
 4886SOL    HW215558   1.374   5.364   1.087
 4887SOL     OW15559   0.653   0.439   2.621
 4887SOL    HW115560   0.580   0.479   2.676
 4887SOL    HW215561   0.640   0.466   2.525
 4888SOL     OW15562   2.421   6.845   4.375
 4888SOL    HW115563   2.459   6.862   4.284
 4888SOL    HW215564   2.397   6.749   4.383
 4889SOL     OW15565   6.499   1.383   6.032
 4889SOL    HW115566   6.466   1.454   5.970
 4889SOL    HW215567   6.481   1.411   6.127
 4890SOL     OW15568   1.216   1.619   0.108
 4890SOL    HW115569   1.131   1.599   0.155
 4890SOL    HW215570   1.294   1.598   0.168
 4891SOL     OW15571   1.653   4.525   6.347
 4891SOL    HW115572   1.567   4.556   6.388
 4891SOL    HW215573   1.681   4.589   6.275
 4892SOL     OW15574   3.240   6.210   2.126
 4892SOL    HW115575   3.207   6.302   2.147
 4892SOL    HW215576   3.203   6.145   2.194
 4893SOL     OW15577   6.512   3.650   1.475
 4893SOL    HW115578   6.421   3.619   1.504
 4893SOL    HW215579   6.565   3.677   1.555
 4894SOL     OW15580   2.441   1.463   3.071
 4894SOL    HW115581   2.435   1.430   2.977
 4894SOL    HW215582   2.429   1.562   3.072
 4895SOL     OW15583   0.831   5.002   3.572
 4895SOL    HW115584   0.852   5.039   3.663
 4895SOL    HW215585   0.735   4.976   3.567
 4896SOL     OW15586   1.727   5.671   1.992
 4896SOL    HW115587   1.767   5.604   1.929
 4896SOL    HW215588   1.630   5.651   2.005
 4897SOL     OW15589   2.688   4.050   6.092
 4897SOL    HW115590   2.635   4.100   6.023
 4897SOL    HW215591   2.631   4.033   6.172
 4898SOL     OW15592   3.673   0.803   4.413
 4898SOL    HW115593   3.760   0.835   4.450
 4898SOL    HW215594   3.648   0.860   4.334
 4899SOL     OW15595   6.014   5.280   3.183
 4899SOL    HW115596   5.946   5.303   3.253
 4899SOL    HW215597   5.989   5.194   3.139
 4900SOL     OW15598   2.056   5.799   4.128
 4900SOL    HW115599   2.036   5.713   4.082
 4900SOL    HW215600   1.971   5.841   4.159
 4901SOL     OW15601   3.133   6.783   5.686
 4901SOL    HW115602   3.211   6.735   5.726
 4901SOL    HW215603   3.049   6.751   5.730
 4902SOL     OW15604   2.207   1.962   4.098
 4902SOL    HW115605   2.252   1.976   4.010
 4902SOL    HW215606   2.132   2.027   4.108
 4903SOL     OW15607   3.670   6.227   6.637
 4903SOL    HW115608   3.583   6.277   6.629
 4903SOL    HW215609   3.687   6.177   6.553
 4904SOL     OW15610   2.213   6.707   3.984
 4904SOL    HW115611   2.221   6.706   4.083
 4904SOL    HW215612   2.304   6.712   3.943
 4905SOL     OW15613   4.257   0.180   2.139
 4905SOL    HW115614   4.183   0.229   2.185
 4905SOL    HW215615   4.284   0.102   2.196
 4906SOL     OW15616   4.414   2.014   5.852
 4906SOL    HW115617   4.430   2.055   5.762
 4906SOL    HW215618   4.480   1.941   5.867
 4907SOL     OW15619   4.028   6.424   1.104
 4907SOL    HW115620   3.967   6.369   1.162
 4907SOL    HW215621   4.067   6.366   1.033
 4908SOL     OW15622   5.686   4.533   6.556
 4908SOL    HW115623   5.748   4.455   6.551
 4908SOL    HW215624   5.592   4.502   6.540
 4909SOL     OW15625   6.833   0.266   4.427
 4909SOL    HW115626   6.899   0.195   4.454
 4909SOL    HW215627   6.742   0.226   4.419
 4910SOL     OW15628   5.607   6.966   4.930
 4910SOL    HW115629   5.631   0.025   4.975
 4910SOL    HW215630   5.676   6.897   4.950
 4911SOL     OW15631   1.045   3.395   4.162
 4911SOL    HW115632   1.094   3.427   4.243
 4911SOL    HW215633   0.999   3.308   4.183
 4912SOL     OW15634   5.396   1.140   6.508
 4912SOL    HW115635   5.378   1.128   6.605
 4912SOL    HW215636   5.308   1.146   6.459
 4913SOL     OW15637   3.890   2.940   5.157
 4913SOL    HW115638   3.845   2.877   5.220
 4913SOL    HW215639   3.860   2.921   5.064
 4914SOL     OW15640   3.926   0.388   4.934
 4914SOL    HW115641   3.915   0.361   4.838
 4914SOL    HW215642   3.998   0.457   4.941
 4915SOL     OW15643   4.478   0.450   4.879
 4915SOL    HW115644   4.383   0.476   4.864
 4915SOL    HW215645   4.484   0.389   4.958
 4916SOL     OW15646   1.869   0.386   4.177
 4916SOL    HW115647   1.772   0.408   4.167
 4916SOL    HW215648   1.924   0.464   4.147
 4917SOL     OW15649   2.314   4.819   1.553
 4917SOL    HW115650   2.307   4.809   1.653
 4917SOL    HW215651   2.355   4.736   1.515
 4918SOL     OW15652   4.558   5.495   2.353
 4918SOL    HW115653   4.472   5.447   2.366
 4918SOL    HW215654   4.540   5.583   2.308
 4919SOL     OW15655   2.960   1.946   0.115
 4919SOL    HW115656   2.901   1.950   0.034
 4919SOL    HW215657   2.976   2.039   0.149
 4920SOL     OW15658   5.906   0.884   4.399
 4920SOL    HW115659   5.956   0.895   4.485
 4920SOL    HW215660   5.818   0.931   4.405
 4921SOL     OW15661   1.569   4.678   0.520
 4921SOL    HW115662   1.523   4.741   0.457
 4921SOL    HW215663   1.580   4.589   0.475
 4922SOL     OW15664   2.223   1.984   5.100
 4922SOL    HW115665   2.141   1.980   5.158
 4922SOL    HW215666   2.274   1.899   5.108
 4923SOL     OW15667   3.929   1.706   1.730
 4923SOL    HW115668   3.859   1.634   1.736
 4923SOL    HW215669   4.014   1.672   1.769
 4924SOL     OW15670   2.898   1.576   5.325
 4924SOL    HW115671   2.977   1.586   5.264
 4924SOL    HW215672   2.908   1.637   5.403
 4925SOL     OW15673   6.405   6.266   2.303
 4925SOL    HW115674   6.459   6.269   2.219
 4925SOL    HW215675   6.362   6.176   2.312
 4926SOL     OW15676   5.624   1.526   0.487
 4926SOL    HW115677   5.663   1.488   0.403
 4926SOL    HW215678   5.553   1.465   0.522
 4927SOL     OW15679   3.724   3.624   4.849
 4927SOL    HW115680   3.802   3.626   4.912
 4927SOL    HW215681   3.754   3.587   4.761
 4928SOL     OW15682   1.400   0.249   6.989
 4928SOL    HW115683   1.338   0.175   6.964
 4928SOL    HW215684   1.351   0.317   0.017
 4929SOL     OW15685   0.777   5.640   4.742
 4929SOL    HW115686   0.741   5.605   4.656
 4929SOL    HW215687   0.731   5.596   4.819
 4930SOL     OW15688   4.911   0.828   3.420
 4930SOL    HW115689   4.976   0.848   3.346
 4930SOL    HW215690   4.959   0.780   3.494
 4931SOL     OW15691   7.023   6.997   0.878
 4931SOL    HW115692   0.024   0.054   0.830
 4931SOL    HW215693   0.045   6.991   0.965
 4932SOL     OW15694   2.560   3.378   1.693
 4932SOL    HW115695   2.536   3.439   1.769
 4932SOL    HW215696   2.505   3.294   1.698
 4933SOL     OW15697   2.387   6.879   3.602
 4933SOL    HW115698   2.313   6.849   3.542
 4933SOL    HW215699   2.419   6.970   3.573
 4934SOL     OW15700   2.586   5.791   2.681
 4934SOL    HW115701   2.522   5.758   2.612
 4934SOL    HW215702   2.666   5.831   2.636
 4935SOL     OW15703   1.277   0.909   6.006
 4935SOL    HW115704   1.354   0.850   6.028
 4935SOL    HW215705   1.311   1.003   5.991
 4936SOL     OW15706   2.520   4.642   1.945
 4936SOL    HW115707   2.619   4.627   1.946
 4936SOL    HW215708   2.477   4.588   2.017
 4937SOL     OW15709   6.833   2.932   6.272
 4937SOL    HW115710   6.814   3.023   6.308
 4937SOL    HW215711   6.932   2.918   6.268
 4938SOL     OW15712   2.244   5.733   5.775
 4938SOL    HW115713   2.258   5.774   5.685
 4938SOL    HW215714   2.227   5.635   5.764
 4939SOL     OW15715   6.354   1.692   4.024
 4939SOL    HW115716   6.382   1.777   3.979
 4939SOL    HW215717   6.425   1.661   4.087
 4940SOL     OW15718   0.425   0.682   5.319
 4940SOL    HW115719   0.367   0.659   5.241
 4940SOL    HW215720   0.403   0.621   5.396
 4941SOL     OW15721   4.793   1.963   5.327
 4941SOL    HW115722   4.746   2.049   5.306
 4941SOL    HW215723   4.885   1.964   5.289
 4942SOL     OW15724   5.542   3.438   6.171
 4942SOL    HW115725   5.560   3.340   6.158
 4942SOL    HW215726   5.453   3.450   6.215
 4943SOL     OW15727   4.414   3.707   5.990
 4943SOL    HW115728   4.388   3.713   6.086
 4943SOL    HW215729   4.449   3.795   5.959
 4944SOL     OW15730   2.267   4.221   1.648
 4944SOL    HW115731   2.222   4.299   1.607
 4944SOL    HW215732   2.344   4.252   1.705
 4945SOL     OW15733   1.007   0.053   4.626
 4945SOL    HW115734   1.002   0.105   4.710
 4945SOL    HW215735   0.945   0.093   4.558
 4946SOL     OW15736   1.705   5.025   6.867
 4946SOL    HW115737   1.636   4.958   6.839
 4946SOL    HW215738   1.775   5.032   6.796
 4947SOL     OW15739   2.393   0.242   1.008
 4947SOL    HW115740   2.461   0.226   0.936
 4947SOL    HW215741   2.440   0.257   1.095
 4948SOL     OW15742   1.521   2.703   2.703
 4948SOL    HW115743   1.442   2.704   2.641
 4948SOL    HW215744   1.499   2.755   2.786
 4949SOL     OW15745   5.665   5.586   6.448
 4949SOL    HW115746   5.753   5.621   6.418
 4949SOL    HW215747   5.600   5.590   6.372
 4950SOL     OW15748   2.315   5.320   4.357
 4950SOL    HW115749   2.332   5.242   4.297
 4950SOL    HW215750   2.357   5.303   4.446
 4951SOL     OW15751   5.853   0.910   5.207
 4951SOL    HW115752   5.821   0.907   5.112
 4951SOL    HW215753   5.873   0.816   5.238
 4952SOL     OW15754   0.286   0.975   6.007
 4952SOL    HW115755   0.204   1.001   5.955
 4952SOL    HW215756   0.278   1.008   6.101
 4953SOL     OW15757   2.016   6.231   2.945
 4953SOL    HW115758   1.955   6.233   2.865
 4953SOL    HW215759   1.967   6.196   3.024
 4954SOL     OW15760   3.591   3.074   0.455
 4954SOL    HW115761   3.684   3.054   0.425
 4954SOL    HW215762   3.593   3.151   0.520
 4955SOL     OW15763   3.138   6.492   6.765
 4955SOL    HW115764   3.074   6.568   6.775
 4955SOL    HW215765   3.212   6.502   6.832
 4956SOL     OW15766   2.315   0.198   5.291
 4956SOL    HW115767   2.297   0.241   5.379
 4956SOL    HW215768   2.229   0.183   5.242
 4957SOL     OW15769   5.597   2.056   2.135
 4957SOL    HW115770   5.499   2.067   2.152
 4957SOL    HW215771   5.611   2.001   2.053
 4958SOL     OW15772   0.219   5.457   5.449
 4958SOL    HW115773   0.236   5.488   5.543
 4958SOL    HW215774   0.136   5.401   5.447
 4959SOL     OW15775   6.279   2.036   6.942
 4959SOL    HW115776   6.192   2.085   6.942
 4959SOL    HW215777   6.305   2.014   0.009
 4960SOL     OW15778   3.466   4.920   3.394
 4960SOL    HW115779   3.374   4.887   3.376
 4960SOL    HW215780   3.469   5.019   3.378
 4961SOL     OW15781   4.495   1.277   5.751
 4961SOL    HW115782   4.580   1.264   5.700
 4961SOL    HW215783   4.452   1.363   5.723
 4962SOL     OW15784   6.378   2.309   0.556
 4962SOL    HW115785   6.435   2.276   0.631
 4962SOL    HW215786   6.434   2.363   0.493
 4963SOL     OW15787   6.177   5.968   0.598
 4963SOL    HW115788   6.158   5.909   0.676
 4963SOL    HW215789   6.245   5.924   0.539
 4964SOL     OW15790   2.877   0.306   3.517
 4964SOL    HW115791   2.836   0.289   3.606
 4964SOL    HW215792   2.964   0.354   3.530
 4965SOL     OW15793   0.675   1.171   2.422
 4965SOL    HW115794   0.660   1.197   2.517
 4965SOL    HW215795   0.769   1.141   2.410
 4966SOL     OW15796   2.307   6.807   5.322
 4966SOL    HW115797   2.398   6.815   5.282
 4966SOL    HW215798   2.264   6.723   5.290
 4967SOL     OW15799   3.752   5.264   5.564
 4967SOL    HW115800   3.714   5.331   5.501
 4967SOL    HW215801   3.685   5.243   5.635
 4968SOL     OW15802   6.791   1.736   3.796
 4968SOL    HW115803   6.857   1.808   3.777
 4968SOL    HW215804   6.801   1.662   3.730
 4969SOL     OW15805   2.604   6.126   2.712
 4969SOL    HW115806   2.645   6.176   2.636
 4969SOL    HW215807   2.648   6.153   2.798
 4970SOL     OW15808   2.078   2.548   3.099
 4970SOL    HW115809   1.984   2.555   3.067
 4970SOL    HW215810   2.115   2.639   3.115
 4971SOL     OW15811   5.830   5.708   3.675
 4971SOL    HW115812   5.925   5.738   3.689
 4971SOL    HW215813   5.805   5.720   3.579
 4972SOL     OW15814   1.283   3.582   0.887
 4972SOL    HW115815   1.194   3.564   0.845
 4972SOL    HW215816   1.283   3.674   0.926
 4973SOL     OW15817   1.386   6.674   2.271
 4973SOL    HW115818   1.390   6.597   2.207
 4973SOL    HW215819   1.418   6.757   2.225
 4974SOL     OW15820   6.171   4.642   1.196
 4974SOL    HW115821   6.233   4.611   1.268
 4974SOL    HW215822   6.176   4.579   1.118
 4975SOL     OW15823   5.786   4.069   5.414
 4975SOL    HW115824   5.813   4.018   5.496
 4975SOL    HW215825   5.780   4.006   5.336
 4976SOL     OW15826   1.768   0.800   3.524
 4976SOL    HW115827   1.834   0.731   3.494
 4976SOL    HW215828   1.703   0.819   3.451
 4977SOL     OW15829   3.853   4.988   0.189
 4977SOL    HW115830   3.811   4.983   0.280
 4977SOL    HW215831   3.944   5.028   0.196
 4978SOL     OW15832   6.822   3.973   4.693
 4978SOL    HW115833   6.781   4.059   4.723
 4978SOL    HW215834   6.868   3.930   4.770
 4979SOL     OW15835   0.204   0.212   6.549
 4979SOL    HW115836   0.169   0.121   6.528
 4979SOL    HW215837   0.290   0.205   6.600
 4980SOL     OW15838   5.124   6.292   3.015
 4980SOL    HW115839   5.187   6.282   3.092
 4980SOL    HW215840   5.049   6.353   3.041
 4981SOL     OW15841   4.795   6.165   0.507
 4981SOL    HW115842   4.759   6.109   0.433
 4981SOL    HW215843   4.818   6.256   0.471
 4982SOL     OW15844   2.548   1.017   5.950
 4982SOL    HW115845   2.541   1.115   5.933
 4982SOL    HW215846   2.457   0.976   5.948
 4983SOL     OW15847   5.873   3.333   4.917
 4983SOL    HW115848   5.883   3.250   4.863
 4983SOL    HW215849   5.776   3.354   4.928
 4984SOL     OW15850   5.872   3.888   3.651
 4984SOL    HW115851   5.788   3.905   3.702
 4984SOL    HW215852   5.879   3.790   3.630
 4985SOL     OW15853   6.411   7.025   3.383
 4985SOL    HW115854   6.394   6.978   3.296
 4985SOL    HW215855   6.416   6.957   3.456
 4986SOL     OW15856   6.200   4.199   1.861
 4986SOL    HW115857   6.150   4.143   1.927
 4986SOL    HW215858   6.267   4.256   1.910
 4987SOL     OW15859   1.237   0.677   1.728
 4987SOL    HW115860   1.331   0.651   1.750
 4987SOL    HW215861   1.236   0.766   1.682
 4988SOL     OW15862   5.319   0.883   3.130
 4988SOL    HW115863   5.407   0.922   3.103
 4988SOL    HW215864   5.301   0.801   3.076
 4989SOL     OW15865   4.864   0.207   1.436
 4989SOL    HW115866   4.936   0.191   1.369
 4989SOL    HW215867   4.781   0.160   1.408
 4990SOL     OW15868   2.091   1.998   5.587
 4990SOL    HW115869   2.097   2.043   5.676
 4990SOL    HW215870   2.158   2.038   5.524
 4991SOL     OW15871   6.554   4.774   3.974
 4991SOL    HW115872   6.488   4.723   4.029
 4991SOL    HW215873   6.620   4.819   4.035
 4992SOL     OW15874   5.093   1.095   3.665
 4992SOL    HW115875   5.173   1.114   3.609
 4992SOL    HW215876   5.108   1.012   3.718
 4993SOL     OW15877   3.111   5.980   3.921
 4993SOL    HW115878   3.040   5.964   3.989
 4993SOL    HW215879   3.071   5.975   3.829
 4994SOL     OW15880   2.033   6.935   3.397
 4994SOL    HW115881   2.011   6.952   3.301
 4994SOL    HW215882   2.046   7.022   3.444
 4995SOL     OW15883   0.331   2.340   5.800
 4995SOL    HW115884   0.353   2.435   5.822
 4995SOL    HW215885   0.237   2.334   5.766
 4996SOL     OW15886   1.183   1.300   2.569
 4996SOL    HW115887   1.219   1.281   2.660
 4996SOL    HW215888   1.083   1.292   2.570
 4997SOL     OW15889   5.399   2.480   3.029
 4997SOL    HW115890   5.461   2.501   2.954
 4997SOL    HW215891   5.410   2.384   3.056
 4998SOL     OW15892   2.163   4.250   5.072
 4998SOL    HW115893   2.177   4.245   5.170
 4998SOL    HW215894   2.210   4.173   5.028
 4999SOL     OW15895   6.567   3.914   0.373
 4999SOL    HW115896   6.589   3.880   0.465
 4999SOL    HW215897   6.644   3.896   0.312
 5000SOL     OW15898   2.822   6.527   3.500
 5000SOL    HW115899   2.904   6.556   3.451
 5000SOL    HW215900   2.847   6.467   3.576
 5001SOL     OW15901   0.320   3.955   0.993
 5001SOL    HW115902   0.411   3.993   0.981
 5001SOL    HW215903   0.307   3.929   1.089
 5002SOL     OW15904   0.456   3.078   3.439
 5002SOL    HW115905   0.356   3.075   3.446
 5002SOL    HW215906   0.482   3.119   3.352
 5003SOL     OW15907   2.711   6.386   2.586
 5003SOL    HW115908   2.809   6.375   2.600
 5003SOL    HW215909   2.679   6.469   2.631
 5004SOL     OW15910   3.776   4.906   6.233
 5004SOL    HW115911   3.746   4.895   6.138
 5004SOL    HW215912   3.830   4.990   6.241
 5005SOL     OW15913   2.863   2.400   0.401
 5005SOL    HW115914   2.888   2.479   0.345
 5005SOL    HW215915   2.765   2.405   0.424
 5006SOL     OW15916   5.313   0.890   0.698
 5006SOL    HW115917   5.400   0.940   0.701
 5006SOL    HW215918   5.330   0.793   0.712
 5007SOL     OW15919   1.525   0.043   0.282
 5007SOL    HW115920   1.469   6.987   0.280
 5007SOL    HW215921   1.606   0.030   0.225
 5008SOL     OW15922   6.743   6.485   3.027
 5008SOL    HW115923   6.652   6.451   3.051
 5008SOL    HW215924   6.805   6.471   3.104
 5009SOL     OW15925   1.200   6.433   0.867
 5009SOL    HW115926   1.104   6.409   0.884
 5009SOL    HW215927   1.212   6.531   0.877
 5010SOL     OW15928   3.406   3.298   2.932
 5010SOL    HW115929   3.437   3.214   2.889
 5010SOL    HW215930   3.478   3.333   2.992
 5011SOL     OW15931   1.785   3.647   2.899
 5011SOL    HW115932   1.856   3.582   2.872
 5011SOL    HW215933   1.713   3.648   2.829
 5012SOL     OW15934   5.357   4.257   6.306
 5012SOL    HW115935   5.308   4.239   6.391
 5012SOL    HW215936   5.452   4.280   6.327
 5013SOL     OW15937   4.934   1.988   6.351
 5013SOL    HW115938   4.858   1.979   6.287
 5013SOL    HW215939   4.905   1.956   6.441
 5014SOL     OW15940   5.531   4.477   0.432
 5014SOL    HW115941   5.605   4.457   0.496
 5014SOL    HW215942   5.469   4.399   0.428
 5015SOL     OW15943   4.401   1.825   4.488
 5015SOL    HW115944   4.302   1.822   4.502
 5015SOL    HW215945   4.421   1.867   4.400
 5016SOL     OW15946   1.841   2.237   0.805
 5016SOL    HW115947   1.897   2.313   0.773
 5016SOL    HW215948   1.748   2.247   0.768
 5017SOL     OW15949   1.926   2.011   6.979
 5017SOL    HW115950   1.987   2.054   6.912
 5017SOL    HW215951   1.972   2.004   0.040
 5018SOL     OW15952   6.960   4.417   2.008
 5018SOL    HW115953   6.956   4.388   2.103
 5018SOL    HW215954   6.952   4.516   2.002
 5019SOL     OW15955   1.194   4.996   6.349
 5019SOL    HW115956   1.260   5.048   6.402
 5019SOL    HW215957   1.159   4.920   6.404
 5020SOL     OW15958   5.243   0.135   6.630
 5020SOL    HW115959   5.194   0.150   6.716
 5020SOL    HW215960   5.341   0.146   6.646
 5021SOL     OW15961   1.560   1.700   6.110
 5021SOL    HW115962   1.485   1.721   6.172
 5021SOL    HW215963   1.543   1.741   6.021
 5022SOL     OW15964   1.402   1.140   0.035
 5022SOL    HW115965   1.353   1.079   6.999
 5022SOL    HW215966   1.499   1.143   0.009
 5023SOL     OW15967   6.503   3.084   1.404
 5023SOL    HW115968   6.429   3.084   1.472
 5023SOL    HW215969   6.476   3.029   1.325
 5024SOL     OW15970   5.588   5.872   1.801
 5024SOL    HW115971   5.665   5.890   1.862
 5024SOL    HW215972   5.542   5.788   1.829
 5025SOL     OW15973   3.571   1.678   1.626
 5025SOL    HW115974   3.638   1.747   1.599
 5025SOL    HW215975   3.537   1.699   1.718
 5026SOL     OW15976   6.434   6.341   6.303
 5026SOL    HW115977   6.520   6.329   6.253
 5026SOL    HW215978   6.394   6.252   6.322
 5027SOL     OW15979   0.788   5.884   2.433
 5027SOL    HW115980   0.727   5.857   2.508
 5027SOL    HW215981   0.787   5.814   2.362
 5028SOL     OW15982   0.715   0.543   3.241
 5028SOL    HW115983   0.799   0.594   3.225
 5028SOL    HW215984   0.731   0.474   3.311
 5029SOL     OW15985   0.027   2.352   2.926
 5029SOL    HW115986   7.014   2.296   2.853
 5029SOL    HW215987   7.021   2.319   3.015
 5030SOL     OW15988   6.840   6.757   0.144
 5030SOL    HW115989   6.902   6.706   0.203
 5030SOL    HW215990   6.879   6.846   0.123
 5031SOL     OW15991   5.969   0.593   4.840
 5031SOL    HW115992   5.947   0.501   4.808
 5031SOL    HW215993   6.025   0.587   4.923
 5032SOL     OW15994   1.077   3.492   1.342
 5032SOL    HW115995   1.021   3.548   1.403
 5032SOL    HW215996   1.160   3.464   1.390
 5033SOL     OW15997   2.926   6.422   5.983
 5033SOL    HW115998   2.995   6.400   6.052
 5033SOL    HW215999   2.949   6.378   5.896
 5034SOL     OW16000   4.805   0.917   2.904
 5034SOL    HW116001   4.711   0.887   2.890
 5034SOL    HW216002   4.813   0.963   2.992
 5035SOL     OW16003   0.428   4.622   0.349
 5035SOL    HW116004   0.515   4.628   0.398
 5035SOL    HW216005   0.428   4.541   0.291
 5036SOL     OW16006   6.897   4.871   0.359
 5036SOL    HW116007   6.867   4.820   0.439
 5036SOL    HW216008   6.890   4.813   0.278
 5037SOL     OW16009   5.322   2.775   3.536
 5037SOL    HW116010   5.253   2.814   3.598
 5037SOL    HW216011   5.277   2.709   3.475
 5038SOL     OW16012   1.848   3.880   6.995
 5038SOL    HW116013   1.928   3.843   0.015
 5038SOL    HW216014   1.877   3.945   6.924
 5039SOL     OW16015   3.044   4.376   5.302
 5039SOL    HW116016   2.997   4.449   5.252
 5039SOL    HW216017   3.000   4.288   5.282
 5040SOL     OW16018   2.191   4.970   5.981
 5040SOL    HW116019   2.177   4.894   5.917
 5040SOL    HW216020   2.251   4.940   6.055
 5041SOL     OW16021   1.686   1.995   1.715
 5041SOL    HW116022   1.649   1.996   1.622
 5041SOL    HW216023   1.764   1.932   1.719
 5042SOL     OW16024   6.247   3.198   0.879
 5042SOL    HW116025   6.225   3.292   0.851
 5042SOL    HW216026   6.207   3.134   0.814
 5043SOL     OW16027   3.253   0.876   6.114
 5043SOL    HW116028   3.168   0.872   6.062
 5043SOL    HW216029   3.255   0.801   6.180
 5044SOL     OW16030   0.116   6.187   1.354
 5044SOL    HW116031   0.079   6.100   1.387
 5044SOL    HW216032   0.216   6.183   1.353
 5045SOL     OW16033   5.716   1.906   0.225
 5045SOL    HW116034   5.753   1.853   0.301
 5045SOL    HW216035   5.635   1.957   0.256
 5046SOL     OW16036   3.526   4.151   3.536
 5046SOL    HW116037   3.493   4.135   3.443
 5046SOL    HW216038   3.625   4.141   3.539
 5047SOL     OW16039   0.133   3.391   2.539
 5047SOL    HW116040   0.124   3.292   2.532
 5047SOL    HW216041   0.199   3.414   2.611
 5048SOL     OW16042   0.670   0.841   2.069
 5048SOL    HW116043   0.599   0.823   2.137
 5048SOL    HW216044   0.736   0.907   2.105
 5049SOL     OW16045   6.115   1.749   5.219
 5049SOL    HW116046   6.145   1.723   5.127
 5049SOL    HW216047   6.021   1.719   5.234
 5050SOL     OW16048   1.730   0.446   1.640
 5050SOL    HW116049   1.803   0.384   1.609
 5050SOL    HW216050   1.646   0.426   1.590
 5051SOL     OW16051   4.719   4.555   1.364
 5051SOL    HW116052   4.711   4.642   1.413
 5051SOL    HW216053   4.795   4.502   1.401
 5052SOL     OW16054   2.163   6.073   6.019
 5052SOL    HW116055   2.154   6.100   6.115
 5052SOL    HW216056   2.228   5.997   6.012
 5053SOL     OW16057   2.199   4.258   3.777
 5053SOL    HW116058   2.218   4.353   3.752
 5053SOL    HW216059   2.245   4.236   3.863
 5054SOL     OW16060   3.595   6.374   4.868
 5054SOL    HW116061   3.631   6.455   4.823
 5054SOL    HW216062   3.534   6.400   4.942
 5055SOL     OW16063   1.984   0.295   5.518
 5055SOL    HW116064   2.079   0.271   5.539
 5055SOL    HW216065   1.982   0.369   5.450
 5056SOL     OW16066   6.437   4.199   0.631
 5056SOL    HW116067   6.503   4.182   0.557
 5056SOL    HW216068   6.481   4.250   0.704
 5057SOL     OW16069   6.141   6.103   5.343
 5057SOL    HW116070   6.154   6.004   5.336
 5057SOL    HW216071   6.177   6.147   5.261
 5058SOL     OW16072   2.643   3.024   5.340
 5058SOL    HW116073   2.585   3.016   5.258
 5058SOL    HW216074   2.599   2.975   5.416
 5059SOL     OW16075   5.527   2.625   3.669
 5059SOL    HW116076   5.620   2.652   3.644
 5059SOL    HW216077   5.462   2.690   3.629
 5060SOL     OW16078   0.381   2.047   5.759
 5060SOL    HW116079   0.365   2.146   5.760
 5060SOL    HW216080   0.404   2.016   5.851
 5061SOL     OW16081   3.810   3.379   3.138
 5061SOL    HW116082   3.883   3.322   3.175
 5061SOL    HW216083   3.831   3.475   3.154
 5062SOL     OW16084   5.319   0.297   3.423
 5062SOL    HW116085   5.341   0.384   3.378
 5062SOL    HW216086   5.360   0.296   3.514
 5063SOL     OW16087   0.875   0.068   2.074
 5063SOL    HW116088   0.874   0.160   2.113
 5063SOL    HW216089   0.920   0.070   1.985
 5064SOL     OW16090   4.424   3.839   1.683
 5064SOL    HW116091   4.401   3.935   1.664
 5064SOL    HW216092   4.504   3.835   1.742
 5065SOL     OW16093   1.597   1.647   3.639
 5065SOL    HW116094   1.652   1.623   3.559
 5065SOL    HW216095   1.629   1.733   3.677
 5066SOL     OW16096   3.723   4.611   0.953
 5066SOL    HW116097   3.630   4.573   0.952
 5066SOL    HW216098   3.789   4.537   0.963
 5067SOL     OW16099   2.898   1.260   2.574
 5067SOL    HW116100   2.804   1.293   2.573
 5067SOL    HW216101   2.957   1.324   2.525
 5068SOL     OW16102   3.246   4.850   6.689
 5068SOL    HW116103   3.201   4.864   6.777
 5068SOL    HW216104   3.314   4.921   6.673
 5069SOL     OW16105   2.020   3.255   5.880
 5069SOL    HW116106   2.019   3.163   5.840
 5069SOL    HW216107   1.944   3.308   5.843
 5070SOL     OW16108   5.025   4.492   3.919
 5070SOL    HW116109   5.122   4.479   3.940
 5070SOL    HW216110   5.014   4.575   3.864
 5071SOL     OW16111   4.064   0.996   3.717
 5071SOL    HW116112   4.005   0.945   3.655
 5071SOL    HW216113   4.014   1.074   3.755
 5072SOL     OW16114   1.015   0.911   1.666
 5072SOL    HW116115   1.093   0.899   1.604
 5072SOL    HW216116   1.012   0.835   1.731
 5073SOL     OW16117   1.238   4.690   1.642
 5073SOL    HW116118   1.178   4.769   1.637
 5073SOL    HW216119   1.330   4.719   1.667
 5074SOL     OW16120   3.231   1.961   0.984
 5074SOL    HW116121   3.279   2.046   1.004
 5074SOL    HW216122   3.184   1.929   1.067
 5075SOL     OW16123   1.238   2.536   6.308
 5075SOL    HW116124   1.338   2.535   6.303
 5075SOL    HW216125   1.202   2.449   6.273
 5076SOL     OW16126   5.064   0.323   0.971
 5076SOL    HW116127   5.156   0.362   0.986
 5076SOL    HW216128   5.069   0.224   0.981
 5077SOL     OW16129   2.292   4.404   5.435
 5077SOL    HW116130   2.271   4.340   5.508
 5077SOL    HW216131   2.348   4.359   5.366
 5078SOL     OW16132   0.729   0.338   3.876
 5078SOL    HW116133   0.753   0.370   3.784
 5078SOL    HW216134   0.781   0.257   3.899
 5079SOL     OW16135   2.065   3.495   4.576
 5079SOL    HW116136   2.091   3.400   4.563
 5079SOL    HW216137   2.049   3.513   4.673
 5080SOL     OW16138   6.002   6.578   6.252
 5080SOL    HW116139   6.087   6.567   6.304
 5080SOL    HW216140   5.926   6.589   6.316
 5081SOL     OW16141   3.306   3.827   5.124
 5081SOL    HW116142   3.374   3.757   5.103
 5081SOL    HW216143   3.336   3.915   5.088
 5082SOL     OW16144   5.119   5.621   1.531
 5082SOL    HW116145   5.217   5.620   1.511
 5082SOL    HW216146   5.084   5.714   1.523
 5083SOL     OW16147   2.648   0.404   2.755
 5083SOL    HW116148   2.710   0.329   2.778
 5083SOL    HW216149   2.671   0.484   2.809
 5084SOL     OW16150   0.398   4.244   4.510
 5084SOL    HW116151   0.461   4.223   4.434
 5084SOL    HW216152   0.313   4.282   4.473
 5085SOL     OW16153   6.519   2.544   6.140
 5085SOL    HW116154   6.549   2.566   6.233
 5085SOL    HW216155   6.575   2.594   6.075
 5086SOL     OW16156   1.340   4.993   2.933
 5086SOL    HW116157   1.353   4.898   2.963
 5086SOL    HW216158   1.346   5.054   3.011
 5087SOL     OW16159   1.648   5.487   2.982
 5087SOL    HW116160   1.575   5.479   3.049
 5087SOL    HW216161   1.663   5.398   2.939
 5088SOL     OW16162   5.831   0.370   3.923
 5088SOL    HW116163   5.909   0.339   3.976
 5088SOL    HW216164   5.857   0.450   3.869
 5089SOL     OW16165   5.660   3.685   4.238
 5089SOL    HW116166   5.606   3.706   4.319
 5089SOL    HW216167   5.742   3.634   4.264
 5090SOL     OW16168   2.024   3.708   2.654
 5090SOL    HW116169   2.121   3.731   2.659
 5090SOL    HW216170   1.974   3.784   2.612
 5091SOL     OW16171   6.855   1.340   1.607
 5091SOL    HW116172   6.808   1.382   1.685
 5091SOL    HW216173   6.954   1.350   1.619
 5092SOL     OW16174   3.367   3.864   3.184
 5092SOL    HW116175   3.357   3.962   3.203
 5092SOL    HW216176   3.310   3.812   3.247
 5093SOL     OW16177   3.036   0.705   0.398
 5093SOL    HW116178   3.084   0.789   0.426
 5093SOL    HW216179   3.018   0.649   0.478
 5094SOL     OW16180   2.547   5.722   5.669
 5094SOL    HW116181   2.619   5.789   5.652
 5094SOL    HW216182   2.564   5.640   5.615
 5095SOL     OW16183   6.339   1.925   3.686
 5095SOL    HW116184   6.399   1.910   3.765
 5095SOL    HW216185   6.324   2.024   3.675
 5096SOL     OW16186   3.599   4.948   6.461
 5096SOL    HW116187   3.601   5.037   6.505
 5096SOL    HW216188   3.658   4.949   6.381
 5097SOL     OW16189   0.953   0.034   6.271
 5097SOL    HW116190   0.944   0.133   6.284
 5097SOL    HW216191   1.049   0.009   6.273
 5098SOL     OW16192   2.844   0.935   2.283
 5098SOL    HW116193   2.826   1.031   2.260
 5098SOL    HW216194   2.925   0.930   2.342
 5099SOL     OW16195   0.696   0.284   0.770
 5099SOL    HW116196   0.677   0.254   0.677
 5099SOL    HW216197   0.730   0.206   0.823
 5100SOL     OW16198   3.314   5.560   4.575
 5100SOL    HW116199   3.336   5.657   4.586
 5100SOL    HW216200   3.323   5.535   4.479
 5101SOL     OW16201   4.750   0.481   6.983
 5101SOL    HW116202   4.662   0.513   6.949
 5101SOL    HW216203   4.811   0.461   6.906
 5102SOL     OW16204   5.727   6.990   4.238
 5102SOL    HW116205   5.696   6.957   4.149
 5102SOL    HW216206   5.827   7.000   4.238
 5103SOL     OW16207   0.568   0.419   4.345
 5103SOL    HW116208   0.643   0.486   4.353
 5103SOL    HW216209   0.596   0.346   4.283
 5104SOL     OW16210   1.565   6.496   1.920
 5104SOL    HW116211   1.540   6.400   1.901
 5104SOL    HW216212   1.620   6.500   2.002
 5105SOL     OW16213   2.309   2.774   0.219
 5105SOL    HW116214   2.215   2.764   0.186
 5105SOL    HW216215   2.348   2.859   0.184
 5106SOL     OW16216   4.249   2.280   0.123
 5106SOL    HW116217   4.157   2.291   0.085
 5106SOL    HW216218   4.242   2.239   0.214
 5107SOL     OW16219   3.799   1.646   1.208
 5107SOL    HW116220   3.796   1.742   1.183
 5107SOL    HW216221   3.717   1.622   1.259
 5108SOL     OW16222   3.918   3.916   5.139
 5108SOL    HW116223   3.846   3.983   5.121
 5108SOL    HW216224   3.972   3.945   5.218
 5109SOL     OW16225   0.853   1.737   0.068
 5109SOL    HW116226   0.791   1.733   7.016
 5109SOL    HW216227   0.800   1.731   0.153
 5110SOL     OW16228   0.874   0.394   5.719
 5110SOL    HW116229   0.909   0.312   5.673
 5110SOL    HW216230   0.785   0.418   5.679
 5111SOL     OW16231   0.977   0.409   5.052
 5111SOL    HW116232   1.030   0.335   5.094
 5111SOL    HW216233   0.920   0.453   5.121
 5112SOL     OW16234   1.383   0.613   3.318
 5112SOL    HW116235   1.471   0.604   3.272
 5112SOL    HW216236   1.396   0.607   3.417
 5113SOL     OW16237   1.807   0.041   1.126
 5113SOL    HW116238   1.761   6.988   1.166
 5113SOL    HW216239   1.795   0.120   1.186
 5114SOL     OW16240   3.617   0.877   6.889
 5114SOL    HW116241   3.682   0.910   6.957
 5114SOL    HW216242   3.585   0.786   6.915
 5115SOL     OW16243   1.895   4.656   4.309
 5115SOL    HW116244   1.970   4.639   4.246
 5115SOL    HW216245   1.834   4.577   4.312
 5116SOL     OW16246   0.499   0.106   6.264
 5116SOL    HW116247   0.536   0.156   6.186
 5116SOL    HW216248   0.405   0.134   6.280
 5117SOL     OW16249   2.168   4.089   4.730
 5117SOL    HW116250   2.229   4.062   4.805
 5117SOL    HW216251   2.205   4.055   4.644
 5118SOL     OW16252   4.888   0.568   0.351
 5118SOL    HW116253   4.926   0.481   0.382
 5118SOL    HW216254   4.936   0.599   0.269
 5119SOL     OW16255   5.270   0.835   1.806
 5119SOL    HW116256   5.198   0.822   1.737
 5119SOL    HW216257   5.306   0.928   1.800
 5120SOL     OW16258   3.708   0.456   4.101
 5120SOL    HW116259   3.662   0.433   4.015
 5120SOL    HW216260   3.639   0.470   4.172
 5121SOL     OW16261   2.723   2.203   6.767
 5121SOL    HW116262   2.763   2.290   6.739
 5121SOL    HW216263   2.746   2.185   6.862
 5122SOL     OW16264   3.356   6.637   3.499
 5122SOL    HW116265   3.263   6.660   3.470
 5122SOL    HW216266   3.418   6.713   3.474
 5123SOL     OW16267   4.314   2.240   4.383
 5123SOL    HW116268   4.345   2.328   4.419
 5123SOL    HW216269   4.388   2.198   4.331
 5124SOL     OW16270   2.623   5.792   4.589
 5124SOL    HW116271   2.654   5.699   4.607
 5124SOL    HW216272   2.701   5.854   4.590
 5125SOL     OW16273   5.878   3.556   4.328
 5125SOL    HW116274   5.922   3.528   4.414
 5125SOL    HW216275   5.946   3.602   4.270
 5126SOL     OW16276   5.887   5.170   5.633
 5126SOL    HW116277   5.834   5.156   5.550
 5126SOL    HW216278   5.881   5.266   5.660
 5127SOL     OW16279   1.183   4.253   6.888
 5127SOL    HW116280   1.108   4.187   6.894
 5127SOL    HW216281   1.217   4.275   6.979
 5128SOL     OW16282   0.086   0.706   6.715
 5128SOL    HW116283   0.117   0.673   6.804
 5128SOL    HW216284   0.155   0.769   6.677
 5129SOL     OW16285   5.972   6.904   2.560
 5129SOL    HW116286   6.016   6.825   2.603
 5129SOL    HW216287   6.036   6.980   2.556
 5130SOL     OW16288   0.347   5.812   3.652
 5130SOL    HW116289   0.435   5.783   3.614
 5130SOL    HW216290   0.361   5.893   3.708
 5131SOL     OW16291   2.395   5.164   3.739
 5131SOL    HW116292   2.391   5.262   3.757
 5131SOL    HW216293   2.481   5.143   3.692
 5132SOL     OW16294   3.260   2.824   6.351
 5132SOL    HW116295   3.208   2.796   6.271
 5132SOL    HW216296   3.296   2.916   6.337
 5133SOL     OW16297   1.701   5.567   6.854
 5133SOL    HW116298   1.743   5.648   6.895
 5133SOL    HW216299   1.741   5.551   6.764
 5134SOL     OW16300   0.006   2.751   2.106
 5134SOL    HW116301   0.076   2.703   2.158
 5134SOL    HW216302   6.966   2.685   2.071
 5135SOL     OW16303   5.459   3.155   4.574
 5135SOL    HW116304   5.366   3.189   4.591
 5135SOL    HW216305   5.508   3.218   4.515
 5136SOL     OW16306   5.069   0.456   6.653
 5136SOL    HW116307   5.155   0.458   6.705
 5136SOL    HW216308   5.087   0.417   6.562
 5137SOL     OW16309   5.435   4.061   5.704
 5137SOL    HW116310   5.529   4.042   5.730
 5137SOL    HW216311   5.402   4.142   5.753
 5138SOL     OW16312   4.094   3.063   5.302
 5138SOL    HW116313   4.022   3.004   5.266
 5138SOL    HW216314   4.069   3.094   5.394
 5139SOL     OW16315   1.110   1.280   3.430
 5139SOL    HW116316   1.162   1.236   3.503
 5139SOL    HW216317   1.013   1.263   3.444
 5140SOL     OW16318   3.764   2.961   6.541
 5140SOL    HW116319   3.719   3.050   6.536
 5140SOL    HW216320   3.695   2.890   6.555
 5141SOL     OW16321   6.294   3.817   0.957
 5141SOL    HW116322   6.290   3.868   0.871
 5141SOL    HW216323   6.286   3.881   1.033
 5142SOL     OW16324   6.105   6.510   2.782
 5142SOL    HW116325   6.190   6.488   2.831
 5142SOL    HW216326   6.043   6.557   2.844
 5143SOL     OW16327   6.191   4.509   4.414
 5143SOL    HW116328   6.152   4.513   4.322
 5143SOL    HW216329   6.169   4.594   4.463
 5144SOL     OW16330   1.004   4.170   5.634
 5144SOL    HW116331   0.945   4.179   5.554
 5144SOL    HW216332   1.021   4.260   5.674
 5145SOL     OW16333   3.155   5.592   5.590
 5145SOL    HW116334   3.089   5.549   5.529
 5145SOL    HW216335   3.246   5.555   5.571
 5146SOL     OW16336   3.320   3.764   5.388
 5146SOL    HW116337   3.309   3.801   5.295
 5146SOL    HW216338   3.369   3.830   5.444
 5147SOL     OW16339   6.696   5.236   2.747
 5147SOL    HW116340   6.673   5.245   2.844
 5147SOL    HW216341   6.612   5.229   2.694
 5148SOL     OW16342   6.357   0.270   1.856
 5148SOL    HW116343   6.453   0.268   1.885
 5148SOL    HW216344   6.311   0.186   1.885
 5149SOL     OW16345   6.539   5.370   3.207
 5149SOL    HW116346   6.439   5.362   3.211
 5149SOL    HW216347   6.568   5.458   3.243
 5150SOL     OW16348   2.096   5.682   3.307
 5150SOL    HW116349   2.053   5.705   3.394
 5150SOL    HW216350   2.026   5.655   3.241
 5151SOL     OW16351   6.537   2.807   1.711
 5151SOL    HW116352   6.565   2.902   1.720
 5151SOL    HW216353   6.475   2.783   1.786
 5152SOL     OW16354   1.812   4.614   6.864
 5152SOL    HW116355   1.790   4.538   6.804
 5152SOL    HW216356   1.781   4.700   6.824
 5153SOL     OW16357   1.784   1.306   6.737
 5153SOL    HW116358   1.792   1.221   6.684
 5153SOL    HW216359   1.875   1.346   6.750
 5154SOL     OW16360   1.109   2.751   6.226
 5154SOL    HW116361   1.141   2.658   6.248
 5154SOL    HW216362   1.046   2.747   6.149
 5155SOL     OW16363   4.309   0.739   2.147
 5155SOL    HW116364   4.288   0.685   2.228
 5155SOL    HW216365   4.322   0.678   2.069
 5156SOL     OW16366   5.752   3.719   6.414
 5156SOL    HW116367   5.711   3.648   6.471
 5156SOL    HW216368   5.797   3.787   6.472
 5157SOL     OW16369   3.746   2.159   3.472
 5157SOL    HW116370   3.778   2.143   3.565
 5157SOL    HW216371   3.824   2.185   3.414
 5158SOL     OW16372   3.600   1.320   1.697
 5158SOL    HW116373   3.599   1.246   1.764
 5158SOL    HW216374   3.508   1.357   1.685
 5159SOL     OW16375   6.097   4.134   4.699
 5159SOL    HW116376   6.145   4.188   4.768
 5159SOL    HW216377   6.016   4.092   4.741
 5160SOL     OW16378   0.319   4.975   2.945
 5160SOL    HW116379   0.315   4.926   3.032
 5160SOL    HW216380   0.247   5.044   2.942
 5161SOL     OW16381   1.920   3.615   5.666
 5161SOL    HW116382   2.007   3.609   5.617
 5161SOL    HW216383   1.893   3.711   5.672
 5162SOL     OW16384   1.053   4.801   2.782
 5162SOL    HW116385   0.956   4.786   2.762
 5162SOL    HW216386   1.069   4.899   2.794
 5163SOL     OW16387   3.344   6.404   0.003
 5163SOL    HW116388   3.358   6.309   7.000
 5163SOL    HW216389   3.429   6.439   0.043
 5164SOL     OW16390   3.871   2.543   6.660
 5164SOL    HW116391   3.792   2.509   6.608
 5164SOL    HW216392   3.913   2.619   6.611
 5165SOL     OW16393   6.724   4.265   5.563
 5165SOL    HW116394   6.753   4.359   5.583
 5165SOL    HW216395   6.715   4.253   5.464
 5166SOL     OW16396   0.542   5.285   2.268
 5166SOL    HW116397   0.504   5.211   2.323
 5166SOL    HW216398   0.640   5.290   2.283
 5167SOL     OW16399   6.908   6.156   6.208
 5167SOL    HW116400   6.870   6.149   6.115
 5167SOL    HW216401   6.987   6.094   6.216
 5168SOL     OW16402   4.957   3.507   2.044
 5168SOL    HW116403   4.867   3.469   2.065
 5168SOL    HW216404   5.008   3.442   1.987
 5169SOL     OW16405   4.045   2.211   4.448
 5169SOL    HW116406   3.985   2.200   4.369
 5169SOL    HW216407   4.135   2.240   4.417
 5170SOL     OW16408   0.602   4.468   5.416
 5170SOL    HW116409   0.591   4.464   5.515
 5170SOL    HW216410   0.589   4.377   5.377
 5171SOL     OW16411   0.521   5.143   4.871
 5171SOL    HW116412   0.581   5.207   4.918
 5171SOL    HW216413   0.425   5.167   4.889
 5172SOL     OW16414   1.417   2.473   2.442
 5172SOL    HW116415   1.421   2.481   2.342
 5172SOL    HW216416   1.379   2.557   2.481
 5173SOL     OW16417   5.283   4.950   5.767
 5173SOL    HW116418   5.258   5.045   5.784
 5173SOL    HW216419   5.374   4.931   5.806
 5174SOL     OW16420   2.137   4.985   3.046
 5174SOL    HW116421   2.177   4.909   3.097
 5174SOL    HW216422   2.114   5.059   3.109
 5175SOL     OW16423   2.723   3.597   6.886
 5175SOL    HW116424   2.755   3.502   6.889
 5175SOL    HW216425   2.765   3.644   6.808
 5176SOL     OW16426   4.943   3.404   6.946
 5176SOL    HW116427   4.876   3.478   6.946
 5176SOL    HW216428   4.936   3.352   0.005
 5177SOL     OW16429   5.342   0.505   0.393
 5177SOL    HW116430   5.271   0.570   0.421
 5177SOL    HW216431   5.390   0.471   0.474
 5178SOL     OW16432   1.274   4.253   2.212
 5178SOL    HW116433   1.327   4.210   2.138
 5178SOL    HW216434   1.199   4.306   2.173
 5179SOL     OW16435   4.093   5.228   3.795
 5179SOL    HW116436   4.148   5.215   3.877
 5179SOL    HW216437   4.145   5.199   3.715
 5180SOL     OW16438   2.210   2.255   0.961
 5180SOL    HW116439   2.114   2.228   0.973
 5180SOL    HW216440   2.219   2.353   0.976
 5181SOL     OW16441   5.731   1.067   2.778
 5181SOL    HW116442   5.794   0.990   2.793
 5181SOL    HW216443   5.737   1.130   2.856
 5182SOL     OW16444   3.902   4.279   1.658
 5182SOL    HW116445   3.949   4.192   1.673
 5182SOL    HW216446   3.808   4.271   1.691
 5183SOL     OW16447   3.909   1.503   2.995
 5183SOL    HW116448   3.995   1.486   3.042
 5183SOL    HW216449   3.859   1.575   3.043
 5184SOL     OW16450   0.746   1.554   4.612
 5184SOL    HW116451   0.724   1.622   4.543
 5184SOL    HW216452   0.706   1.580   4.700
 5185SOL     OW16453   5.779   0.594   2.496
 5185SOL    HW116454   5.861   0.627   2.451
 5185SOL    HW216455   5.763   0.646   2.580
 5186SOL     OW16456   6.660   2.486   0.881
 5186SOL    HW116457   6.730   2.486   0.810
 5186SOL    HW216458   6.656   2.396   0.924
 5187SOL     OW16459   1.441   6.848   4.374
 5187SOL    HW116460   1.354   6.886   4.403
 5187SOL    HW216461   1.515   6.910   4.399
 5188SOL     OW16462   0.773   5.433   0.960
 5188SOL    HW116463   0.833   5.385   0.895
 5188SOL    HW216464   0.816   5.434   1.050
 5189SOL     OW16465   3.887   4.412   0.978
 5189SOL    HW116466   3.951   4.400   1.054
 5189SOL    HW216467   3.916   4.355   0.901
 5190SOL     OW16468   0.650   1.663   4.103
 5190SOL    HW116469   0.565   1.686   4.057
 5190SOL    HW216470   0.667   1.565   4.095
 5191SOL     OW16471   4.015   0.262   1.922
 5191SOL    HW116472   4.038   0.359   1.920
 5191SOL    HW216473   4.099   0.208   1.927
 5192SOL     OW16474   2.620   5.595   2.393
 5192SOL    HW116475   2.655   5.530   2.461
 5192SOL    HW216476   2.678   5.677   2.392
 5193SOL     OW16477   4.957   4.600   4.618
 5193SOL    HW116478   5.032   4.657   4.584
 5193SOL    HW216479   4.987   4.552   4.701
 5194SOL     OW16480   4.818   2.173   6.916
 5194SOL    HW116481   4.904   2.131   6.945
 5194SOL    HW216482   4.744   2.144   6.977
 5195SOL     OW16483   6.661   6.469   3.850
 5195SOL    HW116484   6.591   6.403   3.878
 5195SOL    HW216485   6.727   6.482   3.925
 5196SOL     OW16486   3.252   5.355   0.483
 5196SOL    HW116487   3.282   5.450   0.492
 5196SOL    HW216488   3.329   5.299   0.449
 5197SOL     OW16489   1.909   5.214   5.658
 5197SOL    HW116490   1.940   5.214   5.563
 5197SOL    HW216491   1.897   5.119   5.689
 5198SOL     OW16492   4.323   6.871   3.670
 5198SOL    HW116493   4.234   6.861   3.627
 5198SOL    HW216494   4.374   6.785   3.664
 5199SOL     OW16495   1.848   5.836   0.297
 5199SOL    HW116496   1.762   5.796   0.329
 5199SOL    HW216497   1.849   5.836   0.197
 5200SOL     OW16498   1.016   2.561   5.102
 5200SOL    HW116499   1.070   2.562   5.186
 5200SOL    HW216500   1.076   2.538   5.025
 5201SOL     OW16501   0.158   6.759   3.744
 5201SOL    HW116502   0.225   6.795   3.680
 5201SOL    HW216503   0.104   6.688   3.699
 5202SOL     OW16504   6.283   4.482   5.828
 5202SOL    HW116505   6.346   4.405   5.821
 5202SOL    HW216506   6.290   4.538   5.745
 5203SOL     OW16507   2.346   1.368   6.683
 5203SOL    HW116508   2.302   1.453   6.653
 5203SOL    HW216509   2.429   1.354   6.629
 5204SOL     OW16510   4.245   5.946   6.762
 5204SOL    HW116511   4.327   5.894   6.787
 5204SOL    HW216512   4.166   5.909   6.811
 5205SOL     OW16513   0.741   5.627   0.665
 5205SOL    HW116514   0.693   5.671   0.590
 5205SOL    HW216515   0.679   5.562   0.710
 5206SOL     OW16516   0.589   4.739   6.481
 5206SOL    HW116517   0.533   4.660   6.458
 5206SOL    HW216518   0.591   4.751   6.580
 5207SOL     OW16519   1.103   6.025   4.245
 5207SOL    HW116520   1.048   5.990   4.321
 5207SOL    HW216521   1.094   6.124   4.240
 5208SOL     OW16522   4.860   2.824   6.395
 5208SOL    HW116523   4.826   2.890   6.328
 5208SOL    HW216524   4.783   2.784   6.444
 5209SOL     OW16525   5.830   6.795   1.925
 5209SOL    HW116526   5.770   6.867   1.890
 5209SOL    HW216527   5.777   6.714   1.947
 5210SOL     OW16528   4.561   2.979   0.163
 5210SOL    HW116529   4.646   2.952   0.117
 5210SOL    HW216530   4.574   2.976   0.262
 5211SOL     OW16531   3.651   2.514   5.438
 5211SOL    HW116532   3.716   2.513   5.362
 5211SOL    HW216533   3.562   2.481   5.407
 5212SOL     OW16534   0.264   2.645   0.706
 5212SOL    HW116535   0.348   2.651   0.653
 5212SOL    HW216536   0.262   2.558   0.756
 5213SOL     OW16537   4.680   4.062   6.850
 5213SOL    HW116538   4.696   4.159   6.873
 5213SOL    HW216539   4.627   4.019   6.923
 5214SOL     OW16540   5.606   1.751   6.132
 5214SOL    HW116541   5.614   1.652   6.146
 5214SOL    HW216542   5.689   1.796   6.165
 5215SOL     OW16543   0.469   4.436   4.072
 5215SOL    HW116544   0.481   4.362   4.138
 5215SOL    HW216545   0.450   4.397   3.982
 5216SOL     OW16546   4.578   5.039   2.038
 5216SOL    HW116547   4.585   5.044   2.137
 5216SOL    HW216548   4.637   5.108   1.997
 5217SOL     OW16549   4.075   5.336   4.402
 5217SOL    HW116550   4.026   5.267   4.455
 5217SOL    HW216551   4.042   5.335   4.308
 5218SOL     OW16552   0.785   0.787   2.500
 5218SOL    HW116553   0.773   0.715   2.568
 5218SOL    HW216554   0.867   0.840   2.522
 5219SOL     OW16555   4.272   1.669   4.918
 5219SOL    HW116556   4.367   1.681   4.889
 5219SOL    HW216557   4.269   1.648   5.015
 5220SOL     OW16558   1.081   6.235   2.373
 5220SOL    HW116559   1.064   6.156   2.432
 5220SOL    HW216560   1.002   6.297   2.376
 5221SOL     OW16561   6.044   1.399   3.782
 5221SOL    HW116562   6.011   1.337   3.853
 5221SOL    HW216563   5.966   1.433   3.729
 5222SOL     OW16564   4.052   6.277   3.347
 5222SOL    HW116565   4.089   6.352   3.402
 5222SOL    HW216566   4.125   6.212   3.327
 5223SOL     OW16567   6.005   2.836   0.647
 5223SOL    HW116568   6.010   2.747   0.602
 5223SOL    HW216569   5.936   2.892   0.602
 5224SOL     OW16570   6.559   2.882   4.771
 5224SOL    HW116571   6.477   2.939   4.777
 5224SOL    HW216572   6.558   2.832   4.684
 5225SOL     OW16573   0.369   0.422   3.734
 5225SOL    HW116574   0.342   0.428   3.638
 5225SOL    HW216575   0.288   0.432   3.792
 5226SOL     OW16576   6.716   6.623   4.962
 5226SOL    HW116577   6.752   6.610   5.054
 5226SOL    HW216578   6.731   6.718   4.932
 5227SOL     OW16579   0.093   3.588   5.059
 5227SOL    HW116580   0.025   3.528   5.016
 5227SOL    HW216581   0.130   3.543   5.140
 5228SOL     OW16582   6.210   2.302   0.968
 5228SOL    HW116583   6.224   2.304   1.067
 5228SOL    HW216584   6.211   2.395   0.932
 5229SOL     OW16585   2.604   6.155   0.150
 5229SOL    HW116586   2.599   6.073   0.208
 5229SOL    HW216587   2.641   6.231   0.203
 5230SOL     OW16588   0.762   5.478   1.720
 5230SOL    HW116589   0.847   5.429   1.701
 5230SOL    HW216590   0.694   5.458   1.649
 5231SOL     OW16591   4.858   2.452   4.762
 5231SOL    HW116592   4.759   2.444   4.750
 5231SOL    HW216593   4.883   2.424   4.854
 5232SOL     OW16594   2.583   3.425   5.973
 5232SOL    HW116595   2.680   3.399   5.968
 5232SOL    HW216596   2.570   3.512   5.926
 5233SOL     OW16597   4.675   1.000   2.023
 5233SOL    HW116598   4.708   1.076   2.080
 5233SOL    HW216599   4.597   1.031   1.968
 5234SOL     OW16600   2.669   1.646   5.862
 5234SOL    HW116601   2.593   1.663   5.800
 5234SOL    HW216602   2.635   1.637   5.956
 5235SOL     OW16603   1.655   2.250   1.077
 5235SOL    HW116604   1.635   2.330   1.020
 5235SOL    HW216605   1.605   2.257   1.163
 5236SOL     OW16606   5.067   5.073   2.100
 5236SOL    HW116607   5.082   4.984   2.142
 5236SOL    HW216608   5.067   5.144   2.170
 5237SOL     OW16609   1.450   1.001   4.789
 5237SOL    HW116610   1.480   0.921   4.737
 5237SOL    HW216611   1.527   1.064   4.799
 5238SOL     OW16612   0.395   4.582   0.054
 5238SOL    HW116613   0.467   4.592   7.012
 5238SOL    HW216614   0.320   4.527   0.017
 5239SOL     OW16615   3.108   3.035   4.524
 5239SOL    HW116616   3.116   3.125   4.482
 5239SOL    HW216617   3.096   2.966   4.453
 5240SOL     OW16618   3.083   1.981   5.754
 5240SOL    HW116619   3.153   1.911   5.770
 5240SOL    HW216620   3.119   2.050   5.692
 5241SOL     OW16621   0.286   5.396   4.794
 5241SOL    HW116622   0.267   5.439   4.882
 5241SOL    HW216623   0.237   5.309   4.787
 5242SOL     OW16624   6.901   6.402   6.423
 5242SOL    HW116625   6.994   6.368   6.437
 5242SOL    HW216626   6.843   6.327   6.390
 5243SOL     OW16627   1.367   5.529   1.547
 5243SOL    HW116628   1.287   5.482   1.511
 5243SOL    HW216629   1.422   5.465   1.601
 5244SOL     OW16630   3.295   5.472   0.172
 5244SOL    HW116631   3.273   5.395   0.231
 5244SOL    HW216632   3.229   5.478   0.097
 5245SOL     OW16633   3.826   4.810   7.012
 5245SOL    HW116634   3.845   4.867   0.065
 5245SOL    HW216635   3.752   4.746   0.007
 5246SOL     OW16636   5.408   3.712   1.710
 5246SOL    HW116637   5.313   3.739   1.729
 5246SOL    HW216638   5.450   3.677   1.794
 5247SOL     OW16639   1.999   0.773   6.896
 5247SOL    HW116640   1.952   0.699   6.943
 5247SOL    HW216641   2.071   0.811   6.955
 5248SOL     OW16642   5.821   1.560   3.694
 5248SOL    HW116643   5.749   1.598   3.751
 5248SOL    HW216644   5.785   1.544   3.602
 5249SOL     OW16645   6.896   5.123   6.074
 5249SOL    HW116646   6.934   5.056   6.011
 5249SOL    HW216647   6.796   5.119   6.071
 5250SOL     OW16648   2.145   5.777   6.018
 5250SOL    HW116649   2.166   5.776   5.920
 5250SOL    HW216650   2.151   5.684   6.054
 5251SOL     OW16651   0.521   3.629   0.040
 5251SOL    HW116652   0.546   3.678   6.982
 5251SOL    HW216653   0.423   3.608   0.038
 5252SOL     OW16654   1.609   6.405   0.615
 5252SOL    HW116655   1.618   6.358   0.528
 5252SOL    HW216656   1.622   6.340   0.690
 5253SOL     OW16657   5.937   4.862   4.760
 5253SOL    HW116658   5.959   4.958   4.745
 5253SOL    HW216659   5.944   4.841   4.858
 5254SOL     OW16660   4.425   1.284   3.172
 5254SOL    HW116661   4.500   1.343   3.204
 5254SOL    HW216662   4.384   1.237   3.250
 5255SOL     OW16663   5.854   1.275   5.405
 5255SOL    HW116664   5.898   1.322   5.328
 5255SOL    HW216665   5.807   1.193   5.371
 5256SOL     OW16666   4.017   1.475   3.570
 5256SOL    HW116667   4.103   1.504   3.611
 5256SOL    HW216668   3.970   1.411   3.631
 5257SOL     OW16669   6.119   6.762   1.891
 5257SOL    HW116670   6.132   6.828   1.816
 5257SOL    HW216671   6.022   6.753   1.911
 5258SOL     OW16672   5.738   3.392   1.640
 5258SOL    HW116673   5.709   3.455   1.567
 5258SOL    HW216674   5.697   3.302   1.624
 5259SOL     OW16675   5.660   6.552   1.908
 5259SOL    HW116676   5.636   6.571   1.813
 5259SOL    HW216677   5.669   6.453   1.922
 5260SOL     OW16678   5.190   3.452   1.052
 5260SOL    HW116679   5.124   3.378   1.036
 5260SOL    HW216680   5.275   3.413   1.090
 5261SOL     OW16681   0.589   3.943   6.876
 5261SOL    HW116682   0.599   3.911   6.782
 5261SOL    HW216683   0.679   3.962   6.914
 5262SOL     OW16684   2.467   0.771   3.209
 5262SOL    HW116685   2.527   0.843   3.172
 5262SOL    HW216686   2.372   0.794   3.190
 5263SOL     OW16687   1.422   1.889   4.279
 5263SOL    HW116688   1.459   1.982   4.284
 5263SOL    HW216689   1.467   1.832   4.348
 5264SOL     OW16690   6.623   2.459   2.831
 5264SOL    HW116691   6.700   2.497   2.780
 5264SOL    HW216692   6.540   2.512   2.809
 5265SOL     OW16693   6.721   3.556   4.115
 5265SOL    HW116694   6.680   3.619   4.181
 5265SOL    HW216695   6.650   3.495   4.079
 5266SOL     OW16696   2.872   5.584   0.729
 5266SOL    HW116697   2.783   5.629   0.738
 5266SOL    HW216698   2.887   5.558   0.634
 5267SOL     OW16699   5.191   3.902   4.894
 5267SOL    HW116700   5.235   3.823   4.937
 5267SOL    HW216701   5.094   3.903   4.917
 5268SOL     OW16702   5.433   0.691   6.758
 5268SOL    HW116703   5.475   0.619   6.702
 5268SOL    HW216704   5.393   0.650   6.840
 5269SOL     OW16705   1.419   6.800   3.838
 5269SOL    HW116706   1.435   6.829   3.932
 5269SOL    HW216707   1.459   6.709   3.824
 5270SOL     OW16708   5.867   1.223   1.123
 5270SOL    HW116709   5.860   1.129   1.156
 5270SOL    HW216710   5.944   1.269   1.170
 5271SOL     OW16711   5.748   5.346   4.987
 5271SOL    HW116712   5.661   5.391   5.006
 5271SOL    HW216713   5.733   5.271   4.923
 5272SOL     OW16714   2.955   5.151   1.882
 5272SOL    HW116715   2.956   5.112   1.975
 5272SOL    HW216716   2.971   5.078   1.815
 5273SOL     OW16717   6.732   2.847   3.691
 5273SOL    HW116718   6.659   2.846   3.623
 5273SOL    HW216719   6.700   2.890   3.775
 5274SOL     OW16720   6.723   6.813   3.091
 5274SOL    HW116721   6.721   6.913   3.086
 5274SOL    HW216722   6.636   6.776   3.057
 5275SOL     OW16723   3.620   2.177   0.801
 5275SOL    HW116724   3.594   2.266   0.836
 5275SOL    HW216725   3.555   2.148   0.730
 5276SOL     OW16726   2.074   0.514   0.983
 5276SOL    HW116727   2.134   0.594   0.970
 5276SOL    HW216728   2.084   0.481   1.077
 5277SOL     OW16729   1.336   1.522   2.713
 5277SOL    HW116730   1.353   1.426   2.735
 5277SOL    HW216731   1.237   1.538   2.711
 5278SOL     OW16732   5.814   0.276   3.537
 5278SOL    HW116733   5.793   0.260   3.441
 5278SOL    HW216734   5.732   0.306   3.585
 5279SOL     OW16735   2.180   5.232   5.904
 5279SOL    HW116736   2.083   5.251   5.912
 5279SOL    HW216737   2.198   5.139   5.935
 5280SOL     OW16738   2.376   5.894   5.081
 5280SOL    HW116739   2.418   5.944   5.005
 5280SOL    HW216740   2.297   5.844   5.048
 5281SOL     OW16741   0.555   1.657   2.742
 5281SOL    HW116742   0.534   1.754   2.729
 5281SOL    HW216743   0.474   1.602   2.722
 5282SOL     OW16744   2.241   1.926   2.898
 5282SOL    HW116745   2.266   2.023   2.902
 5282SOL    HW216746   2.213   1.903   2.805
 5283SOL     OW16747   3.800   6.735   1.389
 5283SOL    HW116748   3.779   6.655   1.332
 5283SOL    HW216749   3.885   6.777   1.359
 5284SOL     OW16750   5.031   3.734   3.391
 5284SOL    HW116751   4.973   3.673   3.445
 5284SOL    HW216752   5.056   3.689   3.305
 5285SOL     OW16753   2.764   5.130   3.243
 5285SOL    HW116754   2.827   5.171   3.310
 5285SOL    HW216755   2.749   5.195   3.168
 5286SOL     OW16756   1.384   4.437   0.498
 5286SOL    HW116757   1.455   4.384   0.544
 5286SOL    HW216758   1.413   4.458   0.405
 5287SOL     OW16759   2.789   6.457   1.078
 5287SOL    HW116760   2.883   6.422   1.075
 5287SOL    HW216761   2.739   6.412   1.152
 5288SOL     OW16762   3.510   0.394   1.513
 5288SOL    HW116763   3.413   0.397   1.487
 5288SOL    HW216764   3.533   0.302   1.544
 5289SOL     OW16765   1.630   4.354   5.762
 5289SOL    HW116766   1.608   4.261   5.731
 5289SOL    HW216767   1.660   4.409   5.685
 5290SOL     OW16768   1.687   4.997   4.950
 5290SOL    HW116769   1.784   4.974   4.951
 5290SOL    HW216770   1.676   5.096   4.962
 5291SOL     OW16771   2.662   5.075   5.894
 5291SOL    HW116772   2.636   5.090   5.990
 5291SOL    HW216773   2.603   5.129   5.835
 5292SOL     OW16774   6.419   3.239   6.886
 5292SOL    HW116775   6.422   3.246   6.986
 5292SOL    HW216776   6.441   3.146   6.858
 5293SOL     OW16777   0.664   0.107   4.694
 5293SOL    HW116778   0.707   0.018   4.706
 5293SOL    HW216779   0.680   0.162   4.776
 5294SOL     OW16780   4.407   3.464   5.894
 5294SOL    HW116781   4.442   3.464   5.800
 5294SOL    HW216782   4.399   3.558   5.927
 5295SOL     OW16783   5.191   0.906   2.688
 5295SOL    HW116784   5.285   0.872   2.691
 5295SOL    HW216785   5.168   0.932   2.594
 5296SOL     OW16786   2.127   4.992   0.194
 5296SOL    HW116787   2.078   5.056   0.254
 5296SOL    HW216788   2.209   5.036   0.158
 5297SOL     OW16789   3.224   2.247   1.065
 5297SOL    HW116790   3.186   2.274   1.153
 5297SOL    HW216791   3.229   2.327   1.005
 5298SOL     OW16792   0.850   5.317   0.420
 5298SOL    HW116793   0.901   5.404   0.417
 5298SOL    HW216794   0.856   5.272   0.331
 5299SOL     OW16795   2.275   2.512   0.903
 5299SOL    HW116796   2.353   2.517   0.841
 5299SOL    HW216797   2.241   2.604   0.922
 5300SOL     OW16798   0.286   6.197   1.943
 5300SOL    HW116799   0.245   6.255   2.012
 5300SOL    HW216800   0.231   6.115   1.929
 5301SOL     OW16801   4.381   2.377   0.833
 5301SOL    HW116802   4.359   2.474   0.837
 5301SOL    HW216803   4.454   2.362   0.767
 5302SOL     OW16804   5.904   3.928   2.949
 5302SOL    HW116805   5.966   3.850   2.955
 5302SOL    HW216806   5.877   3.942   2.854
 5303SOL     OW16807   6.652   5.996   3.422
 5303SOL    HW116808   6.560   5.969   3.394
 5303SOL    HW216809   6.662   5.981   3.521
 5304SOL     OW16810   6.714   1.796   5.606
 5304SOL    HW116811   6.732   1.871   5.542
 5304SOL    HW216812   6.769   1.716   5.581
 5305SOL     OW16813   1.501   6.459   4.735
 5305SOL    HW116814   1.481   6.363   4.753
 5305SOL    HW216815   1.571   6.465   4.663
 5306SOL     OW16816   0.446   6.001   4.988
 5306SOL    HW116817   0.534   5.963   5.019
 5306SOL    HW216818   0.378   5.988   5.060
 5307SOL     OW16819   4.284   0.287   6.964
 5307SOL    HW116820   4.333   0.215   7.014
 5307SOL    HW216821   4.271   0.366   7.024
 5308SOL     OW16822   1.138   6.507   4.880
 5308SOL    HW116823   1.201   6.455   4.821
 5308SOL    HW216824   1.046   6.502   4.843
 5309SOL     OW16825   3.078   3.613   2.330
 5309SOL    HW116826   3.037   3.641   2.243
 5309SOL    HW216827   3.031   3.532   2.365
 5310SOL     OW16828   5.271   2.604   1.812
 5310SOL    HW116829   5.210   2.530   1.841
 5310SOL    HW216830   5.365   2.584   1.841
 5311SOL     OW16831   0.368   5.699   0.938
 5311SOL    HW116832   0.365   5.674   1.034
 5311SOL    HW216833   0.458   5.679   0.900
 5312SOL     OW16834   7.012   4.357   2.532
 5312SOL    HW116835   6.932   4.367   2.592
 5312SOL    HW216836   0.054   4.426   2.556
 5313SOL     OW16837   0.948   4.691   6.852
 5313SOL    HW116838   0.899   4.763   6.901
 5313SOL    HW216839   0.897   4.665   6.770
 5314SOL     OW16840   3.338   5.156   0.221
 5314SOL    HW116841   3.310   5.148   0.125
 5314SOL    HW216842   3.277   5.103   0.279
 5315SOL     OW16843   3.860   3.877   1.577
 5315SOL    HW116844   3.948   3.923   1.584
 5315SOL    HW216845   3.815   3.904   1.492
 5316SOL     OW16846   6.780   5.209   5.059
 5316SOL    HW116847   6.772   5.135   5.126
 5316SOL    HW216848   6.696   5.263   5.059
 5317SOL     OW16849   6.986   0.901   4.848
 5317SOL    HW116850   6.920   0.974   4.864
 5317SOL    HW216851   0.046   0.941   4.817
 5318SOL     OW16852   0.664   1.545   6.033
 5318SOL    HW116853   0.645   1.455   5.995
 5318SOL    HW216854   0.635   1.616   5.968
 5319SOL     OW16855   4.723   6.372   0.011
 5319SOL    HW116856   4.635   6.413   0.036
 5319SOL    HW216857   4.715   6.329   6.948
 5320SOL     OW16858   5.668   5.131   6.670
 5320SOL    HW116859   5.646   5.219   6.627
 5320SOL    HW216860   5.583   5.086   6.698
 5321SOL     OW16861   0.954   3.825   2.814
 5321SOL    HW116862   1.007   3.842   2.731
 5321SOL    HW216863   0.994   3.875   2.891
 5322SOL     OW16864   3.935   6.225   6.020
 5322SOL    HW116865   3.861   6.280   5.983
 5322SOL    HW216866   4.009   6.285   6.052
 5323SOL     OW16867   3.882   3.313   0.690
 5323SOL    HW116868   3.906   3.236   0.631
 5323SOL    HW216869   3.940   3.311   0.771
 5324SOL     OW16870   3.614   2.583   1.764
 5324SOL    HW116871   3.677   2.644   1.812
 5324SOL    HW216872   3.629   2.489   1.794
 5325SOL     OW16873   5.717   6.585   3.722
 5325SOL    HW116874   5.787   6.567   3.791
 5325SOL    HW216875   5.630   6.545   3.750
 5326SOL     OW16876   6.929   5.114   2.859
 5326SOL    HW116877   6.859   5.161   2.806
 5326SOL    HW216878   6.887   5.069   2.938
 5327SOL     OW16879   6.926   5.151   5.639
 5327SOL    HW116880   7.009   5.127   5.589
 5327SOL    HW216881   6.949   5.210   5.716
 5328SOL     OW16882   4.559   2.638   5.454
 5328SOL    HW116883   4.493   2.665   5.525
 5328SOL    HW216884   4.577   2.716   5.394
 5329SOL     OW16885   0.811   4.219   6.934
 5329SOL    HW116886   0.841   4.312   6.952
 5329SOL    HW216887   0.766   4.182   7.015
 5330SOL     OW16888   3.394   4.857   6.942
 5330SOL    HW116889   3.451   4.807   6.876
 5330SOL    HW216890   3.453   4.896   7.013
 5331SOL     OW16891   5.332   1.660   1.606
 5331SOL    HW116892   5.398   1.736   1.609
 5331SOL    HW216893   5.244   1.694   1.574
 5332SOL     OW16894   6.582   4.216   0.375
 5332SOL    HW116895   6.545   4.225   0.283
 5332SOL    HW216896   6.623   4.125   0.386
 5333SOL     OW16897   1.209   0.421   3.775
 5333SOL    HW116898   1.241   0.382   3.861
 5333SOL    HW216899   1.264   0.385   3.699
 5334SOL     OW16900   3.568   4.920   5.580
 5334SOL    HW116901   3.583   4.840   5.637
 5334SOL    HW216902   3.618   4.998   5.616
 5335SOL     OW16903   0.406   5.055   2.375
 5335SOL    HW116904   0.391   5.031   2.471
 5335SOL    HW216905   0.438   4.974   2.325
 5336SOL     OW16906   2.151   2.123   3.382
 5336SOL    HW116907   2.125   2.041   3.432
 5336SOL    HW216908   2.119   2.204   3.432
 5337SOL     OW16909   5.305   4.436   1.854
 5337SOL    HW116910   5.270   4.383   1.931
 5337SOL    HW216911   5.399   4.464   1.874
 5338SOL     OW16912   6.023   1.534   6.309
 5338SOL    HW116913   6.018   1.579   6.220
 5338SOL    HW216914   5.954   1.462   6.314
 5339SOL     OW16915   5.347   1.429   3.119
 5339SOL    HW116916   5.423   1.419   3.054
 5339SOL    HW216917   5.372   1.385   3.205
 5340SOL     OW16918   6.181   4.214   1.351
 5340SOL    HW116919   6.251   4.153   1.388
 5340SOL    HW216920   6.095   4.164   1.340
 5341SOL     OW16921   3.054   4.939   4.979
 5341SOL    HW116922   2.981   4.900   4.922
 5341SOL    HW216923   3.064   4.886   5.063
 5342SOL     OW16924   5.396   6.318   4.632
 5342SOL    HW116925   5.396   6.410   4.671
 5342SOL    HW216926   5.469   6.311   4.564
 5343SOL     OW16927   3.914   3.433   4.711
 5343SOL    HW116928   3.860   3.380   4.645
 5343SOL    HW216929   3.925   3.379   4.795
 5344SOL     OW16930   0.673   1.631   0.412
 5344SOL    HW116931   0.687   1.532   0.413
 5344SOL    HW216932   0.729   1.673   0.484
 5345SOL     OW16933   5.194   0.110   0.193
 5345SOL    HW116934   5.192   0.035   0.127
 5345SOL    HW216935   5.183   0.197   0.146
 5346SOL     OW16936   3.440   5.558   3.846
 5346SOL    HW116937   3.482   5.488   3.902
 5346SOL    HW216938   3.366   5.602   3.896
 5347SOL     OW16939   6.622   3.791   3.166
 5347SOL    HW116940   6.705   3.744   3.135
 5347SOL    HW216941   6.628   3.807   3.265
 5348SOL     OW16942   0.447   1.524   6.559
 5348SOL    HW116943   0.506   1.472   6.620
 5348SOL    HW216944   0.396   1.592   6.612
 5349SOL     OW16945   2.578   3.406   0.631
 5349SOL    HW116946   2.667   3.378   0.668
 5349SOL    HW216947   2.529   3.325   0.597
 5350SOL     OW16948   2.562   6.810   5.243
 5350SOL    HW116949   2.553   6.806   5.143
 5350SOL    HW216950   2.578   6.905   5.271
 5351SOL     OW16951   0.250   5.703   2.062
 5351SOL    HW116952   0.297   5.742   2.141
 5351SOL    HW216953   0.178   5.641   2.094
 5352SOL     OW16954   1.926   4.868   2.858
 5352SOL    HW116955   1.968   4.943   2.910
 5352SOL    HW216956   1.990   4.838   2.787
 5353SOL     OW16957   3.803   6.097   4.024
 5353SOL    HW116958   3.705   6.089   4.042
 5353SOL    HW216959   3.820   6.092   3.926
 5354SOL     OW16960   1.812   4.751   0.691
 5354SOL    HW116961   1.861   4.666   0.674
 5354SOL    HW216962   1.747   4.769   0.617
 5355SOL     OW16963   6.255   5.268   3.916
 5355SOL    HW116964   6.326   5.331   3.884
 5355SOL    HW216965   6.295   5.204   3.982
 5356SOL     OW16966   6.605   3.565   2.501
 5356SOL    HW116967   6.569   3.650   2.465
 5356SOL    HW216968   6.698   3.551   2.468
 5357SOL     OW16969   3.745   4.633   0.683
 5357SOL    HW116970   3.752   4.606   0.779
 5357SOL    HW216971   3.754   4.552   0.625
 5358SOL     OW16972   4.469   2.492   1.117
 5358SOL    HW116973   4.517   2.481   1.204
 5358SOL    HW216974   4.457   2.402   1.074
 5359SOL     OW16975   2.468   1.892   5.997
 5359SOL    HW116976   2.493   1.845   6.081
 5359SOL    HW216977   2.535   1.964   5.977
 5360SOL     OW16978   4.923   5.976   3.726
 5360SOL    HW116979   4.945   5.999   3.821
 5360SOL    HW216980   4.863   6.047   3.688
 5361SOL     OW16981   2.245   6.590   4.239
 5361SOL    HW116982   2.335   6.605   4.199
 5361SOL    HW216983   2.251   6.518   4.308
 5362SOL     OW16984   6.588   5.825   2.614
 5362SOL    HW116985   6.649   5.849   2.689
 5362SOL    HW216986   6.550   5.908   2.574
 5363SOL     OW16987   5.493   6.210   5.971
 5363SOL    HW116988   5.504   6.163   5.883
 5363SOL    HW216989   5.401   6.194   6.007
 5364SOL     OW16990   6.257   6.673   1.573
 5364SOL    HW116991   6.330   6.655   1.639
 5364SOL    HW216992   6.178   6.616   1.594
 5365SOL     OW16993   3.164   2.958   2.341
 5365SOL    HW116994   3.149   2.989   2.247
 5365SOL    HW216995   3.086   2.905   2.372
 5366SOL     OW16996   6.738   6.506   2.374
 5366SOL    HW116997   6.787   6.591   2.355
 5366SOL    HW216998   6.791   6.428   2.342
 5367SOL     OW16999   0.237   6.726   1.518
 5367SOL    HW117000   0.285   6.723   1.430
 5367SOL    HW217001   0.141   6.702   1.505
 5368SOL     OW17002   6.162   6.856   2.813
 5368SOL    HW117003   6.214   6.815   2.737
 5368SOL    HW217004   6.172   6.955   2.811
 5369SOL     OW17005   2.742   6.192   1.161
 5369SOL    HW117006   2.786   6.105   1.183
 5369SOL    HW217007   2.751   6.254   1.239
 5370SOL     OW17008   4.514   3.950   0.917
 5370SOL    HW117009   4.576   3.994   0.853
 5370SOL    HW217010   4.420   3.961   0.886
 5371SOL     OW17011   0.360   5.184   5.343
 5371SOL    HW117012   0.435   5.126   5.310
 5371SOL    HW217013   0.379   5.214   5.436
 5372SOL     OW17014   0.914   6.145   2.699
 5372SOL    HW117015   0.882   6.098   2.781
 5372SOL    HW217016   0.835   6.182   2.649
 5373SOL     OW17017   3.999   6.956   5.584
 5373SOL    HW117018   4.077   6.939   5.644
 5373SOL    HW217019   3.987   6.878   5.522
 5374SOL     OW17020   2.082   4.822   0.795
 5374SOL    HW117021   2.122   4.871   0.872
 5374SOL    HW217022   1.988   4.797   0.817
 5375SOL     OW17023   0.424   5.790   6.161
 5375SOL    HW117024   0.516   5.824   6.142
 5375SOL    HW217025   0.415   5.773   6.260
 5376SOL     OW17026   1.288   2.180   1.272
 5376SOL    HW117027   1.242   2.158   1.358
 5376SOL    HW217028   1.303   2.279   1.266
 5377SOL     OW17029   1.077   0.348   2.771
 5377SOL    HW117030   1.011   0.323   2.841
 5377SOL    HW217031   1.030   0.391   2.694
 5378SOL     OW17032   6.956   0.202   2.537
 5378SOL    HW117033   0.021   0.239   2.524
 5378SOL    HW217034   6.890   0.257   2.485
 5379SOL     OW17035   1.024   3.354   4.817
 5379SOL    HW117036   0.941   3.397   4.780
 5379SOL    HW217037   1.098   3.422   4.820
 5380SOL     OW17038   2.746   6.855   1.436
 5380SOL    HW117039   2.777   6.841   1.342
 5380SOL    HW217040   2.686   6.780   1.463
 5381SOL     OW17041   0.181   6.252   2.208
 5381SOL    HW117042   0.275   6.280   2.224
 5381SOL    HW217043   0.156   6.181   2.274
 5382SOL     OW17044   2.920   2.161   2.228
 5382SOL    HW117045   2.918   2.229   2.154
 5382SOL    HW217046   2.862   2.193   2.303
 5383SOL     OW17047   1.585   2.843   4.929
 5383SOL    HW117048   1.523   2.765   4.919
 5383SOL    HW217049   1.679   2.811   4.922
 5384SOL     OW17050   5.036   5.995   4.508
 5384SOL    HW117051   4.964   6.053   4.547
 5384SOL    HW217052   5.035   5.906   4.554
 5385SOL     OW17053   4.981   2.983   5.523
 5385SOL    HW117054   5.061   3.042   5.513
 5385SOL    HW217055   4.934   3.005   5.608
 5386SOL     OW17056   5.723   1.447   4.244
 5386SOL    HW117057   5.772   1.374   4.293
 5386SOL    HW217058   5.630   1.454   4.279
 5387SOL     OW17059   2.467   6.392   2.887
 5387SOL    HW117060   2.474   6.336   2.805
 5387SOL    HW217061   2.401   6.351   2.950
 5388SOL     OW17062   1.271   0.073   2.568
 5388SOL    HW117063   1.358   0.078   2.617
 5388SOL    HW217064   1.208   0.016   2.620
 5389SOL     OW17065   4.030   1.502   4.821
 5389SOL    HW117066   4.107   1.544   4.869
 5389SOL    HW217067   3.953   1.493   4.884
 5390SOL     OW17068   5.720   4.161   3.398
 5390SOL    HW117069   5.676   4.076   3.426
 5390SOL    HW217070   5.780   4.193   3.471
 5391SOL     OW17071   2.170   1.994   0.579
 5391SOL    HW117072   2.072   1.998   0.558
 5391SOL    HW217073   2.202   2.083   0.611
 5392SOL     OW17074   5.237   3.906   0.883
 5392SOL    HW117075   5.244   3.819   0.932
 5392SOL    HW217076   5.283   3.978   0.936
 5393SOL     OW17077   4.962   0.969   5.299
 5393SOL    HW117078   4.933   0.889   5.245
 5393SOL    HW217079   4.884   1.031   5.310
 5394SOL     OW17080   0.951   5.439   1.202
 5394SOL    HW117081   0.896   5.446   1.286
 5394SOL    HW217082   1.018   5.366   1.211
 5395SOL     OW17083   4.931   0.445   1.503
 5395SOL    HW117084   4.911   0.348   1.493
 5395SOL    HW217085   4.859   0.489   1.558
 5396SOL     OW17086   5.881   4.855   1.894
 5396SOL    HW117087   5.873   4.859   1.993
 5396SOL    HW217088   5.789   4.854   1.853
 5397SOL     OW17089   7.009   1.823   2.470
 5397SOL    HW117090   0.040   1.749   2.505
 5397SOL    HW217091   6.927   1.783   2.428
 5398SOL     OW17092   2.767   2.056   3.836
 5398SOL    HW117093   2.779   2.026   3.742
 5398SOL    HW217094   2.787   2.154   3.843
 5399SOL     OW17095   2.819   6.742   6.541
 5399SOL    HW117096   2.772   6.830   6.533
 5399SOL    HW217097   2.753   6.668   6.529
 5400SOL     OW17098   3.095   3.372   0.497
 5400SOL    HW117099   3.163   3.436   0.462
 5400SOL    HW217100   3.140   3.286   0.523
 5401SOL     OW17101   5.806   4.438   2.239
 5401SOL    HW117102   5.861   4.396   2.166
 5401SOL    HW217103   5.711   4.446   2.208
 5402SOL     OW17104   2.776   6.783   1.179
 5402SOL    HW117105   2.766   6.699   1.126
 5402SOL    HW217106   2.738   6.860   1.127
 5403SOL     OW17107   5.052   3.513   6.240
 5403SOL    HW117108   5.058   3.437   6.177
 5403SOL    HW217109   4.957   3.524   6.271
 5404SOL     OW17110   0.821   0.104   1.597
 5404SOL    HW117111   0.896   0.039   1.606
 5404SOL    HW217112   0.746   0.079   1.659
 5405SOL     OW17113   5.909   4.714   6.684
 5405SOL    HW117114   5.866   4.640   6.631
 5405SOL    HW217115   5.892   4.801   6.639
 5406SOL     OW17116   2.147   0.933   5.025
 5406SOL    HW117117   2.061   0.982   5.038
 5406SOL    HW217118   2.203   0.981   4.958
 5407SOL     OW17119   3.539   1.704   0.957
 5407SOL    HW117120   3.564   1.799   0.974
 5407SOL    HW217121   3.439   1.698   0.945
 5408SOL     OW17122   4.221   0.997   4.925
 5408SOL    HW117123   4.142   1.040   4.969
 5408SOL    HW217124   4.290   0.976   4.994
 5409SOL     OW17125   6.419   1.302   2.654
 5409SOL    HW117126   6.504   1.285   2.604
 5409SOL    HW217127   6.404   1.401   2.662
 5410SOL     OW17128   0.999   2.371   6.784
 5410SOL    HW117129   1.047   2.310   6.720
 5410SOL    HW217130   1.024   2.466   6.762
 5411SOL     OW17131   5.262   5.159   6.471
 5411SOL    HW117132   5.175   5.133   6.514
 5411SOL    HW217133   5.262   5.127   6.376
 5412SOL     OW17134   2.959   1.294   6.477
 5412SOL    HW117135   3.054   1.271   6.496
 5412SOL    HW217136   2.931   1.370   6.537
 5413SOL     OW17137   0.659   0.015   6.829
 5413SOL    HW117138   0.647   6.977   6.905
 5413SOL    HW217139   0.751   0.005   6.791
 5414SOL     OW17140   6.252   5.015   4.849
 5414SOL    HW117141   6.340   5.062   4.856
 5414SOL    HW217142   6.184   5.077   4.810
 5415SOL     OW17143   2.521   6.201   1.003
 5415SOL    HW117144   2.613   6.200   1.041
 5415SOL    HW217145   2.517   6.265   0.925
 5416SOL     OW17146   2.696   4.882   5.056
 5416SOL    HW117147   2.757   4.803   5.055
 5416SOL    HW217148   2.626   4.871   4.986
 5417SOL     OW17149   4.129   0.289   5.327
 5417SOL    HW117150   4.224   0.267   5.304
 5417SOL    HW217151   4.073   0.207   5.317
 5418SOL     OW17152   5.603   5.791   5.075
 5418SOL    HW117153   5.588   5.825   4.982
 5418SOL    HW217154   5.594   5.691   5.076
 5419SOL     OW17155   3.868   5.976   0.518
 5419SOL    HW117156   3.775   5.986   0.554
 5419SOL    HW217157   3.900   5.883   0.533
 5420SOL     OW17158   2.263   1.730   0.693
 5420SOL    HW117159   2.221   1.735   0.784
 5420SOL    HW217160   2.242   1.813   0.641
 5421SOL     OW17161   3.452   5.068   1.201
 5421SOL    HW117162   3.386   5.123   1.253
 5421SOL    HW217163   3.429   5.072   1.104
 5422SOL     OW17164   0.942   4.565   4.536
 5422SOL    HW117165   0.972   4.628   4.608
 5422SOL    HW217166   0.940   4.613   4.449
 5423SOL     OW17167   5.378   4.978   0.028
 5423SOL    HW117168   5.279   4.973   0.010
 5423SOL    HW217169   5.393   5.025   0.115
 5424SOL     OW17170   5.793   3.919   4.357
 5424SOL    HW117171   5.802   3.848   4.287
 5424SOL    HW217172   5.748   3.881   4.438
 5425SOL     OW17173   6.107   2.336   5.177
 5425SOL    HW117174   6.181   2.366   5.117
 5425SOL    HW217175   6.146   2.291   5.257
 5426SOL     OW17176   5.360   5.668   2.174
 5426SOL    HW117177   5.263   5.662   2.197
 5426SOL    HW217178   5.386   5.764   2.162
 5427SOL     OW17179   5.284   3.232   0.096
 5427SOL    HW117180   5.280   3.148   0.043
 5427SOL    HW217181   5.320   3.306   0.039
 5428SOL     OW17182   5.241   6.707   1.786
 5428SOL    HW117183   5.332   6.666   1.790
 5428SOL    HW217184   5.173   6.643   1.821
 5429SOL     OW17185   1.831   0.091   5.452
 5429SOL    HW117186   1.868   0.179   5.481
 5429SOL    HW217187   1.826   0.087   5.352
 5430SOL     OW17188   1.894   3.156   4.442
 5430SOL    HW117189   1.811   3.186   4.395
 5430SOL    HW217190   1.954   3.109   4.378
 5431SOL     OW17191   2.867   3.760   6.711
 5431SOL    HW117192   2.897   3.776   6.617
 5431SOL    HW217193   2.846   3.848   6.755
 5432SOL     OW17194   3.957   5.870   6.534
 5432SOL    HW117195   3.989   5.961   6.506
 5432SOL    HW217196   3.878   5.845   6.479
 5433SOL     OW17197   0.945   0.344   1.615
 5433SOL    HW117198   0.891   0.262   1.599
 5433SOL    HW217199   1.036   0.332   1.576
 5434SOL     OW17200   3.976   1.232   4.733
 5434SOL    HW117201   3.978   1.332   4.734
 5434SOL    HW217202   4.069   1.197   4.724
 5435SOL     OW17203   6.533   3.581   0.484
 5435SOL    HW117204   6.592   3.509   0.521
 5435SOL    HW217205   6.550   3.666   0.533
 5436SOL     OW17206   6.363   4.626   4.103
 5436SOL    HW117207   6.436   4.568   4.139
 5436SOL    HW217208   6.281   4.572   4.087
 5437SOL     OW17209   3.321   4.941   4.923
 5437SOL    HW117210   3.325   4.928   4.824
 5437SOL    HW217211   3.226   4.947   4.952
 5438SOL     OW17212   5.520   4.460   2.215
 5438SOL    HW117213   5.437   4.459   2.271
 5438SOL    HW217214   5.544   4.367   2.189
 5439SOL     OW17215   0.496   3.341   6.508
 5439SOL    HW117216   0.584   3.356   6.465
 5439SOL    HW217217   0.481   3.243   6.519
 5440SOL     OW17218   6.553   6.249   3.591
 5440SOL    HW117219   6.628   6.214   3.534
 5440SOL    HW217220   6.468   6.246   3.539
 5441SOL     OW17221   5.168   3.327   3.933
 5441SOL    HW117222   5.090   3.379   3.897
 5441SOL    HW217223   5.253   3.363   3.894
 5442SOL     OW17224   3.953   0.076   3.540
 5442SOL    HW117225   3.861   0.079   3.578
 5442SOL    HW217226   4.020   0.085   3.614
 5443SOL     OW17227   4.271   5.948   3.819
 5443SOL    HW117228   4.190   5.981   3.772
 5443SOL    HW217229   4.282   5.997   3.905
 5444SOL     OW17230   0.134   0.641   4.090
 5444SOL    HW117231   0.194   0.587   4.149
 5444SOL    HW217232   0.053   0.587   4.066
 5445SOL     OW17233   6.269   3.885   3.607
 5445SOL    HW117234   6.216   3.882   3.692
 5445SOL    HW217235   6.276   3.980   3.575
 5446SOL     OW17236   6.081   5.439   4.271
 5446SOL    HW117237   6.032   5.501   4.333
 5446SOL    HW217238   6.169   5.414   4.311
 5447SOL     OW17239   1.573   1.121   0.963
 5447SOL    HW117240   1.562   1.022   0.972
 5447SOL    HW217241   1.661   1.142   0.920
 5448SOL     OW17242   4.446   4.572   3.564
 5448SOL    HW117243   4.458   4.489   3.510
 5448SOL    HW217244   4.391   4.638   3.512
 5449SOL     OW17245   2.138   1.067   0.815
 5449SOL    HW117246   2.228   1.025   0.802
 5449SOL    HW217247   2.090   1.072   0.727
 5450SOL     OW17248   3.405   0.318   1.135
 5450SOL    HW117249   3.373   0.277   1.221
 5450SOL    HW217250   3.492   0.277   1.110
 5451SOL     OW17251   1.921   6.036   3.622
 5451SOL    HW117252   1.868   6.016   3.540
 5451SOL    HW217253   1.953   6.131   3.620
 5452SOL     OW17254   2.571   4.352   1.159
 5452SOL    HW117255   2.613   4.294   1.090
 5452SOL    HW217256   2.473   4.356   1.145
 5453SOL     OW17257   5.095   3.880   2.296
 5453SOL    HW117258   5.112   3.786   2.264
 5453SOL    HW217259   5.013   3.916   2.252
 5454SOL     OW17260   5.849   5.790   1.021
 5454SOL    HW117261   5.830   5.870   1.077
 5454SOL    HW217262   5.890   5.718   1.078
 5455SOL     OW17263   0.344   1.932   3.508
 5455SOL    HW117264   0.360   1.897   3.416
 5455SOL    HW217265   0.246   1.929   3.528
 5456SOL     OW17266   3.727   2.057   6.755
 5456SOL    HW117267   3.640   2.010   6.769
 5456SOL    HW217268   3.739   2.076   6.657
 5457SOL     OW17269   6.337   2.123   1.332
 5457SOL    HW117270   6.357   2.037   1.379
 5457SOL    HW217271   6.348   2.199   1.397
 5458SOL     OW17272   6.715   5.203   0.433
 5458SOL    HW117273   6.652   5.134   0.396
 5458SOL    HW217274   6.796   5.208   0.375
 5459SOL     OW17275   2.211   4.919   5.543
 5459SOL    HW117276   2.166   4.983   5.606
 5459SOL    HW217277   2.288   4.877   5.590
 5460SOL     OW17278   2.812   6.998   2.211
 5460SOL    HW117279   2.729   6.953   2.243
 5460SOL    HW217280   2.836   0.045   2.274
 5461SOL     OW17281   0.782   0.010   4.299
 5461SOL    HW117282   0.736   6.966   4.353
 5461SOL    HW217283   0.874   7.004   4.273
 5462SOL     OW17284   5.501   6.110   7.004
 5462SOL    HW117285   5.492   6.015   6.973
 5462SOL    HW217286   5.413   6.143   0.011
 5463SOL     OW17287   0.678   2.159   0.046
 5463SOL    HW117288   0.601   2.103   0.079
 5463SOL    HW217289   0.647   2.216   6.996
 5464SOL     OW17290   5.803   6.127   4.431
 5464SOL    HW117291   5.831   6.138   4.527
 5464SOL    HW217292   5.723   6.184   4.414
 5465SOL     OW17293   6.482   1.069   3.354
 5465SOL    HW117294   6.386   1.099   3.353
 5465SOL    HW217295   6.505   1.034   3.445
 5466SOL     OW17296   4.981   2.570   5.740
 5466SOL    HW117297   4.926   2.642   5.696
 5466SOL    HW217298   5.047   2.534   5.674
 5467SOL     OW17299   6.271   3.245   3.528
 5467SOL    HW117300   6.322   3.168   3.490
 5467SOL    HW217301   6.174   3.222   3.536
 5468SOL     OW17302   6.746   1.777   4.983
 5468SOL    HW117303   6.811   1.832   4.930
 5468SOL    HW217304   6.746   1.807   5.078
 5469SOL     OW17305   3.027   5.577   5.231
 5469SOL    HW117306   2.960   5.545   5.164
 5469SOL    HW217307   3.110   5.522   5.223
 5470SOL     OW17308   3.996   5.602   4.371
 5470SOL    HW117309   3.900   5.604   4.342
 5470SOL    HW217310   4.034   5.511   4.351
 5471SOL     OW17311   6.057   0.337   2.655
 5471SOL    HW117312   6.026   0.424   2.618
 5471SOL    HW217313   6.010   0.262   2.608
 5472SOL     OW17314   3.290   3.479   6.604
 5472SOL    HW117315   3.322   3.510   6.693
 5472SOL    HW217316   3.208   3.529   6.578
 5473SOL     OW17317   1.546   3.509   0.949
 5473SOL    HW117318   1.583   3.573   1.017
 5473SOL    HW217319   1.452   3.535   0.926
 5474SOL     OW17320   0.872   4.989   4.830
 5474SOL    HW117321   0.801   4.944   4.884
 5474SOL    HW217322   0.911   5.064   4.883
 5475SOL     OW17323   1.689   2.430   0.307
 5475SOL    HW117324   1.622   2.446   0.380
 5475SOL    HW217325   1.780   2.420   0.347
 5476SOL     OW17326   2.273   4.342   4.685
 5476SOL    HW117327   2.232   4.256   4.716
 5476SOL    HW217328   2.332   4.325   4.606
 5477SOL     OW17329   2.167   3.929   3.370
 5477SOL    HW117330   2.220   3.971   3.444
 5477SOL    HW217331   2.086   3.986   3.352
 5478SOL     OW17332   4.338   0.113   5.637
 5478SOL    HW117333   4.330   0.059   5.553
 5478SOL    HW217334   4.389   0.197   5.619
 5479SOL     OW17335   4.927   2.253   4.970
 5479SOL    HW117336   5.000   2.243   4.902
 5479SOL    HW217337   4.965   2.290   5.054
 5480SOL     OW17338   5.435   5.532   4.347
 5480SOL    HW117339   5.369   5.604   4.367
 5480SOL    HW217340   5.437   5.467   4.423
 5481SOL     OW17341   4.510   1.800   4.748
 5481SOL    HW117342   4.563   1.715   4.744
 5481SOL    HW217343   4.477   1.823   4.656
 5482SOL     OW17344   3.535   3.565   2.050
 5482SOL    HW117345   3.445   3.592   2.085
 5482SOL    HW217346   3.602   3.570   2.124
 5483SOL     OW17347   0.699   2.035   5.187
 5483SOL    HW117348   0.645   1.956   5.217
 5483SOL    HW217349   0.776   2.049   5.250
 5484SOL     OW17350   5.027   0.489   4.232
 5484SOL    HW117351   4.957   0.558   4.212
 5484SOL    HW217352   5.105   0.533   4.276
 5485SOL     OW17353   3.158   0.048   5.262
 5485SOL    HW117354   3.121   0.018   5.173
 5485SOL    HW217355   3.129   0.142   5.279
 5486SOL     OW17356   1.718   5.582   4.961
 5486SOL    HW117357   1.651   5.538   4.902
 5486SOL    HW217358   1.673   5.650   5.019
 5487SOL     OW17359   4.920   3.071   6.646
 5487SOL    HW117360   4.900   3.119   6.732
 5487SOL    HW217361   4.928   2.973   6.664
 5488SOL     OW17362   5.395   1.404   1.190
 5488SOL    HW117363   5.332   1.429   1.117
 5488SOL    HW217364   5.485   1.445   1.172
 5489SOL     OW17365   1.102   5.144   1.020
 5489SOL    HW117366   1.178   5.091   0.984
 5489SOL    HW217367   1.123   5.175   1.113
 5490SOL     OW17368   3.801   0.133   0.262
 5490SOL    HW117369   3.842   0.093   0.343
 5490SOL    HW217370   3.872   0.177   0.207
 5491SOL     OW17371   1.936   4.511   0.653
 5491SOL    HW117372   2.036   4.509   0.654
 5491SOL    HW217373   1.899   4.452   0.724
 5492SOL     OW17374   0.595   2.390   6.440
 5492SOL    HW117375   0.552   2.447   6.509
 5492SOL    HW217376   0.692   2.379   6.462
 5493SOL     OW17377   4.029   3.704   3.854
 5493SOL    HW117378   4.073   3.695   3.764
 5493SOL    HW217379   3.934   3.674   3.847
 5494SOL     OW17380   6.976   2.655   6.189
 5494SOL    HW117381   6.977   2.555   6.186
 5494SOL    HW217382   7.003   2.686   6.281
 5495SOL     OW17383   3.745   2.270   1.147
 5495SOL    HW117384   3.844   2.262   1.137
 5495SOL    HW217385   3.718   2.230   1.235
 5496SOL     OW17386   2.491   0.298   3.139
 5496SOL    HW117387   2.435   0.219   3.167
 5496SOL    HW217388   2.587   0.279   3.158
 5497SOL     OW17389   0.479   1.364   4.008
 5497SOL    HW117390   0.573   1.395   4.026
 5497SOL    HW217391   0.474   1.328   3.915
 5498SOL     OW17392   5.325   6.772   1.241
 5498SOL    HW117393   5.315   6.739   1.334
 5498SOL    HW217394   5.400   6.722   1.196
 5499SOL     OW17395   6.860   1.069   4.562
 5499SOL    HW117396   6.815   1.104   4.644
 5499SOL    HW217397   6.913   1.141   4.519
 5500SOL     OW17398   1.795   0.102   0.849
 5500SOL    HW117399   1.775   0.084   0.945
 5500SOL    HW217400   1.726   0.057   0.792
 5501SOL     OW17401   4.102   6.602   0.230
 5501SOL    HW117402   4.113   6.701   0.231
 5501SOL    HW217403   4.010   6.579   0.197
 5502SOL     OW17404   5.986   3.410   0.230
 5502SOL    HW117405   5.969   3.338   0.163
 5502SOL    HW217406   6.017   3.368   0.316
 5503SOL     OW17407   0.158   5.194   2.926
 5503SOL    HW117408   0.066   5.157   2.916
 5503SOL    HW217409   0.182   5.246   2.844
 5504SOL     OW17410   3.917   1.108   4.974
 5504SOL    HW117411   3.925   1.141   4.880
 5504SOL    HW217412   3.892   1.011   4.973
 5505SOL     OW17413   1.594   5.624   4.598
 5505SOL    HW117414   1.605   5.531   4.632
 5505SOL    HW217415   1.681   5.655   4.559
 5506SOL     OW17416   1.767   1.786   6.295
 5506SOL    HW117417   1.721   1.770   6.207
 5506SOL    HW217418   1.708   1.752   6.369
 5507SOL     OW17419   2.788   0.263   3.784
 5507SOL    HW117420   2.726   0.185   3.789
 5507SOL    HW217421   2.793   0.308   3.874
 5508SOL     OW17422   1.811   0.676   6.268
 5508SOL    HW117423   1.735   0.615   6.290
 5508SOL    HW217424   1.895   0.623   6.257
 5509SOL     OW17425   0.935   6.377   0.880
 5509SOL    HW117426   0.913   6.282   0.860
 5509SOL    HW217427   0.892   6.436   0.812
 5510SOL     OW17428   4.548   5.901   1.127
 5510SOL    HW117429   4.627   5.863   1.078
 5510SOL    HW217430   4.565   5.893   1.226
 5511SOL     OW17431   2.412   1.295   4.268
 5511SOL    HW117432   2.510   1.281   4.253
 5511SOL    HW217433   2.367   1.206   4.275
 5512SOL     OW17434   5.639   1.834   1.981
 5512SOL    HW117435   5.590   1.748   1.999
 5512SOL    HW217436   5.731   1.813   1.948
 5513SOL     OW17437   4.547   4.986   6.577
 5513SOL    HW117438   4.559   5.047   6.498
 5513SOL    HW217439   4.450   4.962   6.587
 5514SOL     OW17440   4.135   6.534   3.454
 5514SOL    HW117441   4.137   6.547   3.553
 5514SOL    HW217442   4.227   6.547   3.416
 5515SOL     OW17443   0.296   4.799   1.087
 5515SOL    HW117444   0.282   4.735   1.162
 5515SOL    HW217445   0.248   4.885   1.107
 5516SOL     OW17446   1.343   3.977   6.502
 5516SOL    HW117447   1.248   3.949   6.496
 5516SOL    HW217448   1.395   3.937   6.427
 5517SOL     OW17449   2.045   3.274   1.985
 5517SOL    HW117450   2.107   3.352   1.979
 5517SOL    HW217451   1.982   3.287   2.061
 5518SOL     OW17452   6.454   6.857   6.556
 5518SOL    HW117453   6.388   6.909   6.609
 5518SOL    HW217454   6.465   6.899   6.466
 5519SOL     OW17455   5.172   2.914   3.273
 5519SOL    HW117456   5.162   2.876   3.181
 5519SOL    HW217457   5.111   2.866   3.336
 5520SOL     OW17458   6.325   6.032   1.860
 5520SOL    HW117459   6.267   6.061   1.936
 5520SOL    HW217460   6.282   6.057   1.774
 5521SOL     OW17461   5.391   6.940   1.775
 5521SOL    HW117462   5.421   6.949   1.680
 5521SOL    HW217463   5.317   6.874   1.780
 5522SOL     OW17464   6.597   5.162   0.697
 5522SOL    HW117465   6.630   5.153   0.603
 5522SOL    HW217466   6.645   5.238   0.742
 5523SOL     OW17467   3.832   0.215   2.120
 5523SOL    HW117468   3.792   0.304   2.140
 5523SOL    HW217469   3.891   0.222   2.039
 5524SOL     OW17470   5.095   5.069   4.925
 5524SOL    HW117471   5.106   5.086   5.022
 5524SOL    HW217472   5.004   5.032   4.908
 5525SOL     OW17473   0.038   2.401   0.389
 5525SOL    HW117474   0.016   2.475   0.325
 5525SOL    HW217475   0.048   2.315   0.340
 5526SOL     OW17476   4.795   4.836   4.368
 5526SOL    HW117477   4.791   4.737   4.382
 5526SOL    HW217478   4.883   4.871   4.402
 5527SOL     OW17479   5.987   3.726   4.141
 5527SOL    HW117480   5.982   3.819   4.105
 5527SOL    HW217481   6.076   3.712   4.184
 5528SOL     OW17482   1.330   1.837   6.778
 5528SOL    HW117483   1.318   1.838   6.679
 5528SOL    HW217484   1.241   1.848   6.823
 5529SOL     OW17485   2.181   0.226   3.205
 5529SOL    HW117486   2.244   0.155   3.238
 5529SOL    HW217487   2.196   0.310   3.257
 5530SOL     OW17488   6.231   2.276   2.356
 5530SOL    HW117489   6.313   2.228   2.326
 5530SOL    HW217490   6.157   2.210   2.370
 5531SOL     OW17491   3.759   2.977   2.046
 5531SOL    HW117492   3.786   2.990   2.141
 5531SOL    HW217493   3.760   3.065   1.999
 5532SOL     OW17494   1.159   2.410   0.696
 5532SOL    HW117495   1.233   2.347   0.671
 5532SOL    HW217496   1.151   2.481   0.625
 5533SOL     OW17497   3.376   0.961   3.463
 5533SOL    HW117498   3.457   0.976   3.520
 5533SOL    HW217499   3.364   0.863   3.447
 5534SOL     OW17500   1.012   2.041   6.056
 5534SOL    HW117501   0.951   2.108   6.015
 5534SOL    HW217502   0.969   1.950   6.052
 5535SOL     OW17503   0.143   3.010   3.557
 5535SOL    HW117504   0.140   3.080   3.486
 5535SOL    HW217505   0.171   3.051   3.644
 5536SOL     OW17506   3.014   1.356   4.166
 5536SOL    HW117507   2.976   1.322   4.080
 5536SOL    HW217508   3.006   1.285   4.236
 5537SOL     OW17509   2.470   0.766   2.839
 5537SOL    HW117510   2.433   0.707   2.911
 5537SOL    HW217511   2.427   0.742   2.752
 5538SOL     OW17512   2.878   0.014   5.777
 5538SOL    HW117513   2.788   0.012   5.819
 5538SOL    HW217514   2.889   6.961   5.717
 5539SOL     OW17515   0.985   3.864   0.958
 5539SOL    HW117516   0.956   3.795   1.024
 5539SOL    HW217517   1.081   3.850   0.935
 5540SOL     OW17518   5.850   3.553   3.991
 5540SOL    HW117519   5.835   3.621   4.063
 5540SOL    HW217520   5.930   3.579   3.937
 5541SOL     OW17521   6.132   0.440   6.485
 5541SOL    HW117522   6.209   0.462   6.425
 5541SOL    HW217523   6.047   0.449   6.434
 5542SOL     OW17524   6.007   4.953   6.091
 5542SOL    HW117525   6.031   4.966   5.995
 5542SOL    HW217526   6.060   5.017   6.148
 5543SOL     OW17527   3.648   5.615   6.053
 5543SOL    HW117528   3.687   5.545   5.992
 5543SOL    HW217529   3.548   5.612   6.048
 5544SOL     OW17530   5.691   6.637   6.271
 5544SOL    HW117531   5.674   6.734   6.252
 5544SOL    HW217532   5.759   6.602   6.207
 5545SOL     OW17533   4.015   1.862   2.242
 5545SOL    HW117534   4.102   1.813   2.226
 5545SOL    HW217535   4.024   1.920   2.323
 5546SOL     OW17536   0.745   6.018   4.797
 5546SOL    HW117537   0.704   5.966   4.722
 5546SOL    HW217538   0.720   6.115   4.787
 5547SOL     OW17539   3.478   0.146   4.890
 5547SOL    HW117540   3.551   0.125   4.825
 5547SOL    HW217541   3.447   0.240   4.876
 5548SOL     OW17542   5.466   3.404   5.910
 5548SOL    HW117543   5.382   3.457   5.913
 5548SOL    HW217544   5.519   3.421   5.993
 5549SOL     OW17545   4.553   4.002   0.289
 5549SOL    HW117546   4.516   4.022   0.380
 5549SOL    HW217547   4.590   3.910   0.287
 5550SOL     OW17548   2.228   4.270   2.049
 5550SOL    HW117549   2.212   4.328   1.969
 5550SOL    HW217550   2.326   4.252   2.058
 5551SOL     OW17551   1.721   6.970   3.203
 5551SOL    HW117552   1.645   6.934   3.149
 5551SOL    HW217553   1.718   6.929   3.294
 5552SOL     OW17554   6.935   0.310   0.186
 5552SOL    HW117555   7.002   0.282   0.117
 5552SOL    HW217556   6.896   0.398   0.161
 5553SOL     OW17557   5.417   6.115   6.684
 5553SOL    HW117558   5.474   6.037   6.711
 5553SOL    HW217559   5.322   6.096   6.706
 5554SOL     OW17560   4.518   1.341   5.363
 5554SOL    HW117561   4.439   1.281   5.357
 5554SOL    HW217562   4.506   1.420   5.303
 5555SOL     OW17563   2.214   4.610   4.122
 5555SOL    HW117564   2.296   4.565   4.087
 5555SOL    HW217565   2.145   4.541   4.144
 5556SOL     OW17566   6.885   1.156   3.693
 5556SOL    HW117567   6.951   1.091   3.653
 5556SOL    HW217568   6.923   1.248   3.688
 5557SOL     OW17569   3.783   6.981   2.704
 5557SOL    HW117570   3.701   6.923   2.704
 5557SOL    HW217571   3.841   6.957   2.626
 5558SOL     OW17572   4.749   3.637   6.094
 5558SOL    HW117573   4.808   3.609   6.170
 5558SOL    HW217574   4.689   3.561   6.069
 5559SOL     OW17575   2.009   0.407   1.993
 5559SOL    HW117576   1.936   0.473   2.011
 5559SOL    HW217577   2.097   0.454   1.990
 5560SOL     OW17578   1.502   6.916   2.979
 5560SOL    HW117579   1.552   6.831   2.960
 5560SOL    HW217580   1.486   6.965   2.893
 5561SOL     OW17581   1.549   2.105   4.408
 5561SOL    HW117582   1.583   2.198   4.425
 5561SOL    HW217583   1.488   2.079   4.483
 5562SOL     OW17584   3.517   2.276   6.658
 5562SOL    HW117585   3.465   2.191   6.653
 5562SOL    HW217586   3.594   2.265   6.721
 5563SOL     OW17587   4.315   5.367   2.439
 5563SOL    HW117588   4.221   5.398   2.456
 5563SOL    HW217589   4.341   5.300   2.509
 5564SOL     OW17590   4.409   1.133   1.947
 5564SOL    HW117591   4.387   1.200   1.876
 5564SOL    HW217592   4.327   1.081   1.971
 5565SOL     OW17593   4.613   1.849   5.823
 5565SOL    HW117594   4.651   1.876   5.735
 5565SOL    HW217595   4.675   1.785   5.868
 5566SOL     OW17596   1.917   5.051   6.685
 5566SOL    HW117597   1.993   5.059   6.748
 5566SOL    HW217598   1.952   5.035   6.592
 5567SOL     OW17599   6.960   3.318   1.774
 5567SOL    HW117600   0.009   3.349   1.716
 5567SOL    HW217601   6.884   3.382   1.767
 5568SOL     OW17602   4.345   2.103   3.827
 5568SOL    HW117603   4.399   2.115   3.910
 5568SOL    HW217604   4.403   2.067   3.754
 5569SOL     OW17605   1.660   1.424   2.510
 5569SOL    HW117606   1.697   1.375   2.430
 5569SOL    HW217607   1.722   1.499   2.534
 5570SOL     OW17608   5.762   4.288   5.031
 5570SOL    HW117609   5.849   4.273   4.983
 5570SOL    HW217610   5.686   4.271   4.968
 5571SOL     OW17611   6.903   5.491   0.659
 5571SOL    HW117612   6.928   5.457   0.569
 5571SOL    HW217613   6.985   5.512   0.712
 5572SOL     OW17614   1.146   2.169   5.192
 5572SOL    HW117615   1.070   2.138   5.249
 5572SOL    HW217616   1.140   2.124   5.102
 5573SOL     OW17617   2.012   3.862   6.535
 5573SOL    HW117618   2.049   3.948   6.571
 5573SOL    HW217619   2.009   3.866   6.435
 5574SOL     OW17620   6.249   1.679   3.256
 5574SOL    HW117621   6.255   1.602   3.193
 5574SOL    HW217622   6.324   1.675   3.321
 5575SOL     OW17623   6.827   1.484   1.060
 5575SOL    HW117624   6.762   1.435   1.119
 5575SOL    HW217625   6.916   1.489   1.107
 5576SOL     OW17626   1.465   5.988   2.990
 5576SOL    HW117627   1.500   6.072   2.949
 5576SOL    HW217628   1.504   5.909   2.944
 5577SOL     OW17629   2.734   2.437   5.301
 5577SOL    HW117630   2.823   2.465   5.265
 5577SOL    HW217631   2.741   2.421   5.400
 5578SOL     OW17632   3.953   4.145   0.273
 5578SOL    HW117633   4.016   4.222   0.260
 5578SOL    HW217634   3.897   4.161   0.354
 5579SOL     OW17635   0.372   3.719   6.010
 5579SOL    HW117636   0.453   3.686   5.962
 5579SOL    HW217637   0.360   3.666   6.094
 5580SOL     OW17638   5.308   2.708   5.921
 5580SOL    HW117639   5.287   2.784   5.983
 5580SOL    HW217640   5.289   2.621   5.967
 5581SOL     OW17641   2.682   0.752   1.656
 5581SOL    HW117642   2.771   0.719   1.686
 5581SOL    HW217643   2.649   0.696   1.580
 5582SOL     OW17644   3.619   3.550   4.449
 5582SOL    HW117645   3.656   3.639   4.421
 5582SOL    HW217646   3.532   3.534   4.403
 5583SOL     OW17647   4.041   0.703   2.938
 5583SOL    HW117648   3.951   0.734   2.967
 5583SOL    HW217649   4.070   0.754   2.857
 5584SOL     OW17650   5.858   3.944   4.025
 5584SOL    HW117651   5.871   4.041   4.005
 5584SOL    HW217652   5.760   3.925   4.034
 5585SOL     OW17653   4.834   6.319   4.036
 5585SOL    HW117654   4.907   6.347   4.099
 5585SOL    HW217655   4.751   6.301   4.088
 5586SOL     OW17656   0.364   2.152   6.809
 5586SOL    HW117657   0.285   2.213   6.823
 5586SOL    HW217658   0.446   2.197   6.842
 5587SOL     OW17659   3.862   6.027   2.545
 5587SOL    HW117660   3.835   5.985   2.459
 5587SOL    HW217661   3.961   6.034   2.550
 5588SOL     OW17662   1.919   6.821   3.045
 5588SOL    HW117663   1.925   6.908   2.996
 5588SOL    HW217664   1.874   6.836   3.133
 5589SOL     OW17665   5.950   3.548   5.802
 5589SOL    HW117666   5.856   3.513   5.797
 5589SOL    HW217667   5.962   3.596   5.889
 5590SOL     OW17668   6.646   5.200   3.409
 5590SOL    HW117669   6.606   5.241   3.327
 5590SOL    HW217670   6.576   5.186   3.478
 5591SOL     OW17671   5.889   1.233   6.938
 5591SOL    HW117672   5.915   1.329   6.947
 5591SOL    HW217673   5.941   1.192   6.862
 5592SOL     OW17674   0.377   4.433   2.901
 5592SOL    HW117675   0.279   4.415   2.900
 5592SOL    HW217676   0.403   4.473   2.989
 5593SOL     OW17677   0.044   2.340   5.725
 5593SOL    HW117678   0.014   2.371   5.816
 5593SOL    HW217679   0.010   2.247   5.709
 5594SOL     OW17680   3.333   1.274   6.802
 5594SOL    HW117681   3.274   1.222   6.863
 5594SOL    HW217682   3.424   1.232   6.798
 5595SOL     OW17683   6.134   0.360   5.070
 5595SOL    HW117684   6.197   0.373   4.993
 5595SOL    HW217685   6.108   0.449   5.107
 5596SOL     OW17686   4.873   0.264   3.077
 5596SOL    HW117687   4.861   0.313   2.990
 5596SOL    HW217688   4.849   0.324   3.153
 5597SOL     OW17689   6.328   1.684   5.353
 5597SOL    HW117690   6.246   1.702   5.299
 5597SOL    HW217691   6.305   1.684   5.451
 5598SOL     OW17692   6.410   2.851   4.224
 5598SOL    HW117693   6.384   2.836   4.320
 5598SOL    HW217694   6.331   2.833   4.166
 5599SOL     OW17695   0.385   2.346   1.926
 5599SOL    HW117696   0.295   2.302   1.923
 5599SOL    HW217697   0.374   2.444   1.911
 5600SOL     OW17698   2.578   0.068   2.509
 5600SOL    HW117699   2.588   0.100   2.415
 5600SOL    HW217700   2.525   7.010   2.509
 5601SOL     OW17701   3.199   1.183   6.547
 5601SOL    HW117702   3.172   1.087   6.547
 5601SOL    HW217703   3.263   1.200   6.622
 5602SOL     OW17704   0.507   0.136   1.980
 5602SOL    HW117705   0.409   0.119   1.994
 5602SOL    HW217706   0.532   0.221   2.027
 5603SOL     OW17707   5.612   1.970   6.963
 5603SOL    HW117708   5.662   1.953   0.021
 5603SOL    HW217709   5.529   1.913   6.961
 5604SOL     OW17710   6.878   2.376   5.232
 5604SOL    HW117711   6.879   2.413   5.324
 5604SOL    HW217712   6.969   2.385   5.191
 5605SOL     OW17713   1.729   0.507   4.570
 5605SOL    HW117714   1.679   0.493   4.655
 5605SOL    HW217715   1.704   0.436   4.504
 5606SOL     OW17716   5.692   1.205   0.777
 5606SOL    HW117717   5.688   1.116   0.822
 5606SOL    HW217718   5.785   1.242   0.784
 5607SOL     OW17719   5.916   1.266   4.012
 5607SOL    HW117720   5.933   1.231   4.104
 5607SOL    HW217721   5.820   1.252   3.989
 5608SOL     OW17722   6.112   1.269   3.090
 5608SOL    HW117723   6.056   1.351   3.100
 5608SOL    HW217724   6.074   1.210   3.018
 5609SOL     OW17725   4.319   5.927   1.532
 5609SOL    HW117726   4.272   6.002   1.485
 5609SOL    HW217727   4.374   5.963   1.607
 5610SOL     OW17728   5.226   4.623   1.211
 5610SOL    HW117729   5.148   4.677   1.244
 5610SOL    HW217730   5.296   4.621   1.282
 5611SOL     OW17731   0.959   5.060   2.911
 5611SOL    HW117732   0.919   5.149   2.931
 5611SOL    HW217733   0.887   4.992   2.900
 5612SOL     OW17734   4.439   3.175   0.477
 5612SOL    HW117735   4.484   3.213   0.559
 5612SOL    HW217736   4.371   3.241   0.444
 5613SOL     OW17737   5.278   5.483   5.137
 5613SOL    HW117738   5.193   5.521   5.173
 5613SOL    HW217739   5.258   5.427   5.057
 5614SOL     OW17740   4.989   3.693   5.154
 5614SOL    HW117741   4.941   3.612   5.121
 5614SOL    HW217742   5.088   3.677   5.149
 5615SOL     OW17743   6.856   1.708   4.094
 5615SOL    HW117744   6.948   1.688   4.062
 5615SOL    HW217745   6.800   1.742   4.019
 5616SOL     OW17746   2.172   2.717   4.689
 5616SOL    HW117747   2.194   2.768   4.773
 5616SOL    HW217748   2.234   2.640   4.680
 5617SOL     OW17749   1.272   4.610   4.782
 5617SOL    HW117750   1.232   4.521   4.805
 5617SOL    HW217751   1.370   4.599   4.766
 5618SOL     OW17752   6.694   4.816   3.559
 5618SOL    HW117753   6.781   4.866   3.551
 5618SOL    HW217754   6.704   4.726   3.517
 5619SOL     OW17755   3.253   3.926   3.964
 5619SOL    HW117756   3.282   4.011   3.920
 5619SOL    HW217757   3.327   3.890   4.020
 5620SOL     OW17758   4.497   3.986   0.021
 5620SOL    HW117759   4.509   4.015   0.116
 5620SOL    HW217760   4.490   3.886   0.018
 5621SOL     OW17761   1.555   3.150   0.090
 5621SOL    HW117762   1.591   3.220   0.152
 5621SOL    HW217763   1.486   3.190   0.030
 5622SOL     OW17764   5.290   0.559   5.995
 5622SOL    HW117765   5.381   0.571   5.955
 5622SOL    HW217766   5.232   0.637   5.970
 5623SOL     OW17767   4.714   6.584   4.929
 5623SOL    HW117768   4.760   6.537   5.004
 5623SOL    HW217769   4.782   6.637   4.877
 5624SOL     OW17770   0.384   4.660   4.223
 5624SOL    HW117771   0.420   4.607   4.147
 5624SOL    HW217772   0.433   4.636   4.307
 5625SOL     OW17773   7.018   6.238   5.770
 5625SOL    HW117774   0.063   6.201   5.711
 5625SOL    HW217775   6.942   6.271   5.713
 5626SOL     OW17776   2.763   5.170   3.646
 5626SOL    HW117777   2.707   5.254   3.641
 5626SOL    HW217778   2.782   5.150   3.742
 5627SOL     OW17779   0.277   5.045   6.714
 5627SOL    HW117780   0.226   4.966   6.681
 5627SOL    HW217781   0.238   5.077   6.800
 5628SOL     OW17782   2.008   2.657   1.458
 5628SOL    HW117783   1.981   2.571   1.415
 5628SOL    HW217784   2.108   2.663   1.460
 5629SOL     OW17785   4.948   3.252   1.883
 5629SOL    HW117786   5.001   3.234   1.800
 5629SOL    HW217787   4.912   3.166   1.919
 5630SOL     OW17788   1.766   4.401   6.706
 5630SOL    HW117789   1.805   4.350   6.630
 5630SOL    HW217790   1.702   4.343   6.756
 5631SOL     OW17791   4.712   1.977   1.621
 5631SOL    HW117792   4.617   1.946   1.613
 5631SOL    HW217793   4.753   1.938   1.703
 5632SOL     OW17794   3.331   2.075   5.204
 5632SOL    HW117795   3.339   2.007   5.131
 5632SOL    HW217796   3.287   2.157   5.167
 5633SOL     OW17797   6.084   4.735   4.552
 5633SOL    HW117798   6.066   4.801   4.480
 5633SOL    HW217799   6.047   4.768   4.639
 5634SOL     OW17800   2.122   4.769   4.666
 5634SOL    HW117801   2.097   4.674   4.685
 5634SOL    HW217802   2.158   4.812   4.749
 5635SOL     OW17803   1.472   6.079   6.738
 5635SOL    HW117804   1.557   6.131   6.725
 5635SOL    HW217805   1.397   6.143   6.759
 5636SOL     OW17806   6.508   6.904   5.160
 5636SOL    HW117807   6.508   6.954   5.073
 5636SOL    HW217808   6.414   6.893   5.192
 5637SOL     OW17809   3.804   6.493   3.577
 5637SOL    HW117810   3.877   6.479   3.510
 5637SOL    HW217811   3.841   6.480   3.669
 5638SOL     OW17812   6.319   3.986   1.164
 5638SOL    HW117813   6.274   4.057   1.109
 5638SOL    HW217814   6.301   4.002   1.261
 5639SOL     OW17815   2.566   0.448   2.252
 5639SOL    HW117816   2.548   0.352   2.231
 5639SOL    HW217817   2.618   0.454   2.338
 5640SOL     OW17818   3.154   0.875   2.362
 5640SOL    HW117819   3.250   0.894   2.380
 5640SOL    HW217820   3.097   0.922   2.431
 5641SOL     OW17821   1.017   4.433   5.698
 5641SOL    HW117822   1.089   4.490   5.660
 5641SOL    HW217823   0.930   4.482   5.695
 5642SOL     OW17824   0.723   5.826   4.996
 5642SOL    HW117825   0.785   5.849   5.070
 5642SOL    HW217826   0.745   5.882   4.916
 5643SOL     OW17827   3.385   0.830   4.273
 5643SOL    HW117828   3.460   0.843   4.209
 5643SOL    HW217829   3.310   0.892   4.249
 5644SOL     OW17830   3.683   0.139   4.708
 5644SOL    HW117831   3.756   0.208   4.708
 5644SOL    HW217832   3.673   0.101   4.616
 5645SOL     OW17833   5.554   4.996   2.707
 5645SOL    HW117834   5.485   4.967   2.641
 5645SOL    HW217835   5.571   4.923   2.772
 5646SOL     OW17836   1.080   5.403   3.211
 5646SOL    HW117837   1.023   5.347   3.150
 5646SOL    HW217838   1.132   5.469   3.157
 5647SOL     OW17839   5.692   0.471   0.863
 5647SOL    HW117840   5.761   0.455   0.792
 5647SOL    HW217841   5.608   0.423   0.840
 5648SOL     OW17842   1.868   0.542   3.440
 5648SOL    HW117843   1.914   0.559   3.353
 5648SOL    HW217844   1.770   0.527   3.424
 5649SOL     OW17845   6.904   0.087   4.981
 5649SOL    HW117846   6.987   0.097   4.925
 5649SOL    HW217847   6.854   0.005   4.952
 5650SOL     OW17848   1.368   5.294   0.920
 5650SOL    HW117849   1.390   5.219   0.857
 5650SOL    HW217850   1.315   5.363   0.872
 5651SOL     OW17851   0.413   1.182   1.699
 5651SOL    HW117852   0.489   1.146   1.753
 5651SOL    HW217853   0.436   1.179   1.601
 5652SOL     OW17854   6.652   6.894   2.182
 5652SOL    HW117855   6.602   6.841   2.114
 5652SOL    HW217856   6.719   6.835   2.227
 5653SOL     OW17857   0.700   6.048   6.899
 5653SOL    HW117858   0.622   6.016   6.951
 5653SOL    HW217859   0.770   6.083   6.961
 5654SOL     OW17860   6.865   0.319   5.879
 5654SOL    HW117861   6.842   0.256   5.805
 5654SOL    HW217862   6.919   0.272   5.948
 5655SOL     OW17863   1.765   3.576   4.712
 5655SOL    HW117864   1.772   3.492   4.658
 5655SOL    HW217865   1.796   3.558   4.805
 5656SOL     OW17866   0.247   3.604   0.075
 5656SOL    HW117867   0.179   3.616   0.003
 5656SOL    HW217868   0.214   3.647   0.159
 5657SOL     OW17869   5.649   1.541   0.031
 5657SOL    HW117870   5.578   1.604   0.000
 5657SOL    HW217871   5.735   1.591   0.040
 5658SOL     OW17872   3.780   4.635   6.021
 5658SOL    HW117873   3.802   4.576   5.943
 5658SOL    HW217874   3.828   4.602   6.102
 5659SOL     OW17875   3.533   3.508   3.986
 5659SOL    HW117876   3.450   3.473   3.944
 5659SOL    HW217877   3.596   3.432   4.004
 5660SOL     OW17878   5.608   0.965   0.154
 5660SOL    HW117879   5.524   1.018   0.151
 5660SOL    HW217880   5.587   0.870   0.178
 5661SOL     OW17881   1.416   5.347   5.021
 5661SOL    HW117882   1.378   5.343   4.929
 5661SOL    HW217883   1.511   5.316   5.019
 5662SOL     OW17884   2.539   5.375   2.730
 5662SOL    HW117885   2.537   5.460   2.781
 5662SOL    HW217886   2.591   5.307   2.781
 5663SOL     OW17887   2.181   3.388   0.289
 5663SOL    HW117888   2.123   3.411   0.368
 5663SOL    HW217889   2.146   3.305   0.245
 5664SOL     OW17890   6.555   4.168   4.722
 5664SOL    HW117891   6.547   4.182   4.623
 5664SOL    HW217892   6.470   4.131   4.758
 5665SOL     OW17893   1.722   1.383   0.220
 5665SOL    HW117894   1.757   1.390   0.314
 5665SOL    HW217895   1.782   1.434   0.158
 5666SOL     OW17896   5.902   6.120   1.852
 5666SOL    HW117897   5.854   6.120   1.764
 5666SOL    HW217898   5.943   6.030   1.868
 5667SOL     OW17899   1.189   4.757   4.525
 5667SOL    HW117900   1.118   4.817   4.563
 5667SOL    HW217901   1.213   4.687   4.593
 5668SOL     OW17902   5.538   2.089   4.762
 5668SOL    HW117903   5.463   2.044   4.810
 5668SOL    HW217904   5.619   2.091   4.820
 5669SOL     OW17905   0.426   3.282   6.882
 5669SOL    HW117906   0.497   3.317   6.821
 5669SOL    HW217907   0.469   3.240   6.962
 5670SOL     OW17908   6.864   2.592   3.478
 5670SOL    HW117909   6.819   2.579   3.566
 5670SOL    HW217910   6.879   2.689   3.462
 5671SOL     OW17911   0.230   6.517   0.191
 5671SOL    HW117912   0.171   6.464   0.129
 5671SOL    HW217913   0.258   6.459   0.267
 5672SOL     OW17914   4.063   4.801   6.121
 5672SOL    HW117915   4.122   4.725   6.094
 5672SOL    HW217916   4.019   4.779   6.209
 5673SOL     OW17917   0.727   6.840   2.491
 5673SOL    HW117918   0.660   6.785   2.442
 5673SOL    HW217919   0.794   6.877   2.427
 5674SOL     OW17920   0.172   4.902   4.955
 5674SOL    HW117921   0.147   4.812   4.993
 5674SOL    HW217922   0.230   4.889   4.875
 5675SOL     OW17923   3.662   2.366   5.988
 5675SOL    HW117924   3.696   2.282   5.946
 5675SOL    HW217925   3.569   2.351   6.022
 5676SOL     OW17926   1.625   2.670   2.077
 5676SOL    HW117927   1.657   2.586   2.034
 5676SOL    HW217928   1.526   2.666   2.088
 5677SOL     OW17929   0.257   0.982   1.314
 5677SOL    HW117930   0.353   1.008   1.304
 5677SOL    HW217931   0.249   0.909   1.381
 5678SOL     OW17932   3.993   6.354   2.954
 5678SOL    HW117933   3.968   6.267   2.912
 5678SOL    HW217934   4.089   6.351   2.981
 5679SOL     OW17935   1.209   1.179   4.122
 5679SOL    HW117936   1.175   1.217   4.036
 5679SOL    HW217937   1.301   1.142   4.109
 5680SOL     OW17938   1.567   4.954   6.416
 5680SOL    HW117939   1.519   4.885   6.362
 5680SOL    HW217940   1.516   4.974   6.499
 5681SOL     OW17941   0.169   4.853   0.375
 5681SOL    HW117942   0.196   4.835   0.470
 5681SOL    HW217943   0.069   4.852   0.368
 5682SOL     OW17944   2.679   4.254   5.609
 5682SOL    HW117945   2.778   4.266   5.606
 5682SOL    HW217946   2.644   4.243   5.516
 5683SOL     OW17947   3.791   0.621   6.221
 5683SOL    HW117948   3.817   0.525   6.231
 5683SOL    HW217949   3.868   0.673   6.183
 5684SOL     OW17950   2.822   3.479   5.778
 5684SOL    HW117951   2.797   3.566   5.822
 5684SOL    HW217952   2.852   3.497   5.685
 5685SOL     OW17953   1.463   3.216   2.375
 5685SOL    HW117954   1.487   3.164   2.293
 5685SOL    HW217955   1.364   3.212   2.389
 5686SOL     OW17956   3.103   1.280   6.044
 5686SOL    HW117957   3.191   1.263   6.000
 5686SOL    HW217958   3.036   1.213   6.013
 5687SOL     OW17959   0.490   5.005   6.384
 5687SOL    HW117960   0.404   5.032   6.339
 5687SOL    HW217961   0.479   4.916   6.427
 5688SOL     OW17962   0.555   2.519   0.934
 5688SOL    HW117963   0.540   2.618   0.938
 5688SOL    HW217964   0.588   2.487   1.022
 5689SOL     OW17965   4.213   1.231   0.938
 5689SOL    HW117966   4.115   1.235   0.956
 5689SOL    HW217967   4.253   1.322   0.950
 5690SOL     OW17968   2.485   6.073   0.495
 5690SOL    HW117969   2.407   6.123   0.459
 5690SOL    HW217970   2.478   6.066   0.595
 5691SOL     OW17971   3.112   0.292   1.901
 5691SOL    HW117972   3.140   0.276   1.806
 5691SOL    HW217973   3.192   0.285   1.961
 5692SOL     OW17974   5.986   3.153   0.466
 5692SOL    HW117975   6.033   3.147   0.554
 5692SOL    HW217976   6.051   3.180   0.395
 5693SOL     OW17977   5.571   2.003   2.540
 5693SOL    HW117978   5.479   1.999   2.500
 5693SOL    HW217979   5.638   1.975   2.470
 5694SOL     OW17980   0.355   1.813   3.263
 5694SOL    HW117981   0.314   1.884   3.206
 5694SOL    HW217982   0.430   1.769   3.214
 5695SOL     OW17983   0.850   2.469   2.844
 5695SOL    HW117984   0.787   2.519   2.903
 5695SOL    HW217985   0.943   2.475   2.881
 5696SOL     OW17986   1.210   1.082   2.954
 5696SOL    HW117987   1.121   1.113   2.987
 5696SOL    HW217988   1.278   1.093   3.026
 5697SOL     OW17989   5.920   2.252   1.851
 5697SOL    HW117990   5.842   2.220   1.797
 5697SOL    HW217991   5.891   2.264   1.946
 5698SOL     OW17992   0.689   3.611   3.330
 5698SOL    HW117993   0.766   3.656   3.375
 5698SOL    HW217994   0.641   3.676   3.272
 5699SOL     OW17995   0.197   1.989   3.082
 5699SOL    HW117996   0.107   2.004   3.039
 5699SOL    HW217997   0.238   2.077   3.105
 5700SOL     OW17998   0.005   0.070   4.259
 5700SOL    HW117999   6.970   0.059   4.180
 5700SOL    HW218000   0.048   0.160   4.255
 5701SOL     OW18001   1.577   0.592   2.353
 5701SOL    HW118002   1.597   0.495   2.343
 5701SOL    HW218003   1.568   0.634   2.262
 5702SOL     OW18004   2.785   6.186   5.044
 5702SOL    HW118005   2.786   6.260   5.111
 5702SOL    HW218006   2.702   6.192   4.988
 5703SOL     OW18007   6.666   4.661   1.325
 5703SOL    HW118008   6.589   4.690   1.382
 5703SOL    HW218009   6.700   4.738   1.272
 5704SOL     OW18010   4.644   4.377   2.483
 5704SOL    HW118011   4.737   4.346   2.464
 5704SOL    HW218012   4.609   4.426   2.403
 5705SOL     OW18013   5.054   0.967   0.815
 5705SOL    HW118014   5.029   1.049   0.765
 5705SOL    HW218015   5.148   0.942   0.795
 5706SOL     OW18016   6.750   4.040   0.568
 5706SOL    HW118017   6.831   4.085   0.530
 5706SOL    HW218018   6.772   4.002   0.658
 5707SOL     OW18019   0.078   6.874   0.492
 5707SOL    HW118020   0.155   6.910   0.440
 5707SOL    HW218021   0.105   6.862   0.588
 5708SOL     OW18022   4.960   6.083   1.746
 5708SOL    HW118023   5.048   6.036   1.750
 5708SOL    HW218024   4.954   6.134   1.660
 5709SOL     OW18025   1.211   7.015   2.314
 5709SOL    HW118026   1.122   6.970   2.317
 5709SOL    HW218027   1.242   0.008   2.407
 5710SOL     OW18028   2.883   2.847   0.350
 5710SOL    HW118029   2.824   2.796   0.413
 5710SOL    HW218030   2.830   2.879   0.272
 5711SOL     OW18031   4.957   1.252   2.471
 5711SOL    HW118032   4.985   1.346   2.450
 5711SOL    HW218033   4.907   1.251   2.558
 5712SOL     OW18034   0.135   6.381   6.466
 5712SOL    HW118035   0.173   6.371   6.374
 5712SOL    HW218036   0.184   6.320   6.529
 5713SOL     OW18037   2.975   2.973   1.561
 5713SOL    HW118038   2.957   2.891   1.507
 5713SOL    HW218039   3.005   2.947   1.653
 5714SOL     OW18040   0.258   5.846   0.184
 5714SOL    HW118041   0.207   5.882   0.262
 5714SOL    HW218042   0.299   5.758   0.208
 5715SOL     OW18043   0.523   6.746   3.593
 5715SOL    HW118044   0.441   6.803   3.587
 5715SOL    HW218045   0.557   6.727   3.500
 5716SOL     OW18046   1.246   3.822   0.134
 5716SOL    HW118047   1.266   3.880   0.213
 5716SOL    HW218048   1.281   3.865   0.051
 5717SOL     OW18049   2.273   5.433   0.415
 5717SOL    HW118050   2.208   5.387   0.475
 5717SOL    HW218051   2.236   5.522   0.388
 5718SOL     OW18052   0.154   2.743   5.744
 5718SOL    HW118053   0.223   2.800   5.700
 5718SOL    HW218054   0.141   2.659   5.690
 5719SOL     OW18055   2.918   1.520   6.626
 5719SOL    HW118056   2.841   1.549   6.569
 5719SOL    HW218057   2.963   1.600   6.664
 5720SOL     OW18058   1.661   5.249   5.041
 5720SOL    HW118059   1.724   5.325   5.023
 5720SOL    HW218060   1.649   5.237   5.139
 5721SOL     OW18061   0.266   3.870   1.243
 5721SOL    HW118062   0.280   3.932   1.321
 5721SOL    HW218063   0.169   3.851   1.233
 5722SOL     OW18064   6.170   1.686   5.587
 5722SOL    HW118065   6.151   1.635   5.671
 5722SOL    HW218066   6.094   1.748   5.567
 5723SOL     OW18067   4.672   3.763   0.352
 5723SOL    HW118068   4.769   3.782   0.337
 5723SOL    HW218069   4.660   3.666   0.372
 5724SOL     OW18070   5.320   3.296   5.135
 5724SOL    HW118071   5.362   3.243   5.062
 5724SOL    HW218072   5.228   3.324   5.108
 5725SOL     OW18073   5.247   4.872   3.640
 5725SOL    HW118074   5.339   4.835   3.625
 5725SOL    HW218075   5.239   4.961   3.596
 5726SOL     OW18076   0.284   4.855   5.331
 5726SOL    HW118077   0.266   4.906   5.415
 5726SOL    HW218078   0.346   4.779   5.350
 5727SOL     OW18079   6.659   1.439   4.064
 5727SOL    HW118080   6.599   1.417   4.141
 5727SOL    HW218081   6.605   1.444   3.980
 5728SOL     OW18082   3.883   1.007   6.136
 5728SOL    HW118083   3.902   1.092   6.087
 5728SOL    HW218084   3.966   0.976   6.182
 5729SOL     OW18085   1.165   1.006   0.762
 5729SOL    HW118086   1.095   1.066   0.800
 5729SOL    HW218087   1.232   1.060   0.712
 5730SOL     OW18088   4.862   5.525   6.049
 5730SOL    HW118089   4.892   5.620   6.045
 5730SOL    HW218090   4.827   5.504   6.140
 5731SOL     OW18091   0.516   6.943   3.909
 5731SOL    HW118092   0.518   6.991   3.821
 5731SOL    HW218093   0.485   7.007   3.980
 5732SOL     OW18094   6.297   5.333   4.496
 5732SOL    HW118095   6.310   5.246   4.544
 5732SOL    HW218096   6.364   5.341   4.422
 5733SOL     OW18097   3.975   6.837   5.295
 5733SOL    HW118098   3.888   6.817   5.249
 5733SOL    HW218099   4.007   6.756   5.343
 5734SOL     OW18100   1.067   6.592   5.695
 5734SOL    HW118101   1.155   6.593   5.648
 5734SOL    HW218102   1.072   6.530   5.774
 5735SOL     OW18103   3.873   2.074   1.908
 5735SOL    HW118104   3.850   1.982   1.874
 5735SOL    HW218105   3.790   2.118   1.942
 5736SOL     OW18106   6.010   4.229   0.448
 5736SOL    HW118107   6.093   4.197   0.402
 5736SOL    HW218108   6.025   4.322   0.482
 5737SOL     OW18109   5.107   6.298   0.776
 5737SOL    HW118110   5.068   6.228   0.717
 5737SOL    HW218111   5.059   6.298   0.864
 5738SOL     OW18112   2.935   3.249   6.367
 5738SOL    HW118113   2.976   3.188   6.434
 5738SOL    HW218114   2.873   3.312   6.414
 5739SOL     OW18115   1.328   0.535   5.461
 5739SOL    HW118116   1.340   0.465   5.390
 5739SOL    HW218117   1.310   0.623   5.418
 5740SOL     OW18118   4.263   3.783   1.431
 5740SOL    HW118119   4.234   3.755   1.522
 5740SOL    HW218120   4.363   3.789   1.427
 5741SOL     OW18121   0.196   3.902   4.312
 5741SOL    HW118122   0.119   3.961   4.339
 5741SOL    HW218123   0.165   3.807   4.309
 5742SOL     OW18124   4.741   6.697   2.903
 5742SOL    HW118125   4.792   6.706   2.989
 5742SOL    HW218126   4.648   6.667   2.923
 5743SOL     OW18127   2.625   5.215   5.545
 5743SOL    HW118128   2.588   5.194   5.635
 5743SOL    HW218129   2.589   5.149   5.478
 5744SOL     OW18130   5.241   1.528   1.954
 5744SOL    HW118131   5.300   1.468   1.902
 5744SOL    HW218132   5.253   1.623   1.923
 5745SOL     OW18133   2.162   0.724   4.229
 5745SOL    HW118134   2.124   0.741   4.320
 5745SOL    HW218135   2.101   0.662   4.179
 5746SOL     OW18136   5.471   6.453   1.444
 5746SOL    HW118137   5.557   6.488   1.407
 5746SOL    HW218138   5.402   6.451   1.372
 5747SOL     OW18139   0.109   4.426   2.943
 5747SOL    HW118140   0.126   4.522   2.920
 5747SOL    HW218141   0.018   4.418   2.984
 5748SOL     OW18142   1.643   5.670   0.419
 5748SOL    HW118143   1.571   5.623   0.367
 5748SOL    HW218144   1.602   5.723   0.493
 5749SOL     OW18145   1.916   6.694   4.676
 5749SOL    HW118146   1.903   6.595   4.672
 5749SOL    HW218147   1.927   6.729   4.583
 5750SOL     OW18148   6.583   6.476   4.150
 5750SOL    HW118149   6.672   6.467   4.105
 5750SOL    HW218150   6.594   6.462   4.248
 5751SOL     OW18151   2.897   2.241   4.496
 5751SOL    HW118152   2.872   2.335   4.519
 5751SOL    HW218153   2.820   2.180   4.515
 5752SOL     OW18154   6.612   0.944   0.490
 5752SOL    HW118155   6.632   0.967   0.395
 5752SOL    HW218156   6.676   0.991   0.550
 5753SOL     OW18157   3.746   3.081   4.656
 5753SOL    HW118158   3.706   3.010   4.598
 5753SOL    HW218159   3.751   3.167   4.606
 5754SOL     OW18160   6.880   5.044   1.449
 5754SOL    HW118161   6.803   5.048   1.513
 5754SOL    HW218162   6.924   4.954   1.455
 5755SOL     OW18163   2.136   3.624   6.138
 5755SOL    HW118164   2.122   3.525   6.140
 5755SOL    HW218165   2.227   3.644   6.101
 5756SOL     OW18166   6.228   0.203   3.491
 5756SOL    HW118167   6.216   0.261   3.411
 5756SOL    HW218168   6.289   0.127   3.468
 5757SOL     OW18169   6.512   6.315   3.017
 5757SOL    HW118170   6.533   6.263   3.100
 5757SOL    HW218171   6.553   6.269   2.938
 5758SOL     OW18172   2.515   0.990   4.562
 5758SOL    HW118173   2.470   1.076   4.536
 5758SOL    HW218174   2.447   0.927   4.598
 5759SOL     OW18175   5.092   1.619   6.724
 5759SOL    HW118176   5.021   1.570   6.674
 5759SOL    HW218177   5.165   1.645   6.662
 5760SOL     OW18178   0.132   4.513   1.012
 5760SOL    HW118179   0.110   4.583   0.944
 5760SOL    HW218180   0.179   4.436   0.967
 5761SOL     OW18181   5.719   6.372   6.301
 5761SOL    HW118182   5.667   6.457   6.299
 5761SOL    HW218183   5.761   6.360   6.391
 5762SOL     OW18184   4.733   5.729   0.253
 5762SOL    HW118185   4.743   5.631   0.271
 5762SOL    HW218186   4.816   5.777   0.280
 5763SOL     OW18187   0.270   7.017   0.349
 5763SOL    HW118188   0.242   0.084   0.325
 5763SOL    HW218189   0.341   6.987   0.285
 5764SOL     OW18190   5.073   5.137   5.204
 5764SOL    HW118191   4.982   5.147   5.244
 5764SOL    HW218192   5.133   5.208   5.240
 5765SOL     OW18193   6.193   3.518   0.008
 5765SOL    HW118194   6.211   3.597   0.067
 5765SOL    HW218195   6.278   3.468   7.018
 5766SOL     OW18196   2.041   2.724   6.714
 5766SOL    HW118197   2.109   2.721   6.787
 5766SOL    HW218198   2.012   2.818   6.698
 5767SOL     OW18199   2.152   0.805   0.192
 5767SOL    HW118200   2.161   0.870   0.117
 5767SOL    HW218201   2.242   0.783   0.229
 5768SOL     OW18202   0.784   6.193   3.041
 5768SOL    HW118203   0.798   6.290   3.024
 5768SOL    HW218204   0.686   6.173   3.044
 5769SOL     OW18205   2.264   5.925   4.281
 5769SOL    HW118206   2.168   5.903   4.270
 5769SOL    HW218207   2.275   5.993   4.353
 5770SOL     OW18208   5.818   0.194   0.545
 5770SOL    HW118209   5.904   0.193   0.596
 5770SOL    HW218210   5.773   0.104   0.554
 5771SOL     OW18211   1.830   6.644   3.469
 5771SOL    HW118212   1.779   6.565   3.435
 5771SOL    HW218213   1.928   6.630   3.452
 5772SOL     OW18214   6.214   1.940   0.998
 5772SOL    HW118215   6.297   1.905   1.042
 5772SOL    HW218216   6.229   1.946   0.899
 5773SOL     OW18217   4.528   1.111   3.838
 5773SOL    HW118218   4.571   1.184   3.786
 5773SOL    HW218219   4.462   1.062   3.781
 5774SOL     OW18220   3.147   5.416   3.616
 5774SOL    HW118221   3.168   5.401   3.519
 5774SOL    HW218222   3.052   5.446   3.625
 5775SOL     OW18223   1.444   0.904   2.265
 5775SOL    HW118224   1.529   0.908   2.316
 5775SOL    HW218225   1.463   0.886   2.168
 5776SOL     OW18226   0.039   0.619   5.872
 5776SOL    HW118227   0.007   0.572   5.790
 5776SOL    HW218228   0.083   0.553   5.933
 5777SOL     OW18229   6.289   0.436   4.882
 5777SOL    HW118230   6.389   0.432   4.871
 5777SOL    HW218231   6.246   0.456   4.794
 5778SOL     OW18232   1.464   0.395   1.553
 5778SOL    HW118233   1.397   0.362   1.619
 5778SOL    HW218234   1.446   0.353   1.463
 5779SOL     OW18235   4.423   2.137   0.627
 5779SOL    HW118236   4.499   2.182   0.675
 5779SOL    HW218237   4.459   2.078   0.555
 5780SOL     OW18238   6.217   4.972   3.029
 5780SOL    HW118239   6.276   5.025   2.968
 5780SOL    HW218240   6.269   4.894   3.066
 5781SOL     OW18241   0.012   4.019   4.479
 5781SOL    HW118242   0.056   4.033   4.567
 5781SOL    HW218243   6.941   4.039   4.486
 5782SOL     OW18244   0.783   0.910   0.283
 5782SOL    HW118245   0.691   0.945   0.267
 5782SOL    HW218246   0.791   0.876   0.377
 5783SOL     OW18247   1.676   0.927   1.499
 5783SOL    HW118248   1.740   0.897   1.429
 5783SOL    HW218249   1.582   0.917   1.466
 5784SOL     OW18250   6.884   6.404   0.309
 5784SOL    HW118251   6.943   6.482   0.333
 5784SOL    HW218252   6.792   6.437   0.287
 5785SOL     OW18253   1.507   1.811   0.685
 5785SOL    HW118254   1.479   1.768   0.599
 5785SOL    HW218255   1.563   1.747   0.738
 5786SOL     OW18256   0.516   4.090   0.652
 5786SOL    HW118257   0.527   4.057   0.746
 5786SOL    HW218258   0.565   4.177   0.641
 5787SOL     OW18259   4.067   2.992   5.581
 5787SOL    HW118260   4.041   2.911   5.530
 5787SOL    HW218261   4.032   2.986   5.674
 5788SOL     OW18262   2.825   1.535   1.364
 5788SOL    HW118263   2.879   1.537   1.448
 5788SOL    HW218264   2.879   1.497   1.290
 5789SOL     OW18265   3.405   4.144   6.719
 5789SOL    HW118266   3.434   4.192   6.636
 5789SOL    HW218267   3.408   4.045   6.704
 5790SOL     OW18268   0.336   4.614   4.899
 5790SOL    HW118269   0.368   4.682   4.833
 5790SOL    HW218270   0.393   4.618   4.981
 5791SOL     OW18271   3.016   1.902   2.153
 5791SOL    HW118272   2.983   1.989   2.191
 5791SOL    HW218273   2.940   1.836   2.150
 5792SOL     OW18274   5.245   2.466   2.316
 5792SOL    HW118275   5.298   2.397   2.266
 5792SOL    HW218276   5.302   2.545   2.336
 5793SOL     OW18277   6.024   0.916   4.637
 5793SOL    HW118278   6.112   0.943   4.599
 5793SOL    HW218279   5.989   0.990   4.696
 5794SOL     OW18280   2.734   0.329   6.112
 5794SOL    HW118281   2.675   0.404   6.142
 5794SOL    HW218282   2.812   0.323   6.174
 5795SOL     OW18283   0.104   6.198   1.054
 5795SOL    HW118284   0.091   6.296   1.074
 5795SOL    HW218285   0.048   6.144   1.117
 5796SOL     OW18286   4.824   1.367   6.598
 5796SOL    HW118287   4.753   1.372   6.529
 5796SOL    HW218288   4.909   1.333   6.557
 5797SOL     OW18289   5.031   2.131   0.081
 5797SOL    HW118290   5.006   2.111   0.176
 5797SOL    HW218291   5.130   2.137   0.074
 5798SOL     OW18292   6.831   5.412   4.621
 5798SOL    HW118293   6.811   5.480   4.692
 5798SOL    HW218294   6.823   5.321   4.660
 5799SOL     OW18295   0.118   0.659   4.656
 5799SOL    HW118296   0.115   0.748   4.610
 5799SOL    HW218297   0.050   0.657   4.729
 5800SOL     OW18298   0.641   6.955   2.072
 5800SOL    HW118299   0.577   0.000   2.043
 5800SOL    HW218300   0.727   6.996   2.102
 5801SOL     OW18301   1.577   2.159   3.264
 5801SOL    HW118302   1.622   2.085   3.314
 5801SOL    HW218303   1.479   2.141   3.258
 5802SOL     OW18304   6.292   3.135   2.541
 5802SOL    HW118305   6.198   3.103   2.553
 5802SOL    HW218306   6.354   3.055   2.538
 5803SOL     OW18307   1.763   5.914   2.969
 5803SOL    HW118308   1.828   5.904   3.045
 5803SOL    HW218309   1.812   5.936   2.885
 5804SOL     OW18310   0.248   5.476   3.425
 5804SOL    HW118311   0.207   5.539   3.491
 5804SOL    HW218312   0.177   5.438   3.366
 5805SOL     OW18313   1.717   3.331   0.845
 5805SOL    HW118314   1.674   3.412   0.886
 5805SOL    HW218315   1.670   3.249   0.877
 5806SOL     OW18316   6.507   5.567   4.903
 5806SOL    HW118317   6.507   5.663   4.876
 5806SOL    HW218318   6.507   5.510   4.820
 5807SOL     OW18319   1.162   5.493   0.419
 5807SOL    HW118320   1.147   5.401   0.383
 5807SOL    HW218321   1.093   5.512   0.490
 5808SOL     OW18322   6.860   6.459   4.052
 5808SOL    HW118323   6.897   6.543   4.092
 5808SOL    HW218324   6.922   6.383   4.070
 5809SOL     OW18325   6.580   1.703   5.253
 5809SOL    HW118326   6.491   1.698   5.297
 5809SOL    HW218327   6.652   1.706   5.323
 5810SOL     OW18328   5.096   1.106   5.768
 5810SOL    HW118329   5.018   1.153   5.810
 5810SOL    HW218330   5.063   1.039   5.702
 5811SOL     OW18331   3.392   1.537   5.251
 5811SOL    HW118332   3.432   1.627   5.271
 5811SOL    HW218333   3.465   1.471   5.234
 5812SOL     OW18334   5.130   3.276   5.824
 5812SOL    HW118335   5.148   3.321   5.737
 5812SOL    HW218336   5.164   3.182   5.821
 5813SOL     OW18337   2.635   0.698   0.836
 5813SOL    HW118338   2.712   0.749   0.874
 5813SOL    HW218339   2.655   0.600   0.837
 5814SOL     OW18340   6.712   3.025   2.234
 5814SOL    HW118341   6.681   3.048   2.327
 5814SOL    HW218342   6.636   3.033   2.170
 5815SOL     OW18343   3.883   1.501   3.931
 5815SOL    HW118344   3.942   1.482   3.852
 5815SOL    HW218345   3.939   1.506   4.013
 5816SOL     OW18346   4.905   4.037   7.025
 5816SOL    HW118347   4.962   4.100   6.972
 5816SOL    HW218348   4.813   4.036   6.987
 5817SOL     OW18349   6.158   5.141   5.603
 5817SOL    HW118350   6.071   5.188   5.615
 5817SOL    HW218351   6.232   5.209   5.600
 5818SOL     OW18352   6.532   5.658   5.770
 5818SOL    HW118353   6.620   5.640   5.727
 5818SOL    HW218354   6.459   5.630   5.708
 5819SOL     OW18355   4.033   6.938   6.581
 5819SOL    HW118356   4.114   6.996   6.582
 5819SOL    HW218357   4.053   6.852   6.533
 5820SOL     OW18358   4.109   4.800   2.601
 5820SOL    HW118359   4.184   4.734   2.598
 5820SOL    HW218360   4.065   4.796   2.690
 5821SOL     OW18361   6.816   0.742   1.966
 5821SOL    HW118362   6.895   0.769   2.021
 5821SOL    HW218363   6.836   0.656   1.919
 5822SOL     OW18364   1.774   2.389   1.391
 5822SOL    HW118365   1.780   2.421   1.485
 5822SOL    HW218366   1.866   2.386   1.351
 5823SOL     OW18367   3.021   0.570   4.565
 5823SOL    HW118368   2.979   0.585   4.475
 5823SOL    HW218369   2.952   0.582   4.636
 5824SOL     OW18370   0.042   5.894   2.809
 5824SOL    HW118371   0.024   5.968   2.744
 5824SOL    HW218372   0.069   5.932   2.898
 5825SOL     OW18373   0.357   6.874   4.423
 5825SOL    HW118374   0.402   6.946   4.477
 5825SOL    HW218375   0.268   6.854   4.463
 5826SOL     OW18376   0.039   5.874   6.554
 5826SOL    HW118377   7.002   5.853   6.480
 5826SOL    HW218378   7.022   5.857   6.642
 5827SOL     OW18379   1.709   3.564   4.398
 5827SOL    HW118380   1.769   3.619   4.340
 5827SOL    HW218381   1.684   3.615   4.480
 5828SOL     OW18382   5.010   1.693   2.532
 5828SOL    HW118383   4.943   1.658   2.598
 5828SOL    HW218384   5.040   1.619   2.472
 5829SOL     OW18385   1.656   0.318   4.392
 5829SOL    HW118386   1.568   0.316   4.345
 5829SOL    HW218387   1.715   0.247   4.355
 5830SOL     OW18388   5.756   0.072   5.985
 5830SOL    HW118389   5.675   0.015   5.974
 5830SOL    HW218390   5.829   0.038   5.927
 5831SOL     OW18391   1.160   0.760   5.822
 5831SOL    HW118392   1.200   0.813   5.896
 5831SOL    HW218393   1.065   0.737   5.845
 5832SOL     OW18394   3.413   4.577   6.835
 5832SOL    HW118395   3.465   4.593   6.918
 5832SOL    HW218396   3.331   4.636   6.835
 5833SOL     OW18397   4.074   3.618   5.382
 5833SOL    HW118398   4.086   3.570   5.295
 5833SOL    HW218399   4.074   3.551   5.457
 5834SOL     OW18400   0.148   3.930   6.816
 5834SOL    HW118401   0.216   3.986   6.769
 5834SOL    HW218402   0.157   3.835   6.785
 5835SOL     OW18403   5.736   2.323   3.282
 5835SOL    HW118404   5.641   2.292   3.274
 5835SOL    HW218405   5.738   2.416   3.319
 5836SOL     OW18406   3.261   0.332   1.418
 5836SOL    HW118407   3.214   0.249   1.447
 5836SOL    HW218408   3.194   0.405   1.402
 5837SOL     OW18409   3.392   3.332   0.127
 5837SOL    HW118410   3.413   3.235   0.138
 5837SOL    HW218411   3.308   3.343   0.075
 5838SOL     OW18412   2.863   1.821   0.883
 5838SOL    HW118413   2.867   1.734   0.834
 5838SOL    HW218414   2.898   1.809   0.975
 5839SOL     OW18415   0.602   2.053   1.390
 5839SOL    HW118416   0.686   2.005   1.415
 5839SOL    HW218417   0.558   2.006   1.314
 5840SOL     OW18418   1.291   4.321   6.244
 5840SOL    HW118419   1.222   4.258   6.279
 5840SOL    HW218420   1.350   4.273   6.179
 5841SOL     OW18421   5.050   1.434   2.108
 5841SOL    HW118422   5.050   1.336   2.084
 5841SOL    HW218423   5.102   1.485   2.039
 5842SOL     OW18424   4.767   2.815   1.759
 5842SOL    HW118425   4.712   2.886   1.802
 5842SOL    HW218426   4.818   2.853   1.682
 5843SOL     OW18427   1.543   4.653   2.090
 5843SOL    HW118428   1.590   4.741   2.100
 5843SOL    HW218429   1.547   4.623   1.995
 5844SOL     OW18430   1.683   6.078   5.697
 5844SOL    HW118431   1.690   6.172   5.731
 5844SOL    HW218432   1.661   6.016   5.772
 5845SOL     OW18433   0.566   0.476   1.863
 5845SOL    HW118434   0.466   0.463   1.863
 5845SOL    HW218435   0.602   0.452   1.773
 5846SOL     OW18436   6.143   3.821   6.109
 5846SOL    HW118437   6.206   3.833   6.186
 5846SOL    HW218438   6.089   3.904   6.097
 5847SOL     OW18439   2.638   2.384   2.090
 5847SOL    HW118440   2.727   2.384   2.045
 5847SOL    HW218441   2.639   2.320   2.167
 5848SOL     OW18442   1.460   5.447   3.190
 5848SOL    HW118443   1.400   5.527   3.193
 5848SOL    HW218444   1.484   5.420   3.283
 5849SOL     OW18445   1.758   0.394   5.020
 5849SOL    HW118446   1.773   0.312   5.075
 5849SOL    HW218447   1.661   0.400   4.996
 5850SOL     OW18448   6.601   3.566   1.975
 5850SOL    HW118449   6.640   3.535   1.888
 5850SOL    HW218450   6.617   3.496   2.045
 5851SOL     OW18451   5.155   3.138   3.455
 5851SOL    HW118452   5.160   3.070   3.382
 5851SOL    HW218453   5.235   3.198   3.449
 5852SOL     OW18454   5.507   6.448   2.906
 5852SOL    HW118455   5.494   6.377   2.974
 5852SOL    HW218456   5.601   6.482   2.908
 5853SOL     OW18457   4.117   5.237   5.331
 5853SOL    HW118458   4.082   5.168   5.267
 5853SOL    HW218459   4.081   5.219   5.423
 5854SOL     OW18460   4.174   3.996   5.947
 5854SOL    HW118461   4.169   3.897   5.962
 5854SOL    HW218462   4.255   4.032   5.992
 5855SOL     OW18463   1.747   0.723   4.420
 5855SOL    HW118464   1.844   0.746   4.410
 5855SOL    HW218465   1.737   0.646   4.483
 5856SOL     OW18466   1.819   5.523   3.659
 5856SOL    HW118467   1.818   5.423   3.661
 5856SOL    HW218468   1.734   5.559   3.697
 5857SOL     OW18469   6.005   3.101   5.679
 5857SOL    HW118470   6.071   3.154   5.626
 5857SOL    HW218471   5.981   3.151   5.762
 5858SOL     OW18472   2.508   2.503   2.433
 5858SOL    HW118473   2.509   2.528   2.336
 5858SOL    HW218474   2.422   2.455   2.454
 5859SOL     OW18475   6.498   6.242   1.707
 5859SOL    HW118476   6.569   6.309   1.687
 5859SOL    HW218477   6.541   6.157   1.738
 5860SOL     OW18478   0.068   4.341   3.357
 5860SOL    HW118479   7.018   4.346   3.293
 5860SOL    HW218480   0.043   4.384   3.444
 5861SOL     OW18481   5.656   1.409   4.565
 5861SOL    HW118482   5.630   1.330   4.621
 5861SOL    HW218483   5.580   1.474   4.562
 5862SOL     OW18484   5.938   5.486   0.904
 5862SOL    HW118485   6.005   5.437   0.848
 5862SOL    HW218486   5.936   5.446   0.995
 5863SOL     OW18487   2.946   2.135   5.180
 5863SOL    HW118488   2.983   2.048   5.211
 5863SOL    HW218489   3.012   2.181   5.121
 5864SOL     OW18490   3.758   3.936   2.563
 5864SOL    HW118491   3.712   4.019   2.533
 5864SOL    HW218492   3.805   3.894   2.485
 5865SOL     OW18493   5.942   0.126   5.566
 5865SOL    HW118494   5.901   0.209   5.604
 5865SOL    HW218495   5.895   0.046   5.603
 5866SOL     OW18496   3.641   3.452   1.023
 5866SOL    HW118497   3.734   3.474   1.053
 5866SOL    HW218498   3.626   3.490   0.931
 5867SOL     OW18499   2.263   3.628   0.887
 5867SOL    HW118500   2.166   3.611   0.906
 5867SOL    HW218501   2.271   3.687   0.806
 5868SOL     OW18502   1.397   1.615   5.496
 5868SOL    HW118503   1.323   1.644   5.436
 5868SOL    HW218504   1.422   1.691   5.556
 5869SOL     OW18505   1.635   6.435   3.371
 5869SOL    HW118506   1.710   6.410   3.308
 5869SOL    HW218507   1.652   6.394   3.460
 5870SOL     OW18508   4.963   6.663   4.727
 5870SOL    HW118509   5.012   6.669   4.640
 5870SOL    HW218510   5.022   6.696   4.801
 5871SOL     OW18511   3.450   2.994   1.725
 5871SOL    HW118512   3.398   2.975   1.809
 5871SOL    HW218513   3.398   2.962   1.646
 5872SOL     OW18514   4.707   6.793   1.068
 5872SOL    HW118515   4.630   6.734   1.049
 5872SOL    HW218516   4.793   6.744   1.052
 5873SOL     OW18517   3.476   0.849   2.129
 5873SOL    HW118518   3.524   0.936   2.131
 5873SOL    HW218519   3.377   0.866   2.125
 5874SOL     OW18520   2.378   4.777   5.706
 5874SOL    HW118521   2.395   4.709   5.634
 5874SOL    HW218522   2.417   4.744   5.792
 5875SOL     OW18523   4.417   1.315   6.898
 5875SOL    HW118524   4.413   1.309   6.998
 5875SOL    HW218525   4.511   1.337   6.870
 5876SOL     OW18526   3.715   3.027   1.702
 5876SOL    HW118527   3.766   2.958   1.753
 5876SOL    HW218528   3.618   3.020   1.726
 5877SOL     OW18529   6.986   6.642   1.502
 5877SOL    HW118530   6.987   6.542   1.501
 5877SOL    HW218531   6.891   6.674   1.496
 5878SOL     OW18532   0.083   5.318   4.199
 5878SOL    HW118533   0.102   5.305   4.296
 5878SOL    HW218534   0.149   5.267   4.145
 5879SOL     OW18535   1.098   4.303   6.599
 5879SOL    HW118536   1.145   4.266   6.679
 5879SOL    HW218537   1.021   4.244   6.575
 5880SOL     OW18538   4.347   4.283   6.603
 5880SOL    HW118539   4.386   4.194   6.627
 5880SOL    HW218540   4.412   4.335   6.548
 5881SOL     OW18541   1.031   6.678   2.828
 5881SOL    HW118542   1.033   6.592   2.777
 5881SOL    HW218543   1.037   6.754   2.763
 5882SOL     OW18544   0.223   5.687   1.429
 5882SOL    HW118545   0.143   5.721   1.379
 5882SOL    HW218546   0.276   5.765   1.463
 5883SOL     OW18547   0.969   1.281   6.718
 5883SOL    HW118548   0.912   1.199   6.723
 5883SOL    HW218549   0.971   1.327   6.807
 5884SOL     OW18550   3.112   1.700   4.854
 5884SOL    HW118551   3.086   1.792   4.880
 5884SOL    HW218552   3.034   1.654   4.811
 5885SOL     OW18553   0.726   0.023   2.967
 5885SOL    HW118554   0.665   0.067   2.901
 5885SOL    HW218555   0.740   6.954   2.940
 5886SOL     OW18556   1.131   2.033   4.965
 5886SOL    HW118557   1.179   2.050   4.879
 5886SOL    HW218558   1.071   1.954   4.955
 5887SOL     OW18559   2.405   1.635   2.728
 5887SOL    HW118560   2.391   1.540   2.700
 5887SOL    HW218561   2.347   1.655   2.807
 5888SOL     OW18562   2.759   1.002   1.585
 5888SOL    HW118563   2.704   1.002   1.502
 5888SOL    HW218564   2.748   0.915   1.632
 5889SOL     OW18565   1.380   6.810   0.556
 5889SOL    HW118566   1.366   6.849   0.465
 5889SOL    HW218567   1.414   6.717   0.548
 5890SOL     OW18568   2.317   1.065   3.474
 5890SOL    HW118569   2.389   1.008   3.512
 5890SOL    HW218570   2.324   1.067   3.374
 5891SOL     OW18571   3.585   3.099   6.225
 5891SOL    HW118572   3.612   3.158   6.301
 5891SOL    HW218573   3.609   3.005   6.246
 5892SOL     OW18574   0.880   5.363   1.458
 5892SOL    HW118575   0.787   5.400   1.458
 5892SOL    HW218576   0.877   5.266   1.484
 5893SOL     OW18577   2.192   3.924   3.987
 5893SOL    HW118578   2.154   3.875   4.065
 5893SOL    HW218579   2.156   3.885   3.902
 5894SOL     OW18580   6.769   4.892   4.095
 5894SOL    HW118581   6.748   4.900   4.192
 5894SOL    HW218582   6.823   4.971   4.066
 5895SOL     OW18583   5.659   3.975   3.796
 5895SOL    HW118584   5.667   4.074   3.811
 5895SOL    HW218585   5.623   3.932   3.879
 5896SOL     OW18586   3.773   0.902   0.444
 5896SOL    HW118587   3.690   0.949   0.414
 5896SOL    HW218588   3.755   0.854   0.530
 5897SOL     OW18589   4.137   0.562   1.398
 5897SOL    HW118590   4.236   0.547   1.406
 5897SOL    HW218591   4.096   0.484   1.352
 5898SOL     OW18592   2.251   6.471   3.761
 5898SOL    HW118593   2.222   6.549   3.816
 5898SOL    HW218594   2.348   6.452   3.778
 5899SOL     OW18595   5.732   5.922   6.240
 5899SOL    HW118596   5.750   6.019   6.225
 5899SOL    HW218597   5.634   5.905   6.234
 5900SOL     OW18598   5.931   5.211   3.632
 5900SOL    HW118599   5.850   5.159   3.607
 5900SOL    HW218600   5.915   5.308   3.614
 5901SOL     OW18601   2.262   0.393   0.217
 5901SOL    HW118602   2.301   0.440   0.138
 5901SOL    HW218603   2.169   0.426   0.233
 5902SOL     OW18604   6.418   2.552   5.613
 5902SOL    HW118605   6.423   2.602   5.699
 5902SOL    HW218606   6.350   2.479   5.620
 5903SOL     OW18607   5.095   5.058   0.009
 5903SOL    HW118608   5.050   5.064   0.098
 5903SOL    HW218609   5.038   5.005   6.973
 5904SOL     OW18610   1.208   4.420   1.671
 5904SOL    HW118611   1.295   4.371   1.677
 5904SOL    HW218612   1.225   4.516   1.650
 5905SOL     OW18613   5.904   6.323   3.442
 5905SOL    HW118614   5.967   6.370   3.503
 5905SOL    HW218615   5.816   6.371   3.441
 5906SOL     OW18616   3.664   2.020   4.107
 5906SOL    HW118617   3.574   2.064   4.103
 5906SOL    HW218618   3.652   1.921   4.118
 5907SOL     OW18619   0.851   5.110   0.621
 5907SOL    HW118620   0.827   5.175   0.549
 5907SOL    HW218621   0.816   5.019   0.599
 5908SOL     OW18622   0.239   2.512   7.018
 5908SOL    HW118623   0.336   2.495   0.010
 5908SOL    HW218624   0.222   2.611   7.020
 5909SOL     OW18625   6.522   5.625   0.836
 5909SOL    HW118626   6.470   5.707   0.810
 5909SOL    HW218627   6.472   5.577   0.909
 5910SOL     OW18628   0.233   3.498   4.054
 5910SOL    HW118629   0.258   3.548   4.137
 5910SOL    HW218630   0.170   3.424   4.078
 5911SOL     OW18631   6.658   6.405   6.775
 5911SOL    HW118632   6.584   6.451   6.726
 5911SOL    HW218633   6.704   6.470   6.835
 5912SOL     OW18634   6.351   1.582   5.892
 5912SOL    HW118635   6.338   1.673   5.852
 5912SOL    HW218636   6.302   1.515   5.836
 5913SOL     OW18637   5.014   3.247   6.160
 5913SOL    HW118638   4.948   3.264   6.087
 5913SOL    HW218639   5.107   3.250   6.123
 5914SOL     OW18640   1.249   4.587   5.628
 5914SOL    HW118641   1.268   4.668   5.684
 5914SOL    HW218642   1.304   4.510   5.660
 5915SOL     OW18643   4.793   5.759   1.031
 5915SOL    HW118644   4.858   5.684   1.047
 5915SOL    HW218645   4.844   5.844   1.017
 5916SOL     OW18646   5.529   6.846   3.794
 5916SOL    HW118647   5.464   6.897   3.736
 5916SOL    HW218648   5.529   6.750   3.766
 5917SOL     OW18649   2.878   3.497   4.489
 5917SOL    HW118650   2.841   3.406   4.467
 5917SOL    HW218651   2.976   3.489   4.505
 5918SOL     OW18652   1.643   3.740   6.044
 5918SOL    HW118653   1.600   3.654   6.015
 5918SOL    HW218654   1.705   3.722   6.120
 5919SOL     OW18655   3.539   3.425   3.161
 5919SOL    HW118656   3.517   3.357   3.231
 5919SOL    HW218657   3.636   3.418   3.137
 5920SOL     OW18658   4.823   0.930   6.503
 5920SOL    HW118659   4.889   1.003   6.521
 5920SOL    HW218660   4.855   0.845   6.544
 5921SOL     OW18661   3.643   5.514   6.690
 5921SOL    HW118662   3.593   5.495   6.774
 5921SOL    HW218663   3.580   5.552   6.622
 5922SOL     OW18664   5.238   4.706   2.850
 5922SOL    HW118665   5.151   4.702   2.898
 5922SOL    HW218666   5.256   4.618   2.806
 5923SOL     OW18667   6.502   1.391   1.811
 5923SOL    HW118668   6.480   1.295   1.797
 5923SOL    HW218669   6.418   1.443   1.826
 5924SOL     OW18670   5.863   0.098   3.053
 5924SOL    HW118671   5.962   0.085   3.052
 5924SOL    HW218672   5.836   0.141   3.139
 5925SOL     OW18673   3.977   0.027   2.356
 5925SOL    HW118674   3.955   0.070   2.268
 5925SOL    HW218675   3.980   0.096   2.428
 5926SOL     OW18676   3.978   5.456   1.828
 5926SOL    HW118677   3.919   5.536   1.837
 5926SOL    HW218678   3.994   5.416   1.919
 5927SOL     OW18679   1.404   4.137   2.459
 5927SOL    HW118680   1.333   4.164   2.394
 5927SOL    HW218681   1.493   4.139   2.412
 5928SOL     OW18682   4.104   0.360   1.227
 5928SOL    HW118683   4.063   0.396   1.143
 5928SOL    HW218684   4.064   0.271   1.248
 5929SOL     OW18685   6.847   7.014   6.696
 5929SOL    HW118686   6.779   6.942   6.686
 5929SOL    HW218687   6.808   0.075   6.667
 5930SOL     OW18688   6.418   4.030   2.825
 5930SOL    HW118689   6.334   4.084   2.835
 5930SOL    HW218690   6.403   3.958   2.757
 5931SOL     OW18691   0.620   5.503   3.068
 5931SOL    HW118692   0.620   5.431   3.137
 5931SOL    HW218693   0.555   5.480   2.996
 5932SOL     OW18694   3.211   0.307   0.508
 5932SOL    HW118695   3.264   0.354   0.438
 5932SOL    HW218696   3.186   0.372   0.580
 5933SOL     OW18697   6.991   5.221   3.142
 5933SOL    HW118698   0.032   5.217   3.068
 5933SOL    HW218699   0.008   5.251   3.227
 5934SOL     OW18700   3.473   2.917   4.887
 5934SOL    HW118701   3.468   2.887   4.791
 5934SOL    HW218702   3.410   2.862   4.942
 5935SOL     OW18703   5.461   4.956   6.514
 5935SOL    HW118704   5.492   5.038   6.465
 5935SOL    HW218705   5.534   4.924   6.575
 5936SOL     OW18706   3.464   2.124   1.148
 5936SOL    HW118707   3.539   2.189   1.146
 5936SOL    HW218708   3.377   2.173   1.140
 5937SOL     OW18709   6.336   3.886   2.363
 5937SOL    HW118710   6.436   3.882   2.375
 5937SOL    HW218711   6.315   3.914   2.270
 5938SOL     OW18712   6.793   5.709   3.088
 5938SOL    HW118713   6.825   5.789   3.139
 5938SOL    HW218714   6.723   5.661   3.141
 5939SOL     OW18715   2.416   6.769   3.236
 5939SOL    HW118716   2.514   6.761   3.253
 5939SOL    HW218717   2.369   6.687   3.269
 5940SOL     OW18718   4.476   5.645   1.757
 5940SOL    HW118719   4.516   5.612   1.842
 5940SOL    HW218720   4.417   5.574   1.718
 5941SOL     OW18721   5.744   2.967   2.290
 5941SOL    HW118722   5.697   2.943   2.375
 5941SOL    HW218723   5.761   2.883   2.237
 5942SOL     OW18724   5.341   4.031   0.220
 5942SOL    HW118725   5.406   4.023   0.296
 5942SOL    HW218726   5.248   4.016   0.253
 5943SOL     OW18727   3.335   4.455   5.968
 5943SOL    HW118728   3.289   4.497   6.046
 5943SOL    HW218729   3.341   4.521   5.893
 5944SOL     OW18730   6.942   2.775   1.063
 5944SOL    HW118731   7.012   2.707   1.042
 5944SOL    HW218732   6.870   2.731   1.119
 5945SOL     OW18733   6.561   5.099   4.828
 5945SOL    HW118734   6.585   5.018   4.882
 5945SOL    HW218735   6.545   5.176   4.889
 5946SOL     OW18736   3.835   3.611   6.163
 5946SOL    HW118737   3.772   3.602   6.086
 5946SOL    HW218738   3.923   3.569   6.141
 5947SOL     OW18739   2.907   3.181   2.014
 5947SOL    HW118740   2.966   3.101   2.022
 5947SOL    HW218741   2.907   3.231   2.101
 5948SOL     OW18742   3.957   4.863   2.851
 5948SOL    HW118743   3.868   4.880   2.894
 5948SOL    HW218744   4.029   4.905   2.907
 5949SOL     OW18745   5.150   3.830   1.774
 5949SOL    HW118746   5.144   3.930   1.779
 5949SOL    HW218747   5.100   3.797   1.694
 5950SOL     OW18748   5.139   0.835   5.492
 5950SOL    HW118749   5.099   0.905   5.433
 5950SOL    HW218750   5.224   0.801   5.452
 5951SOL     OW18751   1.183   5.663   3.863
 5951SOL    HW118752   1.211   5.570   3.885
 5951SOL    HW218753   1.116   5.660   3.788
 5952SOL     OW18754   5.905   4.587   3.364
 5952SOL    HW118755   5.867   4.675   3.394
 5952SOL    HW218756   5.854   4.513   3.408
 5953SOL     OW18757   6.324   3.116   5.790
 5953SOL    HW118758   6.378   3.042   5.751
 5953SOL    HW218759   6.277   3.166   5.718
 5954SOL     OW18760   6.302   5.279   5.158
 5954SOL    HW118761   6.291   5.201   5.220
 5954SOL    HW218762   6.217   5.293   5.108
 5955SOL     OW18763   4.864   5.844   2.282
 5955SOL    HW118764   4.859   5.782   2.360
 5955SOL    HW218765   4.829   5.799   2.200
 5956SOL     OW18766   4.697   1.932   4.900
 5956SOL    HW118767   4.796   1.920   4.893
 5956SOL    HW218768   4.652   1.890   4.821
 5957SOL     OW18769   3.960   1.177   5.293
 5957SOL    HW118770   3.983   1.111   5.221
 5957SOL    HW218771   4.028   1.172   5.366
 5958SOL     OW18772   5.537   6.318   2.648
 5958SOL    HW118773   5.512   6.375   2.726
 5958SOL    HW218774   5.548   6.376   2.567
 5959SOL     OW18775   4.464   2.901   5.333
 5959SOL    HW118776   4.417   2.985   5.307
 5959SOL    HW218777   4.396   2.830   5.355
 5960SOL     OW18778   4.201   5.396   5.008
 5960SOL    HW118779   4.152   5.318   5.048
 5960SOL    HW218780   4.137   5.470   4.989
 5961SOL     OW18781   4.868   1.616   2.761
 5961SOL    HW118782   4.884   1.660   2.849
 5961SOL    HW218783   4.771   1.596   2.750
 5962SOL     OW18784   5.864   6.783   0.384
 5962SOL    HW118785   5.868   6.703   0.444
 5962SOL    HW218786   5.942   6.843   0.403
 5963SOL     OW18787   4.139   3.689   6.465
 5963SOL    HW118788   4.155   3.677   6.367
 5963SOL    HW218789   4.115   3.601   6.506
 5964SOL     OW18790   0.519   5.536   5.620
 5964SOL    HW118791   0.571   5.481   5.555
 5964SOL    HW218792   0.469   5.476   5.683
 5965SOL     OW18793   1.904   1.737   6.966
 5965SOL    HW118794   2.001   1.715   6.975
 5965SOL    HW218795   1.892   1.836   6.969
 5966SOL     OW18796   2.009   5.947   5.055
 5966SOL    HW118797   2.080   5.879   5.038
 5966SOL    HW218798   1.932   5.903   5.103
 5967SOL     OW18799   3.849   6.539   6.261
 5967SOL    HW118800   3.918   6.469   6.248
 5967SOL    HW218801   3.893   6.625   6.286
 5968SOL     OW18802   5.220   2.335   0.495
 5968SOL    HW118803   5.190   2.419   0.539
 5968SOL    HW218804   5.140   2.278   0.474
 5969SOL     OW18805   6.264   6.979   6.710
 5969SOL    HW118806   6.209   0.028   6.675
 5969SOL    HW218807   6.247   6.967   6.807
 5970SOL     OW18808   0.215   4.179   2.585
 5970SOL    HW118809   0.142   4.232   2.543
 5970SOL    HW218810   0.188   4.083   2.591
 5971SOL     OW18811   0.229   1.193   2.686
 5971SOL    HW118812   0.301   1.130   2.715
 5971SOL    HW218813   0.223   1.193   2.587
 5972SOL     OW18814   5.858   5.689   6.277
 5972SOL    HW118815   5.807   5.773   6.261
 5972SOL    HW218816   5.886   5.649   6.190
 5973SOL     OW18817   1.565   3.659   2.727
 5973SOL    HW118818   1.560   3.683   2.630
 5973SOL    HW218819   1.478   3.682   2.772
 5974SOL     OW18820   5.881   6.228   6.752
 5974SOL    HW118821   5.827   6.251   6.832
 5974SOL    HW218822   5.827   6.171   6.690
 5975SOL     OW18823   4.409   0.253   0.561
 5975SOL    HW118824   4.460   0.285   0.642
 5975SOL    HW218825   4.429   0.157   0.545
 5976SOL     OW18826   3.598   2.804   6.297
 5976SOL    HW118827   3.676   2.811   6.235
 5976SOL    HW218828   3.563   2.710   6.296
 5977SOL     OW18829   1.552   5.706   6.427
 5977SOL    HW118830   1.626   5.762   6.465
 5977SOL    HW218831   1.551   5.714   6.327
 5978SOL     OW18832   4.333   5.408   1.883
 5978SOL    HW118833   4.408   5.389   1.820
 5978SOL    HW218834   4.246   5.389   1.837
 5979SOL     OW18835   5.144   0.655   3.350
 5979SOL    HW118836   5.100   0.673   3.262
 5979SOL    HW218837   5.232   0.609   3.335
 5980SOL     OW18838   3.401   3.540   1.142
 5980SOL    HW118839   3.362   3.574   1.057
 5980SOL    HW218840   3.492   3.503   1.125
 5981SOL     OW18841   5.473   2.007   1.353
 5981SOL    HW118842   5.419   2.060   1.419
 5981SOL    HW218843   5.566   1.995   1.388
 5982SOL     OW18844   5.924   3.149   1.929
 5982SOL    HW118845   5.960   3.228   1.879
 5982SOL    HW218846   5.841   3.175   1.978
 5983SOL     OW18847   1.536   1.459   3.812
 5983SOL    HW118848   1.455   1.413   3.775
 5983SOL    HW218849   1.577   1.516   3.740
 5984SOL     OW18850   6.671   5.413   3.790
 5984SOL    HW118851   6.703   5.482   3.855
 5984SOL    HW218852   6.571   5.412   3.789
 5985SOL     OW18853   6.757   2.680   4.337
 5985SOL    HW118854   6.767   2.581   4.342
 5985SOL    HW218855   6.715   2.705   4.250
 5986SOL     OW18856   3.510   4.178   4.372
 5986SOL    HW118857   3.604   4.170   4.406
 5986SOL    HW218858   3.452   4.221   4.441
 5987SOL     OW18859   5.636   0.191   4.020
 5987SOL    HW118860   5.710   0.251   3.991
 5987SOL    HW218861   5.667   0.095   4.016
 5988SOL     OW18862   4.770   0.497   6.103
 5988SOL    HW118863   4.829   0.446   6.166
 5988SOL    HW218864   4.728   0.433   6.039
 5989SOL     OW18865   2.085   5.616   6.470
 5989SOL    HW118866   2.086   5.686   6.399
 5989SOL    HW218867   2.178   5.598   6.502
 5990SOL     OW18868   3.847   3.596   0.663
 5990SOL    HW118869   3.932   3.638   0.696
 5990SOL    HW218870   3.852   3.497   0.672
 5991SOL     OW18871   3.790   5.247   6.707
 5991SOL    HW118872   3.810   5.183   6.781
 5991SOL    HW218873   3.770   5.337   6.744
 5992SOL     OW18874   3.603   0.387   2.069
 5992SOL    HW118875   3.622   0.391   1.971
 5992SOL    HW218876   3.520   0.439   2.089
 5993SOL     OW18877   3.902   5.167   6.029
 5993SOL    HW118878   3.938   5.233   5.963
 5993SOL    HW218879   3.978   5.120   6.073
 5994SOL     OW18880   5.645   2.592   2.050
 5994SOL    HW118881   5.704   2.619   1.973
 5994SOL    HW218882   5.589   2.670   2.077
 5995SOL     OW18883   4.888   3.628   2.740
 5995SOL    HW118884   4.918   3.580   2.658
 5995SOL    HW218885   4.870   3.561   2.813
 5996SOL     OW18886   1.270   5.962   1.584
 5996SOL    HW118887   1.204   5.890   1.605
 5996SOL    HW218888   1.354   5.921   1.549
 5997SOL     OW18889   0.406   5.440   2.883
 5997SOL    HW118890   0.345   5.498   2.937
 5997SOL    HW218891   0.355   5.400   2.807
 5998SOL     OW18892   5.906   1.391   3.343
 5998SOL    HW118893   5.821   1.339   3.333
 5998SOL    HW218894   5.977   1.331   3.380
 5999SOL     OW18895   2.268   2.672   1.536
 5999SOL    HW118896   2.275   2.578   1.501
 5999SOL    HW218897   2.339   2.729   1.496
 6000SOL     OW18898   2.772   0.002   0.775
 6000SOL    HW118899   2.863   0.041   0.785
 6000SOL    HW218900   2.763   6.986   0.685
 6001SOL     OW18901   0.355   4.091   6.732
 6001SOL    HW118902   0.405   4.081   6.646
 6001SOL    HW218903   0.406   4.047   6.806
 6002SOL     OW18904   6.227   1.360   0.857
 6002SOL    HW118905   6.282   1.369   0.940
 6002SOL    HW218906   6.214   1.451   0.816
 6003SOL     OW18907   5.924   2.096   4.674
 6003SOL    HW118908   5.889   2.182   4.636
 6003SOL    HW218909   5.898   2.090   4.771
 6004SOL     OW18910   6.986   3.825   2.933
 6004SOL    HW118911   0.029   3.799   2.866
 6004SOL    HW218912   7.008   3.916   2.969
 6005SOL     OW18913   4.588   5.375   3.943
 6005SOL    HW118914   4.610   5.439   4.017
 6005SOL    HW218915   4.578   5.283   3.982
 6006SOL     OW18916   2.382   1.307   5.292
 6006SOL    HW118917   2.458   1.250   5.262
 6006SOL    HW218918   2.379   1.391   5.239
 6007SOL     OW18919   5.402   4.239   5.368
 6007SOL    HW118920   5.347   4.158   5.389
 6007SOL    HW218921   5.475   4.248   5.436
 6008SOL     OW18922   2.461   4.579   5.563
 6008SOL    HW118923   2.526   4.597   5.490
 6008SOL    HW218924   2.396   4.508   5.534
 6009SOL     OW18925   2.198   1.395   3.229
 6009SOL    HW118926   2.104   1.362   3.240
 6009SOL    HW218927   2.218   1.407   3.131
 6010SOL     OW18928   1.010   4.723   4.273
 6010SOL    HW118929   0.926   4.766   4.305
 6010SOL    HW218930   1.072   4.793   4.237
 6011SOL     OW18931   5.135   2.989   3.677
 6011SOL    HW118932   5.051   2.944   3.645
 6011SOL    HW218933   5.160   3.062   3.615
 6012SOL     OW18934   5.765   1.174   0.156
 6012SOL    HW118935   5.804   1.172   0.064
 6012SOL    HW218936   5.702   1.098   0.168
 6013SOL     OW18937   4.811   2.016   2.650
 6013SOL    HW118938   4.779   2.111   2.655
 6013SOL    HW218939   4.759   1.967   2.580
 6014SOL     OW18940   4.099   3.349   2.782
 6014SOL    HW118941   4.169   3.351   2.711
 6014SOL    HW218942   4.048   3.263   2.777
 6015SOL     OW18943   6.196   3.674   4.292
 6015SOL    HW118944   6.157   3.738   4.358
 6015SOL    HW218945   6.275   3.717   4.247
 6016SOL     OW18946   6.756   1.952   5.390
 6016SOL    HW118947   6.687   2.020   5.368
 6016SOL    HW218948   6.796   1.916   5.306
 6017SOL     OW18949   6.592   4.580   3.468
 6017SOL    HW118950   6.583   4.490   3.426
 6017SOL    HW218951   6.549   4.579   3.559
 6018SOL     OW18952   4.400   0.463   6.539
 6018SOL    HW118953   4.457   0.397   6.491
 6018SOL    HW218954   4.334   0.414   6.597
 6019SOL     OW18955   0.149   2.055   4.074
 6019SOL    HW118956   0.159   2.147   4.038
 6019SOL    HW218957   0.192   2.048   4.164
 6020SOL     OW18958   0.964   5.290   0.798
 6020SOL    HW118959   1.009   5.239   0.871
 6020SOL    HW218960   0.927   5.227   0.731
 6021SOL     OW18961   4.355   0.466   3.126
 6021SOL    HW118962   4.257   0.446   3.116
 6021SOL    HW218963   4.369   0.521   3.209
 6022SOL     OW18964   5.363   1.769   3.914
 6022SOL    HW118965   5.289   1.822   3.873
 6022SOL    HW218966   5.401   1.819   3.992
 6023SOL     OW18967   5.758   1.049   1.534
 6023SOL    HW118968   5.823   1.118   1.501
 6023SOL    HW218969   5.687   1.094   1.588
 6024SOL     OW18970   1.787   4.640   2.963
 6024SOL    HW118971   1.856   4.711   2.953
 6024SOL    HW218972   1.703   4.668   2.918
 6025SOL     OW18973   3.375   1.603   3.169
 6025SOL    HW118974   3.295   1.576   3.116
 6025SOL    HW218975   3.364   1.573   3.264
 6026SOL     OW18976   7.024   4.350   5.386
 6026SOL    HW118977   7.008   4.253   5.405
 6026SOL    HW218978   6.949   4.386   5.331
 6027SOL     OW18979   0.281   3.336   5.681
 6027SOL    HW118980   0.209   3.296   5.624
 6027SOL    HW218981   0.240   3.396   5.750
 6028SOL     OW18982   6.550   5.364   0.256
 6028SOL    HW118983   6.637   5.358   0.207
 6028SOL    HW218984   6.567   5.381   0.353
 6029SOL     OW18985   2.560   6.809   4.980
 6029SOL    HW118986   2.559   6.712   5.004
 6029SOL    HW218987   2.526   6.821   4.886
 6030SOL     OW18988   3.791   5.353   2.174
 6030SOL    HW118989   3.701   5.346   2.131
 6030SOL    HW218990   3.786   5.320   2.268
 6031SOL     OW18991   3.038   5.353   3.998
 6031SOL    HW118992   3.122   5.315   3.958
 6031SOL    HW218993   3.026   5.447   3.967
 6032SOL     OW18994   2.231   4.548   2.530
 6032SOL    HW118995   2.188   4.478   2.473
 6032SOL    HW218996   2.176   4.563   2.612
 6033SOL     OW18997   2.781   2.301   2.468
 6033SOL    HW118998   2.776   2.279   2.566
 6033SOL    HW218999   2.720   2.377   2.448
 6034SOL     OW19000   1.707   6.702   5.611
 6034SOL    HW119001   1.641   6.647   5.662
 6034SOL    HW219002   1.767   6.642   5.558
 6035SOL     OW19003   0.176   1.070   2.385
 6035SOL    HW119004   0.131   1.083   2.297
 6035SOL    HW219005   0.115   1.018   2.446
 6036SOL     OW19006   5.257   4.583   3.255
 6036SOL    HW119007   5.186   4.624   3.313
 6036SOL    HW219008   5.219   4.505   3.206
 6037SOL     OW19009   4.540   5.825   0.094
 6037SOL    HW119010   4.637   5.820   0.116
 6037SOL    HW219011   4.487   5.769   0.158
 6038SOL     OW19012   1.830   2.640   5.799
 6038SOL    HW119013   1.760   2.711   5.791
 6038SOL    HW219014   1.815   2.586   5.881
 6039SOL     OW19015   2.941   3.380   2.479
 6039SOL    HW119016   2.983   3.306   2.530
 6039SOL    HW219017   2.896   3.443   2.542
 6040SOL     OW19018   1.168   1.339   0.417
 6040SOL    HW119019   1.104   1.405   0.378
 6040SOL    HW219020   1.235   1.386   0.473
 6041SOL     OW19021   3.083   0.602   4.980
 6041SOL    HW119022   2.991   0.614   4.945
 6041SOL    HW219023   3.114   0.508   4.965
 6042SOL     OW19024   4.446   6.376   2.290
 6042SOL    HW119025   4.530   6.332   2.320
 6042SOL    HW219026   4.369   6.312   2.302
 6043SOL     OW19027   0.966   4.837   5.634
 6043SOL    HW119028   1.051   4.794   5.666
 6043SOL    HW219029   0.949   4.812   5.539
 6044SOL     OW19030   1.369   2.470   1.315
 6044SOL    HW119031   1.404   2.539   1.378
 6044SOL    HW219032   1.416   2.478   1.227
 6045SOL     OW19033   5.868   4.373   2.527
 6045SOL    HW119034   5.846   4.455   2.580
 6045SOL    HW219035   5.853   4.392   2.430
 6046SOL     OW19036   3.564   2.092   0.110
 6046SOL    HW119037   3.526   2.016   0.058
 6046SOL    HW219038   3.491   2.139   0.160
 6047SOL     OW19039   5.011   1.753   2.097
 6047SOL    HW119040   4.938   1.685   2.093
 6047SOL    HW219041   4.972   1.843   2.117
 6048SOL     OW19042   4.658   5.800   5.447
 6048SOL    HW119043   4.738   5.774   5.392
 6048SOL    HW219044   4.597   5.722   5.456
 6049SOL     OW19045   4.837   3.094   0.340
 6049SOL    HW119046   4.840   3.175   0.399
 6049SOL    HW219047   4.758   3.037   0.365
 6050SOL     OW19048   4.080   5.514   5.354
 6050SOL    HW119049   4.081   5.414   5.359
 6050SOL    HW219050   4.045   5.542   5.264
 6051SOL     OW19051   2.243   6.995   3.873
 6051SOL    HW119052   2.253   6.931   3.797
 6051SOL    HW219053   2.199   0.053   3.841
 6052SOL     OW19054   6.571   1.024   0.201
 6052SOL    HW119055   6.548   0.957   0.130
 6052SOL    HW219056   6.514   1.105   0.190
 6053SOL     OW19057   3.884   1.877   6.888
 6053SOL    HW119058   3.842   1.788   6.906
 6053SOL    HW219059   3.835   1.924   6.815
 6054SOL     OW19060   2.258   3.045   0.417
 6054SOL    HW119061   2.330   3.000   0.470
 6054SOL    HW219062   2.175   2.989   0.420
 6055SOL     OW19063   4.891   0.238   4.877
 6055SOL    HW119064   4.877   0.286   4.963
 6055SOL    HW219065   4.946   0.295   4.815
 6056SOL     OW19066   4.937   3.382   4.412
 6056SOL    HW119067   4.995   3.425   4.342
 6056SOL    HW219068   4.907   3.293   4.379
 6057SOL     OW19069   5.887   2.196   3.480
 6057SOL    HW119070   5.832   2.228   3.403
 6057SOL    HW219071   5.984   2.202   3.456
 6058SOL     OW19072   4.730   3.631   1.554
 6058SOL    HW119073   4.679   3.545   1.551
 6058SOL    HW219074   4.702   3.689   1.477
 6059SOL     OW19075   5.009   4.864   5.272
 6059SOL    HW119076   5.060   4.925   5.212
 6059SOL    HW219077   5.052   4.863   5.363
 6060SOL     OW19078   3.109   3.523   6.852
 6060SOL    HW119079   3.190   3.465   6.848
 6060SOL    HW219080   3.134   3.613   6.887
 6061SOL     OW19081   3.499   2.570   1.075
 6061SOL    HW119082   3.446   2.654   1.085
 6061SOL    HW219083   3.575   2.571   1.140
 6062SOL     OW19084   2.443   0.802   5.083
 6062SOL    HW119085   2.499   0.751   5.018
 6062SOL    HW219086   2.496   0.818   5.167
 6063SOL     OW19087   4.145   2.978   6.057
 6063SOL    HW119088   4.243   2.998   6.059
 6063SOL    HW219089   4.130   2.888   6.016
 6064SOL     OW19090   1.727   6.024   0.909
 6064SOL    HW119091   1.670   6.048   0.830
 6064SOL    HW219092   1.759   5.930   0.901
 6065SOL     OW19093   0.113   6.818   2.370
 6065SOL    HW119094   0.104   6.869   2.284
 6065SOL    HW219095   0.177   6.865   2.430
 6066SOL     OW19096   4.936   1.307   5.892
 6066SOL    HW119097   5.005   1.351   5.835
 6066SOL    HW219098   4.944   1.339   5.986
 6067SOL     OW19099   5.922   0.703   5.387
 6067SOL    HW119100   5.960   0.690   5.479
 6067SOL    HW219101   5.825   0.678   5.387
 6068SOL     OW19102   5.373   3.456   4.414
 6068SOL    HW119103   5.339   3.441   4.320
 6068SOL    HW219104   5.298   3.442   4.478
 6069SOL     OW19105   6.030   3.639   5.548
 6069SOL    HW119106   6.009   3.594   5.635
 6069SOL    HW219107   6.086   3.579   5.492
 6070SOL     OW19108   2.782   2.323   0.820
 6070SOL    HW119109   2.698   2.270   0.818
 6070SOL    HW219110   2.845   2.284   0.887
 6071SOL     OW19111   5.264   5.529   3.892
 6071SOL    HW119112   5.261   5.434   3.860
 6071SOL    HW219113   5.331   5.537   3.966
 6072SOL     OW19114   6.864   0.479   1.241
 6072SOL    HW119115   6.783   0.537   1.232
 6072SOL    HW219116   6.837   0.388   1.273
 6073SOL     OW19117   5.914   3.187   0.071
 6073SOL    HW119118   5.823   3.158   0.101
 6073SOL    HW219119   5.968   3.106   0.046
 6074SOL     OW19120   0.970   6.322   3.396
 6074SOL    HW119121   1.067   6.315   3.372
 6074SOL    HW219122   0.941   6.237   3.440
 6075SOL     OW19123   6.329   1.054   6.068
 6075SOL    HW119124   6.273   0.971   6.066
 6075SOL    HW219125   6.277   1.130   6.029
 6076SOL     OW19126   3.380   5.537   4.268
 6076SOL    HW119127   3.473   5.555   4.238
 6076SOL    HW219128   3.323   5.617   4.247
 6077SOL     OW19129   6.132   5.913   0.931
 6077SOL    HW119130   6.202   5.890   0.999
 6077SOL    HW219131   6.114   6.012   0.934
 6078SOL     OW19132   4.576   4.997   0.294
 6078SOL    HW119133   4.497   4.939   0.277
 6078SOL    HW219134   4.617   4.973   0.382
 6079SOL     OW19135   4.388   4.158   6.127
 6079SOL    HW119136   4.296   4.191   6.149
 6079SOL    HW219137   4.431   4.121   6.209
 6080SOL     OW19138   0.295   0.007   1.519
 6080SOL    HW119139   0.292   6.934   1.530
 6080SOL    HW219140   0.380   0.033   1.473
 6081SOL     OW19141   0.052   3.299   5.457
 6081SOL    HW119142   0.085   3.217   5.502
 6081SOL    HW219143   6.979   3.293   5.446
 6082SOL     OW19144   2.171   1.344   3.986
 6082SOL    HW119145   2.236   1.400   3.934
 6082SOL    HW219146   2.215   1.310   4.069
 6083SOL     OW19147   6.425   5.647   6.749
 6083SOL    HW119148   6.356   5.681   6.812
 6083SOL    HW219149   6.471   5.568   6.789
 6084SOL     OW19150   0.791   6.893   3.983
 6084SOL    HW119151   0.703   6.932   3.956
 6084SOL    HW219152   0.783   6.851   4.073
 6085SOL     OW19153   0.399   5.404   0.280
 6085SOL    HW119154   0.393   5.488   0.224
 6085SOL    HW219155   0.430   5.428   0.372
 6086SOL     OW19156   3.970   0.528   5.799
 6086SOL    HW119157   4.000   0.491   5.711
 6086SOL    HW219158   3.910   0.462   5.844
 6087SOL     OW19159   3.867   5.397   1.005
 6087SOL    HW119160   3.809   5.351   1.072
 6087SOL    HW219161   3.952   5.427   1.050
 6088SOL     OW19162   5.358   5.797   3.821
 6088SOL    HW119163   5.314   5.726   3.876
 6088SOL    HW219164   5.377   5.876   3.878
 6089SOL     OW19165   5.086   3.223   1.656
 6089SOL    HW119166   5.119   3.134   1.625
 6089SOL    HW219167   5.108   3.293   1.587
 6090SOL     OW19168   1.852   5.747   5.204
 6090SOL    HW119169   1.788   5.690   5.255
 6090SOL    HW219170   1.945   5.729   5.235
 6091SOL     OW19171   2.020   1.187   6.962
 6091SOL    HW119172   2.003   1.133   0.018
 6091SOL    HW219173   2.034   1.126   6.884
 6092SOL     OW19174   4.314   6.918   2.875
 6092SOL    HW119175   4.273   6.866   2.950
 6092SOL    HW219176   4.266   6.897   2.790
 6093SOL     OW19177   1.885   3.496   1.884
 6093SOL    HW119178   1.975   3.535   1.867
 6093SOL    HW219179   1.892   3.396   1.887
 6094SOL     OW19180   2.454   6.682   1.801
 6094SOL    HW119181   2.420   6.776   1.797
 6094SOL    HW219182   2.389   6.625   1.849
 6095SOL     OW19183   5.112   3.987   0.366
 6095SOL    HW119184   5.050   3.937   0.305
 6095SOL    HW219185   5.105   3.949   0.458
 6096SOL     OW19186   6.190   6.662   3.760
 6096SOL    HW119187   6.164   6.636   3.853
 6096SOL    HW219188   6.167   6.588   3.697
 6097SOL     OW19189   2.385   6.445   2.464
 6097SOL    HW119190   2.360   6.386   2.540
 6097SOL    HW219191   2.468   6.410   2.419
 6098SOL     OW19192   1.995   2.004   5.322
 6098SOL    HW119193   2.023   2.001   5.418
 6098SOL    HW219194   1.930   2.080   5.309
 6099SOL     OW19195   6.022   6.406   0.107
 6099SOL    HW119196   6.115   6.375   0.088
 6099SOL    HW219197   6.019   6.506   0.107
 6100SOL     OW19198   5.173   5.779   0.504
 6100SOL    HW119199   5.229   5.819   0.577
 6100SOL    HW219200   5.079   5.769   0.536
 6101SOL     OW19201   6.627   2.736   4.080
 6101SOL    HW119202   6.653   2.792   4.001
 6101SOL    HW219203   6.542   2.771   4.120
 6102SOL     OW19204   3.416   6.745   3.159
 6102SOL    HW119205   3.404   6.648   3.139
 6102SOL    HW219206   3.441   6.756   3.255
 6103SOL     OW19207   6.292   1.862   2.258
 6103SOL    HW119208   6.194   1.879   2.258
 6103SOL    HW219209   6.321   1.832   2.167
 6104SOL     OW19210   6.331   0.725   5.498
 6104SOL    HW119211   6.381   0.670   5.566
 6104SOL    HW219212   6.381   0.723   5.411
 6105SOL     OW19213   3.186   6.517   6.274
 6105SOL    HW119214   3.132   6.591   6.313
 6105SOL    HW219215   3.241   6.553   6.198
 6106SOL     OW19216   1.778   4.214   6.521
 6106SOL    HW119217   1.695   4.159   6.516
 6106SOL    HW219218   1.813   4.230   6.428
 6107SOL     OW19219   3.636   5.574   4.194
 6107SOL    HW119220   3.671   5.511   4.263
 6107SOL    HW219221   3.678   5.664   4.208
 6108SOL     OW19222   1.837   3.299   2.138
 6108SOL    HW119223   1.764   3.253   2.087
 6108SOL    HW219224   1.836   3.396   2.116
 6109SOL     OW19225   5.401   2.441   4.972
 6109SOL    HW119226   5.412   2.344   4.995
 6109SOL    HW219227   5.304   2.466   4.979
 6110SOL     OW19228   3.955   4.172   0.840
 6110SOL    HW119229   3.887   4.103   0.815
 6110SOL    HW219230   4.023   4.131   0.901
 6111SOL     OW19231   1.954   4.186   2.407
 6111SOL    HW119232   1.989   4.129   2.482
 6111SOL    HW219233   1.891   4.254   2.444
 6112SOL     OW19234   4.364   0.316   2.647
 6112SOL    HW119235   4.403   0.323   2.739
 6112SOL    HW219236   4.325   0.225   2.634
 6113SOL     OW19237   2.355   1.018   6.372
 6113SOL    HW119238   2.261   1.048   6.386
 6113SOL    HW219239   2.411   1.097   6.345
 6114SOL     OW19240   4.976   5.578   1.136
 6114SOL    HW119241   4.981   5.503   1.069
 6114SOL    HW219242   5.020   5.549   1.221
 6115SOL     OW19243   5.321   6.850   3.996
 6115SOL    HW119244   5.257   6.925   3.978
 6115SOL    HW219245   5.403   6.862   3.940
 6116SOL     OW19246   3.749   0.852   5.936
 6116SOL    HW119247   3.791   0.910   6.007
 6116SOL    HW219248   3.657   0.826   5.964
 6117SOL     OW19249   1.475   1.103   3.825
 6117SOL    HW119250   1.457   1.021   3.879
 6117SOL    HW219251   1.468   1.183   3.884
 6118SOL     OW19252   6.941   0.965   2.505
 6118SOL    HW119253   6.868   1.018   2.462
 6118SOL    HW219254   6.903   0.912   2.582
 6119SOL     OW19255   0.974   4.033   6.283
 6119SOL    HW119256   1.017   3.973   6.350
 6119SOL    HW219257   0.880   4.054   6.312
 6120SOL     OW19258   3.626   6.523   5.240
 6120SOL    HW119259   3.565   6.478   5.175
 6120SOL    HW219260   3.637   6.619   5.213
 6121SOL     OW19261   0.808   3.273   5.351
 6121SOL    HW119262   0.858   3.210   5.410
 6121SOL    HW219263   0.710   3.269   5.373
 6122SOL     OW19264   4.210   5.333   0.909
 6122SOL    HW119265   4.138   5.287   0.857
 6122SOL    HW219266   4.299   5.308   0.872
 6123SOL     OW19267   5.338   6.943   7.011
 6123SOL    HW119268   5.318   6.869   0.049
 6123SOL    HW219269   5.434   6.970   7.019
 6124SOL     OW19270   2.370   6.903   6.235
 6124SOL    HW119271   2.361   6.816   6.185
 6124SOL    HW219272   2.361   6.886   6.333
 6125SOL     OW19273   1.813   5.188   0.582
 6125SOL    HW119274   1.874   5.229   0.650
 6125SOL    HW219275   1.735   5.248   0.567
 6126SOL     OW19276   1.227   6.945   4.508
 6126SOL    HW119277   1.262   6.885   4.580
 6126SOL    HW219278   1.144   6.991   4.540
 6127SOL     OW19279   3.621   0.021   0.550
 6127SOL    HW119280   3.719   0.032   0.564
 6127SOL    HW219281   3.571   0.085   0.608
 6128SOL     OW19282   5.948   3.995   0.795
 6128SOL    HW119283   6.038   4.038   0.792
 6128SOL    HW219284   5.935   3.939   0.713
 6129SOL     OW19285   6.950   3.255   3.138
 6129SOL    HW119286   6.907   3.195   3.071
 6129SOL    HW219287   6.909   3.346   3.134
 6130SOL     OW19288   6.492   2.583   3.622
 6130SOL    HW119289   6.431   2.589   3.701
 6130SOL    HW219290   6.551   2.503   3.630
 6131SOL     OW19291   0.480   1.395   5.231
 6131SOL    HW119292   0.571   1.395   5.191
 6131SOL    HW219293   0.424   1.324   5.188
 6132SOL     OW19294   4.895   2.520   6.760
 6132SOL    HW119295   4.995   2.519   6.750
 6132SOL    HW219296   4.852   2.548   6.675
 6133SOL     OW19297   1.592   2.981   1.896
 6133SOL    HW119298   1.632   3.006   1.808
 6133SOL    HW219299   1.634   2.896   1.928
 6134SOL     OW19300   3.824   4.482   6.471
 6134SOL    HW119301   3.748   4.490   6.535
 6134SOL    HW219302   3.817   4.396   6.421
 6135SOL     OW19303   0.511   0.837   1.763
 6135SOL    HW119304   0.531   0.833   1.861
 6135SOL    HW219305   0.560   0.913   1.721
 6136SOL     OW19306   1.063   2.564   2.248
 6136SOL    HW119307   1.132   2.636   2.255
 6136SOL    HW219308   1.103   2.482   2.209
 6137SOL     OW19309   6.347   2.897   2.783
 6137SOL    HW119310   6.275   2.833   2.756
 6137SOL    HW219311   6.407   2.914   2.705
 6138SOL     OW19312   3.537   6.281   3.181
 6138SOL    HW119313   3.633   6.309   3.186
 6138SOL    HW219314   3.510   6.241   3.268
 6139SOL     OW19315   1.214   6.909   5.924
 6139SOL    HW119316   1.237   6.819   5.963
 6139SOL    HW219317   1.118   6.909   5.896
 6140SOL     OW19318   0.378   6.180   1.409
 6140SOL    HW119319   0.374   6.170   1.509
 6140SOL    HW219320   0.409   6.272   1.386
 6141SOL     OW19321   6.711   6.623   6.444
 6141SOL    HW119322   6.632   6.574   6.481
 6141SOL    HW219323   6.794   6.571   6.464
 6142SOL     OW19324   1.241   6.331   0.077
 6142SOL    HW119325   1.232   6.300   7.009
 6142SOL    HW219326   1.247   6.430   0.079
 6143SOL     OW19327   6.751   3.920   1.382
 6143SOL    HW119328   6.714   3.849   1.322
 6143SOL    HW219329   6.700   4.005   1.368
 6144SOL     OW19330   5.664   4.817   2.905
 6144SOL    HW119331   5.617   4.744   2.955
 6144SOL    HW219332   5.762   4.798   2.902
 6145SOL     OW19333   4.948   4.916   3.003
 6145SOL    HW119334   4.888   4.918   3.084
 6145SOL    HW219335   4.941   4.827   2.959
 6146SOL     OW19336   3.222   5.677   3.390
 6146SOL    HW119337   3.312   5.694   3.430
 6146SOL    HW219338   3.151   5.709   3.453
 6147SOL     OW19339   2.186   2.149   4.496
 6147SOL    HW119340   2.170   2.051   4.483
 6147SOL    HW219341   2.134   2.182   4.575
 6148SOL     OW19342   5.702   6.489   4.198
 6148SOL    HW119343   5.697   6.567   4.261
 6148SOL    HW219344   5.707   6.523   4.104
 6149SOL     OW19345   2.849   5.929   0.829
 6149SOL    HW119346   2.856   5.916   0.928
 6149SOL    HW219347   2.789   5.859   0.791
 6150SOL     OW19348   4.467   5.805   6.867
 6150SOL    HW119349   4.542   5.846   6.814
 6150SOL    HW219350   4.485   5.816   6.965
 6151SOL     OW19351   5.660   4.207   6.289
 6151SOL    HW119352   5.671   4.253   6.201
 6151SOL    HW219353   5.661   4.108   6.277
 6152SOL     OW19354   6.013   5.251   4.490
 6152SOL    HW119355   6.100   5.293   4.466
 6152SOL    HW219356   5.985   5.188   4.417
 6153SOL     OW19357   5.141   4.855   1.360
 6153SOL    HW119358   5.101   4.841   1.451
 6153SOL    HW219359   5.233   4.893   1.370
 6154SOL     OW19360   6.028   2.105   2.452
 6154SOL    HW119361   6.006   2.009   2.435
 6154SOL    HW219362   5.947   2.161   2.431
 6155SOL     OW19363   1.562   1.657   3.981
 6155SOL    HW119364   1.522   1.663   4.073
 6155SOL    HW219365   1.535   1.571   3.938
 6156SOL     OW19366   4.041   4.689   1.098
 6156SOL    HW119367   4.032   4.591   1.111
 6156SOL    HW219368   3.960   4.735   1.136
 6157SOL     OW19369   0.215   0.578   5.053
 6157SOL    HW119370   0.240   0.481   5.060
 6157SOL    HW219371   0.117   0.588   5.065
 6158SOL     OW19372   3.791   1.840   5.775
 6158SOL    HW119373   3.778   1.750   5.734
 6158SOL    HW219374   3.884   1.846   5.811
 6159SOL     OW19375   5.019   2.590   2.209
 6159SOL    HW119376   5.092   2.541   2.257
 6159SOL    HW219377   5.059   2.652   2.142
 6160SOL     OW19378   5.071   1.540   6.263
 6160SOL    HW119379   5.098   1.634   6.286
 6160SOL    HW219380   5.153   1.486   6.244
 6161SOL     OW19381   4.510   1.564   5.205
 6161SOL    HW119382   4.412   1.585   5.203
 6161SOL    HW219383   4.562   1.647   5.185
 6162SOL     OW19384   0.979   6.079   3.532
 6162SOL    HW119385   0.915   6.006   3.557
 6162SOL    HW219386   1.067   6.039   3.506
 6163SOL     OW19387   6.011   0.012   0.891
 6163SOL    HW119388   6.071   0.092   0.887
 6163SOL    HW219389   5.916   0.041   0.884
 6164SOL     OW19390   4.189   3.426   1.987
 6164SOL    HW119391   4.174   3.328   1.997
 6164SOL    HW219392   4.113   3.476   2.028
 6165SOL     OW19393   4.876   1.136   0.089
 6165SOL    HW119394   4.865   1.171   7.022
 6165SOL    HW219395   4.786   1.117   0.128
 6166SOL     OW19396   5.282   1.356   6.180
 6166SOL    HW119397   5.294   1.257   6.175
 6166SOL    HW219398   5.370   1.399   6.200
 6167SOL     OW19399   1.393   5.156   3.616
 6167SOL    HW119400   1.464   5.086   3.621
 6167SOL    HW219401   1.385   5.188   3.521
 6168SOL     OW19402   0.866   4.496   1.800
 6168SOL    HW119403   0.897   4.494   1.705
 6168SOL    HW219404   0.904   4.418   1.849
 6169SOL     OW19405   1.172   2.028   1.090
 6169SOL    HW119406   1.231   2.037   1.010
 6169SOL    HW219407   1.212   2.077   1.167
 6170SOL     OW19408   0.756   4.224   5.789
 6170SOL    HW119409   0.813   4.210   5.708
 6170SOL    HW219410   0.763   4.145   5.849
 6171SOL     OW19411   0.965   2.918   0.836
 6171SOL    HW119412   0.986   2.857   0.913
 6171SOL    HW219413   0.887   2.881   0.785
 6172SOL     OW19414   1.757   2.866   2.647
 6172SOL    HW119415   1.708   2.793   2.695
 6172SOL    HW219416   1.692   2.927   2.603
 6173SOL     OW19417   6.713   5.592   1.457
 6173SOL    HW119418   6.710   5.634   1.547
 6173SOL    HW219419   6.685   5.496   1.463
 6174SOL     OW19420   5.334   5.294   2.991
 6174SOL    HW119421   5.418   5.333   2.952
 6174SOL    HW219422   5.351   5.199   3.019
 6175SOL     OW19423   4.397   0.453   3.555
 6175SOL    HW119424   4.389   0.529   3.490
 6175SOL    HW219425   4.462   0.386   3.519
 6176SOL     OW19426   4.943   3.927   6.215
 6176SOL    HW119427   4.944   3.971   6.125
 6176SOL    HW219428   5.026   3.872   6.225
 6177SOL     OW19429   5.909   1.314   0.868
 6177SOL    HW119430   5.875   1.311   0.962
 6177SOL    HW219431   6.009   1.306   0.868
 6178SOL     OW19432   4.823   4.676   2.105
 6178SOL    HW119433   4.815   4.757   2.047
 6178SOL    HW219434   4.795   4.698   2.199
 6179SOL     OW19435   6.387   4.651   2.888
 6179SOL    HW119436   6.289   4.663   2.902
 6179SOL    HW219437   6.424   4.732   2.842
 6180SOL     OW19438   3.292   4.165   0.540
 6180SOL    HW119439   3.366   4.108   0.506
 6180SOL    HW219440   3.234   4.195   0.463
 6181SOL     OW19441   4.245   6.703   0.957
 6181SOL    HW119442   4.151   6.676   0.936
 6181SOL    HW219443   4.253   6.803   0.954
 6182SOL     OW19444   5.401   3.757   5.768
 6182SOL    HW119445   5.372   3.853   5.763
 6182SOL    HW219446   5.337   3.706   5.825
 6183SOL     OW19447   0.998   2.424   3.153
 6183SOL    HW119448   0.979   2.507   3.205
 6183SOL    HW219449   1.013   2.348   3.216
 6184SOL     OW19450   2.353   6.962   6.528
 6184SOL    HW119451   2.255   6.960   6.546
 6184SOL    HW219452   2.376   0.018   6.477
 6185SOL     OW19453   0.633   3.642   5.934
 6185SOL    HW119454   0.693   3.613   6.008
 6185SOL    HW219455   0.679   3.629   5.847
 6186SOL     OW19456   0.470   0.358   0.353
 6186SOL    HW119457   0.498   0.453   0.339
 6186SOL    HW219458   0.549   0.298   0.345
 6187SOL     OW19459   5.203   4.191   3.765
 6187SOL    HW119460   5.117   4.229   3.798
 6187SOL    HW219461   5.279   4.235   3.813
 6188SOL     OW19462   2.339   1.113   6.809
 6188SOL    HW119463   2.333   1.212   6.795
 6188SOL    HW219464   2.425   1.079   6.770
 6189SOL     OW19465   4.509   4.465   2.723
 6189SOL    HW119466   4.551   4.414   2.647
 6189SOL    HW219467   4.528   4.418   2.809
 6190SOL     OW19468   1.147   4.055   5.138
 6190SOL    HW119469   1.187   3.980   5.191
 6190SOL    HW219470   1.187   4.142   5.168
 6191SOL     OW19471   3.146   1.753   6.968
 6191SOL    HW119472   3.111   1.718   0.028
 6191SOL    HW219473   3.208   1.829   6.986
 6192SOL     OW19474   3.369   2.400   5.734
 6192SOL    HW119475   3.283   2.416   5.685
 6192SOL    HW219476   3.420   2.486   5.741
 6193SOL     OW19477   4.806   0.350   1.817
 6193SOL    HW119478   4.823   0.393   1.905
 6193SOL    HW219479   4.787   0.420   1.748
 6194SOL     OW19480   1.498   0.272   1.229
 6194SOL    HW119481   1.453   0.359   1.208
 6194SOL    HW219482   1.464   0.201   1.167
 6195SOL     OW19483   4.163   6.037   5.336
 6195SOL    HW119484   4.223   6.116   5.331
 6195SOL    HW219485   4.098   6.049   5.411
 6196SOL     OW19486   5.596   3.154   1.649
 6196SOL    HW119487   5.543   3.118   1.725
 6196SOL    HW219488   5.599   3.087   1.575
 6197SOL     OW19489   3.576   4.885   0.777
 6197SOL    HW119490   3.597   4.789   0.756
 6197SOL    HW219491   3.540   4.930   0.695
 6198SOL     OW19492   4.037   6.869   1.299
 6198SOL    HW119493   4.133   6.855   1.322
 6198SOL    HW219494   4.030   6.903   1.205
 6199SOL     OW19495   0.651   1.350   0.414
 6199SOL    HW119496   0.733   1.292   0.417
 6199SOL    HW219497   0.614   1.350   0.321
 6200SOL     OW19498   1.005   1.068   5.547
 6200SOL    HW119499   1.087   1.123   5.566
 6200SOL    HW219500   1.032   0.974   5.530
 6201SOL     OW19501   0.238   4.010   5.245
 6201SOL    HW119502   0.163   3.944   5.254
 6201SOL    HW219503   0.223   4.066   5.163
 6202SOL     OW19504   4.150   1.384   2.206
 6202SOL    HW119505   4.085   1.457   2.187
 6202SOL    HW219506   4.119   1.300   2.162
 6203SOL     OW19507   6.635   5.639   2.394
 6203SOL    HW119508   6.697   5.583   2.448
 6203SOL    HW219509   6.610   5.721   2.446
 6204SOL     OW19510   0.066   4.981   4.218
 6204SOL    HW119511   0.156   4.989   4.263
 6204SOL    HW219512   0.035   5.071   4.189
 6205SOL     OW19513   6.370   5.559   0.215
 6205SOL    HW119514   6.439   5.490   0.236
 6205SOL    HW219515   6.365   5.574   0.117
 6206SOL     OW19516   5.309   1.930   3.274
 6206SOL    HW119517   5.364   1.854   3.240
 6206SOL    HW219518   5.287   1.992   3.199
 6207SOL     OW19519   0.911   5.175   5.053
 6207SOL    HW119520   0.842   5.222   4.999
 6207SOL    HW219521   0.872   5.092   5.094
 6208SOL     OW19522   5.261   2.525   5.566
 6208SOL    HW119523   5.208   2.586   5.508
 6208SOL    HW219524   5.336   2.576   5.609
 6209SOL     OW19525   4.030   6.161   6.898
 6209SOL    HW119526   4.035   6.126   6.991
 6209SOL    HW219527   4.007   6.087   6.835
 6210SOL     OW19528   5.570   3.855   4.047
 6210SOL    HW119529   5.599   3.775   4.100
 6210SOL    HW219530   5.572   3.936   4.106
 6211SOL     OW19531   2.669   6.518   5.952
 6211SOL    HW119532   2.753   6.465   5.945
 6211SOL    HW219533   2.674   6.578   6.032
 6212SOL     OW19534   2.575   4.920   4.440
 6212SOL    HW119535   2.550   4.926   4.344
 6212SOL    HW219536   2.505   4.867   4.489
 6213SOL     OW19537   6.539   0.695   0.434
 6213SOL    HW119538   6.571   0.784   0.467
 6213SOL    HW219539   6.617   0.637   0.413
 6214SOL     OW19540   4.356   5.501   4.076
 6214SOL    HW119541   4.380   5.454   3.991
 6214SOL    HW219542   4.361   5.600   4.062
 6215SOL     OW19543   4.371   2.000   6.805
 6215SOL    HW119544   4.277   2.013   6.836
 6215SOL    HW219545   4.433   2.056   6.861
 6216SOL     OW19546   6.650   1.415   2.320
 6216SOL    HW119547   6.562   1.369   2.331
 6216SOL    HW219548   6.674   1.463   2.405
 6217SOL     OW19549   0.740   3.715   2.374
 6217SOL    HW119550   0.653   3.667   2.363
 6217SOL    HW219551   0.722   3.813   2.384
 6218SOL     OW19552   4.009   6.333   6.692
 6218SOL    HW119553   3.912   6.332   6.667
 6218SOL    HW219554   4.020   6.296   6.784
 6219SOL     OW19555   1.708   1.894   4.509
 6219SOL    HW119556   1.641   1.822   4.523
 6219SOL    HW219557   1.662   1.978   4.480
 6220SOL     OW19558   2.490   1.431   4.582
 6220SOL    HW119559   2.472   1.441   4.484
 6220SOL    HW219560   2.585   1.403   4.596
 6221SOL     OW19561   5.650   6.205   0.550
 6221SOL    HW119562   5.595   6.238   0.473
 6221SOL    HW219563   5.664   6.280   0.615
 6222SOL     OW19564   1.212   6.502   1.416
 6222SOL    HW119565   1.234   6.405   1.415
 6222SOL    HW219566   1.291   6.555   1.386
 6223SOL     OW19567   1.508   4.670   3.617
 6223SOL    HW119568   1.566   4.654   3.697
 6223SOL    HW219569   1.538   4.754   3.570
 6224SOL     OW19570   3.564   1.416   6.063
 6224SOL    HW119571   3.618   1.494   6.031
 6224SOL    HW219572   3.469   1.444   6.076
 6225SOL     OW19573   4.299   3.411   6.172
 6225SOL    HW119574   4.292   3.327   6.227
 6225SOL    HW219575   4.392   3.447   6.178
 6226SOL     OW19576   0.237   1.955   5.500
 6226SOL    HW119577   0.257   1.976   5.596
 6226SOL    HW219578   0.175   1.877   5.495
 6227SOL     OW19579   3.387   5.246   5.556
 6227SOL    HW119580   3.300   5.199   5.537
 6227SOL    HW219581   3.449   5.231   5.479
 6228SOL     OW19582   1.045   3.493   2.159
 6228SOL    HW119583   1.016   3.410   2.110
 6228SOL    HW219584   1.064   3.470   2.254
 6229SOL     OW19585   1.147   1.718   3.922
 6229SOL    HW119586   1.049   1.731   3.934
 6229SOL    HW219587   1.190   1.806   3.903
 6230SOL     OW19588   0.886   1.779   4.011
 6230SOL    HW119589   0.891   1.873   4.042
 6230SOL    HW219590   0.811   1.732   4.058
 6231SOL     OW19591   6.259   6.465   0.555
 6231SOL    HW119592   6.277   6.393   0.488
 6231SOL    HW219593   6.226   6.424   0.640
 6232SOL     OW19594   6.584   1.213   0.972
 6232SOL    HW119595   6.580   1.114   0.981
 6232SOL    HW219596   6.594   1.238   0.876
 6233SOL     OW19597   6.650   1.943   1.389
 6233SOL    HW119598   6.553   1.921   1.402
 6233SOL    HW219599   6.706   1.879   1.442
 6234SOL     OW19600   0.100   0.645   5.424
 6234SOL    HW119601   0.153   0.730   5.421
 6234SOL    HW219602   0.004   0.665   5.403
 6235SOL     OW19603   0.072   7.006   1.158
 6235SOL    HW119604   0.085   6.907   1.167
 6235SOL    HW219605   0.122   0.026   1.231
 6236SOL     OW19606   0.831   4.159   1.207
 6236SOL    HW119607   0.874   4.106   1.280
 6236SOL    HW219608   0.861   4.124   1.119
 6237SOL     OW19609   4.064   0.380   6.098
 6237SOL    HW119610   4.055   0.478   6.080
 6237SOL    HW219611   4.155   0.349   6.070
 6238SOL     OW19612   4.445   5.191   2.613
 6238SOL    HW119613   4.373   5.171   2.680
 6238SOL    HW219614   4.527   5.224   2.660
 6239SOL     OW19615   3.205   0.631   1.433
 6239SOL    HW119616   3.182   0.654   1.528
 6239SOL    HW219617   3.272   0.697   1.399
 6240SOL     OW19618   2.437   4.039   5.591
 6240SOL    HW119619   2.375   3.976   5.545
 6240SOL    HW219620   2.530   4.026   5.556
 6241SOL     OW19621   3.022   0.117   1.651
 6241SOL    HW119622   2.976   0.062   1.721
 6241SOL    HW219623   3.003   0.078   1.560
 6242SOL     OW19624   4.091   0.513   3.910
 6242SOL    HW119625   4.167   0.569   3.879
 6242SOL    HW219626   4.124   0.420   3.929
 6243SOL     OW19627   6.540   6.654   5.305
 6243SOL    HW119628   6.612   6.592   5.275
 6243SOL    HW219629   6.537   6.734   5.246
 6244SOL     OW19630   5.970   2.620   2.924
 6244SOL    HW119631   5.967   2.526   2.957
 6244SOL    HW219632   5.877   2.653   2.908
 6245SOL     OW19633   1.526   3.644   0.449
 6245SOL    HW119634   1.613   3.632   0.401
 6245SOL    HW219635   1.457   3.676   0.384
 6246SOL     OW19636   1.468   2.149   5.977
 6246SOL    HW119637   1.449   2.128   5.881
 6246SOL    HW219638   1.485   2.248   5.986
 6247SOL     OW19639   0.606   5.821   4.176
 6247SOL    HW119640   0.604   5.769   4.090
 6247SOL    HW219641   0.512   5.836   4.208
 6248SOL     OW19642   3.459   3.806   0.152
 6248SOL    HW119643   3.388   3.840   0.214
 6248SOL    HW219644   3.538   3.776   0.205
 6249SOL     OW19645   6.961   4.020   0.269
 6249SOL    HW119646   6.955   4.103   0.325
 6249SOL    HW219647   0.022   4.020   0.221
 6250SOL     OW19648   6.719   0.629   0.742
 6250SOL    HW119649   6.724   0.550   0.681
 6250SOL    HW219650   6.810   0.670   0.751
 6251SOL     OW19651   3.823   5.916   5.387
 6251SOL    HW119652   3.755   5.939   5.457
 6251SOL    HW219653   3.781   5.858   5.318
 6252SOL     OW19654   2.159   5.942   5.408
 6252SOL    HW119655   2.153   6.032   5.363
 6252SOL    HW219656   2.241   5.939   5.464
 6253SOL     OW19657   2.775   5.233   4.271
 6253SOL    HW119658   2.795   5.208   4.366
 6253SOL    HW219659   2.689   5.190   4.243
 6254SOL     OW19660   5.577   1.611   1.438
 6254SOL    HW119661   5.502   1.631   1.374
 6254SOL    HW219662   5.611   1.518   1.422
 6255SOL     OW19663   2.752   0.597   0.377
 6255SOL    HW119664   2.785   0.517   0.327
 6255SOL    HW219665   2.824   0.666   0.382
 6256SOL     OW19666   3.564   5.105   1.718
 6256SOL    HW119667   3.615   5.177   1.671
 6256SOL    HW219668   3.467   5.113   1.696
 6257SOL     OW19669   4.752   2.481   0.542
 6257SOL    HW119670   4.698   2.565   0.542
 6257SOL    HW219671   4.764   2.449   0.448
 6258SOL     OW19672   3.003   0.805   3.391
 6258SOL    HW119673   3.069   0.813   3.315
 6258SOL    HW219674   2.914   0.838   3.361
 6259SOL     OW19675   1.796   2.665   6.868
 6259SOL    HW119676   1.886   2.662   6.823
 6259SOL    HW219677   1.745   2.744   6.835
 6260SOL     OW19678   3.415   5.856   0.606
 6260SOL    HW119679   3.512   5.857   0.582
 6260SOL    HW219680   3.369   5.780   0.558
 6261SOL     OW19681   4.110   1.354   6.826
 6261SOL    HW119682   4.104   1.402   6.913
 6261SOL    HW219683   4.132   1.258   6.842
 6262SOL     OW19684   2.437   6.106   1.697
 6262SOL    HW119685   2.480   6.171   1.760
 6262SOL    HW219686   2.355   6.067   1.739
 6263SOL     OW19687   0.125   6.973   3.943
 6263SOL    HW119688   0.173   6.975   4.030
 6263SOL    HW219689   0.138   6.884   3.899
 6264SOL     OW19690   2.117   0.515   1.664
 6264SOL    HW119691   2.084   0.429   1.703
 6264SOL    HW219692   2.215   0.508   1.647
 6265SOL     OW19693   3.693   3.640   0.223
 6265SOL    HW119694   3.691   3.560   0.162
 6265SOL    HW219695   3.752   3.710   0.183
 6266SOL     OW19696   4.351   1.080   3.409
 6266SOL    HW119697   4.417   1.017   3.450
 6266SOL    HW219698   4.352   1.167   3.459
 6267SOL     OW19699   2.413   6.981   5.547
 6267SOL    HW119700   2.380   6.900   5.497
 6267SOL    HW219701   2.476   0.006   5.489
 6268SOL     OW19702   2.723   0.627   2.903
 6268SOL    HW119703   2.686   0.694   2.839
 6268SOL    HW219704   2.648   0.584   2.953
 6269SOL     OW19705   0.217   6.961   1.871
 6269SOL    HW119706   0.280   6.895   1.829
 6269SOL    HW219707   0.244   0.027   1.845
 6270SOL     OW19708   1.167   0.652   6.427
 6270SOL    HW119709   1.161   0.608   6.337
 6270SOL    HW219710   1.196   0.747   6.416
 6271SOL     OW19711   5.806   2.784   6.139
 6271SOL    HW119712   5.874   2.718   6.172
 6271SOL    HW219713   5.732   2.735   6.093
 6272SOL     OW19714   0.651   2.719   0.398
 6272SOL    HW119715   0.736   2.761   0.367
 6272SOL    HW219716   0.580   2.730   0.329
 6273SOL     OW19717   0.708   6.271   2.574
 6273SOL    HW119718   0.643   6.302   2.505
 6273SOL    HW219719   0.757   6.350   2.612
 6274SOL     OW19720   3.212   6.342   5.471
 6274SOL    HW119721   3.222   6.442   5.467
 6274SOL    HW219722   3.267   6.306   5.546
 6275SOL     OW19723   2.314   6.392   6.452
 6275SOL    HW119724   2.336   6.486   6.475
 6275SOL    HW219725   2.355   6.330   6.519
 6276SOL     OW19726   2.219   4.754   3.850
 6276SOL    HW119727   2.177   4.744   3.940
 6276SOL    HW219728   2.149   4.743   3.780
 6277SOL     OW19729   5.119   3.165   0.890
 6277SOL    HW119730   5.155   3.196   0.802
 6277SOL    HW219731   5.019   3.176   0.892
 6278SOL     OW19732   5.150   6.963   4.823
 6278SOL    HW119733   5.084   6.943   4.895
 6278SOL    HW219734   5.102   6.969   4.735
 6279SOL     OW19735   4.205   6.738   6.916
 6279SOL    HW119736   4.177   6.825   6.956
 6279SOL    HW219737   4.126   6.693   6.874
 6280SOL     OW19738   0.853   1.302   6.237
 6280SOL    HW119739   0.794   1.258   6.305
 6280SOL    HW219740   0.848   1.251   6.151
 6281SOL     OW19741   0.307   5.069   4.333
 6281SOL    HW119742   0.385   5.012   4.307
 6281SOL    HW219743   0.338   5.161   4.354
 6282SOL     OW19744   6.662   5.410   5.976
 6282SOL    HW119745   6.566   5.436   5.965
 6282SOL    HW219746   6.684   5.405   6.073
 6283SOL     OW19747   6.954   3.753   4.525
 6283SOL    HW119748   7.000   3.841   4.541
 6283SOL    HW219749   6.983   3.687   4.593
 6284SOL     OW19750   1.433   4.878   4.905
 6284SOL    HW119751   1.430   4.857   4.807
 6284SOL    HW219752   1.514   4.932   4.925
 6285SOL     OW19753   0.013   3.443   4.411
 6285SOL    HW119754   0.005   3.476   4.505
 6285SOL    HW219755   6.996   3.353   4.403
 6286SOL     OW19756   6.245   2.060   4.183
 6286SOL    HW119757   6.246   1.980   4.242
 6286SOL    HW219758   6.152   2.077   4.151
 6287SOL     OW19759   3.354   4.894   4.642
 6287SOL    HW119760   3.375   4.931   4.551
 6287SOL    HW219761   3.414   4.816   4.660
 6288SOL     OW19762   4.899   4.422   2.362
 6288SOL    HW119763   4.861   4.358   2.295
 6288SOL    HW219764   4.948   4.494   2.313
 6289SOL     OW19765   2.599   4.642   0.011
 6289SOL    HW119766   2.616   4.574   0.081
 6289SOL    HW219767   2.667   4.633   6.965
 6290SOL     OW19768   6.138   5.051   5.867
 6290SOL    HW119769   6.129   5.135   5.920
 6290SOL    HW219770   6.135   5.073   5.769
 6291SOL     OW19771   3.998   3.473   4.038
 6291SOL    HW119772   4.041   3.542   3.980
 6291SOL    HW219773   3.909   3.506   4.069
 6292SOL     OW19774   1.826   1.999   4.740
 6292SOL    HW119775   1.764   1.965   4.670
 6292SOL    HW219776   1.906   1.939   4.746
 6293SOL     OW19777   4.574   1.443   0.927
 6293SOL    HW119778   4.564   1.353   0.885
 6293SOL    HW219779   4.487   1.492   0.922
 6294SOL     OW19780   3.777   0.071   4.445
 6294SOL    HW119781   3.789   7.020   4.382
 6294SOL    HW219782   3.856   0.077   4.506
 6295SOL     OW19783   5.307   4.513   4.678
 6295SOL    HW119784   5.261   4.429   4.648
 6295SOL    HW219785   5.405   4.505   4.660
 6296SOL     OW19786   6.888   5.783   5.540
 6296SOL    HW119787   6.826   5.835   5.599
 6296SOL    HW219788   6.929   5.844   5.472
 6297SOL     OW19789   5.375   0.605   5.143
 6297SOL    HW119790   5.394   0.694   5.102
 6297SOL    HW219791   5.281   0.578   5.120
 6298SOL     OW19792   1.351   3.596   0.231
 6298SOL    HW119793   1.273   3.569   0.288
 6298SOL    HW219794   1.329   3.681   0.183
 6299SOL     OW19795   6.200   2.225   2.003
 6299SOL    HW119796   6.197   2.209   1.904
 6299SOL    HW219797   6.131   2.167   2.048
 6300SOL     OW19798   6.970   1.714   6.987
 6300SOL    HW119799   7.008   1.764   6.909
 6300SOL    HW219800   0.002   1.729   0.040
 6301SOL     OW19801   3.629   0.289   6.977
 6301SOL    HW119802   3.590   0.276   6.886
 6301SOL    HW219803   3.728   0.306   6.969
 6302SOL     OW19804   1.505   0.910   3.634
 6302SOL    HW119805   1.504   0.994   3.687
 6302SOL    HW219806   1.600   0.884   3.613
 6303SOL     OW19807   1.130   0.818   4.613
 6303SOL    HW119808   1.176   0.789   4.529
 6303SOL    HW219809   1.109   0.916   4.608
 6304SOL     OW19810   2.557   0.950   1.380
 6304SOL    HW119811   2.506   0.966   1.465
 6304SOL    HW219812   2.526   1.015   1.311
 6305SOL     OW19813   5.870   6.744   0.785
 6305SOL    HW119814   5.847   6.838   0.811
 6305SOL    HW219815   5.959   6.743   0.739
 6306SOL     OW19816   0.089   4.218   4.699
 6306SOL    HW119817   0.077   4.268   4.785
 6306SOL    HW219818   0.146   4.137   4.715
 6307SOL     OW19819   3.566   4.210   4.677
 6307SOL    HW119820   3.476   4.184   4.642
 6307SOL    HW219821   3.636   4.189   4.609
 6308SOL     OW19822   2.020   2.161   4.282
 6308SOL    HW119823   2.075   2.243   4.264
 6308SOL    HW219824   2.050   2.118   4.368
 6309SOL     OW19825   6.085   5.201   4.734
 6309SOL    HW119826   6.062   5.253   4.816
 6309SOL    HW219827   6.031   5.236   4.657
 6310SOL     OW19828   2.023   5.803   2.696
 6310SOL    HW119829   2.100   5.857   2.663
 6310SOL    HW219830   1.948   5.864   2.722
 6311SOL     OW19831   5.629   1.541   5.732
 6311SOL    HW119832   5.647   1.626   5.781
 6311SOL    HW219833   5.714   1.506   5.693
 6312SOL     OW19834   7.025   6.443   5.529
 6312SOL    HW119835   0.020   6.540   5.537
 6312SOL    HW219836   6.929   6.428   5.554
 6313SOL     OW19837   0.173   6.154   3.793
 6313SOL    HW119838   0.264   6.117   3.809
 6313SOL    HW219839   0.105   6.097   3.839
 6314SOL     OW19840   4.191   0.157   1.613
 6314SOL    HW119841   4.107   0.192   1.570
 6314SOL    HW219842   4.167   0.108   1.697
 6315SOL     OW19843   2.748   2.160   5.529
 6315SOL    HW119844   2.711   2.220   5.600
 6315SOL    HW219845   2.847   2.173   5.522
 6316SOL     OW19846   5.463   2.153   6.524
 6316SOL    HW119847   5.432   2.185   6.614
 6316SOL    HW219848   5.458   2.228   6.459
 6317SOL     OW19849   5.192   4.968   1.714
 6317SOL    HW119850   5.145   4.891   1.670
 6317SOL    HW219851   5.174   5.052   1.663
 6318SOL     OW19852   4.456   0.094   5.891
 6318SOL    HW119853   4.539   0.146   5.871
 6318SOL    HW219854   4.400   0.087   5.809
 6319SOL     OW19855   6.431   1.998   4.977
 6319SOL    HW119856   6.398   1.988   5.071
 6319SOL    HW219857   6.463   1.910   4.943
 6320SOL     OW19858   6.189   6.218   5.092
 6320SOL    HW119859   6.208   6.129   5.050
 6320SOL    HW219860   6.269   6.276   5.085
 6321SOL     OW19861   4.186   3.607   0.953
 6321SOL    HW119862   4.179   3.679   0.884
 6321SOL    HW219863   4.217   3.523   0.910
 6322SOL     OW19864   1.518   2.667   0.701
 6322SOL    HW119865   1.592   2.636   0.760
 6322SOL    HW219866   1.440   2.695   0.757
 6323SOL     OW19867   2.267   2.021   1.458
 6323SOL    HW119868   2.313   2.090   1.404
 6323SOL    HW219869   2.307   2.017   1.550
 6324SOL     OW19870   5.007   1.246   0.741
 6324SOL    HW119871   5.090   1.297   0.763
 6324SOL    HW219872   4.962   1.287   0.661
 6325SOL     OW19873   1.595   3.083   2.610
 6325SOL    HW119874   1.533   3.107   2.536
 6325SOL    HW219875   1.583   3.148   2.686
 6326SOL     OW19876   5.379   4.989   1.353
 6326SOL    HW119877   5.346   5.077   1.318
 6326SOL    HW219878   5.435   4.944   1.283
 6327SOL     OW19879   0.722   1.354   5.117
 6327SOL    HW119880   0.734   1.325   5.022
 6327SOL    HW219881   0.772   1.291   5.177
 6328SOL     OW19882   3.572   3.570   0.463
 6328SOL    HW119883   3.627   3.610   0.389
 6328SOL    HW219884   3.597   3.612   0.550
 6329SOL     OW19885   1.557   2.493   3.179
 6329SOL    HW119886   1.487   2.447   3.233
 6329SOL    HW219887   1.541   2.592   3.179
 6330SOL     OW19888   5.769   0.124   1.592
 6330SOL    HW119889   5.856   0.173   1.594
 6330SOL    HW219890   5.732   0.124   1.498
 6331SOL     OW19891   6.495   2.958   5.044
 6331SOL    HW119892   6.564   2.930   4.977
 6331SOL    HW219893   6.439   2.879   5.069
 6332SOL     OW19894   0.439   2.756   0.975
 6332SOL    HW119895   0.343   2.749   1.002
 6332SOL    HW219896   0.469   2.851   0.983
 6333SOL     OW19897   4.666   6.849   5.261
 6333SOL    HW119898   4.650   6.835   5.163
 6333SOL    HW219899   4.585   6.820   5.313
 6334SOL     OW19900   2.600   1.346   2.376
 6334SOL    HW119901   2.651   1.429   2.400
 6334SOL    HW219902   2.532   1.327   2.447
 6335SOL     OW19903   4.419   0.890   0.810
 6335SOL    HW119904   4.341   0.939   0.770
 6335SOL    HW219905   4.416   0.794   0.783
 6336SOL     OW19906   1.492   2.385   0.092
 6336SOL    HW119907   1.559   2.409   0.162
 6336SOL    HW219908   1.503   2.289   0.068
 6337SOL     OW19909   4.822   5.170   5.292
 6337SOL    HW119910   4.757   5.245   5.304
 6337SOL    HW219911   4.772   5.083   5.286
 6338SOL     OW19912   3.132   2.118   3.664
 6338SOL    HW119913   3.088   2.166   3.740
 6338SOL    HW219914   3.068   2.051   3.626
 6339SOL     OW19915   0.861   4.314   3.713
 6339SOL    HW119916   0.931   4.381   3.737
 6339SOL    HW219917   0.806   4.348   3.637
 6340SOL     OW19918   1.438   5.111   1.739
 6340SOL    HW119919   1.494   5.124   1.657
 6340SOL    HW219920   1.342   5.105   1.714
 6341SOL     OW19921   6.666   3.940   4.467
 6341SOL    HW119922   6.571   3.939   4.499
 6341SOL    HW219923   6.727   3.944   4.546
 6342SOL     OW19924   2.631   1.028   1.875
 6342SOL    HW119925   2.541   1.039   1.919
 6342SOL    HW219926   2.617   0.998   1.781
 6343SOL     OW19927   4.748   1.110   6.059
 6343SOL    HW119928   4.748   1.207   6.085
 6343SOL    HW219929   4.673   1.063   6.107
 6344SOL     OW19930   4.885   1.995   4.501
 6344SOL    HW119931   4.819   2.069   4.489
 6344SOL    HW219932   4.973   2.032   4.530
 6345SOL     OW19933   5.663   2.767   2.469
 6345SOL    HW119934   5.673   2.668   2.474
 6345SOL    HW219935   5.597   2.798   2.538
 6346SOL     OW19936   6.986   5.579   4.114
 6346SOL    HW119937   6.924   5.599   4.189
 6346SOL    HW219938   0.009   5.494   4.134
 6347SOL     OW19939   2.227   0.816   1.200
 6347SOL    HW119940   2.271   0.785   1.116
 6347SOL    HW219941   2.132   0.841   1.182
 6348SOL     OW19942   1.729   2.894   5.908
 6348SOL    HW119943   1.766   2.810   5.947
 6348SOL    HW219944   1.774   2.973   5.948
 6349SOL     OW19945   2.056   0.360   1.211
 6349SOL    HW119946   2.130   0.312   1.259
 6349SOL    HW219947   1.969   0.316   1.232
 6350SOL     OW19948   0.698   5.117   4.136
 6350SOL    HW119949   0.734   5.181   4.068
 6350SOL    HW219950   0.765   5.104   4.209
 6351SOL     OW19951   6.010   3.199   3.652
 6351SOL    HW119952   5.987   3.102   3.657
 6351SOL    HW219953   6.047   3.230   3.739
 6352SOL     OW19954   3.250   6.731   4.680
 6352SOL    HW119955   3.223   6.787   4.602
 6352SOL    HW219956   3.304   6.786   4.744
 6353SOL     OW19957   1.097   6.527   6.162
 6353SOL    HW119958   1.014   6.502   6.212
 6353SOL    HW219959   1.113   6.460   6.089
 6354SOL     OW19960   2.952   5.197   3.434
 6354SOL    HW119961   2.897   5.182   3.517
 6354SOL    HW219962   3.033   5.139   3.436
 6355SOL     OW19963   2.115   5.097   6.880
 6355SOL    HW119964   2.079   5.057   6.964
 6355SOL    HW219965   2.120   5.196   6.889
 6356SOL     OW19966   4.660   6.171   1.681
 6356SOL    HW119967   4.742   6.158   1.737
 6356SOL    HW219968   4.589   6.107   1.711
 6357SOL     OW19969   6.551   3.652   2.859
 6357SOL    HW119970   6.469   3.603   2.829
 6357SOL    HW219971   6.572   3.626   2.953
 6358SOL     OW19972   0.161   2.345   6.591
 6358SOL    HW119973   0.173   2.246   6.599
 6358SOL    HW219974   0.064   2.366   6.574
 6359SOL     OW19975   6.334   0.576   0.665
 6359SOL    HW119976   6.386   0.608   0.586
 6359SOL    HW219977   6.265   0.645   0.689
 6360SOL     OW19978   1.087   4.097   4.871
 6360SOL    HW119979   1.141   4.181   4.869
 6360SOL    HW219980   1.068   4.072   4.966
 6361SOL     OW19981   1.375   6.825   0.884
 6361SOL    HW119982   1.421   6.897   0.832
 6361SOL    HW219983   1.444   6.761   0.919
 6362SOL     OW19984   0.213   5.564   0.048
 6362SOL    HW119985   0.133   5.574   7.015
 6362SOL    HW219986   0.285   5.514   7.026
 6363SOL     OW19987   2.326   5.431   3.736
 6363SOL    HW119988   2.241   5.481   3.721
 6363SOL    HW219989   2.383   5.482   3.801
 6364SOL     OW19990   2.201   1.718   5.616
 6364SOL    HW119991   2.189   1.805   5.568
 6364SOL    HW219992   2.198   1.734   5.714
 6365SOL     OW19993   5.126   0.017   3.965
 6365SOL    HW119994   5.054   6.973   3.969
 6365SOL    HW219995   5.088   0.104   3.996
 6366SOL     OW19996   0.717   5.683   5.338
 6366SOL    HW119997   0.683   5.756   5.397
 6366SOL    HW219998   0.641   5.623   5.311
 6367SOL     OW19999   3.919   1.423   4.395
 6367SOL    HW120000   3.856   1.483   4.444
 6367SOL    HW220001   4.006   1.419   4.444
 6368SOL     OW20002   3.685   4.909   3.563
 6368SOL    HW120003   3.703   5.008   3.563
 6368SOL    HW220004   3.606   4.890   3.505
 6369SOL     OW20005   2.614   6.929   4.601
 6369SOL    HW120006   2.575   6.858   4.543
 6369SOL    HW220007   2.571   7.017   4.580
 6370SOL     OW20008   0.132   2.757   3.361
 6370SOL    HW120009   0.198   2.785   3.432
 6370SOL    HW220010   0.067   2.831   3.345
 6371SOL     OW20011   5.193   4.965   3.105
 6371SOL    HW120012   5.263   4.961   3.034
 6371SOL    HW220013   5.102   4.968   3.062
 6372SOL     OW20014   1.916   1.423   1.284
 6372SOL    HW120015   1.894   1.509   1.331
 6372SOL    HW220016   2.015   1.411   1.284
 6373SOL     OW20017   4.305   4.632   2.366
 6373SOL    HW120018   4.216   4.647   2.323
 6373SOL    HW220019   4.365   4.585   2.302
 6374SOL     OW20020   4.104   3.504   3.031
 6374SOL    HW120021   4.095   3.456   2.944
 6374SOL    HW220022   4.023   3.561   3.046
 6375SOL     OW20023   0.118   1.669   3.069
 6375SOL    HW120024   0.115   1.761   3.029
 6375SOL    HW220025   0.087   1.673   3.164
 6376SOL     OW20026   5.148   2.708   5.395
 6376SOL    HW120027   5.216   2.708   5.322
 6376SOL    HW220028   5.065   2.661   5.363
 6377SOL     OW20029   0.285   1.189   5.256
 6377SOL    HW120030   0.256   1.107   5.206
 6377SOL    HW220031   0.312   1.162   5.349
 6378SOL     OW20032   4.714   4.510   3.662
 6378SOL    HW120033   4.716   4.496   3.761
 6378SOL    HW220034   4.622   4.540   3.635
 6379SOL     OW20035   1.466   4.187   4.906
 6379SOL    HW120036   1.521   4.182   4.989
 6379SOL    HW220037   1.526   4.189   4.826
 6380SOL     OW20038   0.382   1.640   5.101
 6380SOL    HW120039   0.463   1.671   5.051
 6380SOL    HW220040   0.406   1.562   5.158
 6381SOL     OW20041   3.843   2.842   1.465
 6381SOL    HW120042   3.913   2.772   1.478
 6381SOL    HW220043   3.760   2.800   1.429
 6382SOL     OW20044   2.879   1.617   0.697
 6382SOL    HW120045   2.807   1.644   0.632
 6382SOL    HW220046   2.967   1.648   0.662
 6383SOL     OW20047   2.393   2.482   2.980
 6383SOL    HW120048   2.297   2.494   3.006
 6383SOL    HW220049   2.406   2.511   2.885
 6384SOL     OW20050   6.214   3.775   3.092
 6384SOL    HW120051   6.282   3.847   3.102
 6384SOL    HW220052   6.166   3.762   3.178
 6385SOL     OW20053   6.991   3.674   3.354
 6385SOL    HW120054   6.995   3.637   3.446
 6385SOL    HW220055   6.992   3.774   3.358
 6386SOL     OW20056   2.222   3.621   6.521
 6386SOL    HW120057   2.155   3.549   6.504
 6386SOL    HW220058   2.227   3.682   6.442
 6387SOL     OW20059   6.664   2.038   6.181
 6387SOL    HW120060   6.660   2.064   6.277
 6387SOL    HW220061   6.613   1.954   6.167
 6388SOL     OW20062   4.145   6.748   1.770
 6388SOL    HW120063   4.141   6.676   1.839
 6388SOL    HW220064   4.163   6.707   1.681
 6389SOL     OW20065   0.101   5.858   1.673
 6389SOL    HW120066   0.061   5.767   1.689
 6389SOL    HW220067   0.056   5.900   1.594
 6390SOL     OW20068   0.675   0.636   5.961
 6390SOL    HW120069   0.676   0.551   6.014
 6390SOL    HW220070   0.610   0.700   6.004
 6391SOL     OW20071   2.167   0.314   6.015
 6391SOL    HW120072   2.153   0.398   6.068
 6391SOL    HW220073   2.213   0.246   6.072
 6392SOL     OW20074   2.577   5.571   2.962
 6392SOL    HW120075   2.608   5.638   3.030
 6392SOL    HW220076   2.477   5.575   2.955
 6393SOL     OW20077   0.609   5.988   1.750
 6393SOL    HW120078   0.690   5.931   1.732
 6393SOL    HW220079   0.531   5.928   1.770
 6394SOL     OW20080   2.460   5.097   0.525
 6394SOL    HW120081   2.448   5.160   0.448
 6394SOL    HW220082   2.375   5.045   0.538
 6395SOL     OW20083   0.068   2.691   1.434
 6395SOL    HW120084   0.091   2.617   1.371
 6395SOL    HW220085   0.111   2.776   1.404
 6396SOL     OW20086   5.424   3.396   6.926
 6396SOL    HW120087   5.508   3.422   6.878
 6396SOL    HW220088   5.347   3.401   6.863
 6397SOL     OW20089   5.794   1.436   1.357
 6397SOL    HW120090   5.777   1.401   1.449
 6397SOL    HW220091   5.871   1.500   1.360
 6398SOL     OW20092   3.054   6.736   1.551
 6398SOL    HW120093   2.998   6.719   1.631
 6398SOL    HW220094   2.995   6.754   1.472
 6399SOL     OW20095   1.862   6.673   0.044
 6399SOL    HW120096   1.877   6.684   6.972
 6399SOL    HW220097   1.948   6.651   0.089
 6400SOL     OW20098   2.845   5.400   1.913
 6400SOL    HW120099   2.812   5.456   1.836
 6400SOL    HW220100   2.887   5.317   1.877
 6401SOL     OW20101   5.444   6.078   3.397
 6401SOL    HW120102   5.441   5.986   3.358
 6401SOL    HW220103   5.367   6.090   3.460
 6402SOL     OW20104   2.666   2.396   2.896
 6402SOL    HW120105   2.572   2.392   2.932
 6402SOL    HW220106   2.684   2.488   2.862
 6403SOL     OW20107   0.067   5.248   6.232
 6403SOL    HW120108   7.011   5.226   6.180
 6403SOL    HW220109   0.112   5.328   6.192
 6404SOL     OW20110   4.268   0.574   2.665
 6404SOL    HW120111   4.189   0.585   2.725
 6404SOL    HW220112   4.304   0.481   2.674
 6405SOL     OW20113   3.542   0.233   3.981
 6405SOL    HW120114   3.476   0.244   3.906
 6405SOL    HW220115   3.533   0.141   4.019
 6406SOL     OW20116   0.755   3.040   2.998
 6406SOL    HW120117   0.804   3.122   3.028
 6406SOL    HW220118   0.719   2.992   3.079
 6407SOL     OW20119   2.724   6.868   3.882
 6407SOL    HW120120   2.745   6.849   3.786
 6407SOL    HW220121   2.807   6.862   3.937
 6408SOL     OW20122   5.408   1.344   0.468
 6408SOL    HW120123   5.413   1.312   0.373
 6408SOL    HW220124   5.438   1.272   0.529
 6409SOL     OW20125   6.400   4.088   3.791
 6409SOL    HW120126   6.351   4.162   3.744
 6409SOL    HW220127   6.356   4.001   3.768
 6410SOL     OW20128   1.823   1.399   6.391
 6410SOL    HW120129   1.880   1.361   6.464
 6410SOL    HW220130   1.739   1.436   6.430
 6411SOL     OW20131   0.676   2.890   3.220
 6411SOL    HW120132   0.703   2.939   3.302
 6411SOL    HW220133   0.605   2.823   3.243
 6412SOL     OW20134   1.404   2.304   4.783
 6412SOL    HW120135   1.445   2.225   4.829
 6412SOL    HW220136   1.320   2.330   4.831
 6413SOL     OW20137   3.961   4.843   3.621
 6413SOL    HW120138   3.974   4.806   3.714
 6413SOL    HW220139   3.864   4.861   3.606
 6414SOL     OW20140   6.138   0.980   0.187
 6414SOL    HW120141   6.129   0.935   0.275
 6414SOL    HW220142   6.109   1.076   0.195
 6415SOL     OW20143   2.135   3.113   3.007
 6415SOL    HW120144   2.147   3.175   3.084
 6415SOL    HW220145   2.109   3.165   2.925
 6416SOL     OW20146   1.115   0.816   6.751
 6416SOL    HW120147   1.174   0.873   6.807
 6416SOL    HW220148   1.169   0.774   6.677
 6417SOL     OW20149   5.562   5.029   0.918
 6417SOL    HW120150   5.521   4.967   0.851
 6417SOL    HW220151   5.624   5.092   0.871
 6418SOL     OW20152   4.991   3.603   2.457
 6418SOL    HW120153   4.941   3.689   2.449
 6418SOL    HW220154   5.060   3.598   2.385
 6419SOL     OW20155   1.383   4.727   3.049
 6419SOL    HW120156   1.425   4.645   3.089
 6419SOL    HW220157   1.287   4.709   3.028
 6420SOL     OW20158   2.708   6.017   4.007
 6420SOL    HW120159   2.641   5.977   4.070
 6420SOL    HW220160   2.677   6.106   3.976
 6421SOL     OW20161   4.943   0.014   2.695
 6421SOL    HW120162   5.018   0.043   2.753
 6421SOL    HW220163   4.958   0.048   2.602
 6422SOL     OW20164   6.904   1.123   4.966
 6422SOL    HW120165   6.937   1.217   4.979
 6422SOL    HW220166   6.888   1.081   5.055
 6423SOL     OW20167   5.033   5.298   3.196
 6423SOL    HW120168   5.008   5.210   3.237
 6423SOL    HW220169   5.133   5.305   3.189
 6424SOL     OW20170   0.084   5.192   5.395
 6424SOL    HW120171   0.040   5.107   5.366
 6424SOL    HW220172   0.175   5.197   5.356
 6425SOL     OW20173   6.416   5.903   3.339
 6425SOL    HW120174   6.470   5.823   3.312
 6425SOL    HW220175   6.320   5.888   3.313
 6426SOL     OW20176   1.121   4.996   3.158
 6426SOL    HW120177   1.097   4.976   3.063
 6426SOL    HW220178   1.040   5.029   3.207
 6427SOL     OW20179   3.309   4.112   4.565
 6427SOL    HW120180   3.297   4.032   4.506
 6427SOL    HW220181   3.243   4.109   4.639
 6428SOL     OW20182   5.792   3.514   6.226
 6428SOL    HW120183   5.700   3.476   6.214
 6428SOL    HW220184   5.791   3.581   6.300
 6429SOL     OW20185   0.746   2.008   5.944
 6429SOL    HW120186   0.704   1.982   6.031
 6429SOL    HW220187   0.753   1.928   5.885
 6430SOL     OW20188   5.996   1.192   3.536
 6430SOL    HW120189   5.908   1.171   3.579
 6430SOL    HW220190   6.070   1.165   3.598
 6431SOL     OW20191   4.749   6.650   4.017
 6431SOL    HW120192   4.801   6.568   4.041
 6431SOL    HW220193   4.743   6.711   4.096
 6432SOL     OW20194   4.583   4.573   6.200
 6432SOL    HW120195   4.500   4.623   6.224
 6432SOL    HW220196   4.660   4.637   6.196
 6433SOL     OW20197   1.481   5.451   5.711
 6433SOL    HW120198   1.420   5.396   5.654
 6433SOL    HW220199   1.548   5.392   5.756
 6434SOL     OW20200   2.605   5.231   6.108
 6434SOL    HW120201   2.658   5.256   6.190
 6434SOL    HW220202   2.523   5.287   6.104
 6435SOL     OW20203   5.253   6.450   1.284
 6435SOL    HW120204   5.265   6.453   1.184
 6435SOL    HW220205   5.169   6.400   1.306
 6436SOL     OW20206   1.154   2.743   2.864
 6436SOL    HW120207   1.181   2.647   2.859
 6436SOL    HW220208   1.213   2.798   2.805
 6437SOL     OW20209   2.365   0.968   0.447
 6437SOL    HW120210   2.342   0.879   0.409
 6437SOL    HW220211   2.400   0.957   0.540
 6438SOL     OW20212   6.628   4.296   5.298
 6438SOL    HW120213   6.594   4.256   5.213
 6438SOL    HW220214   6.551   4.319   5.357
 6439SOL     OW20215   5.749   1.344   1.969
 6439SOL    HW120216   5.670   1.295   1.931
 6439SOL    HW220217   5.830   1.286   1.965
 6440SOL     OW20218   2.330   1.620   6.326
 6440SOL    HW120219   2.244   1.650   6.285
 6440SOL    HW220220   2.406   1.649   6.268
 6441SOL     OW20221   0.079   6.949   2.112
 6441SOL    HW120222   0.143   6.924   2.039
 6441SOL    HW220223   0.029   0.005   2.085
 6442SOL     OW20224   2.670   1.251   4.235
 6442SOL    HW120225   2.697   1.304   4.155
 6442SOL    HW220226   2.728   1.170   4.243
 6443SOL     OW20227   3.799   2.262   5.378
 6443SOL    HW120228   3.815   2.210   5.462
 6443SOL    HW220229   3.716   2.228   5.333
 6444SOL     OW20230   5.248   3.375   4.791
 6444SOL    HW120231   5.191   3.413   4.865
 6444SOL    HW220232   5.189   3.336   4.721
 6445SOL     OW20233   3.753   3.003   4.919
 6445SOL    HW120234   3.759   3.005   4.819
 6445SOL    HW220235   3.656   3.000   4.946
 6446SOL     OW20236   1.245   1.363   6.995
 6446SOL    HW120237   1.305   1.284   7.004
 6446SOL    HW220238   1.293   1.445   7.027
 6447SOL     OW20239   5.637   4.819   3.647
 6447SOL    HW120240   5.578   4.775   3.579
 6447SOL    HW220241   5.586   4.832   3.732
 6448SOL     OW20242   4.466   5.940   1.752
 6448SOL    HW120243   4.393   5.969   1.814
 6448SOL    HW220244   4.482   5.842   1.763
 6449SOL     OW20245   3.375   6.074   1.020
 6449SOL    HW120246   3.449   6.017   1.056
 6449SOL    HW220247   3.409   6.128   0.943
 6450SOL     OW20248   0.899   3.961   1.393
 6450SOL    HW120249   0.828   3.892   1.406
 6450SOL    HW220250   0.980   3.919   1.352
 6451SOL     OW20251   2.289   0.521   5.239
 6451SOL    HW120252   2.219   0.454   5.213
 6451SOL    HW220253   2.367   0.474   5.279
 6452SOL     OW20254   4.522   5.081   3.129
 6452SOL    HW120255   4.438   5.028   3.140
 6452SOL    HW220256   4.511   5.144   3.052
 6453SOL     OW20257   2.507   6.369   1.876
 6453SOL    HW120258   2.490   6.453   1.928
 6453SOL    HW220259   2.509   6.391   1.778
 6454SOL     OW20260   0.624   2.349   3.075
 6454SOL    HW120261   0.676   2.431   3.098
 6454SOL    HW220262   0.686   2.279   3.039
 6455SOL     OW20263   6.927   3.394   4.100
 6455SOL    HW120264   6.915   3.346   4.187
 6455SOL    HW220265   6.863   3.470   4.095
 6456SOL     OW20266   1.207   0.919   3.552
 6456SOL    HW120267   1.183   0.906   3.455
 6456SOL    HW220268   1.304   0.943   3.558
 6457SOL     OW20269   5.151   1.622   1.269
 6457SOL    HW120270   5.075   1.686   1.261
 6457SOL    HW220271   5.236   1.672   1.284
 6458SOL     OW20272   1.229   5.859   4.679
 6458SOL    HW120273   1.135   5.876   4.707
 6458SOL    HW220274   1.275   5.946   4.662
 6459SOL     OW20275   6.416   2.835   1.235
 6459SOL    HW120276   6.395   2.912   1.175
 6459SOL    HW220277   6.336   2.811   1.289
 6460SOL     OW20278   5.727   6.161   6.111
 6460SOL    HW120279   5.642   6.171   6.059
 6460SOL    HW220280   5.745   6.246   6.161
 6461SOL     OW20281   2.054   4.164   6.612
 6461SOL    HW120282   1.968   4.199   6.574
 6461SOL    HW220283   2.046   4.156   6.711
 6462SOL     OW20284   2.232   2.806   4.442
 6462SOL    HW120285   2.181   2.732   4.399
 6462SOL    HW220286   2.244   2.786   4.539
 6463SOL     OW20287   6.138   2.301   7.003
 6463SOL    HW120288   6.171   2.395   7.010
 6463SOL    HW220289   6.184   2.244   0.045
 6464SOL     OW20290   1.247   5.065   4.652
 6464SOL    HW120291   1.154   5.044   4.621
 6464SOL    HW220292   1.252   5.162   4.675
 6465SOL     OW20293   6.968   3.012   2.648
 6465SOL    HW120294   6.963   3.109   2.670
 6465SOL    HW220295   6.981   2.959   2.732
 6466SOL     OW20296   0.547   0.875   6.055
 6466SOL    HW120297   0.541   0.874   6.155
 6466SOL    HW220298   0.467   0.922   6.017
 6467SOL     OW20299   4.109   1.429   0.043
 6467SOL    HW120300   4.089   1.506   0.103
 6467SOL    HW220301   4.191   1.381   0.076
 6468SOL     OW20302   2.798   6.728   0.707
 6468SOL    HW120303   2.866   6.750   0.777
 6468SOL    HW220304   2.835   6.746   0.617
 6469SOL     OW20305   4.065   1.855   3.742
 6469SOL    HW120306   4.044   1.810   3.656
 6469SOL    HW220307   4.117   1.939   3.725
 6470SOL     OW20308   6.043   2.922   0.955
 6470SOL    HW120309   6.023   2.826   0.939
 6470SOL    HW220310   5.997   2.978   0.886
 6471SOL     OW20311   0.124   6.454   5.940
 6471SOL    HW120312   0.066   6.503   6.005
 6471SOL    HW220313   0.067   6.407   5.872
 6472SOL     OW20314   0.139   5.950   1.920
 6472SOL    HW120315   0.136   5.935   1.822
 6472SOL    HW220316   0.180   5.871   1.965
 6473SOL     OW20317   2.737   1.924   4.442
 6473SOL    HW120318   2.761   1.956   4.533
 6473SOL    HW220319   2.817   1.885   4.397
 6474SOL     OW20320   3.142   4.891   6.187
 6474SOL    HW120321   3.118   4.986   6.206
 6474SOL    HW220322   3.241   4.879   6.197
 6475SOL     OW20323   6.040   4.903   3.528
 6475SOL    HW120324   6.017   4.866   3.438
 6475SOL    HW220325   6.084   4.992   3.517
 6476SOL     OW20326   4.475   3.673   0.980
 6476SOL    HW120327   4.379   3.670   1.008
 6476SOL    HW220328   4.494   3.762   0.938
 6477SOL     OW20329   6.043   4.563   0.821
 6477SOL    HW120330   5.973   4.599   0.883
 6477SOL    HW220331   6.126   4.543   0.873
 6478SOL     OW20332   3.349   0.495   2.122
 6478SOL    HW120333   3.341   0.396   2.118
 6478SOL    HW220334   3.274   0.536   2.070
 6479SOL     OW20335   4.238   5.153   3.602
 6479SOL    HW120336   4.327   5.188   3.631
 6479SOL    HW220337   4.242   5.054   3.593
 6480SOL     OW20338   3.191   1.040   6.869
 6480SOL    HW120339   3.108   1.030   6.924
 6480SOL    HW220340   3.176   0.999   6.779
 6481SOL     OW20341   3.540   1.995   2.185
 6481SOL    HW120342   3.447   2.032   2.186
 6481SOL    HW220343   3.602   2.065   2.149
 6482SOL     OW20344   6.440   0.908   5.707
 6482SOL    HW120345   6.430   0.968   5.627
 6482SOL    HW220346   6.474   0.819   5.677
 6483SOL     OW20347   1.177   6.823   3.049
 6483SOL    HW120348   1.268   6.850   3.017
 6483SOL    HW220349   1.132   6.766   2.981
 6484SOL     OW20350   3.241   0.157   0.930
 6484SOL    HW120351   3.300   0.218   0.982
 6484SOL    HW220352   3.297   0.095   0.875
 6485SOL     OW20353   2.480   4.855   3.625
 6485SOL    HW120354   2.491   4.880   3.721
 6485SOL    HW220355   2.531   4.918   3.567
 6486SOL     OW20356   1.373   4.127   3.525
 6486SOL    HW120357   1.305   4.121   3.451
 6486SOL    HW220358   1.433   4.204   3.508
 6487SOL     OW20359   0.385   6.485   5.095
 6487SOL    HW120360   0.341   6.486   5.005
 6487SOL    HW220361   0.443   6.404   5.102
 6488SOL     OW20362   3.689   5.925   4.550
 6488SOL    HW120363   3.788   5.935   4.555
 6488SOL    HW220364   3.645   5.991   4.612
 6489SOL     OW20365   2.946   3.025   5.889
 6489SOL    HW120366   2.953   2.999   5.986
 6489SOL    HW220367   3.012   3.098   5.870
 6490SOL     OW20368   3.779   1.252   6.919
 6490SOL    HW120369   3.733   1.193   6.853
 6490SOL    HW220370   3.809   1.336   6.873
 6491SOL     OW20371   4.070   0.877   1.052
 6491SOL    HW120372   4.143   0.824   1.007
 6491SOL    HW220373   4.034   0.944   0.987
 6492SOL     OW20374   4.143   4.562   6.715
 6492SOL    HW120375   4.121   4.628   6.787
 6492SOL    HW220376   4.112   4.471   6.743
 6493SOL     OW20377   1.592   4.110   5.203
 6493SOL    HW120378   1.628   4.098   5.295
 6493SOL    HW220379   1.586   4.208   5.182
 6494SOL     OW20380   6.855   0.374   3.617
 6494SOL    HW120381   6.847   0.469   3.647
 6494SOL    HW220382   6.867   0.315   3.697
 6495SOL     OW20383   6.300   0.298   4.467
 6495SOL    HW120384   6.282   0.375   4.404
 6495SOL    HW220385   6.220   0.238   4.469
 6496SOL     OW20386   6.249   1.208   3.334
 6496SOL    HW120387   6.224   1.267   3.411
 6496SOL    HW220388   6.186   1.223   3.258
 6497SOL     OW20389   0.845   1.480   1.021
 6497SOL    HW120390   0.764   1.535   1.037
 6497SOL    HW220391   0.923   1.519   1.070
 6498SOL     OW20392   1.688   3.596   3.834
 6498SOL    HW120393   1.730   3.547   3.910
 6498SOL    HW220394   1.701   3.694   3.847
 6499SOL     OW20395   5.742   3.254   5.583
 6499SOL    HW120396   5.743   3.281   5.486
 6499SOL    HW220397   5.820   3.194   5.601
 6500SOL     OW20398   6.434   3.661   4.625
 6500SOL    HW120399   6.526   3.635   4.594
 6500SOL    HW220400   6.415   3.755   4.598
 6501SOL     OW20401   0.153   1.833   6.411
 6501SOL    HW120402   0.247   1.849   6.383
 6501SOL    HW220403   0.111   1.765   6.351
 6502SOL     OW20404   6.727   2.062   2.373
 6502SOL    HW120405   6.767   2.151   2.395
 6502SOL    HW220406   6.765   1.993   2.434
 6503SOL     OW20407   5.360   0.949   3.409
 6503SOL    HW120408   5.326   0.883   3.343
 6503SOL    HW220409   5.376   0.903   3.497
 6504SOL     OW20410   4.428   6.769   5.384
 6504SOL    HW120411   4.371   6.759   5.303
 6504SOL    HW220412   4.425   6.684   5.437
 6505SOL     OW20413   5.571   5.785   6.866
 6505SOL    HW120414   5.480   5.744   6.867
 6505SOL    HW220415   5.632   5.735   6.928
 6506SOL     OW20416   6.785   2.568   2.649
 6506SOL    HW120417   6.815   2.598   2.559
 6506SOL    HW220418   6.737   2.643   2.695
 6507SOL     OW20419   1.331   5.268   5.568
 6507SOL    HW120420   1.235   5.297   5.577
 6507SOL    HW220421   1.357   5.214   5.648
 6508SOL     OW20422   2.043   0.874   2.580
 6508SOL    HW120423   2.042   0.852   2.678
 6508SOL    HW220424   2.026   0.791   2.527
 6509SOL     OW20425   3.623   1.492   4.662
 6509SOL    HW120426   3.558   1.438   4.716
 6509SOL    HW220427   3.642   1.443   4.577
 6510SOL     OW20428   6.228   5.708   0.394
 6510SOL    HW120429   6.310   5.671   0.350
 6510SOL    HW220430   6.147   5.678   0.344
 6511SOL     OW20431   4.143   1.848   4.612
 6511SOL    HW120432   4.056   1.894   4.597
 6511SOL    HW220433   4.172   1.862   4.707
 6512SOL     OW20434   4.036   6.663   2.234
 6512SOL    HW120435   3.958   6.725   2.238
 6512SOL    HW220436   4.120   6.717   2.228
 6513SOL     OW20437   2.275   4.751   2.955
 6513SOL    HW120438   2.276   4.784   3.049
 6513SOL    HW220439   2.233   4.819   2.895
 6514SOL     OW20440   6.448   1.008   3.956
 6514SOL    HW120441   6.536   1.028   4.001
 6514SOL    HW220442   6.389   1.088   3.961
 6515SOL     OW20443   0.508   4.906   4.224
 6515SOL    HW120444   0.598   4.948   4.217
 6515SOL    HW220445   0.519   4.807   4.238
 6516SOL     OW20446   0.492   3.466   1.636
 6516SOL    HW120447   0.548   3.422   1.566
 6516SOL    HW220448   0.419   3.518   1.593
 6517SOL     OW20449   6.278   0.927   1.542
 6517SOL    HW120450   6.212   0.950   1.471
 6517SOL    HW220451   6.256   0.979   1.625
 6518SOL     OW20452   0.324   0.794   0.031
 6518SOL    HW120453   0.247   0.731   0.021
 6518SOL    HW220454   0.313   0.846   0.116
 6519SOL     OW20455   0.946   2.657   3.268
 6519SOL    HW120456   1.003   2.668   3.349
 6519SOL    HW220457   0.947   2.741   3.215
 6520SOL     OW20458   5.867   5.486   1.481
 6520SOL    HW120459   5.951   5.513   1.528
 6520SOL    HW220460   5.810   5.568   1.466
 6521SOL     OW20461   1.901   2.858   3.934
 6521SOL    HW120462   1.939   2.856   3.842
 6521SOL    HW220463   1.803   2.842   3.931
 6522SOL     OW20464   3.275   5.392   5.903
 6522SOL    HW120465   3.309   5.350   5.988
 6522SOL    HW220466   3.216   5.327   5.856
 6523SOL     OW20467   3.392   2.020   6.627
 6523SOL    HW120468   3.316   2.030   6.563
 6523SOL    HW220469   3.403   1.924   6.651
 6524SOL     OW20470   3.616   3.473   1.622
 6524SOL    HW120471   3.580   3.381   1.604
 6524SOL    HW220472   3.542   3.532   1.653
 6525SOL     OW20473   2.443   4.970   2.761
 6525SOL    HW120474   2.376   4.902   2.731
 6525SOL    HW220475   2.481   4.942   2.849
 6526SOL     OW20476   2.080   6.829   6.618
 6526SOL    HW120477   2.044   6.918   6.644
 6526SOL    HW220478   2.161   6.808   6.672
 6527SOL     OW20479   0.600   1.647   4.897
 6527SOL    HW120480   0.677   1.646   4.960
 6527SOL    HW220481   0.600   1.733   4.845
 6528SOL     OW20482   6.851   0.900   5.575
 6528SOL    HW120483   6.846   0.800   5.584
 6528SOL    HW220484   6.759   0.938   5.583
 6529SOL     OW20485   1.970   0.540   2.820
 6529SOL    HW120486   2.066   0.547   2.793
 6529SOL    HW220487   1.961   0.471   2.893
 6530SOL     OW20488   7.026   2.716   0.587
 6530SOL    HW120489   0.088   2.685   0.620
 6530SOL    HW220490   6.976   2.761   0.661
 6531SOL     OW20491   5.237   3.117   5.330
 6531SOL    HW120492   5.198   3.057   5.259
 6531SOL    HW220493   5.305   3.178   5.289
 6532SOL     OW20494   6.692   1.306   1.232
 6532SOL    HW120495   6.764   1.238   1.247
 6532SOL    HW220496   6.616   1.263   1.182
 6533SOL     OW20497   4.310   6.994   0.923
 6533SOL    HW120498   4.369   7.017   0.846
 6533SOL    HW220499   4.361   7.001   1.008
 6534SOL     OW20500   4.256   4.779   1.511
 6534SOL    HW120501   4.315   4.807   1.435
 6534SOL    HW220502   4.284   4.689   1.544
 6535SOL     OW20503   6.026   3.824   4.446
 6535SOL    HW120504   5.959   3.868   4.386
 6535SOL    HW220505   6.000   3.839   4.542
 6536SOL     OW20506   0.720   0.986   5.835
 6536SOL    HW120507   0.687   0.914   5.896
 6536SOL    HW220508   0.753   1.063   5.890
 6537SOL     OW20509   6.762   5.560   6.909
 6537SOL    HW120510   6.697   5.487   6.930
 6537SOL    HW220511   6.713   5.641   6.878
 6538SOL     OW20512   2.580   3.912   6.329
 6538SOL    HW120513   2.484   3.940   6.333
 6538SOL    HW220514   2.595   3.832   6.388
 6539SOL     OW20515   4.054   0.654   6.123
 6539SOL    HW120516   4.121   0.633   6.195
 6539SOL    HW220517   4.098   0.707   6.051
 6540SOL     OW20518   4.361   2.076   5.595
 6540SOL    HW120519   4.275   2.035   5.566
 6540SOL    HW220520   4.345   2.171   5.623
 6541SOL     OW20521   4.368   2.381   4.835
 6541SOL    HW120522   4.339   2.306   4.776
 6541SOL    HW220523   4.306   2.387   4.914
 6542SOL     OW20524   6.523   3.091   4.142
 6542SOL    HW120525   6.472   3.010   4.170
 6542SOL    HW220526   6.490   3.171   4.194
 6543SOL     OW20527   5.055   2.532   6.023
 6543SOL    HW120528   5.013   2.522   5.932
 6543SOL    HW220529   4.994   2.583   6.083
 6544SOL     OW20530   1.230   6.313   3.255
 6544SOL    HW120531   1.311   6.262   3.226
 6544SOL    HW220532   1.229   6.403   3.211
 6545SOL     OW20533   4.376   1.621   0.040
 6545SOL    HW120534   4.373   1.700   0.101
 6545SOL    HW220535   4.453   1.628   7.004
 6546SOL     OW20536   3.042   4.149   6.990
 6546SOL    HW120537   3.059   4.076   0.029
 6546SOL    HW220538   3.129   4.175   6.946
 6547SOL     OW20539   4.817   0.988   5.822
 6547SOL    HW120540   4.800   1.021   5.914
 6547SOL    HW220541   4.881   0.911   5.826
 6548SOL     OW20542   0.600   4.334   0.522
 6548SOL    HW120543   0.684   4.324   0.469
 6548SOL    HW220544   0.579   4.431   0.536
 6549SOL     OW20545   5.079   1.125   1.439
 6549SOL    HW120546   5.069   1.071   1.356
 6549SOL    HW220547   5.109   1.217   1.415
 6550SOL     OW20548   0.048   6.559   3.588
 6550SOL    HW120549   7.000   6.495   3.601
 6550SOL    HW220550   0.136   6.513   3.605
 6551SOL     OW20551   1.677   4.656   2.408
 6551SOL    HW120552   1.737   4.720   2.359
 6551SOL    HW220553   1.653   4.695   2.497
 6552SOL     OW20554   1.682   6.887   0.115
 6552SOL    HW120555   1.745   6.825   0.067
 6552SOL    HW220556   1.599   6.897   0.061
 6553SOL     OW20557   0.049   1.730   3.347
 6553SOL    HW120558   7.023   1.792   3.406
 6553SOL    HW220559   0.144   1.728   3.377
 6554SOL     OW20560   0.473   0.546   4.685
 6554SOL    HW120561   0.545   0.482   4.714
 6554SOL    HW220562   0.438   0.518   4.596
 6555SOL     OW20563   5.878   1.764   3.129
 6555SOL    HW120564   5.787   1.804   3.137
 6555SOL    HW220565   5.942   1.815   3.186
 6556SOL     OW20566   5.052   4.986   4.181
 6556SOL    HW120567   5.114   4.915   4.213
 6556SOL    HW220568   5.078   5.074   4.221
 6557SOL     OW20569   3.584   6.705   2.706
 6557SOL    HW120570   3.638   6.708   2.622
 6557SOL    HW220571   3.619   6.634   2.766
 6558SOL     OW20572   6.790   5.241   7.008
 6558SOL    HW120573   6.767   5.153   0.022
 6558SOL    HW220574   6.796   5.231   6.909
 6559SOL     OW20575   0.750   3.305   6.378
 6559SOL    HW120576   0.785   3.265   6.462
 6559SOL    HW220577   0.692   3.238   6.331
 6560SOL     OW20578   4.801   5.052   1.610
 6560SOL    HW120579   4.761   5.103   1.534
 6560SOL    HW220580   4.877   5.104   1.649
 6561SOL     OW20581   3.362   3.710   1.357
 6561SOL    HW120582   3.457   3.735   1.337
 6561SOL    HW220583   3.345   3.616   1.325
 6562SOL     OW20584   5.855   3.567   0.770
 6562SOL    HW120585   5.860   3.649   0.713
 6562SOL    HW220586   5.840   3.487   0.712
 6563SOL     OW20587   5.621   6.341   6.849
 6563SOL    HW120588   5.619   6.419   6.911
 6563SOL    HW220589   5.561   6.269   6.884
 6564SOL     OW20590   6.902   4.461   3.137
 6564SOL    HW120591   6.853   4.374   3.141
 6564SOL    HW220592   6.848   4.532   3.183
 6565SOL     OW20593   5.479   1.700   3.530
 6565SOL    HW120594   5.382   1.678   3.518
 6565SOL    HW220595   5.488   1.779   3.590
 6566SOL     OW20596   3.686   6.258   2.450
 6566SOL    HW120597   3.734   6.227   2.532
 6566SOL    HW220598   3.676   6.181   2.387
 6567SOL     OW20599   4.353   0.806   2.968
 6567SOL    HW120600   4.407   0.860   2.904
 6567SOL    HW220601   4.359   0.710   2.944
 6568SOL     OW20602   3.315   0.690   3.373
 6568SOL    HW120603   3.386   0.623   3.352
 6568SOL    HW220604   3.290   0.683   3.469
 6569SOL     OW20605   2.877   3.372   6.820
 6569SOL    HW120606   2.958   3.430   6.810
 6569SOL    HW220607   2.894   3.304   6.891
 6570SOL     OW20608   3.817   0.504   2.220
 6570SOL    HW120609   3.805   0.564   2.299
 6570SOL    HW220610   3.732   0.502   2.167
 6571SOL     OW20611   3.162   5.181   1.471
 6571SOL    HW120612   3.082   5.224   1.511
 6571SOL    HW220613   3.162   5.083   1.491
 6572SOL     OW20614   6.490   4.938   5.651
 6572SOL    HW120615   6.435   4.884   5.715
 6572SOL    HW220616   6.505   4.886   5.568
 6573SOL     OW20617   1.561   1.742   2.064
 6573SOL    HW120618   1.614   1.662   2.091
 6573SOL    HW220619   1.561   1.809   2.138
 6574SOL     OW20620   2.958   5.523   2.236
 6574SOL    HW120621   3.039   5.557   2.189
 6574SOL    HW220622   2.947   5.570   2.323
 6575SOL     OW20623   0.791   6.891   3.539
 6575SOL    HW120624   0.763   6.873   3.445
 6575SOL    HW220625   0.728   6.846   3.602
 6576SOL     OW20626   2.159   5.865   6.588
 6576SOL    HW120627   2.159   5.913   6.500
 6576SOL    HW220628   2.153   5.766   6.572
 6577SOL     OW20629   0.824   1.162   4.443
 6577SOL    HW120630   0.773   1.196   4.522
 6577SOL    HW220631   0.789   1.205   4.359
 6578SOL     OW20632   1.225   5.337   3.411
 6578SOL    HW120633   1.186   5.333   3.319
 6578SOL    HW220634   1.151   5.343   3.478
 6579SOL     OW20635   6.704   3.605   4.556
 6579SOL    HW120636   6.734   3.526   4.610
 6579SOL    HW220637   6.782   3.665   4.539
 6580SOL     OW20638   0.760   2.801   1.103
 6580SOL    HW120639   0.732   2.726   1.163
 6580SOL    HW220640   0.738   2.778   1.008
 6581SOL     OW20641   3.211   0.514   6.780
 6581SOL    HW120642   3.144   0.439   6.771
 6581SOL    HW220643   3.224   0.557   6.691
 6582SOL     OW20644   1.080   1.277   2.302
 6582SOL    HW120645   1.157   1.317   2.352
 6582SOL    HW220646   1.105   1.267   2.206
 6583SOL     OW20647   4.556   0.773   5.250
 6583SOL    HW120648   4.618   0.707   5.293
 6583SOL    HW220649   4.540   0.848   5.314
 6584SOL     OW20650   4.582   3.038   1.379
 6584SOL    HW120651   4.557   2.973   1.450
 6584SOL    HW220652   4.507   3.047   1.314
 6585SOL     OW20653   5.607   6.956   0.010
 6585SOL    HW120654   5.674   6.906   6.981
 6585SOL    HW220655   5.582   6.901   0.090
 6586SOL     OW20656   0.160   1.746   4.962
 6586SOL    HW120657   0.108   1.790   5.035
 6586SOL    HW220658   0.246   1.712   4.999
 6587SOL     OW20659   1.992   6.224   5.114
 6587SOL    HW120660   2.020   6.128   5.105
 6587SOL    HW220661   1.892   6.229   5.117
 6588SOL     OW20662   0.915   3.585   1.565
 6588SOL    HW120663   0.888   3.660   1.626
 6588SOL    HW220664   0.961   3.513   1.618
 6589SOL     OW20665   5.401   1.272   0.156
 6589SOL    HW120666   5.493   1.304   0.135
 6589SOL    HW220667   5.374   1.202   0.091
 6590SOL     OW20668   0.971   0.993   6.058
 6590SOL    HW120669   1.068   0.968   6.056
 6590SOL    HW220670   0.923   0.935   6.124
 6591SOL     OW20671   5.303   5.612   2.629
 6591SOL    HW120672   5.377   5.658   2.580
 6591SOL    HW220673   5.265   5.540   2.571
 6592SOL     OW20674   5.568   6.980   3.530
 6592SOL    HW120675   5.658   6.970   3.573
 6592SOL    HW220676   5.545   6.895   3.482
 6593SOL     OW20677   2.023   2.260   2.182
 6593SOL    HW120678   2.041   2.351   2.218
 6593SOL    HW220679   2.085   2.194   2.225
 6594SOL     OW20680   3.713   1.679   0.287
 6594SOL    HW120681   3.771   1.616   0.235
 6594SOL    HW220682   3.628   1.695   0.236
 6595SOL     OW20683   0.824   3.704   6.542
 6595SOL    HW120684   0.794   3.639   6.611
 6595SOL    HW220685   0.788   3.795   6.563
 6596SOL     OW20686   3.310   6.286   4.494
 6596SOL    HW120687   3.348   6.379   4.502
 6596SOL    HW220688   3.248   6.269   4.571
 6597SOL     OW20689   1.445   5.431   1.775
 6597SOL    HW120690   1.373   5.499   1.759
 6597SOL    HW220691   1.405   5.340   1.779
 6598SOL     OW20692   1.596   6.226   4.357
 6598SOL    HW120693   1.501   6.229   4.327
 6598SOL    HW220694   1.646   6.159   4.302
 6599SOL     OW20695   4.803   6.665   6.342
 6599SOL    HW120696   4.811   6.755   6.384
 6599SOL    HW220697   4.888   6.615   6.354
 6600SOL     OW20698   4.873   4.900   4.958
 6600SOL    HW120699   4.929   4.820   4.981
 6600SOL    HW220700   4.776   4.877   4.964
 6601SOL     OW20701   1.765   2.213   5.440
 6601SOL    HW120702   1.712   2.241   5.360
 6601SOL    HW220703   1.819   2.291   5.473
 6602SOL     OW20704   1.322   0.952   1.820
 6602SOL    HW120705   1.246   0.991   1.872
 6602SOL    HW220706   1.369   0.884   1.875
 6603SOL     OW20707   6.900   2.543   3.869
 6603SOL    HW120708   6.951   2.616   3.824
 6603SOL    HW220709   6.931   2.535   3.964
 6604SOL     OW20710   1.969   0.265   0.668
 6604SOL    HW120711   1.885   0.252   0.721
 6604SOL    HW220712   2.048   0.264   0.730
 6605SOL     OW20713   5.300   4.201   2.020
 6605SOL    HW120714   5.389   4.213   1.976
 6605SOL    HW220715   5.238   4.154   1.957
 6606SOL     OW20716   6.904   6.153   1.842
 6606SOL    HW120717   6.857   6.216   1.903
 6606SOL    HW220718   6.991   6.193   1.812
 6607SOL     OW20719   1.776   3.447   2.427
 6607SOL    HW120720   1.872   3.444   2.397
 6607SOL    HW220721   1.726   3.512   2.371
 6608SOL     OW20722   5.897   6.431   1.113
 6608SOL    HW120723   5.929   6.483   1.192
 6608SOL    HW220724   5.942   6.464   1.030
 6609SOL     OW20725   4.677   0.689   6.286
 6609SOL    HW120726   4.684   0.618   6.216
 6609SOL    HW220727   4.677   0.648   6.377
 6610SOL     OW20728   3.014   6.728   6.720
 6610SOL    HW120729   2.947   6.726   6.647
 6610SOL    HW220730   2.992   6.802   6.784
 6611SOL     OW20731   4.972   2.476   3.732
 6611SOL    HW120732   5.002   2.526   3.651
 6611SOL    HW220733   4.894   2.418   3.709
 6612SOL     OW20734   5.553   2.377   5.615
 6612SOL    HW120735   5.547   2.468   5.656
 6612SOL    HW220736   5.544   2.308   5.686
 6613SOL     OW20737   6.248   6.663   5.331
 6613SOL    HW120738   6.345   6.647   5.314
 6613SOL    HW220739   6.195   6.640   5.249
 6614SOL     OW20740   5.340   6.421   0.839
 6614SOL    HW120741   5.386   6.478   0.771
 6614SOL    HW220742   5.258   6.380   0.798
 6615SOL     OW20743   1.316   5.384   2.304
 6615SOL    HW120744   1.221   5.398   2.274
 6615SOL    HW220745   1.345   5.462   2.360
 6616SOL     OW20746   4.436   0.861   6.265
 6616SOL    HW120747   4.512   0.799   6.248
 6616SOL    HW220748   4.395   0.890   6.179
 6617SOL     OW20749   4.493   4.859   3.435
 6617SOL    HW120750   4.415   4.922   3.426
 6617SOL    HW220751   4.510   4.814   3.348
 6618SOL     OW20752   0.839   2.795   2.325
 6618SOL    HW120753   0.861   2.703   2.292
 6618SOL    HW220754   0.795   2.789   2.414
 6619SOL     OW20755   6.162   6.445   3.601
 6619SOL    HW120756   6.139   6.379   3.673
 6619SOL    HW220757   6.221   6.401   3.533
 6620SOL     OW20758   2.035   2.830   5.381
 6620SOL    HW120759   2.106   2.850   5.314
 6620SOL    HW220760   2.026   2.907   5.444
 6621SOL     OW20761   3.111   2.849   5.756
 6621SOL    HW120762   3.053   2.899   5.820
 6621SOL    HW220763   3.054   2.805   5.686
 6622SOL     OW20764   5.926   6.844   1.113
 6622SOL    HW120765   5.986   6.860   1.191
 6622SOL    HW220766   5.944   6.912   1.042
 6623SOL     OW20767   2.957   3.137   5.509
 6623SOL    HW120768   2.881   3.143   5.573
 6623SOL    HW220769   3.000   3.227   5.500
 6624SOL     OW20770   0.276   5.062   6.213
 6624SOL    HW120771   0.178   5.081   6.226
 6624SOL    HW220772   0.327   5.147   6.214
 6625SOL     OW20773   5.106   1.867   5.614
 6625SOL    HW120774   5.120   1.773   5.582
 6625SOL    HW220775   5.140   1.930   5.544
 6626SOL     OW20776   4.364   5.032   4.961
 6626SOL    HW120777   4.384   5.083   5.045
 6626SOL    HW220778   4.300   4.958   4.982
 6627SOL     OW20779   2.131   6.076   4.809
 6627SOL    HW120780   2.132   6.058   4.908
 6627SOL    HW220781   2.148   6.173   4.793
 6628SOL     OW20782   4.608   4.881   4.905
 6628SOL    HW120783   4.617   4.800   4.848
 6628SOL    HW220784   4.518   4.922   4.889
 6629SOL     OW20785   4.549   6.134   0.021
 6629SOL    HW120786   4.545   6.048   0.072
 6629SOL    HW220787   4.588   6.117   6.957
 6630SOL     OW20788   4.294   1.631   1.619
 6630SOL    HW120789   4.224   1.635   1.690
 6630SOL    HW220790   4.253   1.604   1.532
 6631SOL     OW20791   2.588   5.443   3.302
 6631SOL    HW120792   2.538   5.527   3.280
 6631SOL    HW220793   2.680   5.448   3.263
 6632SOL     OW20794   0.251   0.166   1.310
 6632SOL    HW120795   0.220   0.259   1.328
 6632SOL    HW220796   0.256   0.116   1.397
 6633SOL     OW20797   0.930   4.704   6.080
 6633SOL    HW120798   0.874   4.708   6.163
 6633SOL    HW220799   0.942   4.609   6.052
 6634SOL     OW20800   5.228   2.262   4.398
 6634SOL    HW120801   5.188   2.196   4.333
 6634SOL    HW220802   5.184   2.351   4.387
 6635SOL     OW20803   4.560   4.790   3.147
 6635SOL    HW120804   4.618   4.752   3.075
 6635SOL    HW220805   4.517   4.874   3.114
 6636SOL     OW20806   5.094   2.068   6.093
 6636SOL    HW120807   5.091   1.991   6.029
 6636SOL    HW220808   5.178   2.063   6.147
 6637SOL     OW20809   1.328   0.002   6.961
 6637SOL    HW120810   1.258   0.017   0.003
 6637SOL    HW220811   1.376   6.943   6.980
 6638SOL     OW20812   3.070   3.895   3.758
 6638SOL    HW120813   3.121   3.881   3.842
 6638SOL    HW220814   3.102   3.978   3.713
 6639SOL     OW20815   5.244   5.087   6.175
 6639SOL    HW120816   5.164   5.105   6.118
 6639SOL    HW220817   5.325   5.129   6.134
 6640SOL     OW20818   1.326   1.530   4.753
 6640SOL    HW120819   1.242   1.479   4.770
 6640SOL    HW220820   1.305   1.628   4.748
 6641SOL     OW20821   2.016   2.239   6.376
 6641SOL    HW120822   1.997   2.235   6.474
 6641SOL    HW220823   2.014   2.146   6.339
 6642SOL     OW20824   2.116   5.680   6.868
 6642SOL    HW120825   2.187   5.748   6.848
 6642SOL    HW220826   2.145   5.624   6.945
 6643SOL     OW20827   6.076   4.983   0.384
 6643SOL    HW120828   6.083   4.923   0.305
 6643SOL    HW220829   6.019   5.062   0.361
 6644SOL     OW20830   2.329   5.590   1.682
 6644SOL    HW120831   2.379   5.529   1.620
 6644SOL    HW220832   2.394   5.637   1.742
 6645SOL     OW20833   6.305   5.115   0.467
 6645SOL    HW120834   6.217   5.096   0.423
 6645SOL    HW220835   6.319   5.214   0.469
 6646SOL     OW20836   4.314   0.987   4.488
 6646SOL    HW120837   4.297   0.892   4.513
 6646SOL    HW220838   4.411   1.007   4.498
 6647SOL     OW20839   4.894   1.430   1.243
 6647SOL    HW120840   4.913   1.502   1.177
 6647SOL    HW220841   4.967   1.428   1.312
 6648SOL     OW20842   4.344   6.561   3.643
 6648SOL    HW120843   4.417   6.496   3.624
 6648SOL    HW220844   4.334   6.573   3.742
 6649SOL     OW20845   5.005   1.104   6.647
 6649SOL    HW120846   5.083   1.072   6.701
 6649SOL    HW220847   5.038   1.157   6.569
 6650SOL     OW20848   4.149   1.409   5.335
 6650SOL    HW120849   4.214   1.335   5.351
 6650SOL    HW220850   4.056   1.373   5.340
 6651SOL     OW20851   1.919   1.803   5.717
 6651SOL    HW120852   1.983   1.872   5.683
 6651SOL    HW220853   1.884   1.749   5.641
 6652SOL     OW20854   1.153   4.181   0.719
 6652SOL    HW120855   1.176   4.265   0.767
 6652SOL    HW220856   1.227   4.114   0.731
 6653SOL     OW20857   3.193   3.643   2.590
 6653SOL    HW120858   3.155   3.627   2.498
 6653SOL    HW220859   3.261   3.573   2.610
 6654SOL     OW20860   1.344   4.860   1.423
 6654SOL    HW120861   1.346   4.761   1.412
 6654SOL    HW220862   1.372   4.903   1.337
 6655SOL     OW20863   1.143   0.043   3.718
 6655SOL    HW120864   1.068   0.005   3.663
 6655SOL    HW220865   1.106   0.079   3.803
 6656SOL     OW20866   6.026   1.785   4.147
 6656SOL    HW120867   6.114   1.743   4.167
 6656SOL    HW220868   5.997   1.761   4.054
 6657SOL     OW20869   5.844   5.255   6.082
 6657SOL    HW120870   5.793   5.169   6.080
 6657SOL    HW220871   5.894   5.262   6.168
 6658SOL     OW20872   6.974   1.252   4.398
 6658SOL    HW120873   6.996   1.333   4.343
 6658SOL    HW220874   0.024   1.187   4.393
 6659SOL     OW20875   1.822   2.657   0.635
 6659SOL    HW120876   1.825   2.752   0.665
 6659SOL    HW220877   1.801   2.654   0.537
 6660SOL     OW20878   1.018   4.615   1.359
 6660SOL    HW120879   0.977   4.653   1.277
 6660SOL    HW220880   1.117   4.610   1.348
 6661SOL     OW20881   1.279   6.233   4.822
 6661SOL    HW120882   1.182   6.211   4.833
 6661SOL    HW220883   1.318   6.177   4.748
 6662SOL     OW20884   1.393   0.296   6.724
 6662SOL    HW120885   1.395   0.283   6.823
 6662SOL    HW220886   1.465   0.240   6.682
 6663SOL     OW20887   6.511   4.745   4.376
 6663SOL    HW120888   6.567   4.822   4.348
 6663SOL    HW220889   6.518   4.672   4.307
 6664SOL     OW20890   1.996   6.427   0.690
 6664SOL    HW120891   1.950   6.345   0.724
 6664SOL    HW220892   1.931   6.503   0.687
 6665SOL     OW20893   2.082   5.679   4.420
 6665SOL    HW120894   2.169   5.729   4.415
 6665SOL    HW220895   2.096   5.584   4.395
 6666SOL     OW20896   6.148   0.138   5.843
 6666SOL    HW120897   6.111   0.147   5.935
 6666SOL    HW220898   6.087   0.081   5.788
 6667SOL     OW20899   6.705   5.975   6.674
 6667SOL    HW120900   6.657   6.038   6.613
 6667SOL    HW220901   6.784   6.022   6.715
 6668SOL     OW20902   6.977   5.193   1.254
 6668SOL    HW120903   6.981   5.137   1.171
 6668SOL    HW220904   6.914   5.151   1.319
 6669SOL     OW20905   1.630   2.461   2.785
 6669SOL    HW120906   1.580   2.390   2.835
 6669SOL    HW220907   1.566   2.535   2.762
 6670SOL     OW20908   3.653   1.641   5.637
 6670SOL    HW120909   3.576   1.699   5.610
 6670SOL    HW220910   3.620   1.551   5.665
 6671SOL     OW20911   5.679   6.445   0.693
 6671SOL    HW120912   5.718   6.462   0.783
 6671SOL    HW220913   5.595   6.499   0.682
 6672SOL     OW20914   6.380   2.486   6.887
 6672SOL    HW120915   6.366   2.390   6.864
 6672SOL    HW220916   6.336   2.543   6.819
 6673SOL     OW20917   4.714   5.506   4.148
 6673SOL    HW120918   4.768   5.422   4.156
 6673SOL    HW220919   4.769   5.584   4.178
 6674SOL     OW20920   0.493   4.389   5.989
 6674SOL    HW120921   0.472   4.297   6.020
 6674SOL    HW220922   0.549   4.385   5.907
 6675SOL     OW20923   4.615   3.454   1.257
 6675SOL    HW120924   4.712   3.450   1.231
 6675SOL    HW220925   4.606   3.432   1.354
 6676SOL     OW20926   0.598   3.771   5.331
 6676SOL    HW120927   0.626   3.696   5.272
 6676SOL    HW220928   0.514   3.812   5.295
 6677SOL     OW20929   1.504   1.395   6.184
 6677SOL    HW120930   1.549   1.436   6.263
 6677SOL    HW220931   1.572   1.355   6.123
 6678SOL     OW20932   3.122   3.240   6.595
 6678SOL    HW120933   3.188   3.170   6.625
 6678SOL    HW220934   3.172   3.320   6.564
 6679SOL     OW20935   3.212   0.914   3.985
 6679SOL    HW120936   3.255   0.946   3.900
 6679SOL    HW220937   3.225   0.982   4.057
 6680SOL     OW20938   4.907   6.583   6.966
 6680SOL    HW120939   4.843   6.508   6.984
 6680SOL    HW220940   4.874   6.636   6.887
 6681SOL     OW20941   3.527   6.156   1.400
 6681SOL    HW120942   3.587   6.183   1.476
 6681SOL    HW220943   3.490   6.237   1.355
 6682SOL     OW20944   0.422   4.559   2.655
 6682SOL    HW120945   0.348   4.518   2.602
 6682SOL    HW220946   0.413   4.530   2.751
 6683SOL     OW20947   5.660   3.257   5.309
 6683SOL    HW120948   5.579   3.313   5.329
 6683SOL    HW220949   5.635   3.182   5.249
 6684SOL     OW20950   2.891   0.355   1.522
 6684SOL    HW120951   2.919   0.364   1.427
 6684SOL    HW220952   2.948   0.286   1.567
 6685SOL     OW20953   6.730   3.618   5.903
 6685SOL    HW120954   6.659   3.644   5.837
 6685SOL    HW220955   6.712   3.525   5.936
 6686SOL     OW20956   5.469   5.972   4.365
 6686SOL    HW120957   5.544   5.916   4.403
 6686SOL    HW220958   5.507   6.044   4.308
 6687SOL     OW20959   1.129   3.476   0.318
 6687SOL    HW120960   1.050   3.529   0.348
 6687SOL    HW220961   1.148   3.403   0.383
 6688SOL     OW20962   6.788   3.928   2.552
 6688SOL    HW120963   6.760   3.913   2.647
 6688SOL    HW220964   6.885   3.910   2.542
 6689SOL     OW20965   4.326   2.936   0.562
 6689SOL    HW120966   4.365   2.932   0.654
 6689SOL    HW220967   4.350   3.024   0.520
 6690SOL     OW20968   1.569   1.618   0.918
 6690SOL    HW120969   1.494   1.640   0.981
 6690SOL    HW220970   1.656   1.643   0.960
 6691SOL     OW20971   2.815   6.284   2.087
 6691SOL    HW120972   2.731   6.242   2.121
 6691SOL    HW220973   2.821   6.270   1.988
 6692SOL     OW20974   3.627   3.758   5.531
 6692SOL    HW120975   3.567   3.822   5.579
 6692SOL    HW220976   3.620   3.668   5.573
 6693SOL     OW20977   4.287   3.368   5.402
 6693SOL    HW120978   4.372   3.416   5.378
 6693SOL    HW220979   4.232   3.427   5.461
 6694SOL     OW20980   3.844   5.744   0.995
 6694SOL    HW120981   3.848   5.645   1.002
 6694SOL    HW220982   3.896   5.774   0.915
 6695SOL     OW20983   2.843   2.006   0.694
 6695SOL    HW120984   2.764   2.065   0.683
 6695SOL    HW220985   2.838   1.959   0.782
 6696SOL     OW20986   2.731   3.229   5.700
 6696SOL    HW120987   2.774   3.173   5.771
 6696SOL    HW220988   2.742   3.326   5.723
 6697SOL     OW20989   4.701   2.712   2.707
 6697SOL    HW120990   4.649   2.628   2.724
 6697SOL    HW220991   4.709   2.727   2.609
 6698SOL     OW20992   2.608   2.630   1.666
 6698SOL    HW120993   2.610   2.675   1.577
 6698SOL    HW220994   2.562   2.542   1.659
 6699SOL     OW20995   2.480   5.718   5.976
 6699SOL    HW120996   2.461   5.807   5.936
 6699SOL    HW220997   2.473   5.647   5.905
 6700SOL     OW20998   7.010   6.373   1.484
 6700SOL    HW120999   0.017   6.369   1.578
 6700SOL    HW221000   0.039   6.312   1.426
 6701SOL     OW21001   5.123   3.619   2.225
 6701SOL    HW121002   5.050   3.579   2.169
 6701SOL    HW221003   5.206   3.564   2.215
 6702SOL     OW21004   3.325   1.987   1.561
 6702SOL    HW121005   3.418   1.998   1.527
 6702SOL    HW221006   3.319   2.022   1.655
 6703SOL     OW21007   6.104   2.139   6.670
 6703SOL    HW121008   6.073   2.080   6.745
 6703SOL    HW221009   6.030   2.199   6.641
 6704SOL     OW21010   3.049   1.703   3.274
 6704SOL    HW121011   3.090   1.612   3.274
 6704SOL    HW221012   3.084   1.756   3.197
 6705SOL     OW21013   6.986   2.807   1.663
 6705SOL    HW121014   6.923   2.742   1.706
 6705SOL    HW221015   0.001   2.764   1.583
 6706SOL     OW21016   1.505   3.681   2.467
 6706SOL    HW121017   1.456   3.670   2.380
 6706SOL    HW221018   1.563   3.763   2.462
 6707SOL     OW21019   6.866   5.898   3.264
 6707SOL    HW121020   6.957   5.896   3.306
 6707SOL    HW221021   6.800   5.938   3.327
 6708SOL     OW21022   6.793   5.911   2.026
 6708SOL    HW121023   6.840   5.936   1.942
 6708SOL    HW221024   6.695   5.927   2.015
 6709SOL     OW21025   2.929   6.132   3.290
 6709SOL    HW121026   2.945   6.041   3.252
 6709SOL    HW221027   2.846   6.171   3.250
 6710SOL     OW21028   3.693   0.622   5.661
 6710SOL    HW121029   3.618   0.578   5.709
 6710SOL    HW221030   3.742   0.682   5.724
 6711SOL     OW21031   4.403   5.419   6.153
 6711SOL    HW121032   4.488   5.385   6.113
 6711SOL    HW221033   4.390   5.379   6.244
 6712SOL     OW21034   5.582   4.162   0.100
 6712SOL    HW121035   5.652   4.212   0.152
 6712SOL    HW221036   5.525   4.109   0.163
 6713SOL     OW21037   2.244   0.096   2.564
 6713SOL    HW121038   2.314   0.159   2.598
 6713SOL    HW221039   2.284   0.005   2.555
 6714SOL     OW21040   5.970   0.720   6.039
 6714SOL    HW121041   6.030   0.688   5.966
 6714SOL    HW221042   5.963   0.820   6.035
 6715SOL     OW21043   0.655   0.060   0.119
 6715SOL    HW121044   0.693   6.998   0.146
 6715SOL    HW221045   0.655   0.121   0.198
 6716SOL     OW21046   0.524   5.703   1.492
 6716SOL    HW121047   0.473   5.689   1.578
 6716SOL    HW221048   0.511   5.798   1.462
 6717SOL     OW21049   4.122   3.140   0.034
 6717SOL    HW121050   4.182   3.068   0.070
 6717SOL    HW221051   4.034   3.137   0.082
 6718SOL     OW21052   5.176   0.521   0.754
 6718SOL    HW121053   5.101   0.485   0.810
 6718SOL    HW221054   5.140   0.581   0.683
 6719SOL     OW21055   2.982   0.458   6.577
 6719SOL    HW121056   2.949   0.550   6.595
 6719SOL    HW221057   2.922   0.392   6.622
 6720SOL     OW21058   1.423   6.776   4.109
 6720SOL    HW121059   1.427   6.819   4.199
 6720SOL    HW221060   1.478   6.692   4.110
 6721SOL     OW21061   6.845   0.536   6.834
 6721SOL    HW121062   6.926   0.494   6.794
 6721SOL    HW221063   6.771   0.537   6.766
 6722SOL     OW21064   6.622   2.795   1.383
 6722SOL    HW121065   6.602   2.819   1.478
 6722SOL    HW221066   6.545   2.823   1.325
 6723SOL     OW21067   2.691   6.225   3.241
 6723SOL    HW121068   2.602   6.196   3.275
 6723SOL    HW221069   2.687   6.320   3.210
 6724SOL     OW21070   1.670   3.134   5.475
 6724SOL    HW121071   1.740   3.071   5.440
 6724SOL    HW221072   1.642   3.103   5.566
 6725SOL     OW21073   0.257   3.582   1.228
 6725SOL    HW121074   0.263   3.675   1.265
 6725SOL    HW221075   0.346   3.554   1.194
 6726SOL     OW21076   0.520   1.827   5.292
 6726SOL    HW121077   0.439   1.772   5.269
 6726SOL    HW221078   0.507   1.869   5.382
 6727SOL     OW21079   6.821   4.478   5.236
 6727SOL    HW121080   6.754   4.410   5.266
 6727SOL    HW221081   6.816   4.488   5.136
 6728SOL     OW21082   3.543   1.685   2.968
 6728SOL    HW121083   3.484   1.651   3.041
 6728SOL    HW221084   3.534   1.627   2.887
 6729SOL     OW21085   6.904   0.916   3.049
 6729SOL    HW121086   6.956   0.892   2.966
 6729SOL    HW221087   6.887   1.014   3.050
 6730SOL     OW21088   2.861   6.910   0.226
 6730SOL    HW121089   2.926   6.847   0.266
 6730SOL    HW221090   2.818   6.964   0.298
 6731SOL     OW21091   0.787   5.739   1.694
 6731SOL    HW121092   0.764   5.647   1.724
 6731SOL    HW221093   0.773   5.746   1.595
 6732SOL     OW21094   5.590   4.584   5.132
 6732SOL    HW121095   5.578   4.655   5.064
 6732SOL    HW221096   5.686   4.555   5.134
 6733SOL     OW21097   4.214   5.330   0.352
 6733SOL    HW121098   4.296   5.362   0.304
 6733SOL    HW221099   4.214   5.368   0.445
 6734SOL     OW21100   6.252   2.351   4.917
 6734SOL    HW121101   6.212   2.260   4.907
 6734SOL    HW221102   6.351   2.343   4.922
 6735SOL     OW21103   6.760   4.334   4.752
 6735SOL    HW121104   6.820   4.321   4.672
 6735SOL    HW221105   6.677   4.279   4.740
 6736SOL     OW21106   3.283   3.696   7.007
 6736SOL    HW121107   3.337   3.738   0.054
 6736SOL    HW221108   3.317   3.604   6.989
 6737SOL     OW21109   2.012   2.468   0.688
 6737SOL    HW121110   2.074   2.515   0.751
 6737SOL    HW221111   1.955   2.535   0.641
 6738SOL     OW21112   1.757   5.441   2.695
 6738SOL    HW121113   1.742   5.436   2.596
 6738SOL    HW221114   1.674   5.473   2.740
 6739SOL     OW21115   3.574   5.986   5.258
 6739SOL    HW121116   3.510   6.056   5.227
 6739SOL    HW221117   3.565   5.974   5.357
 6740SOL     OW21118   2.030   0.402   4.589
 6740SOL    HW121119   2.017   0.402   4.688
 6740SOL    HW221120   1.941   0.401   4.544
 6741SOL     OW21121   4.509   0.955   5.442
 6741SOL    HW121122   4.449   0.949   5.521
 6741SOL    HW221123   4.602   0.976   5.473
 6742SOL     OW21124   6.597   6.146   2.843
 6742SOL    HW121125   6.658   6.088   2.898
 6742SOL    HW221126   6.643   6.171   2.758
 6743SOL     OW21127   3.490   4.609   0.462
 6743SOL    HW121128   3.494   4.707   0.445
 6743SOL    HW221129   3.520   4.590   0.556
 6744SOL     OW21130   5.956   4.117   6.361
 6744SOL    HW121131   5.894   4.069   6.299
 6744SOL    HW221132   5.944   4.216   6.350
 6745SOL     OW21133   6.981   0.335   2.893
 6745SOL    HW121134   6.901   0.282   2.863
 6745SOL    HW221135   6.967   0.364   2.987
 6746SOL     OW21136   0.976   0.976   3.296
 6746SOL    HW121137   0.961   1.070   3.329
 6746SOL    HW221138   1.073   0.953   3.302
 6747SOL     OW21139   5.751   1.042   4.919
 6747SOL    HW121140   5.823   1.069   4.856
 6747SOL    HW221141   5.692   1.121   4.938
 6748SOL     OW21142   1.823   1.008   3.693
 6748SOL    HW121143   1.921   1.027   3.693
 6748SOL    HW221144   1.805   0.927   3.637
 6749SOL     OW21145   2.798   6.672   0.117
 6749SOL    HW121146   2.823   6.768   0.126
 6749SOL    HW221147   2.708   6.664   0.073
 6750SOL     OW21148   4.061   2.153   5.193
 6750SOL    HW121149   4.033   2.132   5.099
 6750SOL    HW221150   3.982   2.147   5.253
 6751SOL     OW21151   4.205   0.287   3.661
 6751SOL    HW121152   4.286   0.325   3.617
 6751SOL    HW221153   4.128   0.350   3.648
 6752SOL     OW21154   0.360   2.432   2.602
 6752SOL    HW121155   0.451   2.393   2.610
 6752SOL    HW221156   0.296   2.362   2.568
 6753SOL     OW21157   4.119   1.004   6.258
 6753SOL    HW121158   4.187   1.069   6.223
 6753SOL    HW221159   4.090   1.033   6.349
 6754SOL     OW21160   0.250   1.676   0.073
 6754SOL    HW121161   0.222   1.603   0.135
 6754SOL    HW221162   0.345   1.661   0.044
 6755SOL     OW21163   3.665   0.617   3.503
 6755SOL    HW121164   3.657   0.625   3.404
 6755SOL    HW221165   3.716   0.696   3.539
 6756SOL     OW21166   4.058   5.093   5.113
 6756SOL    HW121167   4.013   5.008   5.141
 6756SOL    HW221168   4.155   5.076   5.099
 6757SOL     OW21169   4.203   0.919   2.332
 6757SOL    HW121170   4.219   0.853   2.259
 6757SOL    HW221171   4.239   0.883   2.418
 6758SOL     OW21172   6.398   2.332   1.514
 6758SOL    HW121173   6.445   2.420   1.518
 6758SOL    HW221174   6.435   2.271   1.585
 6759SOL     OW21175   0.742   4.425   4.431
 6759SOL    HW121176   0.814   4.461   4.490
 6759SOL    HW221177   0.736   4.326   4.442
 6760SOL     OW21178   6.210   4.151   3.567
 6760SOL    HW121179   6.222   4.177   3.471
 6760SOL    HW221180   6.113   4.154   3.591
 6761SOL     OW21181   6.283   2.446   6.098
 6761SOL    HW121182   6.365   2.495   6.128
 6761SOL    HW221183   6.258   2.378   6.167
 6762SOL     OW21184   0.262   5.342   3.800
 6762SOL    HW121185   0.269   5.439   3.821
 6762SOL    HW221186   0.165   5.317   3.788
 6763SOL     OW21187   0.394   4.646   3.081
 6763SOL    HW121188   0.448   4.722   3.119
 6763SOL    HW221189   0.317   4.626   3.141
 6764SOL     OW21190   2.431   5.082   6.797
 6764SOL    HW121191   2.477   5.053   6.713
 6764SOL    HW221192   2.379   5.165   6.779
 6765SOL     OW21193   5.628   4.236   3.917
 6765SOL    HW121194   5.542   4.267   3.956
 6765SOL    HW221195   5.698   4.307   3.929
 6766SOL     OW21196   5.196   6.806   6.254
 6766SOL    HW121197   5.290   6.773   6.243
 6766SOL    HW221198   5.196   6.905   6.270
 6767SOL     OW21199   1.190   1.955   0.680
 6767SOL    HW121200   1.194   1.925   0.584
 6767SOL    HW221201   1.212   1.878   0.740
 6768SOL     OW21202   0.825   6.293   3.637
 6768SOL    HW121203   0.840   6.196   3.622
 6768SOL    HW221204   0.872   6.345   3.565
 6769SOL     OW21205   2.214   0.029   5.725
 6769SOL    HW121206   2.221   7.015   5.634
 6769SOL    HW221207   2.277   7.011   5.787
 6770SOL     OW21208   4.924   1.992   3.842
 6770SOL    HW121209   4.957   1.923   3.907
 6770SOL    HW221210   4.923   1.952   3.750
 6771SOL     OW21211   4.174   0.937   1.924
 6771SOL    HW121212   4.146   0.862   1.984
 6771SOL    HW221213   4.122   0.933   1.839
 6772SOL     OW21214   4.718   2.279   2.745
 6772SOL    HW121215   4.671   2.360   2.709
 6772SOL    HW221216   4.674   2.249   2.830
 6773SOL     OW21217   0.082   6.347   1.740
 6773SOL    HW121218   0.012   6.400   1.787
 6773SOL    HW221219   0.168   6.353   1.790
 6774SOL     OW21220   1.391   3.254   4.316
 6774SOL    HW121221   1.340   3.273   4.400
 6774SOL    HW221222   1.338   3.192   4.258
 6775SOL     OW21223   0.923   2.325   3.411
 6775SOL    HW121224   0.930   2.347   3.508
 6775SOL    HW221225   0.858   2.387   3.367
 6776SOL     OW21226   4.282   4.168   0.728
 6776SOL    HW121227   4.218   4.170   0.651
 6776SOL    HW221228   4.240   4.119   0.804
 6777SOL     OW21229   4.722   5.627   0.781
 6777SOL    HW121230   4.630   5.644   0.744
 6777SOL    HW221231   4.733   5.677   0.867
 6778SOL     OW21232   6.069   3.989   2.012
 6778SOL    HW121233   6.044   3.938   1.929
 6778SOL    HW221234   6.160   3.960   2.042
 6779SOL     OW21235   5.491   4.509   5.818
 6779SOL    HW121236   5.439   4.550   5.893
 6779SOL    HW221237   5.567   4.569   5.793
 6780SOL     OW21238   0.483   3.144   3.171
 6780SOL    HW121239   0.446   3.233   3.199
 6780SOL    HW221240   0.457   3.126   3.076
 6781SOL     OW21241   6.896   1.665   4.592
 6781SOL    HW121242   6.896   1.616   4.505
 6781SOL    HW221243   6.850   1.753   4.581
 6782SOL     OW21244   0.728   1.114   3.167
 6782SOL    HW121245   0.647   1.165   3.195
 6782SOL    HW221246   0.715   1.017   3.186
 6783SOL     OW21247   0.877   2.425   6.387
 6783SOL    HW121248   0.958   2.369   6.401
 6783SOL    HW221249   0.833   2.399   6.301
 6784SOL     OW21250   2.611   3.716   0.546
 6784SOL    HW121251   2.636   3.721   0.449
 6784SOL    HW221252   2.629   3.624   0.580
 6785SOL     OW21253   5.593   4.739   4.892
 6785SOL    HW121254   5.613   4.651   4.849
 6785SOL    HW221255   5.494   4.746   4.909
 6786SOL     OW21256   0.875   2.590   0.171
 6786SOL    HW121257   0.886   2.563   0.267
 6786SOL    HW221258   0.952   2.649   0.144
 6787SOL     OW21259   3.222   2.420   0.834
 6787SOL    HW121260   3.168   2.504   0.845
 6787SOL    HW221261   3.207   2.383   0.742
 6788SOL     OW21262   0.269   4.755   2.366
 6788SOL    HW121263   0.347   4.778   2.423
 6788SOL    HW221264   0.301   4.708   2.283
 6789SOL     OW21265   0.236   4.323   3.859
 6789SOL    HW121266   0.208   4.386   3.932
 6789SOL    HW221267   0.216   4.229   3.887
 6790SOL     OW21268   0.924   4.058   6.737
 6790SOL    HW121269   0.957   3.967   6.763
 6790SOL    HW221270   0.881   4.102   6.816
 6791SOL     OW21271   4.041   2.061   2.461
 6791SOL    HW121272   4.087   2.142   2.498
 6791SOL    HW221273   3.952   2.087   2.424
 6792SOL     OW21274   5.294   0.220   5.655
 6792SOL    HW121275   5.202   0.210   5.617
 6792SOL    HW221276   5.361   0.223   5.581
 6793SOL     OW21277   3.571   1.124   6.772
 6793SOL    HW121278   3.577   1.038   6.822
 6793SOL    HW221279   3.591   1.109   6.675
 6794SOL     OW21280   5.419   1.469   5.068
 6794SOL    HW121281   5.504   1.425   5.095
 6794SOL    HW221282   5.429   1.508   4.977
 6795SOL     OW21283   1.205   5.706   0.622
 6795SOL    HW121284   1.182   5.795   0.663
 6795SOL    HW221285   1.260   5.721   0.540
 6796SOL     OW21286   6.123   0.072   2.358
 6796SOL    HW121287   6.222   0.061   2.366
 6796SOL    HW221288   6.084   7.018   2.313
 6797SOL     OW21289   6.573   1.908   1.855
 6797SOL    HW121290   6.661   1.861   1.853
 6797SOL    HW221291   6.568   1.965   1.937
 6798SOL     OW21292   6.568   0.042   1.882
 6798SOL    HW121293   6.493   0.006   1.936
 6798SOL    HW221294   6.655   0.003   1.915
 6799SOL     OW21295   5.973   0.288   2.356
 6799SOL    HW121296   6.046   0.221   2.366
 6799SOL    HW221297   5.891   0.243   2.319
 6800SOL     OW21298   2.467   2.570   2.172
 6800SOL    HW121299   2.461   2.644   2.106
 6800SOL    HW221300   2.528   2.499   2.137
 6801SOL     OW21301   1.121   6.686   4.072
 6801SOL    HW121302   1.115   6.689   3.973
 6801SOL    HW221303   1.213   6.710   4.101
 6802SOL     OW21304   3.141   6.419   1.558
 6802SOL    HW121305   3.142   6.473   1.474
 6802SOL    HW221306   3.056   6.436   1.608
 6803SOL     OW21307   4.116   4.289   6.742
 6803SOL    HW121308   4.195   4.268   6.684
 6803SOL    HW221309   4.108   4.219   6.813
 6804SOL     OW21310   4.302   5.109   2.844
 6804SOL    HW121311   4.352   5.023   2.851
 6804SOL    HW221312   4.210   5.098   2.882
 6805SOL     OW21313   0.308   5.307   6.580
 6805SOL    HW121314   0.291   5.299   6.482
 6805SOL    HW221315   0.304   5.217   6.622
 6806SOL     OW21316   6.743   1.165   4.275
 6806SOL    HW121317   6.773   1.079   4.235
 6806SOL    HW221318   6.812   1.198   4.339
 6807SOL     OW21319   3.621   3.623   2.586
 6807SOL    HW121320   3.623   3.709   2.637
 6807SOL    HW221321   3.659   3.550   2.642
 6808SOL     OW21322   6.821   1.635   5.385
 6808SOL    HW121323   6.791   1.541   5.401
 6808SOL    HW221324   6.893   1.636   5.316
 6809SOL     OW21325   6.416   3.044   1.059
 6809SOL    HW121326   6.504   3.021   1.017
 6809SOL    HW221327   6.372   3.118   1.008
 6810SOL     OW21328   2.581   1.370   1.976
 6810SOL    HW121329   2.680   1.360   1.974
 6810SOL    HW221330   2.555   1.434   2.048
 6811SOL     OW21331   6.249   3.624   2.386
 6811SOL    HW121332   6.310   3.557   2.429
 6811SOL    HW221333   6.300   3.707   2.365
 6812SOL     OW21334   3.857   4.078   4.803
 6812SOL    HW121335   3.827   4.163   4.759
 6812SOL    HW221336   3.955   4.083   4.822
 6813SOL     OW21337   5.764   3.122   2.740
 6813SOL    HW121338   5.811   3.208   2.722
 6813SOL    HW221339   5.810   3.074   2.815
 6814SOL     OW21340   4.570   2.129   6.293
 6814SOL    HW121341   4.620   2.213   6.269
 6814SOL    HW221342   4.588   2.105   6.388
 6815SOL     OW21343   2.414   6.630   6.527
 6815SOL    HW121344   2.472   6.642   6.447
 6815SOL    HW221345   2.443   6.692   6.600
 6816SOL     OW21346   6.866   1.093   5.942
 6816SOL    HW121347   6.767   1.101   5.931
 6816SOL    HW221348   6.890   0.997   5.959
 6817SOL     OW21349   2.239   2.953   3.712
 6817SOL    HW121350   2.224   3.045   3.748
 6817SOL    HW221351   2.263   2.891   3.787
 6818SOL     OW21352   2.027   6.858   0.643
 6818SOL    HW121353   2.013   6.878   0.740
 6818SOL    HW221354   2.094   6.784   0.634
 6819SOL     OW21355   4.166   1.474   3.090
 6819SOL    HW121356   4.245   1.415   3.070
 6819SOL    HW221357   4.121   1.440   3.173
 6820SOL     OW21358   1.371   6.059   1.823
 6820SOL    HW121359   1.297   6.050   1.889
 6820SOL    HW221360   1.344   6.019   1.736
 6821SOL     OW21361   4.211   2.770   5.341
 6821SOL    HW121362   4.194   2.680   5.301
 6821SOL    HW221363   4.126   2.807   5.378
 6822SOL     OW21364   5.819   2.449   5.739
 6822SOL    HW121365   5.751   2.485   5.675
 6822SOL    HW221366   5.816   2.349   5.739
 6823SOL     OW21367   5.907   4.344   6.091
 6823SOL    HW121368   5.817   4.313   6.061
 6823SOL    HW221369   5.896   4.407   6.168
 6824SOL     OW21370   1.329   1.479   0.599
 6824SOL    HW121371   1.388   1.449   0.673
 6824SOL    HW221372   1.374   1.552   0.547
 6825SOL     OW21373   6.047   0.815   0.386
 6825SOL    HW121374   6.122   0.749   0.391
 6825SOL    HW221375   5.967   0.778   0.432
 6826SOL     OW21376   1.825   3.548   4.078
 6826SOL    HW121377   1.876   3.528   4.162
 6826SOL    HW221378   1.889   3.583   4.008
 6827SOL     OW21379   5.548   5.349   6.579
 6827SOL    HW121380   5.580   5.433   6.536
 6827SOL    HW221381   5.487   5.372   6.655
 6828SOL     OW21382   3.719   1.790   2.247
 6828SOL    HW121383   3.650   1.860   2.229
 6828SOL    HW221384   3.810   1.830   2.239
 6829SOL     OW21385   5.308   6.355   5.183
 6829SOL    HW121386   5.349   6.278   5.133
 6829SOL    HW221387   5.376   6.394   5.246
 6830SOL     OW21388   4.982   0.418   3.715
 6830SOL    HW121389   5.041   0.401   3.794
 6830SOL    HW221390   4.893   0.451   3.747
 6831SOL     OW21391   1.970   1.390   5.615
 6831SOL    HW121392   1.956   1.457   5.688
 6831SOL    HW221393   2.038   1.424   5.550
 6832SOL     OW21394   2.395   4.150   0.885
 6832SOL    HW121395   2.423   4.199   0.803
 6832SOL    HW221396   2.463   4.079   0.907
 6833SOL     OW21397   2.332   4.388   6.200
 6833SOL    HW121398   2.413   4.355   6.250
 6833SOL    HW221399   2.319   4.485   6.219
 6834SOL     OW21400   6.347   6.985   0.556
 6834SOL    HW121401   6.388   6.922   0.622
 6834SOL    HW221402   6.332   6.937   0.469
 6835SOL     OW21403   3.395   1.330   4.357
 6835SOL    HW121404   3.417   1.330   4.259
 6835SOL    HW221405   3.452   1.264   4.404
 6836SOL     OW21406   2.766   4.310   6.505
 6836SOL    HW121407   2.724   4.304   6.595
 6836SOL    HW221408   2.861   4.338   6.515
 6837SOL     OW21409   0.516   2.139   3.452
 6837SOL    HW121410   0.606   2.100   3.472
 6837SOL    HW221411   0.445   2.072   3.472
 6838SOL     OW21412   2.870   5.088   6.578
 6838SOL    HW121413   2.934   5.164   6.581
 6838SOL    HW221414   2.888   5.031   6.497
 6839SOL     OW21415   5.152   1.053   5.136
 6839SOL    HW121416   5.080   1.012   5.191
 6839SOL    HW221417   5.113   1.090   5.052
 6840SOL     OW21418   3.162   6.619   5.420
 6840SOL    HW121419   3.091   6.655   5.481
 6840SOL    HW221420   3.124   6.611   5.327
 6841SOL     OW21421   3.903   4.854   0.668
 6841SOL    HW121422   3.848   4.772   0.651
 6841SOL    HW221423   3.870   4.901   0.750
 6842SOL     OW21424   2.600   2.743   0.342
 6842SOL    HW121425   2.520   2.729   0.283
 6842SOL    HW221426   2.572   2.793   0.424
 6843SOL     OW21427   5.696   6.977   1.774
 6843SOL    HW121428   5.717   0.021   1.707
 6843SOL    HW221429   5.633   7.013   1.842
 6844SOL     OW21430   5.799   6.856   3.603
 6844SOL    HW121431   5.886   6.882   3.646
 6844SOL    HW221432   5.770   6.767   3.637
 6845SOL     OW21433   5.585   4.639   2.525
 6845SOL    HW121434   5.555   4.544   2.513
 6845SOL    HW221435   5.619   4.675   2.438
 6846SOL     OW21436   4.127   3.103   1.414
 6846SOL    HW121437   4.177   3.168   1.471
 6846SOL    HW221438   4.096   3.149   1.330
 6847SOL     OW21439   6.682   4.624   2.939
 6847SOL    HW121440   6.777   4.654   2.932
 6847SOL    HW221441   6.640   4.624   2.848
 6848SOL     OW21442   3.168   6.351   3.301
 6848SOL    HW121443   3.145   6.337   3.397
 6848SOL    HW221444   3.104   6.300   3.243
 6849SOL     OW21445   3.397   5.508   4.999
 6849SOL    HW121446   3.319   5.543   4.947
 6849SOL    HW221447   3.365   5.475   5.088
 6850SOL     OW21448   5.526   3.550   1.927
 6850SOL    HW121449   5.622   3.521   1.934
 6850SOL    HW221450   5.467   3.469   1.921
 6851SOL     OW21451   1.331   2.804   3.726
 6851SOL    HW121452   1.395   2.787   3.651
 6851SOL    HW221453   1.285   2.718   3.750
 6852SOL     OW21454   1.697   4.694   0.979
 6852SOL    HW121455   1.711   4.768   0.913
 6852SOL    HW221456   1.645   4.620   0.936
 6853SOL     OW21457   0.129   4.005   0.057
 6853SOL    HW121458   0.128   3.952   6.999
 6853SOL    HW221459   0.218   4.048   0.068
 6854SOL     OW21460   6.065   2.187   5.935
 6854SOL    HW121461   6.140   2.232   5.887
 6854SOL    HW221462   6.101   2.122   6.001
 6855SOL     OW21463   2.989   5.845   2.974
 6855SOL    HW121464   2.890   5.836   2.964
 6855SOL    HW221465   3.023   5.775   3.036
 6856SOL     OW21466   5.033   4.557   5.577
 6856SOL    HW121467   4.945   4.514   5.557
 6856SOL    HW221468   5.106   4.491   5.560
 6857SOL     OW21469   2.957   1.658   0.206
 6857SOL    HW121470   2.941   1.601   0.286
 6857SOL    HW221471   2.878   1.717   0.190
 6858SOL     OW21472   3.781   3.613   4.090
 6858SOL    HW121473   3.694   3.615   4.041
 6858SOL    HW221474   3.772   3.664   4.176
 6859SOL     OW21475   1.131   0.142   1.035
 6859SOL    HW121476   1.089   0.138   1.126
 6859SOL    HW221477   1.068   0.185   0.971
 6860SOL     OW21478   5.931   5.605   1.188
 6860SOL    HW121479   5.846   5.606   1.240
 6860SOL    HW221480   5.998   5.548   1.235
 6861SOL     OW21481   5.877   4.281   1.061
 6861SOL    HW121482   5.913   4.237   1.144
 6861SOL    HW221483   5.862   4.378   1.079
 6862SOL     OW21484   2.223   4.853   4.915
 6862SOL    HW121485   2.244   4.951   4.918
 6862SOL    HW221486   2.258   4.809   4.998
 6863SOL     OW21487   6.034   1.311   5.180
 6863SOL    HW121488   6.036   1.376   5.104
 6863SOL    HW221489   6.089   1.232   5.157
 6864SOL     OW21490   3.522   6.091   4.092
 6864SOL    HW121491   3.463   6.159   4.137
 6864SOL    HW221492   3.467   6.033   4.033
 6865SOL     OW21493   0.196   5.577   3.016
 6865SOL    HW121494   0.188   5.673   3.044
 6865SOL    HW221495   0.110   5.548   2.975
 6866SOL     OW21496   6.881   4.840   2.607
 6866SOL    HW121497   6.940   4.837   2.526
 6866SOL    HW221498   6.928   4.799   2.685
 6867SOL     OW21499   1.517   5.122   1.480
 6867SOL    HW121500   1.495   5.210   1.438
 6867SOL    HW221501   1.484   5.048   1.421
 6868SOL     OW21502   1.168   5.232   5.965
 6868SOL    HW121503   1.207   5.300   6.028
 6868SOL    HW221504   1.173   5.142   6.007
 6869SOL     OW21505   5.605   0.716   4.911
 6869SOL    HW121506   5.540   0.640   4.902
 6869SOL    HW221507   5.686   0.697   4.856
 6870SOL     OW21508   6.912   5.245   2.005
 6870SOL    HW121509   6.906   5.194   2.091
 6870SOL    HW221510   6.960   5.331   2.022
 6871SOL     OW21511   6.053   4.418   2.908
 6871SOL    HW121512   5.954   4.400   2.910
 6871SOL    HW221513   6.100   4.351   2.965
 6872SOL     OW21514   0.702   3.333   1.080
 6872SOL    HW121515   0.692   3.235   1.100
 6872SOL    HW221516   0.799   3.358   1.081
 6873SOL     OW21517   6.539   3.910   5.120
 6873SOL    HW121518   6.575   4.001   5.100
 6873SOL    HW221519   6.586   3.873   5.201
 6874SOL     OW21520   1.048   5.103   2.303
 6874SOL    HW121521   1.023   5.025   2.246
 6874SOL    HW221522   1.146   5.118   2.298
 6875SOL     OW21523   1.306   2.474   3.300
 6875SOL    HW121524   1.268   2.529   3.374
 6875SOL    HW221525   1.259   2.495   3.214
 6876SOL     OW21526   3.914   6.522   4.911
 6876SOL    HW121527   4.013   6.529   4.903
 6876SOL    HW221528   3.891   6.465   4.991
 6877SOL     OW21529   2.466   4.162   0.092
 6877SOL    HW121530   2.484   4.078   0.143
 6877SOL    HW221531   2.419   4.227   0.150
 6878SOL     OW21532   3.019   2.154   5.454
 6878SOL    HW121533   3.115   2.128   5.466
 6878SOL    HW221534   2.998   2.159   5.357
 6879SOL     OW21535   1.015   2.205   0.415
 6879SOL    HW121536   1.115   2.207   0.406
 6879SOL    HW221537   0.979   2.298   0.405
 6880SOL     OW21538   1.894   3.508   5.034
 6880SOL    HW121539   1.992   3.495   5.044
 6880SOL    HW221540   1.850   3.419   5.020
 6881SOL     OW21541   0.790   4.009   2.267
 6881SOL    HW121542   0.811   4.098   2.228
 6881SOL    HW221543   0.848   3.939   2.224
 6882SOL     OW21544   3.436   0.319   6.289
 6882SOL    HW121545   3.465   0.377   6.213
 6882SOL    HW221546   3.345   0.283   6.270
 6883SOL     OW21547   4.024   1.616   0.439
 6883SOL    HW121548   3.959   1.686   0.469
 6883SOL    HW221549   4.057   1.638   0.347
 6884SOL     OW21550   1.665   3.956   4.441
 6884SOL    HW121551   1.739   3.941   4.508
 6884SOL    HW221552   1.578   3.929   4.482
 6885SOL     OW21553   4.115   6.170   4.680
 6885SOL    HW121554   4.082   6.203   4.768
 6885SOL    HW221555   4.052   6.198   4.608
 6886SOL     OW21556   6.838   0.691   4.146
 6886SOL    HW121557   6.808   0.715   4.239
 6886SOL    HW221558   6.814   0.765   4.084
 6887SOL     OW21559   5.127   6.583   5.219
 6887SOL    HW121560   5.176   6.557   5.303
 6887SOL    HW221561   5.038   6.539   5.217
 6888SOL     OW21562   5.460   6.259   6.475
 6888SOL    HW121563   5.422   6.233   6.564
 6888SOL    HW221564   5.540   6.317   6.490
 6889SOL     OW21565   1.754   2.553   5.227
 6889SOL    HW121566   1.751   2.467   5.175
 6889SOL    HW221567   1.795   2.536   5.316
 6890SOL     OW21568   3.521   0.085   1.047
 6890SOL    HW121569   3.432   0.043   1.034
 6890SOL    HW221570   3.575   0.029   1.110
 6891SOL     OW21571   2.257   4.834   4.266
 6891SOL    HW121572   2.255   4.815   4.364
 6891SOL    HW221573   2.233   4.752   4.215
 6892SOL     OW21574   3.406   1.520   3.415
 6892SOL    HW121575   3.395   1.421   3.405
 6892SOL    HW221576   3.468   1.539   3.491
 6893SOL     OW21577   5.331   5.356   6.882
 6893SOL    HW121578   5.397   5.380   6.952
 6893SOL    HW221579   5.368   5.282   6.825
 6894SOL     OW21580   6.258   4.681   0.507
 6894SOL    HW121581   6.183   4.616   0.519
 6894SOL    HW221582   6.229   4.771   0.539
 6895SOL     OW21583   2.538   5.632   6.285
 6895SOL    HW121584   2.604   5.557   6.294
 6895SOL    HW221585   2.489   5.622   6.198
 6896SOL     OW21586   1.400   6.956   3.604
 6896SOL    HW121587   1.420   6.910   3.691
 6896SOL    HW221588   1.315   7.008   3.612
 6897SOL     OW21589   2.882   2.948   0.086
 6897SOL    HW121590   2.971   2.924   0.048
 6897SOL    HW221591   2.887   3.039   0.128
 6898SOL     OW21592   3.972   1.070   2.336
 6898SOL    HW121593   4.049   1.013   2.308
 6898SOL    HW221594   3.953   1.138   2.265
 6899SOL     OW21595   5.070   6.605   1.448
 6899SOL    HW121596   5.150   6.581   1.393
 6899SOL    HW221597   5.057   6.704   1.447
 6900SOL     OW21598   6.723   0.205   5.651
 6900SOL    HW121599   6.696   0.292   5.610
 6900SOL    HW221600   6.724   0.133   5.581
 6901SOL     OW21601   0.413   6.864   5.987
 6901SOL    HW121602   0.359   6.793   5.944
 6901SOL    HW221603   0.483   6.823   6.045
 6902SOL     OW21604   5.681   6.956   0.559
 6902SOL    HW121605   5.719   6.864   0.560
 6902SOL    HW221606   5.607   6.960   0.491
 6903SOL     OW21607   4.111   5.427   4.651
 6903SOL    HW121608   4.095   5.392   4.558
 6903SOL    HW221609   4.024   5.430   4.700
 6904SOL     OW21610   6.022   2.178   4.100
 6904SOL    HW121611   6.003   2.164   4.002
 6904SOL    HW221612   5.946   2.142   4.154
 6905SOL     OW21613   6.275   6.711   0.144
 6905SOL    HW121614   6.334   6.761   0.080
 6905SOL    HW221615   6.328   6.687   0.225
 6906SOL     OW21616   4.403   1.244   4.029
 6906SOL    HW121617   4.453   1.182   3.969
 6906SOL    HW221618   4.466   1.309   4.071
 6907SOL     OW21619   5.083   2.384   1.074
 6907SOL    HW121620   4.984   2.386   1.087
 6907SOL    HW221621   5.116   2.290   1.081
 6908SOL     OW21622   1.344   6.073   6.458
 6908SOL    HW121623   1.352   6.010   6.380
 6908SOL    HW221624   1.415   6.052   6.525
 6909SOL     OW21625   6.356   4.002   1.427
 6909SOL    HW121626   6.326   3.991   1.522
 6909SOL    HW221627   6.414   3.924   1.401
 6910SOL     OW21628   0.441   2.452   3.806
 6910SOL    HW121629   0.491   2.487   3.886
 6910SOL    HW221630   0.498   2.462   3.725
 6911SOL     OW21631   4.622   6.266   3.632
 6911SOL    HW121632   4.617   6.177   3.677
 6911SOL    HW221633   4.651   6.255   3.537
 6912SOL     OW21634   3.494   4.884   0.451
 6912SOL    HW121635   3.589   4.915   0.448
 6912SOL    HW221636   3.434   4.963   0.465
 6913SOL     OW21637   5.165   4.657   5.211
 6913SOL    HW121638   5.104   4.729   5.242
 6913SOL    HW221639   5.156   4.577   5.270
 6914SOL     OW21640   5.547   4.377   6.854
 6914SOL    HW121641   5.576   4.286   6.823
 6914SOL    HW221642   5.476   4.412   6.792
 6915SOL     OW21643   6.236   3.990   1.689
 6915SOL    HW121644   6.179   3.915   1.721
 6915SOL    HW221645   6.223   4.069   1.749
 6916SOL     OW21646   6.248   3.813   6.747
 6916SOL    HW121647   6.248   3.827   6.845
 6916SOL    HW221648   6.282   3.895   6.701
 6917SOL     OW21649   3.091   5.664   1.115
 6917SOL    HW121650   3.102   5.757   1.149
 6917SOL    HW221651   3.158   5.604   1.159
 6918SOL     OW21652   0.695   3.185   4.264
 6918SOL    HW121653   0.658   3.268   4.221
 6918SOL    HW221654   0.790   3.173   4.234
 6919SOL     OW21655   0.581   6.505   2.679
 6919SOL    HW121656   0.515   6.479   2.609
 6919SOL    HW221657   0.607   6.600   2.666
 6920SOL     OW21658   4.456   5.599   5.563
 6920SOL    HW121659   4.447   5.544   5.479
 6920SOL    HW221660   4.440   5.540   5.642
 6921SOL     OW21661   5.227   6.258   3.264
 6921SOL    HW121662   5.170   6.187   3.304
 6921SOL    HW221663   5.321   6.224   3.253
 6922SOL     OW21664   1.864   5.508   6.268
 6922SOL    HW121665   1.912   5.542   6.348
 6922SOL    HW221666   1.783   5.456   6.296
 6923SOL     OW21667   4.802   4.980   3.212
 6923SOL    HW121668   4.724   5.025   3.170
 6923SOL    HW221669   4.798   4.992   3.311
 6924SOL     OW21670   1.494   4.296   6.839
 6924SOL    HW121671   1.416   4.320   6.781
 6924SOL    HW221672   1.529   4.206   6.813
 6925SOL     OW21673   3.911   6.013   4.835
 6925SOL    HW121674   3.983   5.956   4.796
 6925SOL    HW221675   3.952   6.074   4.904
 6926SOL     OW21676   2.926   3.633   2.078
 6926SOL    HW121677   2.957   3.717   2.034
 6926SOL    HW221678   2.878   3.576   2.011
 6927SOL     OW21679   5.242   3.159   6.442
 6927SOL    HW121680   5.201   3.073   6.413
 6927SOL    HW221681   5.216   3.178   6.537
 6928SOL     OW21682   5.909   6.532   0.548
 6928SOL    HW121683   6.006   6.508   0.546
 6928SOL    HW221684   5.858   6.460   0.595
 6929SOL     OW21685   5.031   5.405   0.918
 6929SOL    HW121686   5.008   5.322   0.866
 6929SOL    HW221687   5.061   5.477   0.855
 6930SOL     OW21688   6.997   6.972   2.626
 6930SOL    HW121689   6.972   0.039   2.600
 6930SOL    HW221690   0.047   6.975   2.689
 6931SOL     OW21691   2.005   0.647   2.434
 6931SOL    HW121692   2.081   0.589   2.407
 6931SOL    HW221693   1.938   0.593   2.485
 6932SOL     OW21694   3.828   6.791   0.326
 6932SOL    HW121695   3.899   6.848   0.367
 6932SOL    HW221696   3.791   6.729   0.395
 6933SOL     OW21697   3.052   6.088   5.050
 6933SOL    HW121698   3.071   6.133   5.137
 6933SOL    HW221699   2.955   6.097   5.027
 6934SOL     OW21700   5.126   3.925   5.967
 6934SOL    HW121701   5.082   4.007   5.930
 6934SOL    HW221702   5.071   3.844   5.944
 6935SOL     OW21703   4.366   5.918   3.485
 6935SOL    HW121704   4.427   5.871   3.549
 6935SOL    HW221705   4.275   5.925   3.524
 6936SOL     OW21706   6.651   2.450   3.343
 6936SOL    HW121707   6.689   2.525   3.398
 6936SOL    HW221708   6.665   2.469   3.246
 6937SOL     OW21709   0.206   6.028   0.402
 6937SOL    HW121710   0.261   6.107   0.377
 6937SOL    HW221711   0.133   6.056   0.464
 6938SOL     OW21712   4.982   3.690   5.902
 6938SOL    HW121713   4.950   3.665   5.811
 6938SOL    HW221714   4.910   3.738   5.951
 6939SOL     OW21715   0.183   4.657   1.764
 6939SOL    HW121716   0.258   4.683   1.703
 6939SOL    HW221717   0.205   4.570   1.809
 6940SOL     OW21718   4.851   1.399   0.534
 6940SOL    HW121719   4.795   1.317   0.523
 6940SOL    HW221720   4.931   1.392   0.475
 6941SOL     OW21721   3.212   3.117   3.059
 6941SOL    HW121722   3.253   3.026   3.051
 6941SOL    HW221723   3.235   3.172   2.979
 6942SOL     OW21724   6.153   2.427   1.209
 6942SOL    HW121725   6.076   2.447   1.148
 6942SOL    HW221726   6.124   2.442   1.304
 6943SOL     OW21727   4.670   6.058   6.833
 6943SOL    HW121728   4.673   5.983   6.767
 6943SOL    HW221729   4.732   6.131   6.803
 6944SOL     OW21730   1.588   3.585   6.478
 6944SOL    HW121731   1.599   3.546   6.387
 6944SOL    HW221732   1.678   3.602   6.518
 6945SOL     OW21733   6.654   3.135   6.438
 6945SOL    HW121734   6.601   3.162   6.519
 6945SOL    HW221735   6.699   3.215   6.399
 6946SOL     OW21736   6.259   6.488   1.303
 6946SOL    HW121737   6.309   6.543   1.235
 6946SOL    HW221738   6.176   6.537   1.330
 6947SOL     OW21739   3.500   6.477   5.762
 6947SOL    HW121740   3.520   6.486   5.664
 6947SOL    HW221741   3.468   6.565   5.797
 6948SOL     OW21742   6.143   0.174   6.630
 6948SOL    HW121743   6.075   0.124   6.576
 6948SOL    HW221744   6.161   0.262   6.587
 6949SOL     OW21745   5.112   6.804   3.328
 6949SOL    HW121746   5.037   6.747   3.294
 6949SOL    HW221747   5.077   6.896   3.348
 6950SOL     OW21748   2.525   0.445   3.774
 6950SOL    HW121749   2.617   0.409   3.788
 6950SOL    HW221750   2.474   0.440   3.860
 6951SOL     OW21751   6.583   6.268   5.871
 6951SOL    HW121752   6.506   6.210   5.845
 6951SOL    HW221753   6.576   6.356   5.825
 6952SOL     OW21754   0.358   5.558   3.977
 6952SOL    HW121755   0.433   5.609   3.933
 6952SOL    HW221756   0.396   5.496   4.045
 6953SOL     OW21757   4.882   0.249   0.055
 6953SOL    HW121758   4.975   0.286   0.060
 6953SOL    HW221759   4.822   0.316   0.011
 6954SOL     OW21760   0.261   3.351   3.621
 6954SOL    HW121761   0.243   3.269   3.675
 6954SOL    HW221762   0.348   3.341   3.574
 6955SOL     OW21763   6.278   0.700   1.851
 6955SOL    HW121764   6.281   0.630   1.780
 6955SOL    HW221765   6.371   0.716   1.887
 6956SOL     OW21766   4.852   6.758   3.512
 6956SOL    HW121767   4.800   6.840   3.485
 6956SOL    HW221768   4.800   6.708   3.582
 6957SOL     OW21769   6.111   5.383   0.737
 6957SOL    HW121770   6.129   5.296   0.782
 6957SOL    HW221771   6.172   5.394   0.659
 6958SOL     OW21772   3.130   4.124   5.061
 6958SOL    HW121773   3.098   4.051   5.122
 6958SOL    HW221774   3.227   4.143   5.080
 6959SOL     OW21775   1.768   1.579   4.701
 6959SOL    HW121776   1.792   1.671   4.732
 6959SOL    HW221777   1.709   1.585   4.621
 6960SOL     OW21778   1.510   5.779   1.212
 6960SOL    HW121779   1.606   5.761   1.232
 6960SOL    HW221780   1.496   5.780   1.113
 6961SOL     OW21781   6.104   2.453   4.176
 6961SOL    HW121782   6.125   2.355   4.179
 6961SOL    HW221783   6.005   2.466   4.179
 6962SOL     OW21784   5.691   6.307   1.945
 6962SOL    HW121785   5.610   6.265   1.903
 6962SOL    HW221786   5.772   6.254   1.922
 6963SOL     OW21787   6.398   5.469   1.048
 6963SOL    HW121788   6.419   5.385   0.999
 6963SOL    HW221789   6.403   5.452   1.147
 6964SOL     OW21790   3.373   6.787   5.014
 6964SOL    HW121791   3.408   6.825   4.929
 6964SOL    HW221792   3.291   6.733   4.995
 6965SOL     OW21793   0.316   3.171   0.227
 6965SOL    HW121794   0.402   3.168   0.177
 6965SOL    HW221795   0.290   3.267   0.242
 6966SOL     OW21796   6.872   1.994   3.399
 6966SOL    HW121797   6.791   1.936   3.407
 6966SOL    HW221798   6.854   2.069   3.335
 6967SOL     OW21799   1.771   0.313   5.696
 6967SOL    HW121800   1.866   0.320   5.667
 6967SOL    HW221801   1.734   0.224   5.669
 6968SOL     OW21802   4.741   6.428   2.549
 6968SOL    HW121803   4.677   6.505   2.544
 6968SOL    HW221804   4.755   6.391   2.457
 6969SOL     OW21805   2.496   2.698   1.176
 6969SOL    HW121806   2.513   2.729   1.082
 6969SOL    HW221807   2.460   2.604   1.174
 6970SOL     OW21808   3.031   3.893   6.488
 6970SOL    HW121809   3.038   3.950   6.569
 6970SOL    HW221810   2.961   3.931   6.427
 6971SOL     OW21811   6.153   4.538   1.717
 6971SOL    HW121812   6.195   4.522   1.628
 6971SOL    HW221813   6.142   4.637   1.731
 6972SOL     OW21814   5.635   5.076   3.237
 6972SOL    HW121815   5.659   5.017   3.161
 6972SOL    HW221816   5.544   5.051   3.272
 6973SOL     OW21817   0.462   3.132   5.257
 6973SOL    HW121818   0.491   3.214   5.306
 6973SOL    HW221819   0.454   3.056   5.322
 6974SOL     OW21820   3.308   2.898   2.934
 6974SOL    HW121821   3.276   2.891   2.840
 6974SOL    HW221822   3.405   2.877   2.939
 6975SOL     OW21823   2.101   5.524   6.109
 6975SOL    HW121824   2.026   5.534   6.175
 6975SOL    HW221825   2.153   5.441   6.130
 6976SOL     OW21826   4.538   5.844   4.882
 6976SOL    HW121827   4.621   5.882   4.841
 6976SOL    HW221828   4.465   5.912   4.878
 6977SOL     OW21829   4.349   2.500   1.738
 6977SOL    HW121830   4.385   2.463   1.652
 6977SOL    HW221831   4.417   2.486   1.810
 6978SOL     OW21832   4.264   1.681   2.517
 6978SOL    HW121833   4.274   1.583   2.533
 6978SOL    HW221834   4.268   1.700   2.419
 6979SOL     OW21835   1.510   4.400   1.102
 6979SOL    HW121836   1.609   4.400   1.117
 6979SOL    HW221837   1.491   4.360   1.012
 6980SOL     OW21838   1.090   0.997   3.784
 6980SOL    HW121839   1.143   0.938   3.844
 6980SOL    HW221840   1.113   0.977   3.689
 6981SOL     OW21841   3.910   2.910   5.792
 6981SOL    HW121842   3.899   2.829   5.850
 6981SOL    HW221843   3.865   2.893   5.704
 6982SOL     OW21844   1.233   0.472   4.934
 6982SOL    HW121845   1.152   0.436   4.979
 6982SOL    HW221846   1.208   0.549   4.876
 6983SOL     OW21847   4.373   2.442   4.041
 6983SOL    HW121848   4.396   2.462   3.946
 6983SOL    HW221849   4.437   2.488   4.101
 6984SOL     OW21850   2.680   1.430   4.007
 6984SOL    HW121851   2.583   1.418   4.025
 6984SOL    HW221852   2.715   1.507   4.060
 6985SOL     OW21853   4.370   5.425   1.381
 6985SOL    HW121854   4.345   5.356   1.450
 6985SOL    HW221855   4.343   5.515   1.414
 6986SOL     OW21856   1.871   6.430   6.133
 6986SOL    HW121857   1.863   6.335   6.101
 6986SOL    HW221858   1.968   6.452   6.145
 6987SOL     OW21859   0.384   1.582   6.187
 6987SOL    HW121860   0.371   1.507   6.252
 6987SOL    HW221861   0.462   1.563   6.128
 6988SOL     OW21862   6.983   0.846   6.005
 6988SOL    HW121863   6.981   0.815   6.100
 6988SOL    HW221864   7.013   0.770   5.946
 6989SOL     OW21865   0.313   3.825   3.479
 6989SOL    HW121866   0.316   3.742   3.534
 6989SOL    HW221867   0.240   3.885   3.513
 6990SOL     OW21868   4.811   2.638   1.337
 6990SOL    HW121869   4.763   2.551   1.328
 6990SOL    HW221870   4.907   2.621   1.359
 6991SOL     OW21871   3.604   4.961   3.860
 6991SOL    HW121872   3.505   4.967   3.849
 6991SOL    HW221873   3.646   4.930   3.775
 6992SOL     OW21874   5.259   6.392   5.681
 6992SOL    HW121875   5.332   6.388   5.749
 6992SOL    HW221876   5.234   6.299   5.654
 6993SOL     OW21877   6.636   0.808   3.581
 6993SOL    HW121878   6.674   0.803   3.489
 6993SOL    HW221879   6.634   0.904   3.610
 6994SOL     OW21880   0.132   1.897   4.577
 6994SOL    HW121881   0.050   1.955   4.576
 6994SOL    HW221882   0.148   1.861   4.485
 6995SOL     OW21883   6.820   4.616   6.262
 6995SOL    HW121884   6.846   4.667   6.180
 6995SOL    HW221885   6.848   4.521   6.252
 6996SOL     OW21886   2.054   0.559   6.436
 6996SOL    HW121887   1.993   0.611   6.496
 6996SOL    HW221888   2.026   0.462   6.436
 6997SOL     OW21889   5.686   5.999   5.363
 6997SOL    HW121890   5.745   6.033   5.437
 6997SOL    HW221891   5.718   6.034   5.275
 6998SOL     OW21892   1.955   1.879   1.281
 6998SOL    HW121893   1.885   1.919   1.221
 6998SOL    HW221894   1.967   1.938   1.361
 6999SOL     OW21895   2.405   2.881   5.884
 6999SOL    HW121896   2.504   2.895   5.881
 6999SOL    HW221897   2.359   2.968   5.900
 7000SOL     OW21898   6.243   6.244   1.674
 7000SOL    HW121899   6.219   6.339   1.694
 7000SOL    HW221900   6.342   6.235   1.672
 7001SOL     OW21901   2.370   3.129   5.374
 7001SOL    HW121902   2.365   3.086   5.284
 7001SOL    HW221903   2.457   3.177   5.384
 7002SOL     OW21904   2.338   5.155   3.338
 7002SOL    HW121905   2.428   5.127   3.372
 7002SOL    HW221906   2.270   5.085   3.360
 7003SOL     OW21907   3.647   5.591   0.112
 7003SOL    HW121908   3.637   5.493   0.133
 7003SOL    HW221909   3.604   5.645   0.185
 7004SOL     OW21910   1.271   4.474   2.437
 7004SOL    HW121911   1.292   4.502   2.344
 7004SOL    HW221912   1.267   4.374   2.442
 7005SOL     OW21913   1.369   6.852   0.234
 7005SOL    HW121914   1.282   6.814   0.202
 7005SOL    HW221915   1.441   6.784   0.220
 7006SOL     OW21916   4.616   5.086   4.033
 7006SOL    HW121917   4.677   5.149   4.081
 7006SOL    HW221918   4.555   5.041   4.099
 7007SOL     OW21919   4.609   0.255   3.896
 7007SOL    HW121920   4.557   0.182   3.852
 7007SOL    HW221921   4.704   0.226   3.906
 7008SOL     OW21922   0.991   4.717   4.792
 7008SOL    HW121923   0.968   4.814   4.780
 7008SOL    HW221924   1.086   4.709   4.823
 7009SOL     OW21925   6.060   6.312   1.984
 7009SOL    HW121926   6.025   6.240   1.924
 7009SOL    HW221927   6.020   6.302   2.075
 7010SOL     OW21928   5.320   4.729   4.954
 7010SOL    HW121929   5.253   4.682   4.896
 7010SOL    HW221930   5.296   4.716   5.050
 7011SOL     OW21931   4.040   6.710   6.397
 7011SOL    HW121932   4.099   6.692   6.476
 7011SOL    HW221933   4.087   6.771   6.333
 7012SOL     OW21934   1.924   1.840   1.718
 7012SOL    HW121935   1.966   1.750   1.708
 7012SOL    HW221936   1.953   1.899   1.642
 7013SOL     OW21937   0.958   0.299   0.863
 7013SOL    HW121938   0.876   0.341   0.825
 7013SOL    HW221939   1.034   0.362   0.857
 7014SOL     OW21940   4.011   3.243   1.215
 7014SOL    HW121941   4.015   3.331   1.260
 7014SOL    HW221942   3.970   3.253   1.124
 7015SOL     OW21943   5.911   4.290   2.008
 7015SOL    HW121944   5.976   4.294   2.083
 7015SOL    HW221945   5.888   4.383   1.979
 7016SOL     OW21946   3.518   4.575   1.293
 7016SOL    HW121947   3.595   4.518   1.323
 7016SOL    HW221948   3.523   4.663   1.340
 7017SOL     OW21949   2.901   5.773   2.385
 7017SOL    HW121950   2.905   5.836   2.463
 7017SOL    HW221951   2.875   5.823   2.303
 7018SOL     OW21952   6.136   4.130   3.990
 7018SOL    HW121953   6.223   4.157   3.947
 7018SOL    HW221954   6.155   4.081   4.075
 7019SOL     OW21955   2.583   4.119   6.701
 7019SOL    HW121956   2.655   4.116   6.770
 7019SOL    HW221957   2.509   4.177   6.734
 7020SOL     OW21958   6.016   6.769   6.922
 7020SOL    HW121959   6.101   6.743   6.876
 7020SOL    HW221960   6.027   6.757   7.021
 7021SOL     OW21961   1.411   1.182   6.016
 7021SOL    HW121962   1.407   1.138   6.106
 7021SOL    HW221963   1.410   1.282   6.028
 7022SOL     OW21964   4.703   6.418   0.336
 7022SOL    HW121965   4.641   6.358   0.287
 7022SOL    HW221966   4.651   6.487   0.386
 7023SOL     OW21967   0.519   1.775   3.682
 7023SOL    HW121968   0.444   1.815   3.630
 7023SOL    HW221969   0.524   1.677   3.665
 7024SOL     OW21970   1.956   4.058   5.204
 7024SOL    HW121971   2.027   4.105   5.150
 7024SOL    HW221972   1.982   3.963   5.216
 7025SOL     OW21973   2.659   0.773   6.860
 7025SOL    HW121974   2.736   0.749   6.918
 7025SOL    HW221975   2.659   0.872   6.843
 7026SOL     OW21976   3.497   2.258   1.626
 7026SOL    HW121977   3.549   2.325   1.679
 7026SOL    HW221978   3.433   2.210   1.687
 7027SOL     OW21979   2.922   5.208   4.546
 7027SOL    HW121980   2.992   5.150   4.504
 7027SOL    HW221981   2.882   5.161   4.624
 7028SOL     OW21982   4.276   0.744   3.859
 7028SOL    HW121983   4.260   0.836   3.895
 7028SOL    HW221984   4.341   0.695   3.917
 7029SOL     OW21985   5.051   4.802   5.697
 7029SOL    HW121986   5.125   4.865   5.671
 7029SOL    HW221987   5.067   4.714   5.652
 7030SOL     OW21988   1.056   1.422   5.411
 7030SOL    HW121989   1.102   1.433   5.323
 7030SOL    HW221990   1.110   1.362   5.470
 7031SOL     OW21991   2.641   6.367   5.230
 7031SOL    HW121992   2.659   6.278   5.273
 7031SOL    HW221993   2.709   6.433   5.260
 7032SOL     OW21994   3.501   0.698   2.820
 7032SOL    HW121995   3.461   0.652   2.741
 7032SOL    HW221996   3.556   0.634   2.873
 7033SOL     OW21997   1.584   2.372   3.488
 7033SOL    HW121998   1.664   2.344   3.542
 7033SOL    HW221999   1.586   2.326   3.400
 7034SOL     OW22000   5.909   0.531   2.903
 7034SOL    HW122001   5.954   0.553   2.816
 7034SOL    HW222002   5.852   0.450   2.891
 7035SOL     OW22003   1.920   6.632   1.531
 7035SOL    HW122004   2.017   6.654   1.528
 7035SOL    HW222005   1.904   6.558   1.597
 7036SOL     OW22006   0.443   0.612   2.225
 7036SOL    HW122007   0.406   0.702   2.247
 7036SOL    HW222008   0.377   0.561   2.170
 7037SOL     OW22009   1.832   0.962   6.330
 7037SOL    HW122010   1.815   0.864   6.329
 7037SOL    HW222011   1.788   1.004   6.251
 7038SOL     OW22012   1.713   3.299   4.624
 7038SOL    HW122013   1.778   3.227   4.600
 7038SOL    HW222014   1.645   3.262   4.688
 7039SOL     OW22015   2.894   4.636   1.439
 7039SOL    HW122016   2.977   4.686   1.415
 7039SOL    HW222017   2.860   4.669   1.527
 7040SOL     OW22018   6.535   2.250   4.860
 7040SOL    HW122019   6.519   2.158   4.895
 7040SOL    HW222020   6.613   2.291   4.907
 7041SOL     OW22021   0.219   1.874   1.993
 7041SOL    HW122022   0.208   1.813   2.072
 7041SOL    HW222023   0.306   1.921   1.999
 7042SOL     OW22024   5.317   4.941   5.439
 7042SOL    HW122025   5.368   4.921   5.523
 7042SOL    HW222026   5.235   4.994   5.462
 7043SOL     OW22027   2.012   3.492   2.826
 7043SOL    HW122028   2.034   3.573   2.771
 7043SOL    HW222029   1.993   3.414   2.765
 7044SOL     OW22030   4.541   4.424   3.368
 7044SOL    HW122031   4.503   4.437   3.277
 7044SOL    HW222032   4.631   4.468   3.373
 7045SOL     OW22033   5.253   5.094   3.498
 7045SOL    HW122034   5.159   5.127   3.507
 7045SOL    HW222035   5.315   5.153   3.551
 7046SOL     OW22036   3.214   1.688   2.766
 7046SOL    HW122037   3.155   1.665   2.688
 7046SOL    HW222038   3.290   1.745   2.734
 7047SOL     OW22039   0.097   2.558   2.316
 7047SOL    HW122040   0.175   2.590   2.370
 7047SOL    HW222041   0.118   2.469   2.276
 7048SOL     OW22042   6.015   6.250   2.798
 7048SOL    HW122043   6.025   6.349   2.789
 7048SOL    HW222044   5.921   6.224   2.778
 7049SOL     OW22045   3.548   1.517   1.236
 7049SOL    HW122046   3.479   1.504   1.165
 7049SOL    HW222047   3.529   1.602   1.286
 7050SOL     OW22048   4.000   3.841   1.862
 7050SOL    HW122049   3.933   3.766   1.862
 7050SOL    HW222050   3.978   3.905   1.936
 7051SOL     OW22051   6.798   0.378   1.920
 7051SOL    HW122052   6.720   0.440   1.928
 7051SOL    HW222053   6.877   0.429   1.885
 7052SOL     OW22054   5.447   2.453   4.152
 7052SOL    HW122055   5.349   2.456   4.168
 7052SOL    HW222056   5.465   2.448   4.054
 7053SOL     OW22057   0.546   3.156   4.844
 7053SOL    HW122058   0.605   3.153   4.924
 7053SOL    HW222059   0.571   3.081   4.782
 7054SOL     OW22060   0.795   6.811   0.431
 7054SOL    HW122061   0.842   6.725   0.449
 7054SOL    HW222062   0.735   6.800   0.352
 7055SOL     OW22063   2.853   6.718   5.826
 7055SOL    HW122064   2.897   6.691   5.912
 7055SOL    HW222065   2.800   6.802   5.841
 7056SOL     OW22066   6.883   5.694   2.243
 7056SOL    HW122067   6.843   5.775   2.200
 7056SOL    HW222068   6.817   5.656   2.308
 7057SOL     OW22069   1.190   5.460   4.047
 7057SOL    HW122070   1.263   5.522   4.076
 7057SOL    HW222071   1.227   5.368   4.034
 7058SOL     OW22072   6.048   5.324   5.920
 7058SOL    HW122073   6.060   5.423   5.911
 7058SOL    HW222074   5.970   5.305   5.979
 7059SOL     OW22075   6.779   0.906   4.004
 7059SOL    HW122076   6.741   0.991   3.969
 7059SOL    HW222077   6.877   0.902   3.986
 7060SOL     OW22078   4.164   0.014   1.843
 7060SOL    HW122079   4.117   6.953   1.826
 7060SOL    HW222080   4.233   0.001   1.914
 7061SOL     OW22081   1.465   3.019   3.799
 7061SOL    HW122082   1.399   2.952   3.765
 7061SOL    HW222083   1.443   3.110   3.763
 7062SOL     OW22084   4.348   1.155   5.322
 7062SOL    HW122085   4.418   1.084   5.321
 7062SOL    HW222086   4.262   1.119   5.359
 7063SOL     OW22087   1.035   0.153   1.883
 7063SOL    HW122088   1.035   0.252   1.866
 7063SOL    HW222089   1.059   0.105   1.798
 7064SOL     OW22090   3.742   2.203   1.445
 7064SOL    HW122091   3.799   2.121   1.440
 7064SOL    HW222092   3.759   2.250   1.531
 7065SOL     OW22093   4.078   3.942   6.267
 7065SOL    HW122094   3.979   3.928   6.262
 7065SOL    HW222095   4.104   3.967   6.360
 7066SOL     OW22096   4.715   0.476   0.625
 7066SOL    HW122097   4.778   0.554   0.634
 7066SOL    HW222098   4.749   0.400   0.680
 7067SOL     OW22099   2.206   1.693   4.871
 7067SOL    HW122100   2.220   1.619   4.937
 7067SOL    HW222101   2.199   1.655   4.779
 7068SOL     OW22102   0.189   4.075   3.948
 7068SOL    HW122103   0.155   4.004   3.886
 7068SOL    HW222104   0.261   4.038   4.006
 7069SOL     OW22105   5.550   1.204   4.778
 7069SOL    HW122106   5.518   1.265   4.851
 7069SOL    HW222107   5.471   1.161   4.734
 7070SOL     OW22108   6.938   6.187   4.994
 7070SOL    HW122109   6.851   6.140   5.009
 7070SOL    HW222110   6.966   6.175   4.899
 7071SOL     OW22111   2.332   5.897   6.788
 7071SOL    HW122112   2.287   5.899   6.699
 7071SOL    HW222113   2.397   5.821   6.791
 7072SOL     OW22114   1.484   5.805   6.813
 7072SOL    HW122115   1.496   5.766   6.722
 7072SOL    HW222116   1.485   5.905   6.807
 7073SOL     OW22117   5.011   6.989   4.581
 7073SOL    HW122118   4.928   6.990   4.526
 7073SOL    HW222119   5.088   6.961   4.524
 7074SOL     OW22120   4.586   2.464   2.618
 7074SOL    HW122121   4.494   2.448   2.656
 7074SOL    HW222122   4.580   2.467   2.518
 7075SOL     OW22123   1.808   4.516   4.852
 7075SOL    HW122124   1.900   4.524   4.815
 7075SOL    HW222125   1.801   4.435   4.910
 7076SOL     OW22126   5.773   1.692   6.523
 7076SOL    HW122127   5.873   1.688   6.531
 7076SOL    HW222128   5.745   1.785   6.503
 7077SOL     OW22129   2.502   4.576   4.269
 7077SOL    HW122130   2.476   4.534   4.182
 7077SOL    HW222131   2.499   4.676   4.260
 7078SOL     OW22132   6.956   6.868   1.829
 7078SOL    HW122133   6.909   6.792   1.783
 7078SOL    HW222134   0.027   6.862   1.812
 7079SOL     OW22135   6.629   6.468   4.432
 7079SOL    HW122136   6.687   6.549   4.425
 7079SOL    HW222137   6.537   6.496   4.460
 7080SOL     OW22138   2.850   1.560   4.724
 7080SOL    HW122139   2.864   1.538   4.628
 7080SOL    HW222140   2.758   1.596   4.737
 7081SOL     OW22141   2.948   6.897   6.984
 7081SOL    HW122142   2.930   6.911   0.055
 7081SOL    HW222143   3.038   6.933   6.961
 7082SOL     OW22144   6.522   4.129   6.479
 7082SOL    HW122145   6.423   4.141   6.485
 7082SOL    HW222146   6.544   4.032   6.472
 7083SOL     OW22147   2.806   0.300   0.359
 7083SOL    HW122148   2.904   0.301   0.340
 7083SOL    HW222149   2.789   0.345   0.447
 7084SOL     OW22150   0.353   6.042   6.003
 7084SOL    HW122151   0.286   5.985   6.050
 7084SOL    HW222152   0.311   6.086   5.924
 7085SOL     OW22153   0.774   1.834   1.983
 7085SOL    HW122154   0.836   1.906   1.951
 7085SOL    HW222155   0.735   1.860   2.071
 7086SOL     OW22156   5.289   0.474   5.439
 7086SOL    HW122157   5.273   0.386   5.393
 7086SOL    HW222158   5.325   0.540   5.373
 7087SOL     OW22159   6.229   3.020   4.047
 7087SOL    HW122160   6.167   3.099   4.044
 7087SOL    HW222161   6.178   2.939   4.073
 7088SOL     OW22162   5.792   2.687   3.614
 7088SOL    HW122163   5.810   2.661   3.519
 7088SOL    HW222164   5.818   2.783   3.628
 7089SOL     OW22165   3.184   2.143   4.560
 7089SOL    HW122166   3.223   2.158   4.469
 7089SOL    HW222167   3.092   2.181   4.563
 7090SOL     OW22168   2.242   0.441   6.960
 7090SOL    HW122169   2.247   0.344   6.981
 7090SOL    HW222170   2.225   0.454   6.863
 7091SOL     OW22171   0.652   1.682   6.851
 7091SOL    HW122172   0.611   1.759   6.803
 7091SOL    HW222173   0.699   1.623   6.787
 7092SOL     OW22174   4.604   2.852   5.676
 7092SOL    HW122175   4.638   2.942   5.701
 7092SOL    HW222176   4.529   2.861   5.611
 7093SOL     OW22177   2.985   3.822   3.076
 7093SOL    HW122178   2.900   3.867   3.048
 7093SOL    HW222179   3.059   3.849   3.014
 7094SOL     OW22180   6.804   6.137   5.960
 7094SOL    HW122181   6.883   6.188   5.927
 7094SOL    HW222182   6.722   6.169   5.913
 7095SOL     OW22183   3.749   4.113   5.797
 7095SOL    HW122184   3.804   4.071   5.725
 7095SOL    HW222185   3.736   4.048   5.872
 7096SOL     OW22186   6.361   0.480   3.905
 7096SOL    HW122187   6.377   0.429   3.820
 7096SOL    HW222188   6.417   0.563   3.904
 7097SOL     OW22189   5.950   2.000   1.353
 7097SOL    HW122190   5.910   1.937   1.286
 7097SOL    HW222191   5.993   2.076   1.306
 7098SOL     OW22192   1.585   6.328   5.125
 7098SOL    HW122193   1.499   6.288   5.094
 7098SOL    HW222194   1.568   6.388   5.203
 7099SOL     OW22195   3.443   1.252   5.369
 7099SOL    HW122196   3.352   1.290   5.384
 7099SOL    HW222197   3.453   1.226   5.273
 7100SOL     OW22198   5.241   2.843   1.191
 7100SOL    HW122199   5.150   2.804   1.173
 7100SOL    HW222200   5.267   2.902   1.114
 7101SOL     OW22201   2.180   0.683   4.631
 7101SOL    HW122202   2.247   0.752   4.657
 7101SOL    HW222203   2.198   0.598   4.679
 7102SOL     OW22204   5.327   6.811   0.753
 7102SOL    HW122205   5.328   6.817   0.653
 7102SOL    HW222206   5.408   6.761   0.784
 7103SOL     OW22207   4.945   4.536   1.651
 7103SOL    HW122208   4.870   4.476   1.624
 7103SOL    HW222209   4.940   4.553   1.750
 7104SOL     OW22210   0.234   2.646   3.869
 7104SOL    HW122211   0.313   2.584   3.860
 7104SOL    HW222212   0.189   2.629   3.956
 7105SOL     OW22213   2.928   2.771   5.568
 7105SOL    HW122214   2.844   2.821   5.548
 7105SOL    HW222215   2.974   2.746   5.483
 7106SOL     OW22216   4.010   3.817   2.971
 7106SOL    HW122217   3.981   3.784   2.881
 7106SOL    HW222218   4.094   3.871   2.962
 7107SOL     OW22219   4.455   1.351   0.656
 7107SOL    HW122220   4.442   1.438   0.705
 7107SOL    HW222221   4.444   1.275   0.720
 7108SOL     OW22222   4.450   5.785   3.047
 7108SOL    HW122223   4.478   5.829   3.132
 7108SOL    HW222224   4.518   5.716   3.021
 7109SOL     OW22225   3.208   0.477   5.997
 7109SOL    HW122226   3.193   0.421   5.916
 7109SOL    HW222227   3.232   0.570   5.969
 7110SOL     OW22228   3.124   5.752   4.287
 7110SOL    HW122229   3.056   5.816   4.251
 7110SOL    HW222230   3.216   5.787   4.268
 7111SOL     OW22231   0.903   2.302   4.942
 7111SOL    HW122232   0.844   2.375   4.976
 7111SOL    HW222233   0.969   2.276   5.013
 7112SOL     OW22234   1.746   5.028   4.581
 7112SOL    HW122235   1.813   4.968   4.536
 7112SOL    HW222236   1.710   5.093   4.513
 7113SOL     OW22237   4.242   3.589   5.153
 7113SOL    HW122238   4.330   3.620   5.188
 7113SOL    HW222239   4.255   3.507   5.098
 7114SOL     OW22240   4.207   6.505   1.616
 7114SOL    HW122241   4.288   6.543   1.660
 7114SOL    HW222242   4.202   6.538   1.522
 7115SOL     OW22243   5.655   2.785   1.309
 7115SOL    HW122244   5.653   2.875   1.267
 7115SOL    HW222245   5.649   2.715   1.238
 7116SOL     OW22246   6.404   3.675   3.530
 7116SOL    HW122247   6.488   3.695   3.478
 7116SOL    HW222248   6.356   3.760   3.550
 7117SOL     OW22249   0.608   6.253   5.069
 7117SOL    HW122250   0.568   6.180   5.124
 7117SOL    HW222251   0.670   6.308   5.125
 7118SOL     OW22252   2.700   4.147   1.004
 7118SOL    HW122253   2.799   4.147   1.016
 7118SOL    HW222254   2.663   4.057   1.029
 7119SOL     OW22255   5.205   2.087   3.488
 7119SOL    HW122256   5.210   2.055   3.583
 7119SOL    HW222257   5.275   2.040   3.434
 7120SOL     OW22258   3.536   1.370   2.119
 7120SOL    HW122259   3.557   1.461   2.084
 7120SOL    HW222260   3.515   1.376   2.217
 7121SOL     OW22261   1.338   6.880   3.355
 7121SOL    HW122262   1.349   6.907   3.450
 7121SOL    HW222263   1.369   6.955   3.296
 7122SOL     OW22264   0.711   0.049   5.761
 7122SOL    HW122265   0.743   0.056   5.667
 7122SOL    HW222266   0.672   6.984   5.775
 7123SOL     OW22267   1.686   4.210   3.417
 7123SOL    HW122268   1.656   4.233   3.324
 7123SOL    HW222269   1.661   4.285   3.479
 7124SOL     OW22270   6.869   2.358   1.228
 7124SOL    HW122271   6.824   2.446   1.239
 7124SOL    HW222272   6.826   2.291   1.290
 7125SOL     OW22273   0.049   6.752   1.259
 7125SOL    HW122274   0.023   6.717   1.350
 7125SOL    HW222275   0.085   6.678   1.204
 7126SOL     OW22276   3.544   5.007   0.097
 7126SOL    HW122277   3.497   5.047   0.176
 7126SOL    HW222278   3.641   4.993   0.120
 7127SOL     OW22279   1.301   5.178   5.267
 7127SOL    HW122280   1.314   5.219   5.177
 7127SOL    HW222281   1.349   5.231   5.336
 7128SOL     OW22282   2.885   5.045   0.299
 7128SOL    HW122283   2.853   5.063   0.206
 7128SOL    HW222284   2.810   5.006   0.352
 7129SOL     OW22285   2.193   1.912   6.848
 7129SOL    HW122286   2.203   2.004   6.887
 7129SOL    HW222287   2.250   1.904   6.766
 7130SOL     OW22288   4.406   6.150   5.055
 7130SOL    HW122289   4.355   6.231   5.084
 7130SOL    HW222290   4.431   6.095   5.134
 7131SOL     OW22291   2.684   0.418   0.873
 7131SOL    HW122292   2.689   0.449   0.967
 7131SOL    HW222293   2.641   0.327   0.869
 7132SOL     OW22294   3.724   4.192   0.056
 7132SOL    HW122295   3.637   4.182   0.105
 7132SOL    HW222296   3.799   4.193   0.122
 7133SOL     OW22297   4.960   5.777   6.085
 7133SOL    HW122298   4.974   5.773   6.183
 7133SOL    HW222299   5.035   5.827   6.042
 7134SOL     OW22300   5.242   7.024   2.050
 7134SOL    HW122301   5.259   0.019   1.954
 7134SOL    HW222302   5.322   0.023   2.105
 7135SOL     OW22303   1.512   3.028   3.114
 7135SOL    HW122304   1.562   3.113   3.100
 7135SOL    HW222305   1.414   3.047   3.121
 7136SOL     OW22306   2.641   3.134   1.430
 7136SOL    HW122307   2.592   3.111   1.514
 7136SOL    HW222308   2.738   3.150   1.452
 7137SOL     OW22309   3.756   0.072   6.391
 7137SOL    HW122310   3.670   0.107   6.427
 7137SOL    HW222311   3.774   7.008   6.430
 7138SOL     OW22312   2.028   2.700   0.158
 7138SOL    HW122313   1.962   2.669   0.225
 7138SOL    HW222314   1.989   2.777   0.107
 7139SOL     OW22315   5.760   4.172   1.512
 7139SOL    HW122316   5.805   4.207   1.595
 7139SOL    HW222317   5.693   4.102   1.537
 7140SOL     OW22318   6.054   3.930   3.298
 7140SOL    HW122319   6.014   3.843   3.328
 7140SOL    HW222320   5.982   3.989   3.263
 7141SOL     OW22321   3.867   5.690   1.284
 7141SOL    HW122322   3.856   5.754   1.361
 7141SOL    HW222323   3.872   5.741   1.199
 7142SOL     OW22324   3.977   0.392   3.542
 7142SOL    HW122325   4.001   0.461   3.473
 7142SOL    HW222326   3.902   0.426   3.599
 7143SOL     OW22327   1.097   2.339   6.139
 7143SOL    HW122328   1.040   2.261   6.112
 7143SOL    HW222329   1.115   2.396   6.059
 7144SOL     OW22330   1.928   2.776   1.972
 7144SOL    HW122331   2.012   2.775   2.026
 7144SOL    HW222332   1.849   2.769   2.033
 7145SOL     OW22333   4.626   0.447   0.340
 7145SOL    HW122334   4.638   0.462   0.439
 7145SOL    HW222335   4.674   0.519   0.290
 7146SOL     OW22336   2.180   0.284   0.831
 7146SOL    HW122337   2.141   0.359   0.884
 7146SOL    HW222338   2.270   0.260   0.868
 7147SOL     OW22339   0.113   6.891   3.143
 7147SOL    HW122340   0.115   6.834   3.225
 7147SOL    HW222341   0.073   6.839   3.067
 7148SOL     OW22342   0.638   5.756   0.873
 7148SOL    HW122343   0.600   5.847   0.863
 7148SOL    HW222344   0.678   5.726   0.786
 7149SOL     OW22345   5.866   6.164   3.123
 7149SOL    HW122346   5.855   6.263   3.114
 7149SOL    HW222347   5.790   6.119   3.076
 7150SOL     OW22348   3.178   2.444   1.702
 7150SOL    HW122349   3.173   2.390   1.618
 7150SOL    HW222350   3.091   2.437   1.751
 7151SOL     OW22351   2.348   5.808   0.775
 7151SOL    HW122352   2.300   5.749   0.841
 7151SOL    HW222353   2.298   5.807   0.688
 7152SOL     OW22354   0.748   0.250   5.246
 7152SOL    HW122355   0.772   0.192   5.323
 7152SOL    HW222356   0.769   0.345   5.268
 7153SOL     OW22357   3.556   5.677   1.669
 7153SOL    HW122358   3.568   5.761   1.723
 7153SOL    HW222359   3.570   5.598   1.728
 7154SOL     OW22360   4.140   0.249   3.306
 7154SOL    HW122361   4.150   0.296   3.393
 7154SOL    HW222362   4.121   0.316   3.234
 7155SOL     OW22363   1.688   3.669   1.129
 7155SOL    HW122364   1.634   3.718   1.197
 7155SOL    HW222365   1.772   3.634   1.171
 7156SOL     OW22366   7.001   3.365   3.598
 7156SOL    HW122367   0.067   3.365   3.635
 7156SOL    HW222368   7.001   3.324   3.506
 7157SOL     OW22369   0.309   3.690   1.571
 7157SOL    HW122370   0.311   3.769   1.631
 7157SOL    HW222371   0.219   3.682   1.528
 7158SOL     OW22372   1.581   7.011   4.014
 7158SOL    HW122373   1.604   0.072   4.056
 7158SOL    HW222374   1.657   6.948   4.026
 7159SOL     OW22375   0.588   5.264   2.718
 7159SOL    HW122376   0.655   5.191   2.718
 7159SOL    HW222377   0.547   5.273   2.809
 7160SOL     OW22378   5.509   0.251   2.761
 7160SOL    HW122379   5.491   0.191   2.839
 7160SOL    HW222380   5.500   0.199   2.676
 7161SOL     OW22381   3.216   4.080   4.269
 7161SOL    HW122382   3.221   4.115   4.363
 7161SOL    HW222383   3.308   4.078   4.230
 7162SOL     OW22384   1.024   5.215   6.336
 7162SOL    HW122385   1.036   5.266   6.422
 7162SOL    HW222386   1.075   5.129   6.341
 7163SOL     OW22387   3.135   6.756   2.466
 7163SOL    HW122388   3.046   6.783   2.503
 7163SOL    HW222389   3.206   6.816   2.503
 7164SOL     OW22390   2.209   0.444   3.892
 7164SOL    HW122391   2.136   0.502   3.926
 7164SOL    HW222392   2.248   0.391   3.967
 7165SOL     OW22393   6.777   1.133   2.344
 7165SOL    HW122394   6.786   1.058   2.279
 7165SOL    HW222395   6.791   1.220   2.298
 7166SOL     OW22396   6.147   2.413   0.620
 7166SOL    HW122397   6.231   2.367   0.591
 7166SOL    HW222398   6.166   2.471   0.700
 7167SOL     OW22399   5.206   3.328   4.212
 7167SOL    HW122400   5.272   3.253   4.214
 7167SOL    HW222401   5.165   3.333   4.121
 7168SOL     OW22402   0.940   2.826   3.013
 7168SOL    HW122403   1.021   2.784   2.971
 7168SOL    HW222404   0.893   2.882   2.946
 7169SOL     OW22405   0.434   2.550   4.860
 7169SOL    HW122406   0.398   2.622   4.918
 7169SOL    HW222407   0.370   2.532   4.785
 7170SOL     OW22408   4.516   6.935   4.273
 7170SOL    HW122409   4.512   7.022   4.323
 7170SOL    HW222410   4.457   6.868   4.318
 7171SOL     OW22411   5.813   3.856   0.297
 7171SOL    HW122412   5.860   3.773   0.328
 7171SOL    HW222413   5.734   3.831   0.242
 7172SOL     OW22414   1.351   7.018   4.997
 7172SOL    HW122415   1.274   6.954   4.993
 7172SOL    HW222416   1.362   0.036   4.908
 7173SOL     OW22417   6.740   4.812   6.432
 7173SOL    HW122418   6.646   4.824   6.400
 7173SOL    HW222419   6.784   4.741   6.377
 7174SOL     OW22420   1.128   4.411   0.172
 7174SOL    HW122421   1.165   4.339   0.232
 7174SOL    HW222422   1.189   4.490   0.173
 7175SOL     OW22423   5.687   2.627   6.525
 7175SOL    HW122424   5.738   2.551   6.484
 7175SOL    HW222425   5.701   2.710   6.471
 7176SOL     OW22426   6.996   0.093   3.191
 7176SOL    HW122427   0.022   0.009   3.176
 7176SOL    HW222428   0.031   0.172   3.186
 7177SOL     OW22429   1.571   5.010   4.203
 7177SOL    HW122430   1.520   5.016   4.289
 7177SOL    HW222431   1.666   5.036   4.219
 7178SOL     OW22432   1.969   1.847   5.988
 7178SOL    HW122433   1.931   1.840   5.895
 7178SOL    HW222434   1.912   1.909   6.042
 7179SOL     OW22435   2.130   3.783   4.626
 7179SOL    HW122436   2.124   3.689   4.590
 7179SOL    HW222437   2.157   3.780   4.722
 7180SOL     OW22438   2.398   5.216   0.299
 7180SOL    HW122439   2.336   5.289   0.325
 7180SOL    HW222440   2.376   5.186   0.206
 7181SOL     OW22441   2.020   6.615   0.359
 7181SOL    HW122442   1.922   6.634   0.368
 7181SOL    HW222443   2.034   6.554   0.281
 7182SOL     OW22444   0.530   2.302   4.412
 7182SOL    HW122445   0.575   2.370   4.471
 7182SOL    HW222446   0.599   2.252   4.361
 7183SOL     OW22447   2.287   6.141   6.915
 7183SOL    HW122448   2.366   6.140   6.976
 7183SOL    HW222449   2.275   6.050   6.874
 7184SOL     OW22450   0.017   0.753   3.742
 7184SOL    HW122451   0.015   0.781   3.838
 7184SOL    HW222452   0.008   0.834   3.684
 7185SOL     OW22453   5.939   0.160   5.015
 7185SOL    HW122454   5.975   0.096   5.083
 7185SOL    HW222455   5.979   0.251   5.030
 7186SOL     OW22456   6.783   1.730   0.461
 7186SOL    HW122457   6.779   1.804   0.528
 7186SOL    HW222458   6.873   1.731   0.416
 7187SOL     OW22459   3.921   4.699   6.329
 7187SOL    HW122460   3.856   4.768   6.295
 7187SOL    HW222461   3.870   4.625   6.373
 7188SOL     OW22462   6.387   0.933   0.642
 7188SOL    HW122463   6.470   0.932   0.586
 7188SOL    HW222464   6.329   1.010   0.615
 7189SOL     OW22465   0.197   1.313   5.958
 7189SOL    HW122466   0.175   1.226   5.913
 7189SOL    HW222467   0.123   1.378   5.944
 7190SOL     OW22468   0.527   3.560   2.363
 7190SOL    HW122469   0.441   3.523   2.326
 7190SOL    HW222470   0.530   3.544   2.461
 7191SOL     OW22471   0.777   4.369   2.804
 7191SOL    HW122472   0.713   4.349   2.878
 7191SOL    HW222473   0.850   4.300   2.804
 7192SOL     OW22474   2.952   4.702   5.920
 7192SOL    HW122475   2.886   4.627   5.919
 7192SOL    HW222476   3.031   4.675   5.974
 7193SOL     OW22477   0.884   2.385   2.321
 7193SOL    HW122478   0.965   2.442   2.304
 7193SOL    HW222479   0.904   2.291   2.293
 7194SOL     OW22480   2.608   1.811   0.317
 7194SOL    HW122481   2.696   1.851   0.342
 7194SOL    HW222482   2.545   1.884   0.291
 7195SOL     OW22483   0.111   4.170   6.530
 7195SOL    HW122484   0.025   4.134   6.491
 7195SOL    HW222485   0.090   4.223   6.612
 7196SOL     OW22486   3.488   4.141   0.935
 7196SOL    HW122487   3.514   4.194   0.854
 7196SOL    HW222488   3.411   4.184   0.980
 7197SOL     OW22489   0.511   2.572   6.178
 7197SOL    HW122490   0.507   2.616   6.088
 7197SOL    HW222491   0.604   2.579   6.214
 7198SOL     OW22492   6.938   0.667   0.537
 7198SOL    HW122493   6.966   0.711   0.622
 7198SOL    HW222494   7.007   0.599   0.511
 7199SOL     OW22495   1.870   0.746   2.215
 7199SOL    HW122496   1.918   0.698   2.288
 7199SOL    HW222497   1.777   0.767   2.245
 7200SOL     OW22498   2.341   2.450   6.831
 7200SOL    HW122499   2.364   2.407   6.743
 7200SOL    HW222500   2.261   2.405   6.870
 7201SOL     OW22501   0.999   5.456   4.932
 7201SOL    HW122502   0.929   5.396   4.972
 7201SOL    HW222503   0.984   5.464   4.834
 7202SOL     OW22504   4.983   7.013   6.965
 7202SOL    HW122505   4.982   0.067   7.023
 7202SOL    HW222506   4.936   6.938   7.011
 7203SOL     OW22507   0.605   1.595   1.048
 7203SOL    HW122508   0.549   1.659   0.996
 7203SOL    HW222509   0.559   1.574   1.135
 7204SOL     OW22510   0.629   6.789   5.429
 7204SOL    HW122511   0.689   6.836   5.364
 7204SOL    HW222512   0.677   6.711   5.469
 7205SOL     OW22513   1.379   5.256   4.139
 7205SOL    HW122514   1.429   5.170   4.133
 7205SOL    HW222515   1.411   5.308   4.218
 7206SOL     OW22516   1.273   0.293   1.701
 7206SOL    HW122517   1.311   0.217   1.754
 7206SOL    HW222518   1.218   0.351   1.762
 7207SOL     OW22519   3.798   0.221   2.731
 7207SOL    HW122520   3.744   0.264   2.658
 7207SOL    HW222521   3.778   0.123   2.732
 7208SOL     OW22522   4.133   0.134   2.765
 7208SOL    HW122523   4.224   0.121   2.804
 7208SOL    HW222524   4.087   0.210   2.811
 7209SOL     OW22525   2.860   4.012   1.690
 7209SOL    HW122526   2.955   3.991   1.668
 7209SOL    HW222527   2.800   3.951   1.638
 7210SOL     OW22528   4.638   0.880   3.945
 7210SOL    HW122529   4.616   0.820   3.868
 7210SOL    HW222530   4.598   0.971   3.929
 7211SOL     OW22531   3.228   6.570   4.089
 7211SOL    HW122532   3.151   6.634   4.095
 7211SOL    HW222533   3.308   6.617   4.052
 7212SOL     OW22534   0.425   6.422   4.619
 7212SOL    HW122535   0.386   6.335   4.589
 7212SOL    HW222536   0.360   6.469   4.679
 7213SOL     OW22537   5.094   6.136   0.331
 7213SOL    HW122538   5.061   6.092   0.415
 7213SOL    HW222539   5.017   6.179   0.284
 7214SOL     OW22540   6.753   5.982   5.680
 7214SOL    HW122541   6.684   5.968   5.751
 7214SOL    HW222542   6.833   6.028   5.719
 7215SOL     OW22543   6.900   4.189   5.112
 7215SOL    HW122544   6.901   4.104   5.060
 7215SOL    HW222545   6.886   4.168   5.209
 7216SOL     OW22546   3.586   6.457   0.108
 7216SOL    HW122547   3.585   6.413   0.198
 7216SOL    HW222548   3.660   6.419   0.053
 7217SOL     OW22549   2.325   4.278   2.890
 7217SOL    HW122550   2.423   4.278   2.910
 7217SOL    HW222551   2.281   4.355   2.937
 7218SOL     OW22552   5.148   2.925   5.123
 7218SOL    HW122553   5.126   2.900   5.028
 7218SOL    HW222554   5.237   2.888   5.147
 7219SOL     OW22555   4.636   0.468   3.738
 7219SOL    HW122556   4.619   0.396   3.806
 7219SOL    HW222557   4.579   0.452   3.658
 7220SOL     OW22558   0.667   5.331   5.034
 7220SOL    HW122559   0.617   5.418   5.035
 7220SOL    HW222560   0.654   5.284   5.121
 7221SOL     OW22561   3.629   6.101   4.849
 7221SOL    HW122562   3.624   6.194   4.887
 7221SOL    HW222563   3.724   6.078   4.830
 7222SOL     OW22564   5.859   0.551   3.435
 7222SOL    HW122565   5.912   0.473   3.466
 7222SOL    HW222566   5.772   0.554   3.486
 7223SOL     OW22567   2.713   1.230   1.249
 7223SOL    HW122568   2.697   1.229   1.347
 7223SOL    HW222569   2.762   1.313   1.223
 7224SOL     OW22570   5.478   1.927   4.116
 7224SOL    HW122571   5.519   1.926   4.208
 7224SOL    HW222572   5.494   2.015   4.073
 7225SOL     OW22573   0.891   5.849   0.254
 7225SOL    HW122574   0.801   5.808   0.244
 7225SOL    HW222575   0.961   5.783   0.227
 7226SOL     OW22576   6.693   1.248   0.703
 7226SOL    HW122577   6.727   1.161   0.667
 7226SOL    HW222578   6.727   1.323   0.646
 7227SOL     OW22579   1.320   1.162   1.022
 7227SOL    HW122580   1.275   1.164   0.933
 7227SOL    HW222581   1.419   1.155   1.009
 7228SOL     OW22582   1.086   1.630   2.741
 7228SOL    HW122583   1.096   1.674   2.652
 7228SOL    HW222584   0.992   1.597   2.753
 7229SOL     OW22585   1.632   5.907   5.899
 7229SOL    HW122586   1.694   5.854   5.958
 7229SOL    HW222587   1.569   5.845   5.853
 7230SOL     OW22588   4.253   5.643   4.416
 7230SOL    HW122589   4.158   5.616   4.430
 7230SOL    HW222590   4.313   5.578   4.462
 7231SOL     OW22591   4.521   0.778   0.308
 7231SOL    HW122592   4.469   0.819   0.232
 7231SOL    HW222593   4.458   0.746   0.378
 7232SOL     OW22594   5.216   5.659   3.085
 7232SOL    HW122595   5.282   5.651   3.010
 7232SOL    HW222596   5.124   5.671   3.046
 7233SOL     OW22597   0.091   1.566   3.928
 7233SOL    HW122598   7.022   1.538   3.940
 7233SOL    HW222599   0.119   1.550   3.834
 7234SOL     OW22600   5.811   3.283   3.422
 7234SOL    HW122601   5.801   3.215   3.350
 7234SOL    HW222602   5.883   3.253   3.486
 7235SOL     OW22603   6.593   4.010   2.022
 7235SOL    HW122604   6.662   4.082   2.011
 7235SOL    HW222605   6.639   3.922   2.037
 7236SOL     OW22606   2.009   2.239   1.628
 7236SOL    HW122607   2.023   2.225   1.726
 7236SOL    HW222608   1.940   2.310   1.614
 7237SOL     OW22609   4.591   1.000   4.483
 7237SOL    HW122610   4.635   0.973   4.398
 7237SOL    HW222611   4.659   1.040   4.545
 7238SOL     OW22612   3.784   1.488   0.727
 7238SOL    HW122613   3.789   1.392   0.700
 7238SOL    HW222614   3.743   1.495   0.818
 7239SOL     OW22615   1.292   2.715   2.533
 7239SOL    HW122616   1.276   2.807   2.568
 7239SOL    HW222617   1.204   2.673   2.510
 7240SOL     OW22618   1.776   5.685   6.051
 7240SOL    HW122619   1.789   5.628   5.969
 7240SOL    HW222620   1.812   5.637   6.131
 7241SOL     OW22621   1.953   1.015   0.156
 7241SOL    HW122622   1.998   0.941   0.206
 7241SOL    HW222623   1.854   1.007   0.166
 7242SOL     OW22624   6.446   6.035   0.463
 7242SOL    HW122625   6.374   6.086   0.510
 7242SOL    HW222626   6.523   6.097   0.444
 7243SOL     OW22627   6.415   4.883   6.342
 7243SOL    HW122628   6.366   4.941   6.277
 7243SOL    HW222629   6.398   4.915   6.435
 7244SOL     OW22630   5.695   1.330   1.605
 7244SOL    HW122631   5.696   1.417   1.655
 7244SOL    HW222632   5.656   1.258   1.663
 7245SOL     OW22633   1.125   2.049   4.599
 7245SOL    HW122634   1.059   2.114   4.638
 7245SOL    HW222635   1.076   1.972   4.559
 7246SOL     OW22636   6.233   0.522   4.307
 7246SOL    HW122637   6.181   0.547   4.225
 7246SOL    HW222638   6.327   0.556   4.298
 7247SOL     OW22639   2.847   6.869   4.239
 7247SOL    HW122640   2.838   6.795   4.306
 7247SOL    HW222641   2.811   6.954   4.278
 7248SOL     OW22642   2.582   1.752   3.521
 7248SOL    HW122643   2.680   1.769   3.509
 7248SOL    HW222644   2.561   1.660   3.487
 7249SOL     OW22645   6.449   4.255   2.400
 7249SOL    HW122646   6.495   4.276   2.314
 7249SOL    HW222647   6.516   4.231   2.469
 7250SOL     OW22648   4.399   6.972   6.108
 7250SOL    HW122649   4.384   0.016   6.039
 7250SOL    HW222650   4.490   6.983   6.148
 7251SOL     OW22651   0.692   6.767   5.741
 7251SOL    HW122652   0.611   6.765   5.684
 7251SOL    HW222653   0.688   6.693   5.808
 7252SOL     OW22654   3.145   3.305   2.810
 7252SOL    HW122655   3.049   3.329   2.824
 7252SOL    HW222656   3.151   3.233   2.740
 7253SOL     OW22657   2.426   6.602   6.136
 7253SOL    HW122658   2.466   6.512   6.152
 7253SOL    HW222659   2.419   6.617   6.037
 7254SOL     OW22660   4.353   4.926   3.721
 7254SOL    HW122661   4.308   4.895   3.804
 7254SOL    HW222662   4.452   4.916   3.730
 7255SOL     OW22663   3.328   3.409   0.882
 7255SOL    HW122664   3.325   3.468   0.801
 7255SOL    HW222665   3.235   3.395   0.916
 7256SOL     OW22666   4.293   4.758   4.291
 7256SOL    HW122667   4.203   4.799   4.308
 7256SOL    HW222668   4.346   4.758   4.375
 7257SOL     OW22669   5.404   2.711   3.975
 7257SOL    HW122670   5.457   2.627   3.963
 7257SOL    HW222671   5.455   2.788   3.937
 7258SOL     OW22672   3.990   1.463   3.304
 7258SOL    HW122673   3.916   1.402   3.279
 7258SOL    HW222674   3.993   1.474   3.403
 7259SOL     OW22675   2.886   3.384   0.860
 7259SOL    HW122676   2.862   3.330   0.779
 7259SOL    HW222677   2.870   3.330   0.943
 7260SOL     OW22678   3.462   1.780   1.871
 7260SOL    HW122679   3.388   1.823   1.924
 7260SOL    HW222680   3.518   1.850   1.828
 7261SOL     OW22681   1.437   2.657   1.554
 7261SOL    HW122682   1.449   2.599   1.633
 7261SOL    HW222683   1.340   2.681   1.544
 7262SOL     OW22684   5.398   1.618   5.569
 7262SOL    HW122685   5.314   1.566   5.583
 7262SOL    HW222686   5.474   1.572   5.613
 7263SOL     OW22687   0.643   6.400   1.061
 7263SOL    HW122688   0.697   6.324   1.098
 7263SOL    HW222689   0.697   6.446   0.990
 7264SOL     OW22690   5.705   1.119   5.849
 7264SOL    HW122691   5.676   1.056   5.921
 7264SOL    HW222692   5.625   1.162   5.808
 7265SOL     OW22693   5.317   5.372   6.014
 7265SOL    HW122694   5.401   5.318   6.013
 7265SOL    HW222695   5.337   5.463   6.050
 7266SOL     OW22696   5.725   0.159   1.313
 7266SOL    HW122697   5.637   0.176   1.269
 7266SOL    HW222698   5.786   0.113   1.250
 7267SOL     OW22699   6.515   6.075   5.598
 7267SOL    HW122700   6.517   6.146   5.528
 7267SOL    HW222701   6.609   6.044   5.616
 7268SOL     OW22702   5.381   4.969   3.300
 7268SOL    HW122703   5.351   5.016   3.383
 7268SOL    HW222704   5.307   4.970   3.232
 7269SOL     OW22705   6.759   6.209   1.107
 7269SOL    HW122706   6.750   6.246   1.200
 7269SOL    HW222707   6.805   6.120   1.111
 7270SOL     OW22708   0.700   3.138   5.064
 7270SOL    HW122709   0.763   3.061   5.063
 7270SOL    HW222710   0.637   3.129   5.141
 7271SOL     OW22711   0.404   6.050   3.868
 7271SOL    HW122712   0.502   6.030   3.866
 7271SOL    HW222713   0.384   6.107   3.947
 7272SOL     OW22714   5.666   5.645   2.354
 7272SOL    HW122715   5.749   5.603   2.392
 7272SOL    HW222716   5.617   5.693   2.427
 7273SOL     OW22717   5.561   4.269   1.943
 7273SOL    HW122718   5.601   4.183   1.974
 7273SOL    HW222719   5.569   4.275   1.843
 7274SOL     OW22720   1.017   5.651   0.023
 7274SOL    HW122721   1.025   5.561   7.007
 7274SOL    HW222722   0.943   5.702   7.005
 7275SOL     OW22723   6.674   0.439   2.960
 7275SOL    HW122724   6.745   0.411   3.025
 7275SOL    HW222725   6.608   0.365   2.949
 7276SOL     OW22726   3.402   1.812   2.600
 7276SOL    HW122727   3.441   1.904   2.598
 7276SOL    HW222728   3.463   1.748   2.553
 7277SOL     OW22729   4.601   0.861   4.211
 7277SOL    HW122730   4.502   0.867   4.227
 7277SOL    HW222731   4.619   0.862   4.113
 7278SOL     OW22732   3.325   2.344   1.410
 7278SOL    HW122733   3.235   2.314   1.441
 7278SOL    HW222734   3.390   2.335   1.485
 7279SOL     OW22735   4.421   3.367   6.533
 7279SOL    HW122736   4.460   3.276   6.544
 7279SOL    HW222737   4.466   3.430   6.597
 7280SOL     OW22738   0.215   1.462   3.698
 7280SOL    HW122739   0.309   1.492   3.686
 7280SOL    HW222740   0.197   1.385   3.637
 7281SOL     OW22741   1.742   0.432   0.263
 7281SOL    HW122742   1.711   0.363   0.328
 7281SOL    HW222743   1.667   0.496   0.244
 7282SOL     OW22744   5.932   6.795   1.524
 7282SOL    HW122745   5.984   6.876   1.497
 7282SOL    HW222746   5.925   6.792   1.624
 7283SOL     OW22747   3.325   0.214   2.058
 7283SOL    HW122748   3.337   0.131   2.112
 7283SOL    HW222749   3.399   0.222   1.991
 7284SOL     OW22750   0.041   2.149   5.023
 7284SOL    HW122751   0.107   2.104   4.964
 7284SOL    HW222752   0.077   2.154   5.116
 7285SOL     OW22753   5.667   3.530   1.425
 7285SOL    HW122754   5.643   3.610   1.371
 7285SOL    HW222755   5.618   3.450   1.389
 7286SOL     OW22756   1.040   0.401   1.297
 7286SOL    HW122757   0.952   0.401   1.249
 7286SOL    HW222758   1.058   0.493   1.333
 7287SOL     OW22759   6.734   3.098   4.820
 7287SOL    HW122760   6.740   3.145   4.731
 7287SOL    HW222761   6.672   3.020   4.812
 7288SOL     OW22762   1.287   2.061   1.712
 7288SOL    HW122763   1.358   2.024   1.772
 7288SOL    HW222764   1.314   2.152   1.681
 7289SOL     OW22765   5.937   1.759   3.425
 7289SOL    HW122766   6.021   1.734   3.473
 7289SOL    HW222767   5.892   1.677   3.391
 7290SOL     OW22768   2.696   0.900   5.175
 7290SOL    HW122769   2.650   0.984   5.205
 7290SOL    HW222770   2.751   0.864   5.250
 7291SOL     OW22771   2.385   0.246   0.585
 7291SOL    HW122772   2.308   0.309   0.592
 7291SOL    HW222773   2.356   0.154   0.614
 7292SOL     OW22774   3.154   0.028   2.672
 7292SOL    HW122775   3.232   6.997   2.648
 7292SOL    HW222776   3.085   7.000   2.720
 7293SOL     OW22777   1.333   1.766   5.967
 7293SOL    HW122778   1.298   1.816   5.887
 7293SOL    HW222779   1.325   1.823   6.048
 7294SOL     OW22780   3.225   4.360   0.768
 7294SOL    HW122781   3.268   4.332   0.682
 7294SOL    HW222782   3.146   4.418   0.748
 7295SOL     OW22783   6.792   4.660   0.945
 7295SOL    HW122784   6.809   4.703   0.857
 7295SOL    HW222785   6.877   4.656   0.998
 7296SOL     OW22786   4.397   5.309   2.147
 7296SOL    HW122787   4.358   5.346   2.064
 7296SOL    HW222788   4.329   5.310   2.220
 7297SOL     OW22789   2.351   6.830   1.361
 7297SOL    HW122790   2.359   6.875   1.450
 7297SOL    HW222791   2.441   6.813   1.323
 7298SOL     OW22792   5.272   4.806   6.390
 7298SOL    HW122793   5.321   4.852   6.464
 7298SOL    HW222794   5.283   4.858   6.306
 7299SOL     OW22795   0.938   1.916   1.025
 7299SOL    HW122796   1.020   1.956   1.064
 7299SOL    HW222797   0.888   1.866   1.095
 7300SOL     OW22798   0.531   6.807   2.908
 7300SOL    HW122799   0.613   6.778   2.958
 7300SOL    HW222800   0.463   6.734   2.911
 7301SOL     OW22801   6.235   2.362   5.631
 7301SOL    HW122802   6.234   2.299   5.554
 7301SOL    HW222803   6.178   2.442   5.611
 7302SOL     OW22804   0.284   2.284   6.084
 7302SOL    HW122805   0.191   2.249   6.090
 7302SOL    HW222806   0.311   2.292   5.988
 7303SOL     OW22807   3.752   1.243   6.544
 7303SOL    HW122808   3.669   1.193   6.520
 7303SOL    HW222809   3.728   1.319   6.605
 7304SOL     OW22810   2.775   5.561   1.684
 7304SOL    HW122811   2.785   5.544   1.586
 7304SOL    HW222812   2.723   5.645   1.698
 7305SOL     OW22813   5.012   2.275   1.463
 7305SOL    HW122814   5.006   2.183   1.425
 7305SOL    HW222815   4.928   2.296   1.513
 7306SOL     OW22816   3.274   1.673   1.714
 7306SOL    HW122817   3.194   1.734   1.719
 7306SOL    HW222818   3.343   1.704   1.779
 7307SOL     OW22819   4.226   6.763   2.655
 7307SOL    HW122820   4.192   6.710   2.733
 7307SOL    HW222821   4.268   6.702   2.588
 7308SOL     OW22822   6.366   1.615   4.514
 7308SOL    HW122823   6.407   1.531   4.480
 7308SOL    HW222824   6.330   1.600   4.606
 7309SOL     OW22825   3.611   6.908   1.268
 7309SOL    HW122826   3.515   6.898   1.295
 7309SOL    HW222827   3.670   6.877   1.343
 7310SOL     OW22828   1.964   3.747   0.220
 7310SOL    HW122829   1.956   3.830   0.276
 7310SOL    HW222830   1.884   3.689   0.234
 7311SOL     OW22831   1.703   0.997   0.240
 7311SOL    HW122832   1.625   0.936   0.227
 7311SOL    HW222833   1.699   1.038   0.331
 7312SOL     OW22834   1.465   2.058   4.912
 7312SOL    HW122835   1.558   2.072   4.947
 7312SOL    HW222836   1.412   2.006   4.979
 7313SOL     OW22837   2.042   1.270   0.269
 7313SOL    HW122838   2.042   1.219   0.183
 7313SOL    HW222839   2.136   1.280   0.302
 7314SOL     OW22840   6.959   4.212   5.890
 7314SOL    HW122841   0.007   4.182   5.949
 7314SOL    HW222842   6.987   4.202   5.794
 7315SOL     OW22843   4.806   5.836   1.828
 7315SOL    HW122844   4.870   5.912   1.820
 7315SOL    HW222845   4.765   5.817   1.739
 7316SOL     OW22846   3.254   2.985   6.606
 7316SOL    HW122847   3.187   2.936   6.662
 7316SOL    HW222848   3.267   2.936   6.519
 7317SOL     OW22849   3.963   1.359   1.849
 7317SOL    HW122850   3.896   1.433   1.856
 7317SOL    HW222851   3.944   1.306   1.766
 7318SOL     OW22852   2.931   0.373   2.388
 7318SOL    HW122853   2.964   0.385   2.294
 7318SOL    HW222854   2.831   0.384   2.390
 7319SOL     OW22855   5.766   2.751   7.005
 7319SOL    HW122856   5.714   2.781   6.925
 7319SOL    HW222857   5.863   2.775   6.993
 7320SOL     OW22858   0.263   3.328   1.082
 7320SOL    HW122859   0.275   3.386   1.162
 7320SOL    HW222860   0.191   3.367   1.024
 7321SOL     OW22861   2.372   6.632   5.873
 7321SOL    HW122862   2.442   6.617   5.803
 7321SOL    HW222863   2.287   6.587   5.846
 7322SOL     OW22864   6.729   2.057   3.056
 7322SOL    HW122865   6.691   2.116   2.985
 7322SOL    HW222866   6.680   1.970   3.056
 7323SOL     OW22867   2.362   3.114   1.346
 7323SOL    HW122868   2.444   3.094   1.400
 7323SOL    HW222869   2.303   3.176   1.398
 7324SOL     OW22870   5.485   4.782   2.165
 7324SOL    HW122871   5.526   4.712   2.107
 7324SOL    HW222872   5.556   4.834   2.211
 7325SOL     OW22873   2.800   0.185   5.424
 7325SOL    HW122874   2.762   0.240   5.498
 7325SOL    HW222875   2.814   0.243   5.344
 7326SOL     OW22876   3.629   6.001   5.560
 7326SOL    HW122877   3.660   5.947   5.638
 7326SOL    HW222878   3.640   6.098   5.581
 7327SOL     OW22879   6.040   2.869   4.727
 7327SOL    HW122880   5.948   2.837   4.703
 7327SOL    HW222881   6.090   2.796   4.773
 7328SOL     OW22882   4.626   6.975   5.545
 7328SOL    HW122883   4.681   6.973   5.461
 7328SOL    HW222884   4.573   6.890   5.551
 7329SOL     OW22885   0.663   3.866   0.552
 7329SOL    HW122886   0.591   3.931   0.578
 7329SOL    HW222887   0.645   3.833   0.460
 7330SOL     OW22888   2.496   3.153   0.746
 7330SOL    HW122889   2.481   3.199   0.833
 7330SOL    HW222890   2.423   3.087   0.730
 7331SOL     OW22891   5.939   6.386   1.520
 7331SOL    HW122892   5.925   6.287   1.533
 7331SOL    HW222893   5.976   6.425   1.604
 7332SOL     OW22894   2.790   4.026   6.434
 7332SOL    HW122895   2.765   4.068   6.521
 7332SOL    HW222896   2.709   3.989   6.390
 7333SOL     OW22897   6.107   3.192   2.898
 7333SOL    HW122898   6.179   3.202   2.966
 7333SOL    HW222899   6.106   3.272   2.838
 7334SOL     OW22900   2.158   5.820   6.290
 7334SOL    HW122901   2.249   5.853   6.315
 7334SOL    HW222902   2.146   5.826   6.191
 7335SOL     OW22903   6.974   2.905   2.897
 7335SOL    HW122904   6.958   2.809   2.918
 7335SOL    HW222905   0.024   2.939   2.952
 7336SOL     OW22906   2.230   6.474   1.691
 7336SOL    HW122907   2.214   6.538   1.616
 7336SOL    HW222908   2.310   6.418   1.671
 7337SOL     OW22909   2.236   3.265   1.533
 7337SOL    HW122910   2.199   3.192   1.590
 7337SOL    HW222911   2.230   3.352   1.582
 7338SOL     OW22912   5.228   1.951   1.788
 7338SOL    HW122913   5.237   1.915   1.881
 7338SOL    HW222914   5.166   1.892   1.735
 7339SOL     OW22915   6.566   0.284   5.104
 7339SOL    HW122916   6.567   0.237   5.192
 7339SOL    HW222917   6.471   0.291   5.071
 7340SOL     OW22918   3.804   1.271   0.161
 7340SOL    HW122919   3.781   1.241   0.069
 7340SOL    HW222920   3.720   1.294   0.211
 7341SOL     OW22921   0.624   4.844   4.600
 7341SOL    HW122922   0.578   4.777   4.541
 7341SOL    HW222923   0.664   4.797   4.678
 7342SOL     OW22924   6.515   6.530   0.035
 7342SOL    HW122925   6.568   6.577   6.991
 7342SOL    HW222926   6.430   6.579   0.052
 7343SOL     OW22927   4.841   4.102   1.316
 7343SOL    HW122928   4.871   4.180   1.370
 7343SOL    HW222929   4.920   4.056   1.276
 7344SOL     OW22930   2.108   0.554   6.119
 7344SOL    HW122931   2.136   0.625   6.182
 7344SOL    HW222932   2.079   0.595   6.032
 7345SOL     OW22933   4.844   6.622   5.651
 7345SOL    HW122934   4.858   6.524   5.636
 7345SOL    HW222935   4.917   6.658   5.709
 7346SOL     OW22936   3.773   4.508   1.388
 7346SOL    HW122937   3.775   4.557   1.475
 7346SOL    HW222938   3.855   4.451   1.380
 7347SOL     OW22939   6.880   3.253   0.940
 7347SOL    HW122940   6.955   3.231   0.877
 7347SOL    HW222941   6.880   3.352   0.959
 7348SOL     OW22942   1.439   3.264   3.683
 7348SOL    HW122943   1.437   3.272   3.583
 7348SOL    HW222944   1.486   3.343   3.722
 7349SOL     OW22945   4.387   1.899   1.157
 7349SOL    HW122946   4.335   1.983   1.144
 7349SOL    HW222947   4.401   1.854   1.069
 7350SOL     OW22948   1.479   3.650   4.589
 7350SOL    HW122949   1.449   3.744   4.604
 7350SOL    HW222950   1.549   3.626   4.656
 7351SOL     OW22951   4.652   6.251   4.906
 7351SOL    HW122952   4.663   6.243   4.807
 7351SOL    HW222953   4.564   6.211   4.933
 7352SOL     OW22954   1.249   2.960   2.652
 7352SOL    HW122955   1.178   3.003   2.707
 7352SOL    HW222956   1.339   2.992   2.682
 7353SOL     OW22957   0.163   0.089   6.241
 7353SOL    HW122958   0.212   0.011   6.279
 7353SOL    HW222959   0.087   0.114   6.302
 7354SOL     OW22960   1.070   1.777   6.968
 7354SOL    HW122961   0.991   1.758   7.026
 7354SOL    HW222962   1.141   1.709   6.986
 7355SOL     OW22963   1.484   1.366   0.803
 7355SOL    HW122964   1.503   1.275   0.841
 7355SOL    HW222965   1.522   1.436   0.863
 7356SOL     OW22966   4.608   3.155   6.242
 7356SOL    HW122967   4.598   3.227   6.173
 7356SOL    HW222968   4.678   3.090   6.212
 7357SOL     OW22969   4.343   0.584   1.889
 7357SOL    HW122970   4.366   0.492   1.919
 7357SOL    HW222971   4.420   0.623   1.839
 7358SOL     OW22972   1.272   2.790   2.255
 7358SOL    HW122973   1.195   2.853   2.254
 7358SOL    HW222974   1.332   2.812   2.333
 7359SOL     OW22975   2.775   2.717   6.974
 7359SOL    HW122976   2.865   2.694   6.936
 7359SOL    HW222977   2.785   2.788   0.017
 7360SOL     OW22978   3.124   3.637   5.959
 7360SOL    HW122979   3.105   3.546   5.922
 7360SOL    HW222980   3.134   3.702   5.884
 7361SOL     OW22981   4.251   0.572   2.337
 7361SOL    HW122982   4.193   0.492   2.323
 7361SOL    HW222983   4.339   0.543   2.374
 7362SOL     OW22984   0.965   5.872   4.710
 7362SOL    HW122985   0.930   5.779   4.701
 7362SOL    HW222986   0.899   5.928   4.759
 7363SOL     OW22987   3.980   1.543   0.983
 7363SOL    HW122988   3.930   1.616   1.028
 7363SOL    HW222989   3.958   1.544   0.885
 7364SOL     OW22990   4.459   0.625   1.215
 7364SOL    HW122991   4.412   0.712   1.199
 7364SOL    HW222992   4.444   0.595   1.308
 7365SOL     OW22993   1.536   6.674   1.731
 7365SOL    HW122994   1.557   6.607   1.802
 7365SOL    HW222995   1.447   6.654   1.691
 7366SOL     OW22996   2.101   5.638   0.347
 7366SOL    HW122997   2.005   5.612   0.346
 7366SOL    HW222998   2.117   5.701   0.423
 7367SOL     OW22999   4.689   3.867   1.363
 7367SOL    HW123000   4.623   3.905   1.298
 7367SOL    HW223001   4.754   3.937   1.390
 7368SOL     OW23002   3.886   2.981   3.705
 7368SOL    HW123003   3.793   2.952   3.727
 7368SOL    HW223004   3.914   3.055   3.767
 7369SOL     OW23005   4.659   2.729   0.592
 7369SOL    HW123006   4.744   2.778   0.571
 7369SOL    HW223007   4.656   2.709   0.690
 7370SOL     OW23008   2.823   0.597   5.157
 7370SOL    HW123009   2.768   0.670   5.197
 7370SOL    HW223010   2.920   0.624   5.158
 7371SOL     OW23011   1.902   5.920   3.866
 7371SOL    HW123012   1.891   5.977   3.784
 7371SOL    HW223013   1.867   5.829   3.847
 7372SOL     OW23014   3.219   1.287   5.688
 7372SOL    HW123015   3.245   1.278   5.784
 7372SOL    HW223016   3.149   1.220   5.665
 7373SOL     OW23017   5.385   1.290   4.327
 7373SOL    HW123018   5.368   1.306   4.425
 7373SOL    HW223019   5.466   1.231   4.317
 7374SOL     OW23020   2.760   1.786   5.585
 7374SOL    HW123021   2.706   1.839   5.519
 7374SOL    HW223022   2.701   1.750   5.656
 7375SOL     OW23023   2.197   2.927   2.749
 7375SOL    HW123024   2.239   3.016   2.765
 7375SOL    HW223025   2.203   2.872   2.832
 7376SOL     OW23026   3.926   1.776   6.588
 7376SOL    HW123027   3.931   1.817   6.497
 7376SOL    HW223028   4.018   1.770   6.627
 7377SOL     OW23029   5.373   5.489   1.042
 7377SOL    HW123030   5.348   5.578   1.003
 7377SOL    HW223031   5.466   5.466   1.015
 7378SOL     OW23032   0.320   1.202   5.578
 7378SOL    HW123033   0.301   1.290   5.534
 7378SOL    HW223034   0.235   1.150   5.587
 7379SOL     OW23035   3.244   2.084   2.499
 7379SOL    HW123036   3.332   2.100   2.545
 7379SOL    HW223037   3.169   2.107   2.561
 7380SOL     OW23038   6.737   3.309   5.546
 7380SOL    HW123039   6.715   3.405   5.562
 7380SOL    HW223040   6.675   3.273   5.476
 7381SOL     OW23041   4.732   3.858   1.769
 7381SOL    HW123042   4.814   3.848   1.826
 7381SOL    HW223043   4.711   3.770   1.726
 7382SOL     OW23044   6.979   5.774   6.283
 7382SOL    HW123045   0.004   5.698   6.321
 7382SOL    HW223046   6.886   5.744   6.262
 7383SOL     OW23047   0.916   6.636   1.061
 7383SOL    HW123048   0.939   6.576   0.984
 7383SOL    HW223049   0.837   6.693   1.037
 7384SOL     OW23050   5.427   0.760   2.699
 7384SOL    HW123051   5.527   0.771   2.705
 7384SOL    HW223052   5.406   0.668   2.668
 7385SOL     OW23053   4.262   6.037   1.897
 7385SOL    HW123054   4.208   6.122   1.891
 7385SOL    HW223055   4.307   6.032   1.986
 7386SOL     OW23056   0.593   1.978   5.541
 7386SOL    HW123057   0.622   2.071   5.567
 7386SOL    HW223058   0.495   1.968   5.558
 7387SOL     OW23059   4.598   6.280   4.190
 7387SOL    HW123060   4.517   6.222   4.192
 7387SOL    HW223061   4.674   6.233   4.236
 7388SOL     OW23062   0.180   4.852   3.183
 7388SOL    HW123063   0.177   4.752   3.187
 7388SOL    HW223064   0.086   4.887   3.178
 7389SOL     OW23065   0.338   3.644   6.271
 7389SOL    HW123066   0.399   3.693   6.333
 7389SOL    HW223067   0.317   3.554   6.309
 7390SOL     OW23068   2.554   1.557   6.788
 7390SOL    HW123069   2.476   1.542   6.726
 7390SOL    HW223070   2.534   1.514   6.876
 7391SOL     OW23071   5.159   4.291   4.978
 7391SOL    HW123072   5.239   4.327   5.026
 7391SOL    HW223073   5.102   4.239   5.042
 7392SOL     OW23074   2.594   5.961   6.960
 7392SOL    HW123075   2.618   6.040   7.017
 7392SOL    HW223076   2.563   5.993   6.871
 7393SOL     OW23077   5.437   4.960   1.625
 7393SOL    HW123078   5.411   4.974   1.529
 7393SOL    HW223079   5.355   4.955   1.681
 7394SOL     OW23080   3.219   2.691   5.924
 7394SOL    HW123081   3.183   2.742   5.847
 7394SOL    HW223082   3.316   2.715   5.938
 7395SOL     OW23083   2.577   1.556   0.224
 7395SOL    HW123084   2.580   1.656   0.223
 7395SOL    HW223085   2.504   1.525   0.285
 7396SOL     OW23086   0.948   6.501   0.429
 7396SOL    HW123087   0.868   6.477   0.484
 7396SOL    HW223088   1.029   6.503   0.488
 7397SOL     OW23089   4.619   5.132   4.744
 7397SOL    HW123090   4.605   5.067   4.819
 7397SOL    HW223091   4.542   5.126   4.680
 7398SOL     OW23092   2.672   5.471   4.487
 7398SOL    HW123093   2.720   5.432   4.409
 7398SOL    HW223094   2.605   5.406   4.521
 7399SOL     OW23095   0.661   2.471   5.435
 7399SOL    HW123096   0.640   2.380   5.400
 7399SOL    HW223097   0.734   2.512   5.381
 7400SOL     OW23098   4.001   3.255   6.003
 7400SOL    HW123099   4.092   3.214   6.009
 7400SOL    HW223100   3.946   3.228   6.083
 7401SOL     OW23101   1.194   0.734   4.861
 7401SOL    HW123102   1.162   0.748   4.768
 7401SOL    HW223103   1.181   0.817   4.915
 7402SOL     OW23104   3.084   5.595   5.876
 7402SOL    HW123105   3.020   5.578   5.801
 7402SOL    HW223106   3.149   5.519   5.883
 7403SOL     OW23107   2.204   3.974   2.661
 7403SOL    HW123108   2.173   3.960   2.567
 7403SOL    HW223109   2.226   4.070   2.675
 7404SOL     OW23110   2.525   5.266   1.210
 7404SOL    HW123111   2.518   5.167   1.223
 7404SOL    HW223112   2.596   5.285   1.142
 7405SOL     OW23113   3.846   4.859   4.087
 7405SOL    HW123114   3.766   4.838   4.030
 7405SOL    HW223115   3.922   4.886   4.028
 7406SOL     OW23116   0.711   3.017   3.448
 7406SOL    HW123117   0.621   3.060   3.448
 7406SOL    HW223118   0.779   3.081   3.412
 7407SOL     OW23119   7.002   6.337   4.606
 7407SOL    HW123120   6.997   6.402   4.530
 7407SOL    HW223121   6.984   6.385   4.692
 7408SOL     OW23122   1.376   3.772   6.285
 7408SOL    HW123123   1.445   3.699   6.280
 7408SOL    HW223124   1.308   3.758   6.214
 7409SOL     OW23125   0.566   1.194   6.186
 7409SOL    HW123126   0.505   1.119   6.159
 7409SOL    HW223127   0.598   1.242   6.104
 7410SOL     OW23128   0.203   5.289   0.937
 7410SOL    HW123129   0.184   5.283   0.839
 7410SOL    HW223130   0.121   5.320   0.985
 7411SOL     OW23131   2.761   0.072   4.350
 7411SOL    HW123132   2.684   0.100   4.408
 7411SOL    HW223133   2.835   0.139   4.359
 7412SOL     OW23134   4.475   0.432   2.411
 7412SOL    HW123135   4.426   0.375   2.477
 7412SOL    HW223136   4.543   0.377   2.363
 7413SOL     OW23137   4.907   5.815   5.253
 7413SOL    HW123138   5.003   5.818   5.227
 7413SOL    HW223139   4.852   5.784   5.174
 7414SOL     OW23140   0.162   0.154   3.762
 7414SOL    HW123141   0.244   0.150   3.705
 7414SOL    HW223142   0.158   0.073   3.820
 7415SOL     OW23143   0.985   3.672   3.634
 7415SOL    HW123144   0.922   3.697   3.560
 7415SOL    HW223145   0.956   3.585   3.674
 7416SOL     OW23146   3.064   1.222   3.655
 7416SOL    HW123147   3.100   1.281   3.582
 7416SOL    HW223148   3.009   1.149   3.614
 7417SOL     OW23149   2.251   0.738   6.296
 7417SOL    HW123150   2.252   0.831   6.334
 7417SOL    HW223151   2.186   0.682   6.348
 7418SOL     OW23152   3.623   5.273   0.763
 7418SOL    HW123153   3.582   5.337   0.829
 7418SOL    HW223154   3.716   5.303   0.741
 7419SOL     OW23155   5.599   3.074   5.107
 7419SOL    HW123156   5.564   3.120   5.025
 7419SOL    HW223157   5.583   2.976   5.099
 7420SOL     OW23158   0.368   6.787   1.756
 7420SOL    HW123159   0.409   6.701   1.784
 7420SOL    HW223160   0.339   6.781   1.660
 7421SOL     OW23161   3.187   3.406   1.220
 7421SOL    HW123162   3.268   3.455   1.189
 7421SOL    HW223163   3.106   3.464   1.209
 7422SOL     OW23164   0.113   2.814   2.505
 7422SOL    HW123165   0.053   2.890   2.529
 7422SOL    HW223166   0.059   2.740   2.465
 7423SOL     OW23167   6.524   4.878   5.377
 7423SOL    HW123168   6.545   4.806   5.311
 7423SOL    HW223169   6.578   4.959   5.357
 7424SOL     OW23170   6.800   0.343   4.962
 7424SOL    HW123171   6.722   0.322   5.021
 7424SOL    HW223172   6.865   0.267   4.964
 7425SOL     OW23173   4.502   5.806   6.198
 7425SOL    HW123174   4.501   5.838   6.103
 7425SOL    HW223175   4.443   5.726   6.206
 7426SOL     OW23176   1.836   1.341   6.134
 7426SOL    HW123177   1.808   1.428   6.095
 7426SOL    HW223178   1.828   1.344   6.233
 7427SOL     OW23179   3.543   6.441   4.138
 7427SOL    HW123180   3.530   6.521   4.079
 7427SOL    HW223181   3.455   6.396   4.152
 7428SOL     OW23182   4.242   1.256   6.159
 7428SOL    HW123183   4.219   1.338   6.212
 7428SOL    HW223184   4.323   1.274   6.104
 7429SOL     OW23185   6.187   6.585   3.146
 7429SOL    HW123186   6.231   6.568   3.058
 7429SOL    HW223187   6.133   6.505   3.172
 7430SOL     OW23188   0.421   3.729   6.684
 7430SOL    HW123189   0.401   3.734   6.781
 7430SOL    HW223190   0.375   3.650   6.644
 7431SOL     OW23191   0.316   3.330   2.734
 7431SOL    HW123192   0.277   3.347   2.825
 7431SOL    HW223193   0.283   3.242   2.700
 7432SOL     OW23194   0.127   0.331   3.236
 7432SOL    HW123195   0.123   0.279   3.321
 7432SOL    HW223196   0.222   0.348   3.211
 7433SOL     OW23197   5.615   4.823   6.708
 7433SOL    HW123198   5.651   4.864   6.791
 7433SOL    HW223199   5.618   4.723   6.716
 7434SOL     OW23200   5.503   0.446   5.647
 7434SOL    HW123201   5.581   0.447   5.584
 7434SOL    HW223202   5.419   0.457   5.594
 7435SOL     OW23203   4.191   5.673   0.572
 7435SOL    HW123204   4.095   5.678   0.542
 7435SOL    HW223205   4.214   5.578   0.592
 7436SOL     OW23206   5.561   3.160   6.844
 7436SOL    HW123207   5.644   3.135   6.895
 7436SOL    HW223208   5.500   3.211   6.904
 7437SOL     OW23209   0.516   5.745   0.516
 7437SOL    HW123210   0.422   5.778   0.524
 7437SOL    HW223211   0.555   5.776   0.430
 7438SOL     OW23212   0.504   4.987   6.951
 7438SOL    HW123213   0.555   5.071   6.970
 7438SOL    HW223214   0.409   5.010   6.932
 7439SOL     OW23215   1.859   5.798   4.513
 7439SOL    HW123216   1.939   5.750   4.477
 7439SOL    HW223217   1.885   5.852   4.592
 7440SOL     OW23218   0.400   3.562   4.728
 7440SOL    HW123219   0.437   3.612   4.649
 7440SOL    HW223220   0.415   3.464   4.715
 7441SOL     OW23221   5.107   5.890   4.203
 7441SOL    HW123222   5.061   5.906   4.290
 7441SOL    HW223223   5.175   5.963   4.188
 7442SOL     OW23224   0.516   0.883   6.333
 7442SOL    HW123225   0.421   0.913   6.327
 7442SOL    HW223226   0.524   0.808   6.398
 7443SOL     OW23227   0.073   0.633   2.474
 7443SOL    HW123228   0.092   0.700   2.402
 7443SOL    HW223229   0.063   0.681   2.561
 7444SOL     OW23230   6.376   3.207   5.015
 7444SOL    HW123231   6.279   3.186   5.027
 7444SOL    HW223232   6.430   3.124   5.027
 7445SOL     OW23233   3.128   1.189   1.219
 7445SOL    HW123234   3.208   1.179   1.161
 7445SOL    HW223235   3.068   1.110   1.209
 7446SOL     OW23236   5.405   4.085   0.699
 7446SOL    HW123237   5.433   4.131   0.783
 7446SOL    HW223238   5.340   4.012   0.721
 7447SOL     OW23239   0.568   3.340   5.666
 7447SOL    HW123240   0.613   3.429   5.671
 7447SOL    HW223241   0.469   3.353   5.671
 7448SOL     OW23242   6.466   7.023   5.585
 7448SOL    HW123243   6.545   6.970   5.556
 7448SOL    HW223244   6.438   6.994   5.677
 7449SOL     OW23245   6.421   2.805   1.961
 7449SOL    HW123246   6.356   2.755   2.017
 7449SOL    HW223247   6.445   2.891   2.006
 7450SOL     OW23248   5.479   1.732   4.741
 7450SOL    HW123249   5.456   1.776   4.654
 7450SOL    HW223250   5.564   1.771   4.776
 7451SOL     OW23251   0.865   6.704   3.814
 7451SOL    HW123252   0.843   6.780   3.875
 7451SOL    HW223253   0.963   6.704   3.794
 7452SOL     OW23254   1.009   6.208   4.855
 7452SOL    HW123255   1.004   6.127   4.913
 7452SOL    HW223256   0.925   6.215   4.800
 7453SOL     OW23257   4.723   6.090   5.243
 7453SOL    HW123258   4.818   6.061   5.256
 7453SOL    HW223259   4.718   6.190   5.243
 7454SOL     OW23260   1.115   2.374   2.042
 7454SOL    HW123261   1.036   2.394   1.984
 7454SOL    HW223262   1.166   2.297   2.003
 7455SOL     OW23263   6.794   1.679   2.354
 7455SOL    HW123264   6.772   1.638   2.443
 7455SOL    HW223265   6.761   1.620   2.281
 7456SOL     OW23266   0.242   1.634   4.127
 7456SOL    HW123267   0.333   1.673   4.109
 7456SOL    HW223268   0.199   1.609   4.040
 7457SOL     OW23269   4.103   0.455   5.546
 7457SOL    HW123270   4.143   0.390   5.481
 7457SOL    HW223271   4.004   0.457   5.534
 7458SOL     OW23272   2.299   6.908   5.940
 7458SOL    HW123273   2.353   6.830   5.973
 7458SOL    HW223274   2.268   6.963   6.017
 7459SOL     OW23275   5.066   0.666   1.670
 7459SOL    HW123276   5.035   0.604   1.598
 7459SOL    HW223277   5.114   0.613   1.740
 7460SOL     OW23278   2.138   5.626   1.028
 7460SOL    HW123279   2.165   5.588   0.940
 7460SOL    HW223280   2.107   5.551   1.088
 7461SOL     OW23281   6.304   1.853   5.864
 7461SOL    HW123282   6.383   1.910   5.890
 7461SOL    HW223283   6.243   1.906   5.806
 7462SOL     OW23284   1.217   4.101   2.937
 7462SOL    HW123285   1.304   4.062   2.966
 7462SOL    HW223286   1.224   4.200   2.932
 7463SOL     OW23287   3.092   4.990   0.760
 7463SOL    HW123288   3.033   5.003   0.840
 7463SOL    HW223289   3.103   5.077   0.711
 7464SOL     OW23290   4.855   0.342   6.747
 7464SOL    HW123291   4.937   0.380   6.705
 7464SOL    HW223292   4.831   0.256   6.702
 7465SOL     OW23293   0.880   6.064   0.093
 7465SOL    HW123294   0.923   6.125   0.160
 7465SOL    HW223295   0.867   5.974   0.135
 7466SOL     OW23296   0.567   0.397   6.113
 7466SOL    HW123297   0.499   0.429   6.047
 7466SOL    HW223298   0.610   0.313   6.078
 7467SOL     OW23299   0.049   2.128   0.603
 7467SOL    HW123300   0.081   2.155   0.694
 7467SOL    HW223301   0.109   2.168   0.534
 7468SOL     OW23302   6.155   2.182   3.407
 7468SOL    HW123303   6.178   2.101   3.354
 7468SOL    HW223304   6.163   2.263   3.349
 7469SOL     OW23305   0.509   0.799   0.638
 7469SOL    HW123306   0.499   0.898   0.623
 7469SOL    HW223307   0.445   0.749   0.580
 7470SOL     OW23308   0.224   3.149   3.793
 7470SOL    HW123309   0.321   3.169   3.802
 7470SOL    HW223310   0.186   3.130   3.884
 7471SOL     OW23311   0.235   6.324   6.185
 7471SOL    HW123312   0.176   6.308   6.106
 7471SOL    HW223313   0.290   6.406   6.169
 7472SOL     OW23314   6.257   0.162   4.139
 7472SOL    HW123315   6.263   0.068   4.174
 7472SOL    HW223316   6.347   0.204   4.140
 7473SOL     OW23317   6.506   4.509   2.694
 7473SOL    HW123318   6.469   4.521   2.786
 7473SOL    HW223319   6.455   4.438   2.646
 7474SOL     OW23320   2.347   1.318   5.543
 7474SOL    HW123321   2.344   1.298   5.445
 7474SOL    HW223322   2.394   1.405   5.557
 7475SOL     OW23323   4.395   1.389   2.733
 7475SOL    HW123324   4.380   1.369   2.636
 7475SOL    HW223325   4.329   1.457   2.763
 7476SOL     OW23326   3.599   5.534   3.313
 7476SOL    HW123327   3.517   5.518   3.258
 7476SOL    HW223328   3.584   5.501   3.406
 7477SOL     OW23329   0.115   1.401   5.236
 7477SOL    HW123330   0.094   1.403   5.138
 7477SOL    HW223331   0.179   1.326   5.254
 7478SOL     OW23332   4.795   5.424   6.294
 7478SOL    HW123333   4.769   5.496   6.359
 7478SOL    HW223334   4.819   5.341   6.345
 7479SOL     OW23335   4.118   2.324   1.743
 7479SOL    HW123336   4.130   2.257   1.816
 7479SOL    HW223337   4.199   2.382   1.737
 7480SOL     OW23338   6.781   4.180   1.942
 7480SOL    HW123339   6.830   4.094   1.925
 7480SOL    HW223340   6.846   4.253   1.963
 7481SOL     OW23341   6.072   5.367   1.282
 7481SOL    HW123342   6.030   5.402   1.366
 7481SOL    HW223343   6.170   5.388   1.284
 7482SOL     OW23344   4.302   2.316   3.398
 7482SOL    HW123345   4.232   2.281   3.460
 7482SOL    HW223346   4.271   2.304   3.303
 7483SOL     OW23347   4.761   2.830   4.863
 7483SOL    HW123348   4.731   2.818   4.768
 7483SOL    HW223349   4.699   2.781   4.924
 7484SOL     OW23350   0.863   0.827   3.747
 7484SOL    HW123351   0.856   0.795   3.652
 7484SOL    HW223352   0.946   0.882   3.757
 7485SOL     OW23353   3.390   0.897   4.833
 7485SOL    HW123354   3.373   0.825   4.766
 7485SOL    HW223355   3.324   0.971   4.821
 7486SOL     OW23356   2.532   0.535   6.199
 7486SOL    HW123357   2.456   0.521   6.262
 7486SOL    HW223358   2.567   0.627   6.210
 7487SOL     OW23359   2.249   6.305   2.657
 7487SOL    HW123360   2.196   6.336   2.736
 7487SOL    HW223361   2.223   6.211   2.634
 7488SOL     OW23362   1.813   6.627   4.020
 7488SOL    HW123363   1.811   6.660   3.926
 7488SOL    HW223364   1.899   6.580   4.037
 7489SOL     OW23365   5.379   2.706   4.717
 7489SOL    HW123366   5.409   2.765   4.642
 7489SOL    HW223367   5.439   2.626   4.722
 7490SOL     OW23368   0.851   0.615   1.631
 7490SOL    HW123369   0.916   0.658   1.569
 7490SOL    HW223370   0.856   0.515   1.622
 7491SOL     OW23371   5.943   3.264   5.893
 7491SOL    HW123372   5.998   3.257   5.976
 7491SOL    HW223373   5.944   3.358   5.859
 7492SOL     OW23374   2.057   0.681   3.601
 7492SOL    HW123375   1.977   0.651   3.548
 7492SOL    HW223376   2.123   0.607   3.606
 7493SOL     OW23377   6.864   3.716   7.020
 7493SOL    HW123378   6.881   3.646   6.951
 7493SOL    HW223379   6.903   3.803   6.989
 7494SOL     OW23380   5.267   1.234   2.365
 7494SOL    HW123381   5.357   1.229   2.407
 7494SOL    HW223382   5.230   1.141   2.356
 7495SOL     OW23383   1.582   1.118   0.480
 7495SOL    HW123384   1.507   1.121   0.414
 7495SOL    HW223385   1.569   1.040   0.542
 7496SOL     OW23386   6.696   3.579   6.310
 7496SOL    HW123387   6.791   3.560   6.285
 7496SOL    HW223388   6.654   3.637   6.240
 7497SOL     OW23389   2.269   4.908   0.555
 7497SOL    HW123390   2.259   4.905   0.655
 7497SOL    HW223391   2.178   4.905   0.512
 7498SOL     OW23392   2.550   1.560   5.419
 7498SOL    HW123393   2.578   1.500   5.345
 7498SOL    HW223394   2.582   1.653   5.400
 7499SOL     OW23395   3.569   1.970   2.929
 7499SOL    HW123396   3.497   2.025   2.972
 7499SOL    HW223397   3.546   1.873   2.939
 7500SOL     OW23398   3.477   5.181   3.390
 7500SOL    HW123399   3.420   5.263   3.394
 7500SOL    HW223400   3.569   5.202   3.422
 7501SOL     OW23401   5.878   4.217   4.319
 7501SOL    HW123402   5.794   4.260   4.351
 7501SOL    HW223403   5.861   4.119   4.304
 7502SOL     OW23404   1.668   0.083   4.702
 7502SOL    HW123405   1.597   0.153   4.710
 7502SOL    HW223406   1.668   0.045   4.610
 7503SOL     OW23407   3.149   1.672   0.664
 7503SOL    HW123408   3.201   1.638   0.743
 7503SOL    HW223409   3.162   1.771   0.656
 7504SOL     OW23410   1.938   0.025   2.900
 7504SOL    HW123411   2.021   0.080   2.901
 7504SOL    HW223412   1.863   0.076   2.941
 7505SOL     OW23413   1.431   1.864   5.621
 7505SOL    HW123414   1.481   1.858   5.707
 7505SOL    HW223415   1.462   1.943   5.569
 7506SOL     OW23416   5.158   0.447   3.066
 7506SOL    HW123417   5.196   0.419   3.154
 7506SOL    HW223418   5.217   0.515   3.023
 7507SOL     OW23419   1.005   0.427   2.362
 7507SOL    HW123420   1.094   0.390   2.385
 7507SOL    HW223421   1.002   0.449   2.264
 7508SOL     OW23422   0.557   6.238   2.008
 7508SOL    HW123423   0.467   6.228   1.965
 7508SOL    HW223424   0.628   6.228   1.938
 7509SOL     OW23425   5.491   4.974   0.437
 7509SOL    HW123426   5.488   4.890   0.383
 7509SOL    HW223427   5.444   5.047   0.388
 7510SOL     OW23428   3.833   4.263   5.254
 7510SOL    HW123429   3.772   4.183   5.261
 7510SOL    HW223430   3.927   4.232   5.243
 7511SOL     OW23431   2.586   0.085   3.794
 7511SOL    HW123432   2.494   0.047   3.798
 7511SOL    HW223433   2.652   0.018   3.829
 7512SOL     OW23434   3.078   5.896   6.880
 7512SOL    HW123435   3.171   5.871   6.909
 7512SOL    HW223436   3.063   5.993   6.900
 7513SOL     OW23437   2.155   0.819   1.863
 7513SOL    HW123438   2.082   0.875   1.824
 7513SOL    HW223439   2.237   0.827   1.807
 7514SOL     OW23440   2.573   5.623   1.055
 7514SOL    HW123441   2.669   5.597   1.065
 7514SOL    HW223442   2.559   5.715   1.090
 7515SOL     OW23443   6.903   5.148   2.272
 7515SOL    HW123444   7.002   5.134   2.273
 7515SOL    HW223445   6.864   5.117   2.359
 7516SOL     OW23446   6.344   6.126   5.803
 7516SOL    HW123447   6.408   6.091   5.734
 7516SOL    HW223448   6.320   6.052   5.866
 7517SOL     OW23449   0.040   3.510   0.578
 7517SOL    HW123450   7.024   3.419   0.573
 7517SOL    HW223451   6.997   3.580   0.571
 7518SOL     OW23452   4.296   4.971   3.208
 7518SOL    HW123453   4.226   5.041   3.224
 7518SOL    HW223454   4.256   4.894   3.159
 7519SOL     OW23455   6.671   6.790   4.009
 7519SOL    HW123456   6.609   6.737   3.951
 7519SOL    HW223457   6.633   6.795   4.102
 7520SOL     OW23458   3.520   0.660   2.340
 7520SOL    HW123459   3.448   0.592   2.330
 7520SOL    HW223460   3.512   0.727   2.266
 7521SOL     OW23461   4.971   4.167   5.944
 7521SOL    HW123462   5.003   4.258   5.971
 7521SOL    HW223463   4.872   4.167   5.935
 7522SOL     OW23464   2.539   0.626   6.622
 7522SOL    HW123465   2.555   0.685   6.543
 7522SOL    HW223466   2.587   0.663   6.702
 7523SOL     OW23467   6.006   0.198   6.069
 7523SOL    HW123468   5.980   0.287   6.107
 7523SOL    HW223469   5.924   0.144   6.052
 7524SOL     OW23470   2.122   2.104   5.849
 7524SOL    HW123471   2.154   2.167   5.920
 7524SOL    HW223472   2.136   2.010   5.880
 7525SOL     OW23473   3.510   0.483   5.808
 7525SOL    HW123474   3.469   0.499   5.898
 7525SOL    HW223475   3.533   0.386   5.799
 7526SOL     OW23476   2.580   3.456   1.428
 7526SOL    HW123477   2.564   3.418   1.519
 7526SOL    HW223478   2.512   3.421   1.364
 7527SOL     OW23479   4.041   5.913   3.172
 7527SOL    HW123480   4.113   5.963   3.221
 7527SOL    HW223481   4.026   5.825   3.216
 7528SOL     OW23482   5.359   1.788   6.996
 7528SOL    HW123483   5.308   1.747   0.045
 7528SOL    HW223484   5.327   1.749   6.909
 7529SOL     OW23485   5.204   0.570   4.511
 7529SOL    HW123486   5.203   0.471   4.526
 7529SOL    HW223487   5.195   0.617   4.599
 7530SOL     OW23488   0.670   3.835   2.698
 7530SOL    HW123489   0.726   3.901   2.749
 7530SOL    HW223490   0.637   3.878   2.614
 7531SOL     OW23491   4.696   2.792   4.307
 7531SOL    HW123492   4.788   2.831   4.309
 7531SOL    HW223493   4.653   2.803   4.397
 7532SOL     OW23494   5.732   4.774   0.577
 7532SOL    HW123495   5.766   4.738   0.490
 7532SOL    HW223496   5.649   4.827   0.561
 7533SOL     OW23497   2.227   1.754   2.375
 7533SOL    HW123498   2.217   1.787   2.281
 7533SOL    HW223499   2.293   1.811   2.424
 7534SOL     OW23500   4.350   6.265   5.376
 7534SOL    HW123501   4.346   6.352   5.426
 7534SOL    HW223502   4.445   6.248   5.348
 7535SOL     OW23503   2.028   6.889   5.499
 7535SOL    HW123504   1.954   6.954   5.482
 7535SOL    HW223505   2.009   6.803   5.452
 7536SOL     OW23506   4.832   4.529   4.377
 7536SOL    HW123507   4.881   4.504   4.293
 7536SOL    HW223508   4.898   4.546   4.450
 7537SOL     OW23509   3.448   5.506   2.442
 7537SOL    HW123510   3.435   5.415   2.404
 7537SOL    HW223511   3.385   5.570   2.397
 7538SOL     OW23512   2.538   3.002   1.650
 7538SOL    HW123513   2.471   2.977   1.721
 7538SOL    HW223514   2.630   3.000   1.689
 7539SOL     OW23515   0.813   3.030   3.914
 7539SOL    HW123516   0.866   3.105   3.874
 7539SOL    HW223517   0.868   2.946   3.912
 7540SOL     OW23518   4.754   0.607   5.365
 7540SOL    HW123519   4.753   0.507   5.361
 7540SOL    HW223520   4.793   0.637   5.452
 7541SOL     OW23521   0.205   4.567   4.661
 7541SOL    HW123522   0.235   4.573   4.756
 7541SOL    HW223523   0.221   4.474   4.627
 7542SOL     OW23524   1.059   5.166   6.883
 7542SOL    HW123525   1.030   5.139   6.791
 7542SOL    HW223526   1.058   5.266   6.889
 7543SOL     OW23527   3.466   1.904   6.958
 7543SOL    HW123528   3.379   1.952   6.968
 7543SOL    HW223529   3.479   1.880   6.862
 7544SOL     OW23530   0.346   2.111   2.694
 7544SOL    HW123531   0.314   2.163   2.615
 7544SOL    HW223532   0.324   2.161   2.778
 7545SOL     OW23533   6.746   5.765   1.117
 7545SOL    HW123534   6.656   5.724   1.102
 7545SOL    HW223535   6.803   5.702   1.169
 7546SOL     OW23536   3.265   1.817   2.046
 7546SOL    HW123537   3.294   1.773   2.131
 7546SOL    HW223538   3.171   1.851   2.057
 7547SOL     OW23539   4.909   0.918   0.526
 7547SOL    HW123540   4.838   0.940   0.592
 7547SOL    HW223541   4.867   0.888   0.441
 7548SOL     OW23542   4.062   1.692   0.159
 7548SOL    HW123543   4.152   1.736   0.153
 7548SOL    HW223544   3.993   1.751   0.116
 7549SOL     OW23545   5.476   2.266   1.178
 7549SOL    HW123546   5.463   2.331   1.253
 7549SOL    HW223547   5.491   2.175   1.215
 7550SOL     OW23548   2.568   5.040   2.276
 7550SOL    HW123549   2.663   5.062   2.255
 7550SOL    HW223550   2.521   5.122   2.308
 7551SOL     OW23551   5.235   3.931   6.526
 7551SOL    HW123552   5.249   3.855   6.462
 7551SOL    HW223553   5.150   3.978   6.502
 7552SOL     OW23554   1.458   5.479   2.671
 7552SOL    HW123555   1.433   5.463   2.575
 7552SOL    HW223556   1.388   5.537   2.713
 7553SOL     OW23557   4.829   6.392   5.078
 7553SOL    HW123558   4.901   6.327   5.102
 7553SOL    HW223559   4.759   6.346   5.024
 7554SOL     OW23560   4.530   1.744   0.959
 7554SOL    HW123561   4.611   1.708   0.912
 7554SOL    HW223562   4.451   1.735   0.899
 7555SOL     OW23563   1.953   4.957   5.729
 7555SOL    HW123564   2.015   4.916   5.797
 7555SOL    HW223565   1.970   4.915   5.640
 7556SOL     OW23566   1.271   3.188   0.382
 7556SOL    HW123567   1.279   3.178   0.283
 7556SOL    HW223568   1.360   3.209   0.421
 7557SOL     OW23569   5.348   1.774   6.070
 7557SOL    HW123570   5.344   1.873   6.088
 7557SOL    HW223571   5.439   1.740   6.090
 7558SOL     OW23572   1.470   2.734   4.486
 7558SOL    HW123573   1.551   2.685   4.518
 7558SOL    HW223574   1.497   2.803   4.418
 7559SOL     OW23575   5.919   4.369   6.629
 7559SOL    HW123576   5.884   4.275   6.636
 7559SOL    HW223577   5.967   4.380   6.542
 7560SOL     OW23578   4.812   6.048   1.044
 7560SOL    HW123579   4.825   6.036   1.142
 7560SOL    HW223580   4.743   6.119   1.028
 7561SOL     OW23581   1.387   3.258   6.928
 7561SOL    HW123582   1.405   3.348   6.967
 7561SOL    HW223583   1.385   3.265   6.828
 7562SOL     OW23584   6.860   6.393   3.645
 7562SOL    HW123585   6.798   6.451   3.698
 7562SOL    HW223586   6.900   6.324   3.705
 7563SOL     OW23587   2.741   6.472   0.786
 7563SOL    HW123588   2.753   6.568   0.763
 7563SOL    HW223589   2.768   6.457   0.881
 7564SOL     OW23590   4.667   0.692   3.249
 7564SOL    HW123591   4.620   0.765   3.199
 7564SOL    HW223592   4.721   0.732   3.323
 7565SOL     OW23593   5.651   2.895   0.719
 7565SOL    HW123594   5.733   2.915   0.667
 7565SOL    HW223595   5.615   2.806   0.691
 7566SOL     OW23596   5.941   4.968   2.737
 7566SOL    HW123597   5.972   5.055   2.699
 7566SOL    HW223598   5.933   4.901   2.663
 7567SOL     OW23599   1.659   2.266   5.192
 7567SOL    HW123600   1.696   2.206   5.121
 7567SOL    HW223601   1.560   2.269   5.185
 7568SOL     OW23602   5.484   6.218   2.197
 7568SOL    HW123603   5.490   6.229   2.296
 7568SOL    HW223604   5.484   6.121   2.174
 7569SOL     OW23605   4.074   6.206   5.758
 7569SOL    HW123606   4.027   6.178   5.841
 7569SOL    HW223607   4.058   6.137   5.686
 7570SOL     OW23608   5.458   3.868   5.265
 7570SOL    HW123609   5.406   3.930   5.324
 7570SOL    HW223610   5.504   3.920   5.194
 7571SOL     OW23611   4.837   5.442   3.367
 7571SOL    HW123612   4.892   5.402   3.294
 7571SOL    HW223613   4.892   5.446   3.451
 7572SOL     OW23614   4.695   1.257   1.607
 7572SOL    HW123615   4.650   1.344   1.623
 7572SOL    HW223616   4.680   1.228   1.512
 7573SOL     OW23617   0.527   6.928   4.910
 7573SOL    HW123618   0.533   6.952   4.813
 7573SOL    HW223619   0.583   6.848   4.928
 7574SOL     OW23620   6.145   0.906   5.442
 7574SOL    HW123621   6.055   0.871   5.414
 7574SOL    HW223622   6.205   0.828   5.463
 7575SOL     OW23623   4.582   0.285   6.284
 7575SOL    HW123624   4.641   0.329   6.351
 7575SOL    HW223625   4.620   0.195   6.260
 7576SOL     OW23626   4.868   4.868   6.428
 7576SOL    HW123627   4.773   4.838   6.416
 7576SOL    HW223628   4.886   4.882   6.526
 7577SOL     OW23629   0.164   6.875   7.016
 7577SOL    HW123630   0.094   6.946   0.001
 7577SOL    HW223631   0.190   6.869   6.920
 7578SOL     OW23632   2.502   5.712   1.893
 7578SOL    HW123633   2.581   5.685   1.947
 7578SOL    HW223634   2.427   5.737   1.954
 7579SOL     OW23635   6.466   1.099   1.807
 7579SOL    HW123636   6.452   1.006   1.840
 7579SOL    HW223637   6.385   1.128   1.755
 7580SOL     OW23638   1.036   3.902   3.848
 7580SOL    HW123639   1.004   3.845   3.772
 7580SOL    HW223640   0.975   3.981   3.859
 7581SOL     OW23641   0.004   0.753   1.229
 7581SOL    HW123642   6.943   0.741   1.183
 7581SOL    HW223643   7.016   0.798   1.317
 7582SOL     OW23644   3.565   0.986   1.445
 7582SOL    HW123645   3.547   1.081   1.420
 7582SOL    HW223646   3.644   0.952   1.394
 7583SOL     OW23647   6.200   2.810   1.399
 7583SOL    HW123648   6.114   2.829   1.352
 7583SOL    HW223649   6.197   2.847   1.491
 7584SOL     OW23650   2.651   6.631   1.579
 7584SOL    HW123651   2.747   6.622   1.607
 7584SOL    HW223652   2.598   6.669   1.655
 7585SOL     OW23653   1.563   3.043   6.659
 7585SOL    HW123654   1.533   2.950   6.682
 7585SOL    HW223655   1.484   3.104   6.656
 7586SOL     OW23656   2.928   1.017   3.577
 7586SOL    HW123657   2.943   0.959   3.498
 7586SOL    HW223658   2.850   0.982   3.630
 7587SOL     OW23659   2.299   1.772   0.253
 7587SOL    HW123660   2.333   1.685   0.290
 7587SOL    HW223661   2.260   1.757   0.163
 7588SOL     OW23662   1.423   2.799   2.950
 7588SOL    HW123663   1.495   2.842   3.004
 7588SOL    HW223664   1.338   2.851   2.959
 7589SOL     OW23665   0.879   6.997   2.341
 7589SOL    HW123666   0.844   0.056   2.381
 7589SOL    HW223667   0.864   6.998   2.243
 7590SOL     OW23668   4.744   1.950   6.145
 7590SOL    HW123669   4.748   1.981   6.051
 7590SOL    HW223670   4.661   1.986   6.189
 7591SOL     OW23671   6.910   3.729   0.453
 7591SOL    HW123672   6.988   3.764   0.402
 7591SOL    HW223673   6.858   3.666   0.396
 7592SOL     OW23674   6.985   4.932   5.329
 7592SOL    HW123675   6.963   4.893   5.240
 7592SOL    HW223676   7.008   4.859   5.394
 7593SOL     OW23677   5.858   3.198   1.373
 7593SOL    HW123678   5.861   3.175   1.471
 7593SOL    HW223679   5.911   3.281   1.357
 7594SOL     OW23680   1.350   5.061   2.421
 7594SOL    HW123681   1.335   5.159   2.435
 7594SOL    HW223682   1.375   5.018   2.508
 7595SOL     OW23683   0.162   2.526   5.576
 7595SOL    HW123684   0.242   2.496   5.522
 7595SOL    HW223685   0.120   2.446   5.620
 7596SOL     OW23686   4.529   5.894   4.266
 7596SOL    HW123687   4.472   5.837   4.207
 7596SOL    HW223688   4.472   5.966   4.307
 7597SOL     OW23689   3.775   6.221   2.763
 7597SOL    HW123690   3.821   6.163   2.696
 7597SOL    HW223691   3.724   6.164   2.827
 7598SOL     OW23692   6.401   1.353   2.973
 7598SOL    HW123693   6.393   1.363   2.874
 7598SOL    HW223694   6.320   1.305   3.008
 7599SOL     OW23695   5.062   1.943   2.648
 7599SOL    HW123696   4.971   1.983   2.658
 7599SOL    HW223697   5.057   1.858   2.597
 7600SOL     OW23698   1.706   1.724   2.408
 7600SOL    HW123699   1.634   1.784   2.373
 7600SOL    HW223700   1.737   1.758   2.497
 7601SOL     OW23701   1.786   5.335   3.230
 7601SOL    HW123702   1.885   5.320   3.233
 7601SOL    HW223703   1.747   5.283   3.154
 7602SOL     OW23704   1.497   4.171   5.591
 7602SOL    HW123705   1.424   4.104   5.576
 7602SOL    HW223706   1.584   4.123   5.602
 7603SOL     OW23707   1.365   5.539   5.949
 7603SOL    HW123708   1.393   5.524   5.854
 7603SOL    HW223709   1.268   5.561   5.952
 7604SOL     OW23710   1.444   4.276   4.517
 7604SOL    HW123711   1.475   4.240   4.429
 7604SOL    HW223712   1.503   4.240   4.590
 7605SOL     OW23713   0.398   0.218   1.071
 7605SOL    HW123714   0.491   0.191   1.094
 7605SOL    HW223715   0.337   0.196   1.147
 7606SOL     OW23716   5.627   3.784   4.953
 7606SOL    HW123717   5.625   3.875   4.996
 7606SOL    HW223718   5.721   3.761   4.928
 7607SOL     OW23719   3.600   4.791   6.739
 7607SOL    HW123720   3.685   4.810   6.689
 7607SOL    HW223721   3.571   4.697   6.721
 7608SOL     OW23722   4.177   3.397   2.510
 7608SOL    HW123723   4.188   3.485   2.462
 7608SOL    HW223724   4.196   3.322   2.447
 7609SOL     OW23725   0.907   3.562   4.016
 7609SOL    HW123726   0.913   3.650   4.063
 7609SOL    HW223727   0.957   3.492   4.068
 7610SOL     OW23728   4.639   5.947   6.364
 7610SOL    HW123729   4.585   6.028   6.387
 7610SOL    HW223730   4.592   5.894   6.293
 7611SOL     OW23731   6.738   2.655   1.185
 7611SOL    HW123732   6.648   2.630   1.150
 7611SOL    HW223733   6.729   2.703   1.271
 7612SOL     OW23734   4.845   3.042   3.732
 7612SOL    HW123735   4.857   2.944   3.751
 7612SOL    HW223736   4.866   3.094   3.814
 7613SOL     OW23737   6.417   3.380   1.254
 7613SOL    HW123738   6.364   3.301   1.286
 7613SOL    HW223739   6.368   3.426   1.180
 7614SOL     OW23740   5.215   2.936   0.680
 7614SOL    HW123741   5.117   2.937   0.660
 7614SOL    HW223742   5.229   2.938   0.779
 7615SOL     OW23743   3.818   5.054   6.888
 7615SOL    HW123744   3.819   4.958   6.916
 7615SOL    HW223745   3.775   5.109   6.959
 7616SOL     OW23746   6.137   5.536   4.601
 7616SOL    HW123747   6.171   5.450   4.563
 7616SOL    HW223748   6.055   5.519   4.655
 7617SOL     OW23749   3.909   4.936   2.465
 7617SOL    HW123750   3.847   4.882   2.407
 7617SOL    HW223751   3.982   4.877   2.499
 7618SOL     OW23752   0.468   1.354   5.926
 7618SOL    HW123753   0.372   1.348   5.953
 7618SOL    HW223754   0.480   1.310   5.837
 7619SOL     OW23755   5.905   2.961   5.094
 7619SOL    HW123756   5.842   2.888   5.069
 7619SOL    HW223757   5.857   3.049   5.096
 7620SOL     OW23758   4.031   5.732   0.804
 7620SOL    HW123759   4.102   5.737   0.734
 7620SOL    HW223760   3.999   5.638   0.813
 7621SOL     OW23761   6.984   1.782   1.172
 7621SOL    HW123762   6.990   1.741   1.081
 7621SOL    HW223763   6.888   1.784   1.201
 7622SOL     OW23764   4.128   6.236   0.924
 7622SOL    HW123765   4.174   6.149   0.943
 7622SOL    HW223766   4.149   6.266   0.831
 7623SOL     OW23767   4.846   4.698   6.792
 7623SOL    HW123768   4.754   4.666   6.811
 7623SOL    HW223769   4.893   4.632   6.733
 7624SOL     OW23770   6.676   3.564   5.557
 7624SOL    HW123771   6.734   3.643   5.536
 7624SOL    HW223772   6.613   3.588   5.630
 7625SOL     OW23773   4.706   0.511   1.598
 7625SOL    HW123774   4.675   0.512   1.503
 7625SOL    HW223775   4.646   0.570   1.653
 7626SOL     OW23776   5.688   6.953   4.688
 7626SOL    HW123777   5.654   6.959   4.781
 7626SOL    HW223778   5.611   6.949   4.624
 7627SOL     OW23779   5.017   2.849   0.024
 7627SOL    HW123780   5.081   2.790   7.000
 7627SOL    HW223781   4.993   2.928   6.994
 7628SOL     OW23782   3.636   1.652   2.457
 7628SOL    HW123783   3.668   1.704   2.378
 7628SOL    HW223784   3.693   1.673   2.536
 7629SOL     OW23785   0.174   5.968   3.079
 7629SOL    HW123786   0.102   6.036   3.089
 7629SOL    HW223787   0.235   5.972   3.159
 7630SOL     OW23788   6.585   6.873   1.213
 7630SOL    HW123789   6.550   6.965   1.232
 7630SOL    HW223790   6.613   6.867   1.117
 7631SOL     OW23791   1.276   1.481   6.304
 7631SOL    HW123792   1.202   1.414   6.294
 7631SOL    HW223793   1.329   1.484   6.219
 7632SOL     OW23794   3.353   2.684   1.689
 7632SOL    HW123795   3.290   2.607   1.683
 7632SOL    HW223796   3.443   2.653   1.720
 7633SOL     OW23797   5.212   0.396   1.438
 7633SOL    HW123798   5.139   0.447   1.484
 7633SOL    HW223799   5.176   0.311   1.400
 7634SOL     OW23800   1.216   2.244   2.387
 7634SOL    HW123801   1.270   2.312   2.337
 7634SOL    HW223802   1.238   2.249   2.484
 7635SOL     OW23803   3.649   5.047   4.958
 7635SOL    HW123804   3.594   4.967   4.984
 7635SOL    HW223805   3.592   5.129   4.961
 7636SOL     OW23806   1.556   2.831   4.228
 7636SOL    HW123807   1.549   2.911   4.167
 7636SOL    HW223808   1.518   2.751   4.181
 7637SOL     OW23809   2.178   5.498   2.248
 7637SOL    HW123810   2.172   5.411   2.295
 7637SOL    HW223811   2.136   5.570   2.304
 7638SOL     OW23812   2.980   6.246   1.017
 7638SOL    HW123813   2.884   6.228   1.040
 7638SOL    HW223814   3.037   6.172   1.051
 7639SOL     OW23815   1.247   2.369   0.952
 7639SOL    HW123816   1.252   2.270   0.964
 7639SOL    HW223817   1.207   2.390   0.862
 7640SOL     OW23818   3.100   1.694   5.882
 7640SOL    HW123819   3.050   1.717   5.799
 7640SOL    HW223820   3.187   1.742   5.883
 7641SOL     OW23821   1.033   4.195   2.434
 7641SOL    HW123822   1.023   4.170   2.531
 7641SOL    HW223823   1.070   4.117   2.384
 7642SOL     OW23824   3.519   0.881   3.034
 7642SOL    HW123825   3.536   0.980   3.032
 7642SOL    HW223826   3.508   0.847   2.941
 7643SOL     OW23827   4.950   2.849   4.406
 7643SOL    HW123828   5.045   2.881   4.416
 7643SOL    HW223829   4.941   2.757   4.444
 7644SOL     OW23830   5.836   2.167   2.882
 7644SOL    HW123831   5.810   2.135   2.791
 7644SOL    HW223832   5.781   2.119   2.950
 7645SOL     OW23833   4.002   3.825   5.558
 7645SOL    HW123834   3.961   3.751   5.505
 7645SOL    HW223835   4.099   3.831   5.537
 7646SOL     OW23836   0.877   3.666   3.034
 7646SOL    HW123837   0.865   3.727   3.112
 7646SOL    HW223838   0.871   3.718   2.949
 7647SOL     OW23839   6.763   3.413   2.965
 7647SOL    HW123840   6.724   3.480   3.029
 7647SOL    HW223841   6.825   3.459   2.902
 7648SOL     OW23842   2.663   1.402   2.690
 7648SOL    HW123843   2.698   1.494   2.709
 7648SOL    HW223844   2.572   1.392   2.731
 7649SOL     OW23845   1.260   0.825   2.647
 7649SOL    HW123846   1.325   0.892   2.611
 7649SOL    HW223847   1.255   0.747   2.584
 7650SOL     OW23848   4.627   1.995   0.815
 7650SOL    HW123849   4.683   1.994   0.732
 7650SOL    HW223850   4.576   1.908   0.822
 7651SOL     OW23851   2.228   0.488   3.623
 7651SOL    HW123852   2.305   0.539   3.585
 7651SOL    HW223853   2.248   0.465   3.719
 7652SOL     OW23854   5.788   3.817   5.217
 7652SOL    HW123855   5.810   3.792   5.311
 7652SOL    HW223856   5.722   3.752   5.179
 7653SOL     OW23857   1.175   2.153   0.046
 7653SOL    HW123858   1.164   2.237   0.099
 7653SOL    HW223859   1.089   2.131   7.027
 7654SOL     OW23860   4.606   2.681   3.980
 7654SOL    HW123861   4.696   2.684   4.024
 7654SOL    HW223862   4.535   2.676   4.050
 7655SOL     OW23863   4.492   0.021   3.063
 7655SOL    HW123864   4.420   0.000   2.996
 7655SOL    HW223865   4.582   0.006   3.022
 7656SOL     OW23866   3.136   4.131   6.144
 7656SOL    HW123867   3.100   4.039   6.129
 7656SOL    HW223868   3.061   4.193   6.168
 7657SOL     OW23869   1.252   3.066   4.167
 7657SOL    HW123870   1.342   3.051   4.125
 7657SOL    HW223871   1.181   3.046   4.100
 7658SOL     OW23872   4.186   6.876   6.257
 7658SOL    HW123873   4.117   6.948   6.248
 7658SOL    HW223874   4.263   6.897   6.196
 7659SOL     OW23875   6.037   5.575   6.444
 7659SOL    HW123876   5.967   5.624   6.391
 7659SOL    HW223877   5.993   5.500   6.495
 7660SOL     OW23878   0.677   6.084   4.302
 7660SOL    HW123879   0.623   6.006   4.269
 7660SOL    HW223880   0.726   6.058   4.385
 7661SOL     OW23881   5.975   2.498   4.808
 7661SOL    HW123882   5.906   2.558   4.767
 7661SOL    HW223883   6.032   2.550   4.872
 7662SOL     OW23884   1.266   3.307   3.203
 7662SOL    HW123885   1.199   3.379   3.219
 7662SOL    HW223886   1.341   3.315   3.268
 7663SOL     OW23887   0.469   5.820   5.449
 7663SOL    HW123888   0.467   5.739   5.508
 7663SOL    HW223889   0.425   5.798   5.362
 7664SOL     OW23890   3.725   0.171   1.546
 7664SOL    HW123891   3.763   0.155   1.637
 7664SOL    HW223892   3.636   0.126   1.539
 7665SOL     OW23893   5.860   6.717   4.692
 7665SOL    HW123894   5.827   6.812   4.692
 7665SOL    HW223895   5.915   6.701   4.611
 7666SOL     OW23896   0.414   5.563   1.755
 7666SOL    HW123897   0.320   5.531   1.767
 7666SOL    HW223898   0.474   5.516   1.820
 7667SOL     OW23899   4.892   6.446   2.108
 7667SOL    HW123900   4.937   6.469   2.194
 7667SOL    HW223901   4.855   6.529   2.067
 7668SOL     OW23902   3.246   4.329   6.882
 7668SOL    HW123903   3.313   4.404   6.876
 7668SOL    HW223904   3.281   4.249   6.832
 7669SOL     OW23905   4.937   1.704   5.279
 7669SOL    HW123906   5.017   1.749   5.240
 7669SOL    HW223907   4.957   1.607   5.294
 7670SOL     OW23908   0.797   4.997   6.418
 7670SOL    HW123909   0.817   5.060   6.343
 7670SOL    HW223910   0.701   4.968   6.413
 7671SOL     OW23911   4.498   0.954   2.800
 7671SOL    HW123912   4.453   1.034   2.839
 7671SOL    HW223913   4.561   0.982   2.729
 7672SOL     OW23914   0.271   6.629   2.844
 7672SOL    HW123915   0.183   6.633   2.892
 7672SOL    HW223916   0.299   6.534   2.835
 7673SOL     OW23917   1.663   6.290   0.366
 7673SOL    HW123918   1.690   6.364   0.304
 7673SOL    HW223919   1.641   6.208   0.313
 7674SOL     OW23920   5.550   0.988   3.049
 7674SOL    HW123921   5.616   0.947   2.986
 7674SOL    HW223922   5.521   1.077   3.014
 7675SOL     OW23923   6.313   6.726   2.597
 7675SOL    HW123924   6.262   6.668   2.534
 7675SOL    HW223925   6.401   6.684   2.619
 7676SOL     OW23926   2.340   2.305   0.439
 7676SOL    HW123927   2.272   2.294   0.511
 7676SOL    HW223928   2.369   2.215   0.406
 7677SOL     OW23929   0.370   4.939   1.516
 7677SOL    HW123930   0.317   4.991   1.450
 7677SOL    HW223931   0.371   4.843   1.490
 7678SOL     OW23932   2.100   2.577   4.365
 7678SOL    HW123933   2.025   2.555   4.426
 7678SOL    HW223934   2.163   2.500   4.359
 7679SOL     OW23935   2.926   5.474   6.146
 7679SOL    HW123936   2.916   5.404   6.075
 7679SOL    HW223937   2.904   5.564   6.108
 7680SOL     OW23938   1.212   0.744   0.705
 7680SOL    HW123939   1.208   0.839   0.735
 7680SOL    HW223940   1.240   0.686   0.781
 7681SOL     OW23941   2.330   0.578   0.757
 7681SOL    HW123942   2.418   0.546   0.722
 7681SOL    HW223943   2.257   0.552   0.694
 7682SOL     OW23944   3.380   0.021   2.231
 7682SOL    HW123945   3.480   0.018   2.240
 7682SOL    HW223946   3.342   0.085   2.298
 7683SOL     OW23947   5.057   1.581   4.201
 7683SOL    HW123948   4.960   1.580   4.181
 7683SOL    HW223949   5.080   1.505   4.261
 7684SOL     OW23950   3.573   1.993   1.373
 7684SOL    HW123951   3.506   2.026   1.306
 7684SOL    HW223952   3.625   2.070   1.408
 7685SOL     OW23953   3.049   2.244   5.869
 7685SOL    HW123954   3.073   2.283   5.780
 7685SOL    HW223955   3.083   2.150   5.874
 7686SOL     OW23956   7.013   6.682   2.747
 7686SOL    HW123957   7.020   6.771   2.702
 7686SOL    HW223958   6.995   6.696   2.845
 7687SOL     OW23959   5.686   5.611   3.904
 7687SOL    HW123960   5.760   5.676   3.884
 7687SOL    HW223961   5.614   5.620   3.835
 7688SOL     OW23962   0.987   5.801   6.039
 7688SOL    HW123963   1.006   5.722   5.981
 7688SOL    HW223964   1.053   5.804   6.114
 7689SOL     OW23965   6.117   6.532   2.516
 7689SOL    HW123966   6.111   6.525   2.616
 7689SOL    HW223967   6.027   6.555   2.479
 7690SOL     OW23968   5.400   5.412   0.338
 7690SOL    HW123969   5.388   5.452   0.429
 7690SOL    HW223970   5.343   5.461   0.273
 7691SOL     OW23971   5.241   3.973   4.422
 7691SOL    HW123972   5.176   4.022   4.481
 7691SOL    HW223973   5.237   3.875   4.443
 7692SOL     OW23974   0.369   6.126   1.698
 7692SOL    HW123975   0.366   6.183   1.780
 7692SOL    HW223976   0.420   6.042   1.719
 7693SOL     OW23977   3.735   6.877   1.014
 7693SOL    HW123978   3.737   6.956   0.953
 7693SOL    HW223979   3.733   6.909   1.109
 7694SOL     OW23980   6.842   4.766   4.792
 7694SOL    HW123981   6.840   4.710   4.709
 7694SOL    HW223982   6.749   4.789   4.819
 7695SOL     OW23983   4.571   0.515   0.992
 7695SOL    HW123984   4.669   0.508   1.013
 7695SOL    HW223985   4.525   0.565   1.065
 7696SOL     OW23986   0.082   0.368   5.279
 7696SOL    HW123987   7.012   0.346   5.291
 7696SOL    HW223988   0.101   0.456   5.323
 7697SOL     OW23989   2.752   6.521   2.197
 7697SOL    HW123990   2.805   6.451   2.150
 7697SOL    HW223991   2.716   6.587   2.131
 7698SOL     OW23992   6.468   1.406   3.849
 7698SOL    HW123993   6.388   1.448   3.806
 7698SOL    HW223994   6.439   1.331   3.908
 7699SOL     OW23995   3.604   6.016   6.423
 7699SOL    HW123996   3.641   5.923   6.419
 7699SOL    HW223997   3.644   6.071   6.349
 7700SOL     OW23998   4.676   5.879   4.013
 7700SOL    HW123999   4.773   5.858   4.007
 7700SOL    HW224000   4.656   5.921   4.101
 7701SOL     OW24001   6.697   2.037   6.790
 7701SOL    HW124002   6.665   2.126   6.759
 7701SOL    HW224003   6.693   2.033   6.890
 7702SOL     OW24004   3.346   6.800   5.286
 7702SOL    HW124005   3.285   6.739   5.336
 7702SOL    HW224006   3.325   6.796   5.189
 7703SOL     OW24007   6.666   6.785   6.688
 7703SOL    HW124008   6.584   6.819   6.642
 7703SOL    HW224009   6.717   6.727   6.625
 7704SOL     OW24010   5.497   5.330   4.810
 7704SOL    HW124011   5.513   5.427   4.828
 7704SOL    HW224012   5.491   5.281   4.897
 7705SOL     OW24013   3.469   5.478   6.887
 7705SOL    HW124014   3.398   5.534   6.845
 7705SOL    HW224015   3.462   5.483   6.987
 7706SOL     OW24016   4.688   3.151   5.261
 7706SOL    HW124017   4.769   3.092   5.258
 7706SOL    HW224018   4.607   3.095   5.275
 7707SOL     OW24019   6.689   5.250   5.465
 7707SOL    HW124020   6.775   5.243   5.517
 7707SOL    HW224021   6.695   5.326   5.401
 7708SOL     OW24022   0.324   0.034   5.792
 7708SOL    HW124023   0.383   0.080   5.725
 7708SOL    HW224024   0.380   7.005   5.853
 7709SOL     OW24025   6.139   4.817   1.770
 7709SOL    HW124026   6.209   4.829   1.840
 7709SOL    HW224027   6.052   4.852   1.803
 7710SOL     OW24028   2.700   1.264   0.259
 7710SOL    HW124029   2.748   1.312   0.185
 7710SOL    HW224030   2.729   1.302   0.347
 7711SOL     OW24031   6.145   6.833   5.738
 7711SOL    HW124032   6.239   6.858   5.762
 7711SOL    HW224033   6.128   6.738   5.762
 7712SOL     OW24034   6.110   5.431   2.306
 7712SOL    HW124035   6.140   5.525   2.287
 7712SOL    HW224036   6.187   5.377   2.340
 7713SOL     OW24037   1.736   4.106   0.870
 7713SOL    HW124038   1.663   4.079   0.933
 7713SOL    HW224039   1.786   4.184   0.907
 7714SOL     OW24040   6.462   4.144   5.479
 7714SOL    HW124041   6.497   4.051   5.496
 7714SOL    HW224042   6.515   4.210   5.533
 7715SOL     OW24043   3.659   2.165   0.503
 7715SOL    HW124044   3.706   2.082   0.473
 7715SOL    HW224045   3.727   2.231   0.536
 7716SOL     OW24046   6.142   4.109   2.915
 7716SOL    HW124047   6.148   4.113   3.015
 7716SOL    HW224048   6.047   4.091   2.889
 7717SOL     OW24049   1.888   1.024   5.297
 7717SOL    HW124050   1.836   0.998   5.378
 7717SOL    HW224051   1.982   1.046   5.324
 7718SOL     OW24052   1.036   3.138   3.812
 7718SOL    HW124053   1.052   3.040   3.804
 7718SOL    HW224054   1.111   3.180   3.864
 7719SOL     OW24055   6.581   4.825   4.940
 7719SOL    HW124056   6.492   4.786   4.915
 7719SOL    HW224057   6.613   4.784   5.025
 7720SOL     OW24058   0.024   1.680   0.457
 7720SOL    HW124059   0.072   1.595   0.434
 7720SOL    HW224060   0.082   1.737   0.515
 7721SOL     OW24061   0.589   5.536   2.682
 7721SOL    HW124062   0.601   5.436   2.679
 7721SOL    HW224063   0.517   5.559   2.748
 7722SOL     OW24064   1.278   4.553   3.568
 7722SOL    HW124065   1.338   4.625   3.603
 7722SOL    HW224066   1.271   4.479   3.634
 7723SOL     OW24067   4.477   3.259   6.964
 7723SOL    HW124068   4.567   3.216   6.961
 7723SOL    HW224069   4.416   3.212   6.900
 7724SOL     OW24070   3.427   3.772   0.942
 7724SOL    HW124071   3.430   3.859   0.991
 7724SOL    HW224072   3.350   3.772   0.878
 7725SOL     OW24073   6.610   0.989   2.826
 7725SOL    HW124074   6.559   0.904   2.815
 7725SOL    HW224075   6.605   1.019   2.922
 7726SOL     OW24076   1.620   5.636   5.326
 7726SOL    HW124077   1.526   5.613   5.299
 7726SOL    HW224078   1.618   5.715   5.388
 7727SOL     OW24079   0.597   0.818   3.139
 7727SOL    HW124080   0.596   0.820   3.039
 7727SOL    HW224081   0.681   0.775   3.171
 7728SOL     OW24082   0.784   4.511   4.160
 7728SOL    HW124083   0.884   4.511   4.152
 7728SOL    HW224084   0.759   4.498   4.256
 7729SOL     OW24085   5.838   3.121   0.814
 7729SOL    HW124086   5.819   3.214   0.783
 7729SOL    HW224087   5.758   3.064   0.800
 7730SOL     OW24088   5.781   6.141   0.021
 7730SOL    HW124089   5.681   6.142   0.017
 7730SOL    HW224090   5.811   6.182   0.108
 7731SOL     OW24091   6.898   1.388   0.553
 7731SOL    HW124092   6.962   1.445   0.605
 7731SOL    HW224093   6.937   1.297   0.541
 7732SOL     OW24094   4.922   6.654   0.931
 7732SOL    HW124095   4.929   6.614   0.840
 7732SOL    HW224096   4.998   6.717   0.946
 7733SOL     OW24097   4.825   6.327   2.795
 7733SOL    HW124098   4.852   6.406   2.850
 7733SOL    HW224099   4.808   6.356   2.701
 7734SOL     OW24100   2.165   4.513   2.974
 7734SOL    HW124101   2.200   4.604   2.954
 7734SOL    HW224102   2.163   4.498   3.073
 7735SOL     OW24103   4.696   6.770   0.036
 7735SOL    HW124104   4.713   6.867   0.053
 7735SOL    HW224105   4.627   6.736   0.101
 7736SOL     OW24106   3.506   3.442   6.412
 7736SOL    HW124107   3.421   3.427   6.463
 7736SOL    HW224108   3.486   3.488   6.325
 7737SOL     OW24109   3.349   6.885   2.588
 7737SOL    HW124110   3.389   6.801   2.625
 7737SOL    HW224111   3.420   6.938   2.542
 7738SOL     OW24112   3.252   5.635   6.797
 7738SOL    HW124113   3.295   5.711   6.748
 7738SOL    HW224114   3.224   5.565   6.731
 7739SOL     OW24115   0.493   2.625   1.412
 7739SOL    HW124116   0.428   2.567   1.462
 7739SOL    HW224117   0.467   2.721   1.422
 7740SOL     OW24118   2.079   1.339   2.558
 7740SOL    HW124119   2.099   1.323   2.462
 7740SOL    HW224120   2.011   1.273   2.590
 7741SOL     OW24121   0.789   5.020   5.766
 7741SOL    HW124122   0.861   4.954   5.745
 7741SOL    HW224123   0.829   5.112   5.768
 7742SOL     OW24124   4.103   2.216   3.573
 7742SOL    HW124125   4.003   2.211   3.586
 7742SOL    HW224126   4.148   2.200   3.661
 7743SOL     OW24127   5.874   1.008   6.312
 7743SOL    HW124128   5.906   1.103   6.319
 7743SOL    HW224129   5.791   0.996   6.366
 7744SOL     OW24130   0.789   6.493   4.055
 7744SOL    HW124131   0.754   6.585   4.073
 7744SOL    HW224132   0.772   6.468   3.960
 7745SOL     OW24133   3.744   1.463   6.728
 7745SOL    HW124134   3.693   1.496   6.807
 7745SOL    HW224135   3.766   1.540   6.668
 7746SOL     OW24136   1.586   0.266   0.407
 7746SOL    HW124137   1.498   0.287   0.364
 7746SOL    HW224138   1.613   0.173   0.382
 7747SOL     OW24139   5.548   5.762   1.161
 7747SOL    HW124140   5.567   5.853   1.197
 7747SOL    HW224141   5.582   5.756   1.067
 7748SOL     OW24142   3.161   4.029   4.787
 7748SOL    HW124143   3.145   4.082   4.870
 7748SOL    HW224144   3.079   3.977   4.764
 7749SOL     OW24145   2.850   3.323   6.044
 7749SOL    HW124146   2.928   3.321   5.981
 7749SOL    HW224147   2.881   3.355   6.134
 7750SOL     OW24148   0.052   5.795   1.229
 7750SOL    HW124149   0.092   5.850   1.156
 7750SOL    HW224150   7.015   5.728   1.188
 7751SOL     OW24151   1.718   2.891   2.190
 7751SOL    HW124152   1.785   2.877   2.263
 7751SOL    HW224153   1.691   2.802   2.153
 7752SOL     OW24154   5.506   6.861   5.630
 7752SOL    HW124155   5.441   6.806   5.682
 7752SOL    HW224156   5.466   6.884   5.541
 7753SOL     OW24157   2.749   0.865   3.724
 7753SOL    HW124158   2.795   0.880   3.812
 7753SOL    HW224159   2.778   0.777   3.686
 7754SOL     OW24160   3.207   6.460   2.244
 7754SOL    HW124161   3.214   6.428   2.339
 7754SOL    HW224162   3.228   6.557   2.240
 7755SOL     OW24163   2.068   2.382   5.246
 7755SOL    HW124164   2.132   2.312   5.213
 7755SOL    HW224165   2.090   2.470   5.203
 7756SOL     OW24166   2.671   6.479   3.094
 7756SOL    HW124167   2.574   6.487   3.071
 7756SOL    HW224168   2.704   6.565   3.132
 7757SOL     OW24169   5.632   4.929   7.018
 7757SOL    HW124170   5.635   4.830   7.004
 7757SOL    HW224171   5.538   4.957   0.008
 7758SOL     OW24172   2.232   0.642   5.648
 7758SOL    HW124173   2.317   0.592   5.665
 7758SOL    HW224174   2.155   0.585   5.675
 7759SOL     OW24175   1.684   2.401   5.729
 7759SOL    HW124176   1.714   2.490   5.763
 7759SOL    HW224177   1.754   2.332   5.748
 7760SOL     OW24178   5.854   3.366   2.701
 7760SOL    HW124179   5.828   3.398   2.610
 7760SOL    HW224180   5.952   3.384   2.716
 7761SOL     OW24181   0.345   0.338   4.470
 7761SOL    HW124182   0.422   0.374   4.416
 7761SOL    HW224183   0.281   0.292   4.409
 7762SOL     OW24184   2.822   0.440   3.999
 7762SOL    HW124185   2.898   0.425   4.062
 7762SOL    HW224186   2.843   0.518   3.940
 7763SOL     OW24187   2.223   0.491   6.696
 7763SOL    HW124188   2.221   0.591   6.695
 7763SOL    HW224189   2.155   0.456   6.632
 7764SOL     OW24190   3.408   3.186   4.503
 7764SOL    HW124191   3.467   3.266   4.517
 7764SOL    HW224192   3.313   3.216   4.499
 7765SOL     OW24193   6.153   4.509   5.187
 7765SOL    HW124194   6.144   4.460   5.274
 7765SOL    HW224195   6.206   4.453   5.123
 7766SOL     OW24196   6.886   3.995   6.913
 7766SOL    HW124197   6.973   4.009   6.865
 7766SOL    HW224198   6.869   4.073   6.974
 7767SOL     OW24199   5.101   6.324   2.395
 7767SOL    HW124200   5.198   6.327   2.420
 7767SOL    HW224201   5.057   6.247   2.441
 7768SOL     OW24202   4.384   4.676   2.622
 7768SOL    HW124203   4.437   4.605   2.667
 7768SOL    HW224204   4.367   4.649   2.527
 7769SOL     OW24205   4.029   1.737   3.492
 7769SOL    HW124206   3.974   1.765   3.413
 7769SOL    HW224207   4.030   1.637   3.498
 7770SOL     OW24208   1.534   4.075   4.224
 7770SOL    HW124209   1.554   4.041   4.316
 7770SOL    HW224210   1.534   3.998   4.160
 7771SOL     OW24211   3.736   1.841   5.305
 7771SOL    HW124212   3.773   1.797   5.387
 7771SOL    HW224213   3.798   1.827   5.228
 7772SOL     OW24214   4.609   7.002   2.612
 7772SOL    HW124215   4.514   0.006   2.616
 7772SOL    HW224216   4.614   6.906   2.642
 7773SOL     OW24217   2.422   5.785   5.316
 7773SOL    HW124218   2.400   5.847   5.392
 7773SOL    HW224219   2.394   5.827   5.230
 7774SOL     OW24220   5.160   2.008   4.541
 7774SOL    HW124221   5.220   1.929   4.537
 7774SOL    HW224222   5.190   2.077   4.475
 7775SOL     OW24223   4.365   5.758   0.983
 7775SOL    HW124224   4.426   5.793   1.054
 7775SOL    HW224225   4.275   5.738   1.022
 7776SOL     OW24226   0.304   5.749   6.400
 7776SOL    HW124227   0.208   5.724   6.412
 7776SOL    HW224228   0.323   5.833   6.452
 7777SOL     OW24229   5.962   6.039   4.002
 7777SOL    HW124230   5.878   5.989   3.985
 7777SOL    HW224231   6.033   6.008   3.940
 7778SOL     OW24232   5.696   4.516   0.182
 7778SOL    HW124233   5.623   4.537   0.247
 7778SOL    HW224234   5.729   4.423   0.197
 7779SOL     OW24235   2.738   2.072   1.389
 7779SOL    HW124236   2.681   2.005   1.436
 7779SOL    HW224237   2.686   2.157   1.374
 7780SOL     OW24238   1.003   5.131   5.374
 7780SOL    HW124239   0.943   5.085   5.439
 7780SOL    HW224240   1.097   5.099   5.387
 7781SOL     OW24241   2.501   4.651   1.143
 7781SOL    HW124242   2.525   4.574   1.085
 7781SOL    HW224243   2.584   4.700   1.170
 7782SOL     OW24244   5.027   5.067   4.482
 7782SOL    HW124245   4.967   5.104   4.553
 7782SOL    HW224246   5.018   5.122   4.399
 7783SOL     OW24247   0.984   6.380   5.089
 7783SOL    HW124248   0.986   6.324   5.006
 7783SOL    HW224249   1.013   6.473   5.068
 7784SOL     OW24250   3.888   2.835   1.822
 7784SOL    HW124251   3.946   2.754   1.830
 7784SOL    HW224252   3.861   2.866   1.913
 7785SOL     OW24253   1.850   6.419   4.668
 7785SOL    HW124254   1.814   6.394   4.757
 7785SOL    HW224255   1.778   6.410   4.599
 7786SOL     OW24256   3.529   6.694   1.015
 7786SOL    HW124257   3.559   6.618   1.072
 7786SOL    HW224258   3.603   6.762   1.009
 7787SOL     OW24259   2.064   2.985   6.494
 7787SOL    HW124260   2.163   2.988   6.505
 7787SOL    HW224261   2.020   3.025   6.574
 7788SOL     OW24262   2.035   5.112   1.321
 7788SOL    HW124263   2.079   5.201   1.322
 7788SOL    HW224264   1.937   5.123   1.311
 7789SOL     OW24265   2.627   6.955   6.514
 7789SOL    HW124266   2.669   0.012   6.548
 7789SOL    HW224267   2.535   6.945   6.554
 7790SOL     OW24268   5.285   5.432   3.220
 7790SOL    HW124269   5.309   5.394   3.130
 7790SOL    HW224270   5.256   5.527   3.209
 7791SOL     OW24271   2.470   5.317   2.331
 7791SOL    HW124272   2.430   5.297   2.241
 7791SOL    HW224273   2.398   5.313   2.400
 7792SOL     OW24274   2.351   5.757   4.564
 7792SOL    HW124275   2.451   5.759   4.561
 7792SOL    HW224276   2.322   5.708   4.647
 7793SOL     OW24277   4.233   1.061   0.729
 7793SOL    HW124278   4.220   1.116   0.811
 7793SOL    HW224279   4.198   1.111   0.650
 7794SOL     OW24280   5.956   4.125   2.436
 7794SOL    HW124281   6.051   4.148   2.456
 7794SOL    HW224282   5.897   4.199   2.468
 7795SOL     OW24283   1.893   4.224   4.945
 7795SOL    HW124284   1.982   4.267   4.930
 7795SOL    HW224285   1.906   4.137   4.993
 7796SOL     OW24286   3.404   2.923   4.618
 7796SOL    HW124287   3.310   2.897   4.594
 7796SOL    HW224288   3.421   3.017   4.589
 7797SOL     OW24289   1.246   6.646   1.636
 7797SOL    HW124290   1.177   6.652   1.708
 7797SOL    HW224291   1.213   6.587   1.563
 7798SOL     OW24292   1.378   3.555   3.887
 7798SOL    HW124293   1.361   3.634   3.946
 7798SOL    HW224294   1.469   3.520   3.903
 7799SOL     OW24295   1.720   5.765   2.565
 7799SOL    HW124296   1.663   5.753   2.647
 7799SOL    HW224297   1.732   5.677   2.519
 7800SOL     OW24298   1.389   5.602   2.434
 7800SOL    HW124299   1.456   5.659   2.388
 7800SOL    HW224300   1.305   5.654   2.449
 7801SOL     OW24301   2.094   1.661   1.172
 7801SOL    HW124302   2.123   1.700   1.084
 7801SOL    HW224303   2.039   1.729   1.222
 7802SOL     OW24304   5.903   2.539   1.476
 7802SOL    HW124305   5.847   2.458   1.456
 7802SOL    HW224306   5.998   2.511   1.489
 7803SOL     OW24307   4.248   2.476   6.017
 7803SOL    HW124308   4.220   2.555   5.962
 7803SOL    HW224309   4.172   2.411   6.024
 7804SOL     OW24310   4.444   2.444   5.238
 7804SOL    HW124311   4.494   2.481   5.316
 7804SOL    HW224312   4.415   2.519   5.178
 7805SOL     OW24313   5.482   2.847   1.510
 7805SOL    HW124314   5.537   2.846   1.427
 7805SOL    HW224315   5.408   2.913   1.501
 7806SOL     OW24316   6.223   2.010   6.457
 7806SOL    HW124317   6.292   1.942   6.483
 7806SOL    HW224318   6.188   2.055   6.538
 7807SOL     OW24319   1.341   4.536   5.925
 7807SOL    HW124320   1.436   4.565   5.934
 7807SOL    HW224321   1.335   4.438   5.944
 7808SOL     OW24322   6.073   3.032   4.375
 7808SOL    HW124323   6.059   3.085   4.458
 7808SOL    HW224324   6.160   2.982   4.381
 7809SOL     OW24325   4.401   5.455   4.640
 7809SOL    HW124326   4.303   5.438   4.650
 7809SOL    HW224327   4.440   5.389   4.575
 7810SOL     OW24328   4.092   0.165   5.006
 7810SOL    HW124329   4.020   0.235   4.998
 7810SOL    HW224330   4.086   0.122   5.096
 7811SOL     OW24331   1.094   5.630   2.033
 7811SOL    HW124332   1.147   5.601   1.953
 7811SOL    HW224333   1.087   5.554   2.098
 7812SOL     OW24334   0.368   2.310   4.133
 7812SOL    HW124335   0.321   2.397   4.119
 7812SOL    HW224336   0.355   2.280   4.228
 7813SOL     OW24337   4.271   1.888   0.155
 7813SOL    HW124338   4.194   1.930   0.202
 7813SOL    HW224339   4.318   1.957   0.100
 7814SOL     OW24340   0.147   3.250   2.966
 7814SOL    HW124341   0.197   3.164   2.968
 7814SOL    HW224342   0.104   3.266   3.055
 7815SOL     OW24343   6.237   1.846   4.374
 7815SOL    HW124344   6.218   1.910   4.449
 7815SOL    HW224345   6.302   1.778   4.405
 7816SOL     OW24346   1.650   2.363   6.478
 7816SOL    HW124347   1.651   2.263   6.478
 7816SOL    HW224348   1.676   2.397   6.568
 7817SOL     OW24349   5.038   4.158   4.276
 7817SOL    HW124350   4.988   4.204   4.350
 7817SOL    HW224351   5.095   4.086   4.314
 7818SOL     OW24352   5.254   0.421   2.273
 7818SOL    HW124353   5.329   0.356   2.257
 7818SOL    HW224354   5.174   0.371   2.306
 7819SOL     OW24355   6.852   4.152   3.881
 7819SOL    HW124356   6.934   4.154   3.940
 7819SOL    HW224357   6.828   4.058   3.861
 7820SOL     OW24358   1.541   1.402   5.179
 7820SOL    HW124359   1.595   1.470   5.129
 7820SOL    HW224360   1.453   1.389   5.133
 7821SOL     OW24361   5.732   5.724   0.069
 7821SOL    HW124362   5.687   5.752   0.154
 7821SOL    HW224363   5.770   5.805   0.024
 7822SOL     OW24364   0.880   1.187   0.242
 7822SOL    HW124365   0.822   1.119   0.196
 7822SOL    HW224366   0.922   1.146   0.322
 7823SOL     OW24367   2.998   3.572   6.204
 7823SOL    HW124368   2.910   3.618   6.194
 7823SOL    HW224369   3.061   3.606   6.134
 7824SOL     OW24370   5.430   1.258   3.894
 7824SOL    HW124371   5.394   1.339   3.940
 7824SOL    HW224372   5.517   1.231   3.936
 7825SOL     OW24373   0.947   3.380   1.005
 7825SOL    HW124374   0.967   3.458   0.945
 7825SOL    HW224375   1.033   3.339   1.036
 7826SOL     OW24376   6.032   1.706   6.883
 7826SOL    HW124377   6.113   1.758   6.856
 7826SOL    HW224378   5.957   1.727   6.820
 7827SOL     OW24379   2.989   4.706   1.062
 7827SOL    HW124380   2.983   4.606   1.057
 7827SOL    HW224381   3.084   4.733   1.077
 7828SOL     OW24382   0.855   5.206   0.174
 7828SOL    HW124383   0.800   5.129   0.208
 7828SOL    HW224384   0.943   5.172   0.141
 7829SOL     OW24385   2.153   2.994   6.778
 7829SOL    HW124386   2.239   3.040   6.757
 7829SOL    HW224387   2.172   2.907   6.823
 7830SOL     OW24388   4.114   3.699   5.871
 7830SOL    HW124389   4.029   3.722   5.823
 7830SOL    HW224390   4.098   3.620   5.931
 7831SOL     OW24391   1.625   5.360   0.960
 7831SOL    HW124392   1.526   5.365   0.952
 7831SOL    HW224393   1.664   5.452   0.947
 7832SOL     OW24394   3.740   1.247   4.248
 7832SOL    HW124395   3.695   1.278   4.164
 7832SOL    HW224396   3.832   1.287   4.253
 7833SOL     OW24397   0.330   1.665   6.777
 7833SOL    HW124398   0.326   1.612   6.862
 7833SOL    HW224399   0.239   1.695   6.751
 7834SOL     OW24400   0.222   0.635   3.594
 7834SOL    HW124401   0.302   0.677   3.637
 7834SOL    HW224402   0.142   0.649   3.653
 7835SOL     OW24403   2.334   2.220   5.187
 7835SOL    HW124404   2.423   2.246   5.150
 7835SOL    HW224405   2.302   2.136   5.143
 7836SOL     OW24406   3.095   2.708   5.364
 7836SOL    HW124407   3.113   2.793   5.314
 7836SOL    HW224408   3.174   2.684   5.419
 7837SOL     OW24409   6.915   5.987   1.057
 7837SOL    HW124410   6.973   5.955   0.982
 7837SOL    HW224411   6.872   5.909   1.102
 7838SOL     OW24412   4.474   6.297   0.588
 7838SOL    HW124413   4.478   6.308   0.488
 7838SOL    HW224414   4.555   6.248   0.619
 7839SOL     OW24415   6.098   4.230   4.992
 7839SOL    HW124416   6.181   4.213   5.045
 7839SOL    HW224417   6.110   4.313   4.937
 7840SOL     OW24418   5.181   3.182   4.569
 7840SOL    HW124419   5.199   3.145   4.477
 7840SOL    HW224420   5.088   3.220   4.571
 7841SOL     OW24421   4.772   1.701   6.721
 7841SOL    HW124422   4.787   1.624   6.783
 7841SOL    HW224423   4.681   1.738   6.736
 7842SOL     OW24424   1.543   1.568   2.913
 7842SOL    HW124425   1.595   1.640   2.867
 7842SOL    HW224426   1.470   1.536   2.852
 7843SOL     OW24427   5.217   4.820   2.203
 7843SOL    HW124428   5.313   4.791   2.206
 7843SOL    HW224429   5.179   4.802   2.112
 7844SOL     OW24430   4.326   6.572   3.232
 7844SOL    HW124431   4.327   6.492   3.171
 7844SOL    HW224432   4.233   6.609   3.235
 7845SOL     OW24433   5.813   1.721   4.312
 7845SOL    HW124434   5.773   1.633   4.290
 7845SOL    HW224435   5.889   1.740   4.250
 7846SOL     OW24436   0.928   1.076   2.407
 7846SOL    HW124437   0.987   1.154   2.385
 7846SOL    HW224438   0.964   1.028   2.487
 7847SOL     OW24439   6.698   1.554   2.563
 7847SOL    HW124440   6.651   1.630   2.606
 7847SOL    HW224441   6.756   1.508   2.631
 7848SOL     OW24442   2.526   2.787   0.784
 7848SOL    HW124443   2.585   2.832   0.850
 7848SOL    HW224444   2.572   2.705   0.750
 7849SOL     OW24445   5.144   3.809   3.038
 7849SOL    HW124446   5.175   3.716   3.057
 7849SOL    HW224447   5.129   3.821   2.940
 7850SOL     OW24448   0.956   1.876   4.388
 7850SOL    HW124449   0.979   1.969   4.359
 7850SOL    HW224450   1.024   1.812   4.352
 7851SOL     OW24451   6.071   0.747   1.432
 7851SOL    HW124452   6.145   0.779   1.491
 7851SOL    HW224453   5.997   0.708   1.488
 7852SOL     OW24454   2.758   0.884   5.823
 7852SOL    HW124455   2.669   0.910   5.861
 7852SOL    HW224456   2.770   0.928   5.734
 7853SOL     OW24457   4.560   1.524   1.657
 7853SOL    HW124458   4.605   1.589   1.596
 7853SOL    HW224459   4.463   1.545   1.662
 7854SOL     OW24460   3.039   3.188   0.297
 7854SOL    HW124461   3.042   3.267   0.358
 7854SOL    HW224462   3.120   3.131   0.311
 7855SOL     OW24463   3.408   5.507   5.495
 7855SOL    HW124464   3.458   5.563   5.560
 7855SOL    HW224465   3.408   5.412   5.526
 7856SOL     OW24466   5.676   4.907   5.092
 7856SOL    HW124467   5.637   4.856   5.168
 7856SOL    HW224468   5.648   4.865   5.006
 7857SOL     OW24469   5.851   2.878   5.586
 7857SOL    HW124470   5.911   2.952   5.617
 7857SOL    HW224471   5.881   2.845   5.496
 7858SOL     OW24472   5.422   4.742   3.486
 7858SOL    HW124473   5.401   4.646   3.472
 7858SOL    HW224474   5.388   4.796   3.409
 7859SOL     OW24475   5.920   3.054   6.118
 7859SOL    HW124476   6.008   3.066   6.073
 7859SOL    HW224477   5.880   2.967   6.091
 7860SOL     OW24478   4.493   0.364   2.880
 7860SOL    HW124479   4.592   0.369   2.865
 7860SOL    HW224480   4.467   0.432   2.949
 7861SOL     OW24481   3.950   5.214   1.680
 7861SOL    HW124482   3.968   5.311   1.694
 7861SOL    HW224483   3.856   5.202   1.648
 7862SOL     OW24484   3.005   4.289   1.719
 7862SOL    HW124485   2.963   4.199   1.714
 7862SOL    HW224486   2.945   4.352   1.769
 7863SOL     OW24487   0.156   5.724   3.908
 7863SOL    HW124488   0.071   5.670   3.901
 7863SOL    HW224489   0.229   5.665   3.942
 7864SOL     OW24490   0.524   6.376   5.489
 7864SOL    HW124491   0.601   6.352   5.549
 7864SOL    HW224492   0.541   6.341   5.397
 7865SOL     OW24493   5.766   0.189   4.398
 7865SOL    HW124494   5.740   0.098   4.365
 7865SOL    HW224495   5.747   0.257   4.327
 7866SOL     OW24496   2.299   2.174   6.302
 7866SOL    HW124497   2.365   2.222   6.360
 7866SOL    HW224498   2.217   2.229   6.293
 7867SOL     OW24499   5.310   6.899   2.545
 7867SOL    HW124500   5.236   6.882   2.480
 7867SOL    HW224501   5.347   6.812   2.577
 7868SOL     OW24502   5.969   6.854   2.284
 7868SOL    HW124503   5.974   6.855   2.384
 7868SOL    HW224504   5.894   6.794   2.255
 7869SOL     OW24505   5.675   3.514   6.861
 7869SOL    HW124506   5.758   3.500   6.914
 7869SOL    HW224507   5.675   3.606   6.822
 7870SOL     OW24508   4.484   5.475   4.325
 7870SOL    HW124509   4.564   5.458   4.267
 7870SOL    HW224510   4.424   5.541   4.280
 7871SOL     OW24511   5.375   3.360   2.768
 7871SOL    HW124512   5.431   3.343   2.849
 7871SOL    HW224513   5.359   3.458   2.759
 7872SOL     OW24514   2.273   4.236   2.613
 7872SOL    HW124515   2.323   4.255   2.697
 7872SOL    HW224516   2.190   4.293   2.610
 7873SOL     OW24517   5.969   0.453   5.562
 7873SOL    HW124518   5.975   0.550   5.585
 7873SOL    HW224519   5.940   0.401   5.643
 7874SOL     OW24520   4.708   1.654   0.739
 7874SOL    HW124521   4.731   1.566   0.698
 7874SOL    HW224522   4.791   1.695   0.778
 7875SOL     OW24523   5.150   2.311   6.336
 7875SOL    HW124524   5.175   2.228   6.385
 7875SOL    HW224525   5.089   2.289   6.261
 7876SOL     OW24526   0.378   6.827   5.439
 7876SOL    HW124527   0.477   6.832   5.430
 7876SOL    HW224528   0.345   6.906   5.490
 7877SOL     OW24529   0.384   3.093   2.896
 7877SOL    HW124530   0.413   3.153   2.821
 7877SOL    HW224531   0.377   2.999   2.862
 7878SOL     OW24532   5.293   5.012   3.939
 7878SOL    HW124533   5.198   4.982   3.925
 7878SOL    HW224534   5.319   4.996   4.034
 7879SOL     OW24535   4.224   5.462   3.725
 7879SOL    HW124536   4.294   5.391   3.711
 7879SOL    HW224537   4.137   5.419   3.746
 7880SOL     OW24538   2.128   5.257   1.779
 7880SOL    HW124539   2.156   5.309   1.860
 7880SOL    HW224540   2.205   5.202   1.747
 7881SOL     OW24541   5.570   4.034   5.084
 7881SOL    HW124542   5.544   4.102   5.016
 7881SOL    HW224543   5.665   4.051   5.113
 7882SOL     OW24544   1.100   3.570   2.919
 7882SOL    HW124545   1.036   3.608   2.986
 7882SOL    HW224546   1.049   3.516   2.852
 7883SOL     OW24547   1.496   0.264   0.816
 7883SOL    HW124548   1.594   0.249   0.800
 7883SOL    HW224549   1.469   0.218   0.901
 7884SOL     OW24550   1.985   4.137   4.047
 7884SOL    HW124551   2.081   4.128   4.021
 7884SOL    HW224552   1.956   4.055   4.096
 7885SOL     OW24553   6.178   6.043   1.502
 7885SOL    HW124554   6.182   6.117   1.569
 7885SOL    HW224555   6.108   5.978   1.529
 7886SOL     OW24556   3.900   5.472   0.752
 7886SOL    HW124557   3.877   5.447   0.846
 7886SOL    HW224558   3.910   5.389   0.697
 7887SOL     OW24559   3.383   2.430   5.343
 7887SOL    HW124560   3.323   2.387   5.276
 7887SOL    HW224561   3.361   2.527   5.349
 7888SOL     OW24562   6.765   6.877   4.879
 7888SOL    HW124563   6.761   6.846   4.784
 7888SOL    HW224564   6.677   6.916   4.905
 7889SOL     OW24565   1.139   4.841   0.068
 7889SOL    HW124566   1.079   4.781   0.120
 7889SOL    HW224567   1.118   4.833   6.997
 7890SOL     OW24568   0.424   2.708   3.246
 7890SOL    HW124569   0.422   2.748   3.338
 7890SOL    HW224570   0.374   2.622   3.245
 7891SOL     OW24571   1.941   4.214   4.633
 7891SOL    HW124572   1.997   4.149   4.684
 7891SOL    HW224573   1.969   4.213   4.537
 7892SOL     OW24574   1.924   1.786   4.381
 7892SOL    HW124575   1.850   1.832   4.431
 7892SOL    HW224576   1.891   1.760   4.290
 7893SOL     OW24577   6.454   6.608   1.783
 7893SOL    HW124578   6.419   6.548   1.855
 7893SOL    HW224579   6.509   6.555   1.719
 7894SOL     OW24580   3.211   0.450   0.745
 7894SOL    HW124581   3.194   0.430   0.842
 7894SOL    HW224582   3.307   0.476   0.733
 7895SOL     OW24583   4.953   0.726   5.151
 7895SOL    HW124584   4.894   0.685   5.219
 7895SOL    HW224585   5.031   0.666   5.133
 7896SOL     OW24586   4.309   2.849   1.005
 7896SOL    HW124587   4.236   2.884   0.946
 7896SOL    HW224588   4.384   2.816   0.949
 7897SOL     OW24589   3.170   2.695   0.923
 7897SOL    HW124590   3.233   2.750   0.977
 7897SOL    HW224591   3.146   2.742   0.839
 7898SOL     OW24592   3.661   0.045   3.632
 7898SOL    HW124593   3.578   0.087   3.595
 7898SOL    HW224594   3.702   0.106   3.699
 7899SOL     OW24595   6.024   0.175   1.178
 7899SOL    HW124596   6.081   0.189   1.097
 7899SOL    HW224597   6.010   0.263   1.224
 7900SOL     OW24598   0.992   5.158   1.874
 7900SOL    HW124599   0.912   5.140   1.931
 7900SOL    HW224600   1.074   5.128   1.923
 7901SOL     OW24601   3.966   1.298   6.034
 7901SOL    HW124602   4.043   1.304   6.097
 7901SOL    HW224603   3.933   1.389   6.011
 7902SOL     OW24604   6.302   6.494   2.009
 7902SOL    HW124605   6.307   6.546   2.094
 7902SOL    HW224606   6.229   6.426   2.015
 7903SOL     OW24607   4.373   1.696   3.129
 7903SOL    HW124608   4.286   1.651   3.108
 7903SOL    HW224609   4.399   1.675   3.223
 7904SOL     OW24610   5.538   6.428   2.391
 7904SOL    HW124611   5.490   6.513   2.369
 7904SOL    HW224612   5.604   6.408   2.320
 7905SOL     OW24613   5.716   2.176   0.414
 7905SOL    HW124614   5.653   2.234   0.363
 7905SOL    HW224615   5.803   2.224   0.425
 7906SOL     OW24616   0.890   4.827   0.576
 7906SOL    HW124617   0.880   4.806   0.673
 7906SOL    HW224618   0.971   4.781   0.541
 7907SOL     OW24619   5.508   2.181   3.364
 7907SOL    HW124620   5.561   2.098   3.376
 7907SOL    HW224621   5.498   2.228   3.452
 7908SOL     OW24622   1.554   0.902   5.688
 7908SOL    HW124623   1.515   0.811   5.700
 7908SOL    HW224624   1.488   0.971   5.718
 7909SOL     OW24625   4.603   4.295   4.110
 7909SOL    HW124626   4.598   4.297   4.210
 7909SOL    HW224627   4.523   4.342   4.072
 7910SOL     OW24628   2.576   3.137   0.045
 7910SOL    HW124629   2.626   3.157   6.987
 7910SOL    HW224630   2.638   3.140   0.123
 7911SOL     OW24631   0.853   4.248   0.324
 7911SOL    HW124632   0.891   4.339   0.314
 7911SOL    HW224633   0.899   4.199   0.398
 7912SOL     OW24634   6.218   4.918   0.646
 7912SOL    HW124635   6.130   4.958   0.621
 7912SOL    HW224636   6.291   4.963   0.594
 7913SOL     OW24637   0.971   4.413   1.548
 7913SOL    HW124638   0.972   4.496   1.492
 7913SOL    HW224639   1.049   4.414   1.610
 7914SOL     OW24640   0.415   4.871   0.193
 7914SOL    HW124641   0.475   4.921   0.131
 7914SOL    HW224642   0.371   4.935   0.256
 7915SOL     OW24643   4.798   2.379   1.980
 7915SOL    HW124644   4.774   2.475   1.964
 7915SOL    HW224645   4.724   2.321   1.946
 7916SOL     OW24646   0.194   6.279   5.395
 7916SOL    HW124647   0.146   6.365   5.414
 7916SOL    HW224648   0.286   6.284   5.433
 7917SOL     OW24649   3.328   2.805   5.076
 7917SOL    HW124650   3.262   2.859   5.128
 7917SOL    HW224651   3.292   2.713   5.060
 7918SOL     OW24652   0.416   0.660   4.910
 7918SOL    HW124653   0.326   0.637   4.946
 7918SOL    HW224654   0.423   0.630   4.815
 7919SOL     OW24655   1.340   4.355   3.381
 7919SOL    HW124656   1.375   4.393   3.295
 7919SOL    HW224657   1.317   4.429   3.443
 7920SOL     OW24658   0.245   0.254   0.264
 7920SOL    HW124659   0.330   0.287   0.304
 7920SOL    HW224660   0.229   0.300   0.176
 7921SOL     OW24661   5.321   6.264   1.756
 7921SOL    HW124662   5.244   6.308   1.710
 7921SOL    HW224663   5.348   6.319   1.835
 7922SOL     OW24664   6.719   6.623   1.060
 7922SOL    HW124665   6.745   6.583   1.148
 7922SOL    HW224666   6.801   6.654   1.012
 7923SOL     OW24667   4.028   0.820   6.546
 7923SOL    HW124668   3.948   0.767   6.520
 7923SOL    HW224669   4.091   0.825   6.468
 7924SOL     OW24670   5.494   0.063   2.522
 7924SOL    HW124671   5.418   7.025   2.532
 7924SOL    HW224672   5.477   0.123   2.444
 7925SOL     OW24673   0.999   0.411   7.006
 7925SOL    HW124674   1.032   0.398   6.913
 7925SOL    HW224675   1.016   0.506   0.008
 7926SOL     OW24676   4.704   1.657   6.093
 7926SOL    HW124677   4.741   1.737   6.140
 7926SOL    HW224678   4.762   1.578   6.112
 7927SOL     OW24679   4.281   6.106   3.292
 7927SOL    HW124680   4.355   6.120   3.226
 7927SOL    HW224681   4.304   6.030   3.353
 7928SOL     OW24682   1.484   1.748   4.537
 7928SOL    HW124683   1.467   1.662   4.585
 7928SOL    HW224684   1.418   1.817   4.568
 7929SOL     OW24685   4.597   4.174   5.410
 7929SOL    HW124686   4.629   4.254   5.359
 7929SOL    HW224687   4.616   4.187   5.507
 7930SOL     OW24688   4.366   5.649   4.836
 7930SOL    HW124689   4.431   5.725   4.839
 7930SOL    HW224690   4.390   5.588   4.761
 7931SOL     OW24691   3.130   2.871   0.015
 7931SOL    HW124692   3.219   2.907   7.013
 7931SOL    HW224693   3.093   2.814   6.968
 7932SOL     OW24694   1.444   6.500   6.752
 7932SOL    HW124695   1.390   6.433   6.702
 7932SOL    HW224696   1.504   6.453   6.817
 7933SOL     OW24697   0.128   6.396   6.992
 7933SOL    HW124698   0.148   6.349   6.907
 7933SOL    HW224699   0.029   6.411   7.000
 7934SOL     OW24700   1.832   4.844   6.423
 7934SOL    HW124701   1.763   4.913   6.401
 7934SOL    HW224702   1.834   4.775   6.350
 7935SOL     OW24703   5.981   6.582   1.355
 7935SOL    HW124704   5.983   6.671   1.402
 7935SOL    HW224705   5.980   6.509   1.423
 7936SOL     OW24706   3.616   5.879   1.856
 7936SOL    HW124707   3.713   5.870   1.878
 7936SOL    HW224708   3.567   5.918   1.934
 7937SOL     OW24709   6.480   5.802   3.722
 7937SOL    HW124710   6.429   5.852   3.792
 7937SOL    HW224711   6.564   5.852   3.699
 7938SOL     OW24712   6.762   5.980   3.972
 7938SOL    HW124713   6.718   6.050   4.029
 7938SOL    HW224714   6.719   5.891   3.990
 7939SOL     OW24715   1.853   2.584   4.598
 7939SOL    HW124716   1.817   2.656   4.539
 7939SOL    HW224717   1.835   2.495   4.557
 7940SOL     OW24718   1.385   4.060   1.716
 7940SOL    HW124719   1.412   3.965   1.699
 7940SOL    HW224720   1.290   4.062   1.747
 7941SOL     OW24721   6.336   0.370   1.233
 7941SOL    HW124722   6.431   0.389   1.256
 7941SOL    HW224723   6.331   0.335   1.139
 7942SOL     OW24724   6.766   5.079   2.521
 7942SOL    HW124725   6.747   5.124   2.608
 7942SOL    HW224726   6.796   4.985   2.537
 7943SOL     OW24727   0.030   3.627   6.292
 7943SOL    HW124728   0.106   3.692   6.297
 7943SOL    HW224729   0.027   3.573   6.376
 7944SOL     OW24730   0.797   2.365   0.920
 7944SOL    HW124731   0.858   2.353   0.841
 7944SOL    HW224732   0.717   2.417   0.892
 7945SOL     OW24733   6.237   5.228   1.535
 7945SOL    HW124734   6.206   5.218   1.630
 7945SOL    HW224735   6.175   5.179   1.474
 7946SOL     OW24736   3.758   0.264   6.050
 7946SOL    HW124737   3.841   0.213   6.027
 7946SOL    HW224738   3.763   0.295   6.145
 7947SOL     OW24739   3.840   1.970   6.099
 7947SOL    HW124740   3.814   1.875   6.084
 7947SOL    HW224741   3.920   1.974   6.160
 7948SOL     OW24742   1.447   6.602   1.297
 7948SOL    HW124743   1.465   6.511   1.260
 7948SOL    HW224744   1.530   6.637   1.342
 7949SOL     OW24745   4.670   4.336   5.197
 7949SOL    HW124746   4.631   4.409   5.141
 7949SOL    HW224747   4.710   4.266   5.138
 7950SOL     OW24748   5.055   5.170   3.662
 7950SOL    HW124749   5.101   5.243   3.711
 7950SOL    HW224750   5.026   5.099   3.726
 7951SOL     OW24751   1.857   4.284   2.128
 7951SOL    HW124752   1.825   4.376   2.152
 7951SOL    HW224753   1.882   4.282   2.031
 7952SOL     OW24754   6.795   3.579   6.573
 7952SOL    HW124755   6.770   3.600   6.478
 7952SOL    HW224756   6.723   3.523   6.614
 7953SOL     OW24757   3.239   2.145   3.367
 7953SOL    HW124758   3.235   2.163   3.465
 7953SOL    HW224759   3.333   2.155   3.336
 7954SOL     OW24760   3.531   4.403   6.252
 7954SOL    HW124761   3.623   4.367   6.240
 7954SOL    HW224762   3.525   4.494   6.211
 7955SOL     OW24763   2.453   0.908   6.660
 7955SOL    HW124764   2.430   0.922   6.563
 7955SOL    HW224765   2.452   0.810   6.680
 7956SOL     OW24766   4.269   6.791   2.216
 7956SOL    HW124767   4.289   6.807   2.120
 7956SOL    HW224768   4.352   6.801   2.270
 7957SOL     OW24769   1.083   0.675   1.412
 7957SOL    HW124770   1.044   0.732   1.340
 7957SOL    HW224771   1.182   0.668   1.399
 7958SOL     OW24772   3.945   4.837   5.182
 7958SOL    HW124773   4.006   4.775   5.232
 7958SOL    HW224774   3.856   4.840   5.228
 7959SOL     OW24775   4.504   5.730   0.389
 7959SOL    HW124776   4.594   5.746   0.350
 7959SOL    HW224777   4.464   5.648   0.349
 7960SOL     OW24778   2.217   1.842   5.844
 7960SOL    HW124779   2.305   1.866   5.886
 7960SOL    HW224780   2.152   1.820   5.916
 7961SOL     OW24781   6.932   1.200   0.969
 7961SOL    HW124782   6.855   1.259   0.944
 7961SOL    HW224783   6.938   1.193   1.068
 7962SOL     OW24784   1.530   0.378   6.165
 7962SOL    HW124785   1.607   0.326   6.129
 7962SOL    HW224786   1.480   0.421   6.089
 7963SOL     OW24787   6.398   6.694   3.925
 7963SOL    HW124788   6.406   6.602   3.963
 7963SOL    HW224789   6.311   6.702   3.875
 7964SOL     OW24790   6.796   4.379   2.691
 7964SOL    HW124791   6.830   4.418   2.776
 7964SOL    HW224792   6.715   4.323   2.710
 7965SOL     OW24793   4.018   2.704   5.974
 7965SOL    HW124794   4.029   2.666   5.882
 7965SOL    HW224795   3.967   2.639   6.031
 7966SOL     OW24796   2.241   3.307   5.707
 7966SOL    HW124797   2.183   3.318   5.788
 7966SOL    HW224798   2.223   3.218   5.665
 7967SOL     OW24799   3.774   6.642   2.509
 7967SOL    HW124800   3.839   6.718   2.499
 7967SOL    HW224801   3.742   6.614   2.419
 7968SOL     OW24802   1.631   2.831   3.865
 7968SOL    HW124803   1.578   2.912   3.839
 7968SOL    HW224804   1.569   2.762   3.905
 7969SOL     OW24805   4.212   5.842   0.327
 7969SOL    HW124806   4.208   5.784   0.409
 7969SOL    HW224807   4.290   5.904   0.333
 7970SOL     OW24808   6.725   2.901   2.521
 7970SOL    HW124809   6.775   2.875   2.439
 7970SOL    HW224810   6.786   2.948   2.585
 7971SOL     OW24811   2.986   2.185   0.573
 7971SOL    HW124812   2.931   2.119   0.624
 7971SOL    HW224813   2.937   2.272   0.568
 7972SOL     OW24814   2.414   2.896   0.000
 7972SOL    HW124815   2.460   2.849   6.951
 7972SOL    HW224816   2.460   2.983   0.018
 7973SOL     OW24817   4.426   4.803   4.504
 7973SOL    HW124818   4.524   4.820   4.513
 7973SOL    HW224819   4.391   4.758   4.586
 7974SOL     OW24820   5.717   0.425   5.459
 7974SOL    HW124821   5.678   0.455   5.372
 7974SOL    HW224822   5.816   0.425   5.454
 7975SOL     OW24823   6.010   1.308   1.695
 7975SOL    HW124824   6.021   1.404   1.719
 7975SOL    HW224825   5.913   1.286   1.685
 7976SOL     OW24826   0.646   0.239   6.549
 7976SOL    HW124827   0.588   0.207   6.625
 7976SOL    HW224828   0.662   0.163   6.486
 7977SOL     OW24829   4.738   5.952   2.620
 7977SOL    HW124830   4.681   5.926   2.698
 7977SOL    HW224831   4.708   5.902   2.539
 7978SOL     OW24832   5.604   3.225   6.562
 7978SOL    HW124833   5.566   3.190   6.648
 7978SOL    HW224834   5.582   3.162   6.487
 7979SOL     OW24835   4.227   6.389   5.127
 7979SOL    HW124836   4.303   6.448   5.100
 7979SOL    HW224837   4.208   6.402   5.225
 7980SOL     OW24838   3.098   5.580   7.008
 7980SOL    HW124839   3.149   5.622   6.932
 7980SOL    HW224840   3.023   5.525   6.972
 7981SOL     OW24841   0.344   4.981   1.808
 7981SOL    HW124842   0.439   4.979   1.839
 7981SOL    HW224843   0.341   4.955   1.711
 7982SOL     OW24844   1.530   1.339   6.777
 7982SOL    HW124845   1.492   1.432   6.769
 7982SOL    HW224846   1.628   1.342   6.759
 7983SOL     OW24847   5.975   1.859   2.209
 7983SOL    HW124848   5.954   1.769   2.170
 7983SOL    HW224849   5.895   1.893   2.258
 7984SOL     OW24850   1.028   1.180   0.902
 7984SOL    HW124851   1.005   1.133   0.987
 7984SOL    HW224852   0.986   1.270   0.901
 7985SOL     OW24853   3.193   0.968   4.553
 7985SOL    HW124854   3.164   1.024   4.631
 7985SOL    HW224855   3.292   0.951   4.559
 7986SOL     OW24856   3.517   0.697   6.680
 7986SOL    HW124857   3.505   0.782   6.628
 7986SOL    HW224858   3.445   0.690   6.749
 7987SOL     OW24859   2.113   2.418   0.132
 7987SOL    HW124860   2.114   2.518   0.142
 7987SOL    HW224861   2.122   2.376   0.222
 7988SOL     OW24862   0.052   1.689   3.645
 7988SOL    HW124863   0.133   1.631   3.662
 7988SOL    HW224864   0.046   1.759   3.715
 7989SOL     OW24865   3.062   2.603   6.471
 7989SOL    HW124866   3.117   2.519   6.468
 7989SOL    HW224867   2.975   2.588   6.424
 7990SOL     OW24868   0.552   4.160   4.732
 7990SOL    HW124869   0.497   4.208   4.662
 7990SOL    HW224870   0.547   4.062   4.716
 7991SOL     OW24871   5.171   6.656   3.603
 7991SOL    HW124872   5.255   6.637   3.552
 7991SOL    HW224873   5.107   6.705   3.545
 7992SOL     OW24874   1.062   0.018   0.649
 7992SOL    HW124875   1.086   6.967   0.591
 7992SOL    HW224876   1.130   0.091   0.637
 7993SOL     OW24877   0.759   0.002   0.609
 7993SOL    HW124878   0.853   0.014   0.641
 7993SOL    HW224879   0.756   6.953   0.543
 7994SOL     OW24880   4.034   6.997   3.324
 7994SOL    HW124881   3.993   0.028   3.395
 7994SOL    HW224882   4.124   0.006   3.300
 7995SOL     OW24883   5.458   5.995   3.990
 7995SOL    HW124884   5.486   6.056   3.916
 7995SOL    HW224885   5.452   6.047   4.075
 7996SOL     OW24886   2.851   6.817   5.294
 7996SOL    HW124887   2.760   6.786   5.322
 7996SOL    HW224888   2.890   6.873   5.367
 7997SOL     OW24889   0.198   1.774   1.313
 7997SOL    HW124890   0.112   1.784   1.263
 7997SOL    HW224891   0.180   1.779   1.411
 7998SOL     OW24892   3.058   6.741   0.288
 7998SOL    HW124893   3.028   6.661   0.340
 7998SOL    HW224894   3.157   6.738   0.276
 7999SOL     OW24895   0.957   0.293   6.012
 7999SOL    HW124896   0.925   0.378   5.970
 7999SOL    HW224897   0.969   0.224   5.941
 8000SOL     OW24898   4.582   0.170   0.336
 8000SOL    HW124899   4.599   0.265   0.361
 8000SOL    HW224900   4.573   0.115   0.419
 8001SOL     OW24901   4.226   6.528   1.265
 8001SOL    HW124902   4.248   6.445   1.316
 8001SOL    HW224903   4.161   6.505   1.192
 8002SOL     OW24904   1.429   1.150   5.755
 8002SOL    HW124905   1.454   1.135   5.851
 8002SOL    HW224906   1.444   1.246   5.731
 8003SOL     OW24907   2.930   5.100   2.404
 8003SOL    HW124908   2.854   5.165   2.406
 8003SOL    HW224909   2.907   5.019   2.457
 8004SOL     OW24910   1.969   3.266   2.648
 8004SOL    HW124911   1.923   3.270   2.560
 8004SOL    HW224912   1.967   3.172   2.683
 8005SOL     OW24913   2.732   0.812   2.052
 8005SOL    HW124914   2.780   0.843   2.134
 8005SOL    HW224915   2.685   0.889   2.010
 8006SOL     OW24916   2.196   6.367   5.885
 8006SOL    HW124917   2.205   6.290   5.948
 8006SOL    HW224918   2.114   6.355   5.829
 8007SOL     OW24919   6.430   0.721   4.278
 8007SOL    HW124920   6.519   0.685   4.306
 8007SOL    HW224921   6.424   0.818   4.301
 8008SOL     OW24922   4.086   5.514   6.285
 8008SOL    HW124923   4.029   5.495   6.364
 8008SOL    HW224924   4.091   5.612   6.270
 8009SOL     OW24925   5.986   0.890   2.225
 8009SOL    HW124926   5.946   0.822   2.165
 8009SOL    HW224927   6.078   0.861   2.253
 8010SOL     OW24928   1.170   1.878   5.731
 8010SOL    HW124929   1.250   1.872   5.671
 8010SOL    HW224930   1.113   1.956   5.702
 8011SOL     OW24931   2.878   2.583   0.762
 8011SOL    HW124932   2.844   2.620   0.849
 8011SOL    HW224933   2.862   2.484   0.759
 8012SOL     OW24934   1.726   3.804   0.864
 8012SOL    HW124935   1.730   3.759   0.954
 8012SOL    HW224936   1.754   3.899   0.873
 8013SOL     OW24937   1.376   5.200   3.121
 8013SOL    HW124938   1.348   5.150   3.203
 8013SOL    HW224939   1.415   5.288   3.148
 8014SOL     OW24940   1.227   6.050   5.217
 8014SOL    HW124941   1.184   6.054   5.307
 8014SOL    HW224942   1.325   6.031   5.228
 8015SOL     OW24943   3.417   0.882   6.355
 8015SOL    HW124944   3.381   0.928   6.274
 8015SOL    HW224945   3.509   0.848   6.336
 8016SOL     OW24946   4.737   0.531   5.748
 8016SOL    HW124947   4.807   0.486   5.693
 8016SOL    HW224948   4.762   0.627   5.762
 8017SOL     OW24949   5.754   0.520   0.430
 8017SOL    HW124950   5.825   0.464   0.473
 8017SOL    HW224951   5.775   0.531   0.333
 8018SOL     OW24952   3.446   1.778   6.411
 8018SOL    HW124953   3.454   1.864   6.360
 8018SOL    HW224954   3.532   1.759   6.458
 8019SOL     OW24955   2.144   4.474   0.121
 8019SOL    HW124956   2.046   4.494   0.117
 8019SOL    HW224957   2.196   4.559   0.112
 8020SOL     OW24958   5.634   0.944   0.916
 8020SOL    HW124959   5.713   0.883   0.916
 8020SOL    HW224960   5.552   0.893   0.939
 8021SOL     OW24961   1.574   2.872   1.424
 8021SOL    HW124962   1.532   2.865   1.333
 8021SOL    HW224963   1.522   2.817   1.489
 8022SOL     OW24964   5.656   6.896   2.852
 8022SOL    HW124965   5.692   6.909   2.760
 8022SOL    HW224966   5.578   6.834   2.849
 8023SOL     OW24967   5.698   5.135   2.524
 8023SOL    HW124968   5.661   5.228   2.528
 8023SOL    HW224969   5.665   5.082   2.602
 8024SOL     OW24970   1.612   4.569   5.949
 8024SOL    HW124971   1.640   4.651   5.899
 8024SOL    HW224972   1.636   4.488   5.896
 8025SOL     OW24973   2.052   6.236   0.023
 8025SOL    HW124974   2.000   6.174   0.082
 8025SOL    HW224975   2.140   6.194   0.001
 8026SOL     OW24976   0.282   4.378   6.963
 8026SOL    HW124977   0.267   4.307   0.005
 8026SOL    HW224978   0.220   4.364   6.886
 8027SOL     OW24979   4.833   0.811   4.734
 8027SOL    HW124980   4.760   0.756   4.696
 8027SOL    HW224981   4.899   0.752   4.781
 8028SOL     OW24982   3.777   5.826   5.724
 8028SOL    HW124983   3.853   5.805   5.663
 8028SOL    HW224984   3.810   5.839   5.817
 8029SOL     OW24985   4.778   3.197   1.048
 8029SOL    HW124986   4.682   3.172   1.061
 8029SOL    HW224987   4.830   3.115   1.023
 8030SOL     OW24988   4.170   4.713   0.567
 8030SOL    HW124989   4.122   4.696   0.653
 8030SOL    HW224990   4.152   4.639   0.504
 8031SOL     OW24991   6.544   6.609   2.718
 8031SOL    HW124992   6.529   6.537   2.649
 8031SOL    HW224993   6.624   6.586   2.772
 8032SOL     OW24994   6.308   4.459   1.393
 8032SOL    HW124995   6.247   4.390   1.355
 8032SOL    HW224996   6.354   4.423   1.474
 8033SOL     OW24997   5.089   1.875   5.898
 8033SOL    HW124998   5.106   1.873   5.799
 8033SOL    HW224999   5.095   1.782   5.934
 8034SOL     OW25000   4.847   0.161   4.194
 8034SOL    HW125001   4.919   0.096   4.219
 8034SOL    HW225002   4.849   0.175   4.095
 8035SOL     OW25003   4.911   1.727   4.478
 8035SOL    HW125004   4.821   1.683   4.478
 8035SOL    HW225005   4.902   1.821   4.513
 8036SOL     OW25006   6.765   3.915   3.798
 8036SOL    HW125007   6.678   3.878   3.829
 8036SOL    HW225008   6.839   3.855   3.827
 8037SOL     OW25009   1.548   3.197   0.511
 8037SOL    HW125010   1.514   3.273   0.567
 8037SOL    HW225011   1.554   3.115   0.568
 8038SOL     OW25012   4.447   0.044   2.239
 8038SOL    HW125013   4.465   0.085   2.150
 8038SOL    HW225014   4.512   6.997   2.257
 8039SOL     OW25015   1.229   1.786   4.737
 8039SOL    HW125016   1.145   1.740   4.711
 8039SOL    HW225017   1.228   1.880   4.704
 8040SOL     OW25018   1.453   5.317   6.920
 8040SOL    HW125019   1.423   5.223   6.904
 8040SOL    HW225020   1.546   5.329   6.883
 8041SOL     OW25021   2.341   1.385   2.568
 8041SOL    HW125022   2.363   1.431   2.482
 8041SOL    HW225023   2.242   1.373   2.575
 8042SOL     OW25024   3.190   3.050   4.123
 8042SOL    HW125025   3.198   3.052   4.023
 8042SOL    HW225026   3.104   3.092   4.150
 8043SOL     OW25027   3.464   6.453   1.410
 8043SOL    HW125028   3.374   6.466   1.369
 8043SOL    HW225029   3.459   6.477   1.507
 8044SOL     OW25030   3.904   1.985   1.363
 8044SOL    HW125031   3.989   2.003   1.413
 8044SOL    HW225032   3.926   1.957   1.269
 8045SOL     OW25033   5.462   2.234   3.103
 8045SOL    HW125034   5.377   2.186   3.081
 8045SOL    HW225035   5.483   2.222   3.200
 8046SOL     OW25036   0.393   5.267   1.441
 8046SOL    HW125037   0.342   5.331   1.499
 8046SOL    HW225038   0.490   5.271   1.464
 8047SOL     OW25039   4.198   5.961   4.546
 8047SOL    HW125040   4.176   6.051   4.585
 8047SOL    HW225041   4.114   5.906   4.541
 8048SOL     OW25042   5.494   1.265   5.785
 8048SOL    HW125043   5.506   1.360   5.813
 8048SOL    HW225044   5.472   1.262   5.687
 8049SOL     OW25045   0.720   0.155   0.358
 8049SOL    HW125046   0.807   0.204   0.348
 8049SOL    HW225047   0.713   0.119   0.451
 8050SOL     OW25048   1.644   3.472   3.599
 8050SOL    HW125049   1.739   3.481   3.569
 8050SOL    HW225050   1.633   3.515   3.689
 8051SOL     OW25051   4.613   5.801   3.610
 8051SOL    HW125052   4.608   5.880   3.671
 8051SOL    HW225053   4.607   5.717   3.664
 8052SOL     OW25054   4.082   1.130   1.190
 8052SOL    HW125055   4.146   1.195   1.148
 8052SOL    HW225056   4.117   1.037   1.181
 8053SOL     OW25057   2.924   3.613   3.796
 8053SOL    HW125058   2.916   3.690   3.859
 8053SOL    HW225059   2.939   3.646   3.703
 8054SOL     OW25060   5.954   5.818   4.457
 8054SOL    HW125061   6.044   5.795   4.493
 8054SOL    HW225062   5.959   5.824   4.357
 8055SOL     OW25063   0.297   0.319   5.112
 8055SOL    HW125064   0.206   0.316   5.154
 8055SOL    HW225065   0.367   0.309   5.182
 8056SOL     OW25066   2.325   1.152   3.217
 8056SOL    HW125067   2.414   1.192   3.195
 8056SOL    HW225068   2.261   1.224   3.241
 8057SOL     OW25069   3.031   2.170   2.708
 8057SOL    HW125070   2.932   2.168   2.715
 8057SOL    HW225071   3.070   2.216   2.788
 8058SOL     OW25072   3.756   0.081   3.048
 8058SOL    HW125073   3.681   0.082   2.981
 8058SOL    HW225074   3.826   0.016   3.018
 8059SOL     OW25075   3.103   1.904   5.253
 8059SOL    HW125076   3.187   1.942   5.291
 8059SOL    HW225077   3.111   1.805   5.245
 8060SOL     OW25078   6.230   2.224   5.374
 8060SOL    HW125079   6.326   2.199   5.367
 8060SOL    HW225080   6.174   2.141   5.378
 8061SOL     OW25081   0.151   0.607   3.043
 8061SOL    HW125082   0.125   0.591   3.138
 8061SOL    HW225083   0.245   0.575   3.029
 8062SOL     OW25084   3.726   5.213   4.160
 8062SOL    HW125085   3.722   5.148   4.235
 8062SOL    HW225086   3.774   5.296   4.190
 8063SOL     OW25087   2.074   2.184   1.906
 8063SOL    HW125088   2.083   2.254   1.977
 8063SOL    HW225089   2.135   2.108   1.927
 8064SOL     OW25090   6.669   3.016   1.743
 8064SOL    HW125091   6.643   3.100   1.695
 8064SOL    HW225092   6.755   3.032   1.791
 8065SOL     OW25093   2.887   5.495   3.625
 8065SOL    HW125094   2.799   5.466   3.585
 8065SOL    HW225095   2.871   5.531   3.717
 8066SOL     OW25096   1.027   1.858   5.437
 8066SOL    HW125097   1.065   1.797   5.507
 8066SOL    HW225098   0.942   1.818   5.402
 8067SOL     OW25099   4.737   2.667   2.211
 8067SOL    HW125100   4.733   2.754   2.261
 8067SOL    HW225101   4.824   2.623   2.231
 8068SOL     OW25102   0.054   3.710   1.512
 8068SOL    HW125103   7.007   3.720   1.578
 8068SOL    HW225104   0.028   3.755   1.426
 8069SOL     OW25105   3.090   6.159   1.398
 8069SOL    HW125106   3.001   6.123   1.425
 8069SOL    HW225107   3.111   6.240   1.453
 8070SOL     OW25108   4.306   3.675   0.607
 8070SOL    HW125109   4.290   3.658   0.510
 8070SOL    HW225110   4.398   3.713   0.620
 8071SOL     OW25111   3.423   6.500   4.617
 8071SOL    HW125112   3.431   6.595   4.645
 8071SOL    HW225113   3.384   6.446   4.692
 8072SOL     OW25114   4.283   1.945   0.777
 8072SOL    HW125115   4.200   1.985   0.816
 8072SOL    HW225116   4.326   2.012   0.716
 8073SOL     OW25117   3.071   5.183   4.902
 8073SOL    HW125118   3.010   5.213   4.829
 8073SOL    HW225119   3.044   5.092   4.933
 8074SOL     OW25120   3.249   2.993   0.290
 8074SOL    HW125121   3.287   2.956   0.375
 8074SOL    HW225122   3.199   2.921   0.242
 8075SOL     OW25123   0.145   0.412   0.794
 8075SOL    HW125124   0.134   0.459   0.707
 8075SOL    HW225125   0.057   0.406   0.841
 8076SOL     OW25126   6.129   1.407   5.468
 8076SOL    HW125127   6.146   1.365   5.379
 8076SOL    HW225128   6.136   1.506   5.461
 8077SOL     OW25129   3.431   6.110   2.569
 8077SOL    HW125130   3.473   6.195   2.537
 8077SOL    HW225131   3.430   6.108   2.669
 8078SOL     OW25132   0.366   1.976   0.477
 8078SOL    HW125133   0.384   1.880   0.455
 8078SOL    HW225134   0.401   1.997   0.568
 8079SOL     OW25135   5.466   1.890   3.702
 8079SOL    HW125136   5.393   1.957   3.712
 8079SOL    HW225137   5.455   1.817   3.770
 8080SOL     OW25138   1.094   2.436   1.326
 8080SOL    HW125139   1.037   2.480   1.257
 8080SOL    HW225140   1.188   2.469   1.318
 8081SOL     OW25141   6.246   5.724   5.843
 8081SOL    HW125142   6.301   5.733   5.760
 8081SOL    HW225143   6.251   5.809   5.896
 8082SOL     OW25144   4.757   0.028   2.943
 8082SOL    HW125145   4.794   0.114   2.978
 8082SOL    HW225146   4.809   0.001   2.862
 8083SOL     OW25147   4.993   2.808   3.454
 8083SOL    HW125148   4.930   2.877   3.418
 8083SOL    HW225149   4.941   2.728   3.483
 8084SOL     OW25150   3.824   6.606   0.137
 8084SOL    HW125151   3.728   6.577   0.142
 8084SOL    HW225152   3.841   6.676   0.206
 8085SOL     OW25153   6.923   6.287   2.270
 8085SOL    HW125154   7.017   6.266   2.245
 8085SOL    HW225155   6.868   6.203   2.267
 8086SOL     OW25156   5.759   0.305   2.848
 8086SOL    HW125157   5.761   0.243   2.927
 8086SOL    HW225158   5.670   0.300   2.804
 8087SOL     OW25159   2.576   1.066   0.095
 8087SOL    HW125160   2.627   1.130   0.153
 8087SOL    HW225161   2.593   0.972   0.125
 8088SOL     OW25162   5.709   2.018   1.488
 8088SOL    HW125163   5.713   2.052   1.582
 8088SOL    HW225164   5.802   2.003   1.454
 8089SOL     OW25165   5.706   2.542   0.440
 8089SOL    HW125166   5.717   2.501   0.350
 8089SOL    HW225167   5.787   2.597   0.462
 8090SOL     OW25168   4.451   2.120   0.025
 8090SOL    HW125169   4.384   2.194   0.030
 8090SOL    HW225170   4.520   2.132   0.097
 8091SOL     OW25171   2.162   3.531   5.091
 8091SOL    HW125172   2.229   3.505   5.161
 8091SOL    HW225173   2.203   3.595   5.027
 8092SOL     OW25174   5.059   1.665   4.942
 8092SOL    HW125175   5.062   1.755   4.985
 8092SOL    HW225176   4.964   1.635   4.934
 8093SOL     OW25177   4.047   5.429   2.518
 8093SOL    HW125178   4.011   5.487   2.591
 8093SOL    HW225179   4.032   5.474   2.429
 8094SOL     OW25180   0.892   3.497   4.496
 8094SOL    HW125181   0.958   3.570   4.515
 8094SOL    HW225182   0.826   3.528   4.428
 8095SOL     OW25183   0.510   4.475   4.688
 8095SOL    HW125184   0.431   4.449   4.743
 8095SOL    HW225185   0.586   4.414   4.708
 8096SOL     OW25186   2.292   6.524   3.332
 8096SOL    HW125187   2.223   6.547   3.401
 8096SOL    HW225188   2.382   6.520   3.375
 8097SOL     OW25189   3.933   0.226   4.107
 8097SOL    HW125190   3.862   0.296   4.101
 8097SOL    HW225191   4.019   0.262   4.072
 8098SOL     OW25192   1.506   6.633   3.213
 8098SOL    HW125193   1.539   6.551   3.262
 8098SOL    HW225194   1.446   6.685   3.274
 8099SOL     OW25195   3.829   6.845   4.898
 8099SOL    HW125196   3.784   6.806   4.978
 8099SOL    HW225197   3.821   6.945   4.901
 8100SOL     OW25198   6.543   0.928   0.920
 8100SOL    HW125199   6.632   0.889   0.898
 8100SOL    HW225200   6.473   0.886   0.863
 8101SOL     OW25201   1.962   6.230   2.416
 8101SOL    HW125202   2.053   6.259   2.385
 8101SOL    HW225203   1.947   6.135   2.391
 8102SOL     OW25204   0.940   4.246   3.982
 8102SOL    HW125205   0.918   4.272   3.888
 8102SOL    HW225206   0.916   4.321   4.044
 8103SOL     OW25207   2.922   7.011   1.073
 8103SOL    HW125208   2.874   0.066   1.041
 8103SOL    HW225209   2.939   6.949   0.995
 8104SOL     OW25210   3.482   0.768   5.944
 8104SOL    HW125211   3.420   0.841   5.974
 8104SOL    HW225212   3.444   0.725   5.862
 8105SOL     OW25213   1.016   3.002   3.206
 8105SOL    HW125214   0.957   3.055   3.267
 8105SOL    HW225215   0.960   2.959   3.135
 8106SOL     OW25216   2.274   6.187   3.059
 8106SOL    HW125217   2.179   6.207   3.035
 8106SOL    HW225218   2.312   6.123   2.992
 8107SOL     OW25219   0.646   5.157   4.606
 8107SOL    HW125220   0.587   5.171   4.685
 8107SOL    HW225221   0.657   5.058   4.590
 8108SOL     OW25222   6.135   2.817   5.754
 8108SOL    HW125223   6.120   2.786   5.848
 8108SOL    HW225224   6.098   2.908   5.742
 8109SOL     OW25225   0.822   3.758   4.837
 8109SOL    HW125226   0.801   3.660   4.835
 8109SOL    HW225227   0.918   3.771   4.864
 8110SOL     OW25228   3.114   6.045   1.128
 8110SOL    HW125229   3.207   6.034   1.092
 8110SOL    HW225230   3.119   6.063   1.227
 8111SOL     OW25231   5.245   0.703   4.743
 8111SOL    HW125232   5.330   0.651   4.743
 8111SOL    HW225233   5.254   0.783   4.803
 8112SOL     OW25234   1.840   2.493   4.026
 8112SOL    HW125235   1.936   2.489   3.998
 8112SOL    HW225236   1.795   2.407   4.002
 8113SOL     OW25237   2.196   3.279   0.587
 8113SOL    HW125238   2.201   3.287   0.686
 8113SOL    HW225239   2.212   3.184   0.560
 8114SOL     OW25240   1.421   3.912   2.953
 8114SOL    HW125241   1.385   3.843   2.890
 8114SOL    HW225242   1.451   3.868   3.037
 8115SOL     OW25243   3.777   0.567   0.225
 8115SOL    HW125244   3.749   0.472   0.240
 8115SOL    HW225245   3.702   0.628   0.251
 8116SOL     OW25246   4.635   5.302   6.084
 8116SOL    HW125247   4.676   5.212   6.070
 8116SOL    HW225248   4.700   5.362   6.131
 8117SOL     OW25249   1.601   0.456   3.424
 8117SOL    HW125250   1.583   0.385   3.356
 8117SOL    HW225251   1.541   0.442   3.502
 8118SOL     OW25252   5.780   4.544   5.455
 8118SOL    HW125253   5.773   4.572   5.359
 8118SOL    HW225254   5.764   4.445   5.461
 8119SOL     OW25255   4.944   5.137   6.312
 8119SOL    HW125256   4.909   5.049   6.280
 8119SOL    HW225257   5.016   5.169   6.251
 8120SOL     OW25258   3.039   5.175   0.573
 8120SOL    HW125259   3.122   5.224   0.546
 8120SOL    HW225260   3.022   5.100   0.509
 8121SOL     OW25261   0.212   5.200   1.978
 8121SOL    HW125262   0.248   5.116   1.937
 8121SOL    HW225263   0.201   5.270   1.908
 8122SOL     OW25264   1.201   5.204   2.755
 8122SOL    HW125265   1.221   5.169   2.847
 8122SOL    HW225266   1.187   5.303   2.760
 8123SOL     OW25267   6.591   0.726   6.235
 8123SOL    HW125268   6.600   0.748   6.138
 8123SOL    HW225269   6.666   0.768   6.285
 8124SOL     OW25270   5.646   6.817   1.228
 8124SOL    HW125271   5.623   6.736   1.282
 8124SOL    HW225272   5.738   6.806   1.190
 8125SOL     OW25273   1.297   1.440   3.677
 8125SOL    HW125274   1.289   1.539   3.676
 8125SOL    HW225275   1.319   1.407   3.586
 8126SOL     OW25276   4.902   4.759   2.369
 8126SOL    HW125277   4.981   4.702   2.346
 8126SOL    HW225278   4.933   4.841   2.416
 8127SOL     OW25279   2.744   4.573   6.451
 8127SOL    HW125280   2.830   4.603   6.491
 8127SOL    HW225281   2.730   4.476   6.473
 8128SOL     OW25282   2.413   1.279   1.769
 8128SOL    HW125283   2.430   1.318   1.679
 8128SOL    HW225284   2.483   1.311   1.833
 8129SOL     OW25285   4.470   0.919   6.561
 8129SOL    HW125286   4.438   0.912   6.466
 8129SOL    HW225287   4.418   0.991   6.608
 8130SOL     OW25288   0.022   3.412   6.488
 8130SOL    HW125289   6.976   3.365   6.537
 8130SOL    HW225290   0.080   3.345   6.441
 8131SOL     OW25291   3.164   1.957   0.608
 8131SOL    HW125292   3.251   2.003   0.587
 8131SOL    HW225293   3.097   2.024   0.639
 8132SOL     OW25294   6.082   6.966   6.153
 8132SOL    HW125295   6.096   0.029   6.110
 8132SOL    HW225296   6.162   6.909   6.139
 8133SOL     OW25297   3.131   4.772   1.336
 8133SOL    HW125298   3.169   4.781   1.244
 8133SOL    HW225299   3.186   4.824   1.400
 8134SOL     OW25300   6.613   2.955   5.535
 8134SOL    HW125301   6.611   2.903   5.450
 8134SOL    HW225302   6.527   2.943   5.584
 8135SOL     OW25303   2.849   6.150   1.830
 8135SOL    HW125304   2.795   6.067   1.843
 8135SOL    HW225305   2.938   6.139   1.874
 8136SOL     OW25306   4.497   5.277   2.934
 8136SOL    HW125307   4.417   5.223   2.907
 8136SOL    HW225308   4.571   5.261   2.868
 8137SOL     OW25309   3.429   1.748   5.538
 8137SOL    HW125310   3.430   1.749   5.438
 8137SOL    HW225311   3.368   1.675   5.570
 8138SOL     OW25312   5.980   1.465   6.791
 8138SOL    HW125313   5.981   1.447   6.692
 8138SOL    HW225314   6.013   1.558   6.808
 8139SOL     OW25315   0.083   1.290   2.927
 8139SOL    HW125316   7.012   1.275   2.912
 8139SOL    HW225317   0.133   1.265   2.845
 8140SOL     OW25318   4.856   0.515   1.075
 8140SOL    HW125319   4.905   0.461   1.006
 8140SOL    HW225320   4.919   0.540   1.148
 8141SOL     OW25321   5.089   6.707   4.971
 8141SOL    HW125322   5.091   6.645   5.049
 8141SOL    HW225323   5.149   6.785   4.989
 8142SOL     OW25324   1.361   5.054   6.914
 8142SOL    HW125325   1.267   5.058   6.948
 8142SOL    HW225326   1.404   4.969   6.944
 8143SOL     OW25327   6.710   4.281   0.979
 8143SOL    HW125328   6.791   4.289   1.038
 8143SOL    HW225329   6.660   4.198   1.001
 8144SOL     OW25330   6.676   6.834   6.279
 8144SOL    HW125331   6.760   6.887   6.264
 8144SOL    HW225332   6.696   6.756   6.338
 8145SOL     OW25333   5.673   5.692   1.561
 8145SOL    HW125334   5.727   5.669   1.642
 8145SOL    HW225335   5.582   5.650   1.570
 8146SOL     OW25336   4.931   0.988   4.547
 8146SOL    HW125337   5.028   0.976   4.526
 8146SOL    HW225338   4.905   0.927   4.622
 8147SOL     OW25339   6.130   1.922   1.803
 8147SOL    HW125340   6.148   2.016   1.776
 8147SOL    HW225341   6.118   1.865   1.721
 8148SOL     OW25342   4.870   4.121   0.564
 8148SOL    HW125343   4.864   4.113   0.465
 8148SOL    HW225344   4.961   4.096   0.595
 8149SOL     OW25345   3.355   6.533   2.472
 8149SOL    HW125346   3.441   6.521   2.522
 8149SOL    HW225347   3.301   6.606   2.514
 8150SOL     OW25348   2.149   4.131   1.123
 8150SOL    HW125349   2.080   4.060   1.135
 8150SOL    HW225350   2.235   4.102   1.165
 8151SOL     OW25351   5.387   3.325   1.887
 8151SOL    HW125352   5.417   3.232   1.868
 8151SOL    HW225353   5.345   3.329   1.977
 8152SOL     OW25354   6.721   2.321   2.478
 8152SOL    HW125355   6.631   2.302   2.440
 8152SOL    HW225356   6.747   2.415   2.456
 8153SOL     OW25357   1.753   7.017   3.758
 8153SOL    HW125358   1.822   0.044   3.807
 8153SOL    HW225359   1.663   0.007   3.800
 8154SOL     OW25360   3.522   5.306   2.057
 8154SOL    HW125361   3.536   5.216   2.098
 8154SOL    HW225362   3.441   5.349   2.097
 8155SOL     OW25363   1.646   3.602   2.188
 8155SOL    HW125364   1.552   3.604   2.154
 8155SOL    HW225365   1.689   3.691   2.174
 8156SOL     OW25366   5.527   6.915   1.002
 8156SOL    HW125367   5.440   6.965   1.008
 8156SOL    HW225368   5.566   6.905   1.094
 8157SOL     OW25369   6.749   5.417   6.266
 8157SOL    HW125370   6.778   5.374   6.352
 8157SOL    HW225371   6.724   5.512   6.282
 8158SOL     OW25372   5.013   5.051   0.739
 8158SOL    HW125373   4.932   5.103   0.714
 8158SOL    HW225374   5.007   5.025   0.836
 8159SOL     OW25375   2.726   5.888   2.921
 8159SOL    HW125376   2.655   5.851   2.860
 8159SOL    HW225377   2.708   5.984   2.939
 8160SOL     OW25378   5.129   0.644   3.614
 8160SOL    HW125379   5.160   0.657   3.520
 8160SOL    HW225380   5.090   0.552   3.624
 8161SOL     OW25381   6.015   2.138   6.326
 8161SOL    HW125382   6.100   2.109   6.370
 8161SOL    HW225383   5.947   2.156   6.396
 8162SOL     OW25384   5.562   6.712   6.539
 8162SOL    HW125385   5.503   6.783   6.500
 8162SOL    HW225386   5.654   6.721   6.501
 8163SOL     OW25387   2.725   3.883   5.267
 8163SOL    HW125388   2.781   3.948   5.317
 8163SOL    HW225389   2.663   3.932   5.205
 8164SOL     OW25390   5.365   2.663   0.422
 8164SOL    HW125391   5.433   2.655   0.496
 8164SOL    HW225392   5.376   2.587   0.359
 8165SOL     OW25393   0.806   3.242   6.620
 8165SOL    HW125394   0.895   3.285   6.601
 8165SOL    HW225395   0.818   3.168   6.687
 8166SOL     OW25396   1.494   0.325   2.778
 8166SOL    HW125397   1.563   0.324   2.706
 8166SOL    HW225398   1.446   0.413   2.777
 8167SOL     OW25399   6.603   6.973   4.597
 8167SOL    HW125400   6.571   0.019   4.657
 8167SOL    HW225401   6.627   7.011   4.508
 8168SOL     OW25402   1.700   1.987   3.407
 8168SOL    HW125403   1.697   1.901   3.357
 8168SOL    HW225404   1.774   1.985   3.474
 8169SOL     OW25405   4.902   2.200   0.744
 8169SOL    HW125406   4.990   2.152   0.755
 8169SOL    HW225407   4.908   2.289   0.789
 8170SOL     OW25408   1.254   4.679   2.617
 8170SOL    HW125409   1.174   4.669   2.675
 8170SOL    HW225410   1.262   4.601   2.555
 8171SOL     OW25411   1.372   1.913   6.335
 8171SOL    HW125412   1.311   1.952   6.403
 8171SOL    HW225413   1.340   1.938   6.243
 8172SOL     OW25414   1.069   1.890   2.139
 8172SOL    HW125415   1.009   1.836   2.197
 8172SOL    HW225416   1.075   1.848   2.048
 8173SOL     OW25417   5.080   1.108   2.065
 8173SOL    HW125418   5.037   1.123   1.976
 8173SOL    HW225419   5.073   1.012   2.091
 8174SOL     OW25420   6.185   3.062   1.219
 8174SOL    HW125421   6.103   3.007   1.234
 8174SOL    HW225422   6.216   3.051   1.125
 8175SOL     OW25423   6.636   2.366   5.677
 8175SOL    HW125424   6.697   2.388   5.753
 8175SOL    HW225425   6.581   2.446   5.655
 8176SOL     OW25426   2.553   4.909   1.639
 8176SOL    HW125427   2.557   4.987   1.701
 8176SOL    HW225428   2.460   4.900   1.603
 8177SOL     OW25429   3.318   6.300   3.890
 8177SOL    HW125430   3.318   6.285   3.989
 8177SOL    HW225431   3.317   6.398   3.872
 8178SOL     OW25432   2.955   5.696   6.595
 8178SOL    HW125433   2.943   5.774   6.534
 8178SOL    HW225434   2.966   5.729   6.689
 8179SOL     OW25435   4.854   2.100   5.858
 8179SOL    HW125436   4.803   2.049   5.790
 8179SOL    HW225437   4.934   2.047   5.887
 8180SOL     OW25438   6.570   0.444   4.803
 8180SOL    HW125439   6.641   0.429   4.872
 8180SOL    HW225440   6.611   0.485   4.721
 8181SOL     OW25441   1.796   1.168   0.761
 8181SOL    HW125442   1.799   1.165   0.662
 8181SOL    HW225443   1.822   1.259   0.793
 8182SOL     OW25444   4.077   3.462   5.588
 8182SOL    HW125445   4.130   3.524   5.646
 8182SOL    HW225446   3.999   3.427   5.641
 8183SOL     OW25447   6.894   2.221   4.821
 8183SOL    HW125448   6.819   2.275   4.861
 8183SOL    HW225449   6.939   2.168   4.893
 8184SOL     OW25450   5.890   1.275   6.365
 8184SOL    HW125451   5.914   1.231   6.452
 8184SOL    HW225452   5.792   1.264   6.348
 8185SOL     OW25453   2.453   6.524   0.495
 8185SOL    HW125454   2.472   6.458   0.568
 8185SOL    HW225455   2.537   6.572   0.471
 8186SOL     OW25456   3.827   5.718   5.153
 8186SOL    HW125457   3.919   5.746   5.180
 8186SOL    HW225458   3.793   5.779   5.082
 8187SOL     OW25459   1.421   2.504   5.552
 8187SOL    HW125460   1.454   2.467   5.639
 8187SOL    HW225461   1.488   2.569   5.516
 8188SOL     OW25462   5.506   2.888   2.905
 8188SOL    HW125463   5.465   2.875   2.995
 8188SOL    HW225464   5.529   2.985   2.892
 8189SOL     OW25465   4.705   4.640   2.559
 8189SOL    HW125466   4.675   4.546   2.541
 8189SOL    HW225467   4.757   4.674   2.480
 8190SOL     OW25468   4.211   5.147   4.059
 8190SOL    HW125469   4.216   5.179   4.154
 8190SOL    HW225470   4.278   5.074   4.044
 8191SOL     OW25471   3.697   6.491   2.294
 8191SOL    HW125472   3.622   6.493   2.227
 8191SOL    HW225473   3.691   6.406   2.347
 8192SOL     OW25474   3.911   5.183   0.703
 8192SOL    HW125475   3.864   5.116   0.760
 8192SOL    HW225476   4.003   5.151   0.682
 8193SOL     OW25477   0.014   6.522   4.428
 8193SOL    HW125478   7.009   6.616   4.433
 8193SOL    HW225479   0.058   6.507   4.339
 8194SOL     OW25480   5.959   2.604   0.969
 8194SOL    HW125481   5.901   2.604   1.051
 8194SOL    HW225482   5.908   2.565   0.892
 8195SOL     OW25483   1.654   6.930   1.756
 8195SOL    HW125484   1.607   6.842   1.755
 8195SOL    HW225485   1.655   6.969   1.664
 8196SOL     OW25486   3.767   6.408   5.881
 8196SOL    HW125487   3.703   6.402   5.805
 8196SOL    HW225488   3.857   6.438   5.847
 8197SOL     OW25489   4.487   1.430   6.558
 8197SOL    HW125490   4.467   1.422   6.656
 8197SOL    HW225491   4.415   1.484   6.514
 8198SOL     OW25492   3.744   6.617   3.136
 8198SOL    HW125493   3.761   6.711   3.167
 8198SOL    HW225494   3.807   6.555   3.184
 8199SOL     OW25495   5.717   2.870   6.391
 8199SOL    HW125496   5.640   2.932   6.379
 8199SOL    HW225497   5.764   2.857   6.303
 8200SOL     OW25498   5.005   3.724   1.578
 8200SOL    HW125499   4.905   3.737   1.582
 8200SOL    HW225500   5.028   3.665   1.502
 8201SOL     OW25501   5.629   0.796   4.190
 8201SOL    HW125502   5.581   0.740   4.258
 8201SOL    HW225503   5.728   0.787   4.204
 8202SOL     OW25504   0.292   6.079   4.765
 8202SOL    HW125505   0.342   6.113   4.845
 8202SOL    HW225506   0.309   5.981   4.753
 8203SOL     OW25507   4.635   2.220   0.214
 8203SOL    HW125508   4.673   2.307   0.243
 8203SOL    HW225509   4.675   2.146   0.268
 8204SOL     OW25510   3.167   5.467   6.623
 8204SOL    HW125511   3.068   5.464   6.620
 8204SOL    HW225512   3.203   5.469   6.530
 8205SOL     OW25513   0.581   4.598   0.919
 8205SOL    HW125514   0.601   4.621   1.014
 8205SOL    HW225515   0.496   4.642   0.891
 8206SOL     OW25516   4.878   2.651   6.174
 8206SOL    HW125517   4.780   2.638   6.159
 8206SOL    HW225518   4.893   2.724   6.240
 8207SOL     OW25519   3.443   3.928   5.593
 8207SOL    HW125520   3.453   4.025   5.569
 8207SOL    HW225521   3.422   3.921   5.691
 8208SOL     OW25522   1.690   0.033   1.510
 8208SOL    HW125523   1.782   0.001   1.489
 8208SOL    HW225524   1.629   0.013   1.433
 8209SOL     OW25525   0.699   1.462   5.724
 8209SOL    HW125526   0.777   1.456   5.786
 8209SOL    HW225527   0.663   1.370   5.706
 8210SOL     OW25528   2.882   0.826   0.827
 8210SOL    HW125529   2.968   0.787   0.858
 8210SOL    HW225530   2.852   0.780   0.744
 8211SOL     OW25531   3.874   3.753   2.721
 8211SOL    HW125532   3.899   3.680   2.657
 8211SOL    HW225533   3.846   3.834   2.670
 8212SOL     OW25534   3.249   1.686   0.925
 8212SOL    HW125535   3.237   1.781   0.954
 8212SOL    HW225536   3.168   1.633   0.948
 8213SOL     OW25537   5.684   4.954   2.285
 8213SOL    HW125538   5.781   4.940   2.265
 8213SOL    HW225539   5.675   5.001   2.373
 8214SOL     OW25540   0.715   5.534   4.214
 8214SOL    HW125541   0.745   5.621   4.174
 8214SOL    HW225542   0.667   5.480   4.144
 8215SOL     OW25543   3.002   5.916   6.397
 8215SOL    HW125544   3.040   6.006   6.416
 8215SOL    HW225545   2.921   5.925   6.340
 8216SOL     OW25546   5.128   6.114   3.489
 8216SOL    HW125547   5.094   6.197   3.533
 8216SOL    HW225548   5.052   6.050   3.477
 8217SOL     OW25549   2.036   3.998   2.017
 8217SOL    HW125550   1.976   3.981   1.939
 8217SOL    HW225551   2.130   3.974   1.993
 8218SOL     OW25552   1.416   6.579   4.952
 8218SOL    HW125553   1.449   6.525   4.875
 8218SOL    HW225554   1.335   6.536   4.991
 8219SOL     OW25555   3.833   3.009   1.032
 8219SOL    HW125556   3.764   3.075   1.060
 8219SOL    HW225557   3.788   2.928   0.992
 8220SOL     OW25558   3.277   3.772   4.806
 8220SOL    HW125559   3.188   3.730   4.821
 8220SOL    HW225560   3.269   3.871   4.813
 8221SOL     OW25561   6.244   5.423   3.246
 8221SOL    HW125562   6.260   5.501   3.185
 8221SOL    HW225563   6.171   5.366   3.208
 8222SOL     OW25564   4.883   2.039   1.395
 8222SOL    HW125565   4.807   2.017   1.456
 8222SOL    HW225566   4.932   1.956   1.371
 8223SOL     OW25567   1.012   4.580   5.093
 8223SOL    HW125568   1.082   4.610   5.028
 8223SOL    HW225569   1.057   4.553   5.179
 8224SOL     OW25570   5.413   2.354   1.926
 8224SOL    HW125571   5.498   2.376   1.878
 8224SOL    HW225572   5.363   2.284   1.875
 8225SOL     OW25573   3.990   1.281   1.576
 8225SOL    HW125574   3.900   1.320   1.558
 8225SOL    HW225575   3.980   1.184   1.599
 8226SOL     OW25576   3.294   0.074   0.169
 8226SOL    HW125577   3.393   0.071   0.156
 8226SOL    HW225578   3.265   7.024   0.226
 8227SOL     OW25579   0.058   0.961   2.839
 8227SOL    HW125580   0.011   1.027   2.781
 8227SOL    HW225581   0.105   1.009   2.913
 8228SOL     OW25582   0.870   1.589   6.218
 8228SOL    HW125583   0.887   1.499   6.258
 8228SOL    HW225584   0.815   1.580   6.136
 8229SOL     OW25585   3.783   4.116   1.341
 8229SOL    HW125586   3.743   4.149   1.255
 8229SOL    HW225587   3.715   4.123   1.414
 8230SOL     OW25588   3.922   0.171   5.500
 8230SOL    HW125589   3.998   0.231   5.474
 8230SOL    HW225590   3.957   0.078   5.516
 8231SOL     OW25591   2.907   2.726   1.458
 8231SOL    HW125592   2.885   2.708   1.554
 8231SOL    HW225593   2.921   2.640   1.410
 8232SOL     OW25594   5.826   1.465   2.491
 8232SOL    HW125595   5.780   1.378   2.511
 8232SOL    HW225596   5.918   1.447   2.456
 8233SOL     OW25597   1.661   6.853   6.703
 8233SOL    HW125598   1.623   6.873   6.613
 8233SOL    HW225599   1.588   6.820   6.763
 8234SOL     OW25600   3.069   3.877   0.108
 8234SOL    HW125601   3.124   3.814   0.053
 8234SOL    HW225602   2.988   3.830   0.143
 8235SOL     OW25603   0.288   3.485   6.620
 8235SOL    HW125604   0.198   3.472   6.578
 8235SOL    HW225605   0.349   3.411   6.593
 8236SOL     OW25606   6.681   4.616   6.814
 8236SOL    HW125607   6.600   4.673   6.829
 8236SOL    HW225608   6.763   4.672   6.821
 8237SOL     OW25609   5.033   6.420   6.111
 8237SOL    HW125610   4.955   6.456   6.061
 8237SOL    HW225611   5.029   6.450   6.206
 8238SOL     OW25612   0.535   5.619   0.096
 8238SOL    HW125613   0.544   5.645   7.026
 8238SOL    HW225614   0.583   5.533   0.111
 8239SOL     OW25615   0.836   0.527   5.284
 8239SOL    HW125616   0.776   0.570   5.216
 8239SOL    HW225617   0.882   0.598   5.337
 8240SOL     OW25618   3.250   3.911   2.942
 8240SOL    HW125619   3.292   3.989   2.895
 8240SOL    HW225620   3.306   3.887   3.021
 8241SOL     OW25621   2.673   4.807   5.852
 8241SOL    HW125622   2.646   4.903   5.855
 8241SOL    HW225623   2.767   4.797   5.883
 8242SOL     OW25624   0.604   3.557   5.179
 8242SOL    HW125625   0.682   3.502   5.149
 8242SOL    HW225626   0.550   3.584   5.099
 8243SOL     OW25627   6.884   3.558   1.077
 8243SOL    HW125628   6.893   3.655   1.053
 8243SOL    HW225629   6.823   3.549   1.155
 8244SOL     OW25630   0.528   0.136   3.736
 8244SOL    HW125631   0.547   0.219   3.789
 8244SOL    HW225632   0.507   0.160   3.642
 8245SOL     OW25633   3.464   2.077   2.634
 8245SOL    HW125634   3.555   2.084   2.594
 8245SOL    HW225635   3.470   2.087   2.734
 8246SOL     OW25636   0.328   4.051   6.431
 8246SOL    HW125637   0.263   4.106   6.484
 8246SOL    HW225638   0.367   4.107   6.358
 8247SOL     OW25639   1.925   6.347   3.397
 8247SOL    HW125640   1.982   6.400   3.334
 8247SOL    HW225641   1.967   6.347   3.488
 8248SOL     OW25642   0.714   4.682   4.794
 8248SOL    HW125643   0.676   4.591   4.781
 8248SOL    HW225644   0.814   4.677   4.793
 8249SOL     OW25645   1.940   1.546   5.819
 8249SOL    HW125646   1.869   1.552   5.889
 8249SOL    HW225647   1.949   1.634   5.772
 8250SOL     OW25648   2.493   2.278   1.384
 8250SOL    HW125649   2.520   2.293   1.480
 8250SOL    HW225650   2.533   2.349   1.327
 8251SOL     OW25651   5.374   1.819   4.493
 8251SOL    HW125652   5.454   1.843   4.438
 8251SOL    HW225653   5.300   1.789   4.433
 8252SOL     OW25654   4.184   1.993   6.543
 8252SOL    HW125655   4.183   1.921   6.612
 8252SOL    HW225656   4.205   2.081   6.587
 8253SOL     OW25657   3.543   5.988   5.910
 8253SOL    HW125658   3.466   5.942   5.865
 8253SOL    HW225659   3.528   6.087   5.908
 8254SOL     OW25660   4.792   4.890   5.592
 8254SOL    HW125661   4.712   4.860   5.644
 8254SOL    HW225662   4.874   4.849   5.631
 8255SOL     OW25663   1.367   6.661   5.640
 8255SOL    HW125664   1.377   6.756   5.668
 8255SOL    HW225665   1.394   6.651   5.544
 8256SOL     OW25666   7.001   6.098   2.618
 8256SOL    HW125667   0.006   6.168   2.683
 8256SOL    HW225668   0.041   6.090   2.544
 8257SOL     OW25669   5.485   3.662   3.550
 8257SOL    HW125670   5.443   3.697   3.633
 8257SOL    HW225671   5.551   3.729   3.515
 8258SOL     OW25672   4.696   2.642   1.959
 8258SOL    HW125673   4.715   2.717   1.896
 8258SOL    HW225674   4.726   2.668   2.051
 8259SOL     OW25675   3.567   2.208   5.270
 8259SOL    HW125676   3.536   2.300   5.292
 8259SOL    HW225677   3.487   2.149   5.254
 8260SOL     OW25678   2.191   6.788   1.792
 8260SOL    HW125679   2.200   6.703   1.740
 8260SOL    HW225680   2.096   6.801   1.818
 8261SOL     OW25681   4.893   6.461   3.081
 8261SOL    HW125682   4.809   6.409   3.089
 8261SOL    HW225683   4.913   6.505   3.168
 8262SOL     OW25684   1.121   5.009   0.452
 8262SOL    HW125685   1.045   5.039   0.510
 8262SOL    HW225686   1.166   5.089   0.412
 8263SOL     OW25687   0.362   3.075   6.550
 8263SOL    HW125688   0.307   3.096   6.631
 8263SOL    HW225689   0.424   2.999   6.570
 8264SOL     OW25690   0.951   6.466   1.310
 8264SOL    HW125691   0.934   6.531   1.236
 8264SOL    HW225692   1.041   6.485   1.350
 8265SOL     OW25693   5.498   0.320   1.933
 8265SOL    HW125694   5.551   0.343   1.851
 8265SOL    HW225695   5.505   0.395   1.998
 8266SOL     OW25696   2.316   0.846   4.016
 8266SOL    HW125697   2.258   0.809   4.089
 8266SOL    HW225698   2.272   0.831   3.928
 8267SOL     OW25699   1.114   4.038   1.761
 8267SOL    HW125700   1.065   4.078   1.838
 8267SOL    HW225701   1.084   4.081   1.676
 8268SOL     OW25702   3.242   5.777   6.493
 8268SOL    HW125703   3.167   5.711   6.499
 8268SOL    HW225704   3.206   5.865   6.459
 8269SOL     OW25705   4.747   2.812   3.180
 8269SOL    HW125706   4.772   2.854   3.092
 8269SOL    HW225707   4.758   2.879   3.253
 8270SOL     OW25708   2.828   5.743   5.097
 8270SOL    HW125709   2.795   5.654   5.065
 8270SOL    HW225710   2.903   5.774   5.039
 8271SOL     OW25711   6.392   6.740   3.252
 8271SOL    HW125712   6.309   6.686   3.242
 8271SOL    HW225713   6.412   6.787   3.166
 8272SOL     OW25714   6.711   1.179   2.610
 8272SOL    HW125715   6.637   1.119   2.637
 8272SOL    HW225716   6.721   1.178   2.511
 8273SOL     OW25717   3.203   0.765   0.128
 8273SOL    HW125718   3.184   0.861   0.110
 8273SOL    HW225719   3.150   0.736   0.208
 8274SOL     OW25720   4.472   5.396   5.051
 8274SOL    HW125721   4.379   5.426   5.027
 8274SOL    HW225722   4.526   5.388   4.967
 8275SOL     OW25723   5.610   0.578   3.814
 8275SOL    HW125724   5.658   0.664   3.799
 8275SOL    HW225725   5.650   0.531   3.893
 8276SOL     OW25726   6.856   2.391   5.510
 8276SOL    HW125727   6.769   2.349   5.537
 8276SOL    HW225728   6.931   2.326   5.527
 8277SOL     OW25729   1.374   5.896   6.236
 8277SOL    HW125730   1.470   5.881   6.215
 8277SOL    HW225731   1.342   5.979   6.189
 8278SOL     OW25732   3.076   1.729   6.697
 8278SOL    HW125733   3.085   1.777   6.785
 8278SOL    HW225734   3.126   1.780   6.627
 8279SOL     OW25735   6.530   6.214   5.225
 8279SOL    HW125736   6.484   6.289   5.177
 8279SOL    HW225737   6.566   6.149   5.158
 8280SOL     OW25738   3.759   2.530   0.780
 8280SOL    HW125739   3.758   2.629   0.763
 8280SOL    HW225740   3.665   2.495   0.773
 8281SOL     OW25741   2.430   4.391   1.808
 8281SOL    HW125742   2.433   4.415   1.905
 8281SOL    HW225743   2.517   4.415   1.765
 8282SOL     OW25744   3.587   4.061   0.513
 8282SOL    HW125745   3.542   3.978   0.547
 8282SOL    HW225746   3.681   4.039   0.487
 8283SOL     OW25747   1.529   4.700   4.219
 8283SOL    HW125748   1.528   4.799   4.207
 8283SOL    HW225749   1.512   4.678   4.315
 8284SOL     OW25750   1.633   4.142   2.279
 8284SOL    HW125751   1.732   4.134   2.268
 8284SOL    HW225752   1.607   4.239   2.279
 8285SOL     OW25753   4.285   3.803   5.458
 8285SOL    HW125754   4.206   3.751   5.425
 8285SOL    HW225755   4.364   3.786   5.398
 8286SOL     OW25756   5.470   1.771   5.072
 8286SOL    HW125757   5.545   1.739   5.013
 8286SOL    HW225758   5.388   1.785   5.017
 8287SOL     OW25759   0.883   5.105   4.340
 8287SOL    HW125760   0.981   5.124   4.334
 8287SOL    HW225761   0.835   5.190   4.362
 8288SOL     OW25762   1.914   2.507   2.654
 8288SOL    HW125763   1.824   2.544   2.676
 8288SOL    HW225764   1.902   2.422   2.602
 8289SOL     OW25765   6.410   0.190   6.522
 8289SOL    HW125766   6.440   0.119   6.459
 8289SOL    HW225767   6.366   0.148   6.601
 8290SOL     OW25768   4.849   1.917   1.011
 8290SOL    HW125769   4.764   1.919   0.958
 8290SOL    HW225770   4.858   2.002   1.063
 8291SOL     OW25771   5.722   5.807   6.654
 8291SOL    HW125772   5.681   5.744   6.587
 8291SOL    HW225773   5.669   5.805   6.738
 8292SOL     OW25774   2.393   5.323   6.683
 8292SOL    HW125775   2.387   5.388   6.607
 8292SOL    HW225776   2.481   5.333   6.728
 8293SOL     OW25777   1.781   5.078   1.530
 8293SOL    HW125778   1.684   5.098   1.516
 8293SOL    HW225779   1.826   5.157   1.571
 8294SOL     OW25780   6.486   3.618   4.926
 8294SOL    HW125781   6.463   3.551   4.855
 8294SOL    HW225782   6.467   3.710   4.892
 8295SOL     OW25783   4.977   3.461   3.249
 8295SOL    HW125784   4.946   3.464   3.154
 8295SOL    HW225785   4.986   3.365   3.278
 8296SOL     OW25786   3.104   6.083   0.076
 8296SOL    HW125787   3.202   6.068   0.070
 8296SOL    HW225788   3.064   6.016   0.139
 8297SOL     OW25789   6.334   3.407   2.561
 8297SOL    HW125790   6.329   3.310   2.539
 8297SOL    HW225791   6.425   3.428   2.598
 8298SOL     OW25792   6.984   0.677   0.811
 8298SOL    HW125793   6.970   0.595   0.866
 8298SOL    HW225794   0.003   0.747   0.866
 8299SOL     OW25795   0.282   3.190   2.183
 8299SOL    HW125796   0.294   3.112   2.122
 8299SOL    HW225797   0.316   3.166   2.275
 8300SOL     OW25798   0.257   7.009   4.199
 8300SOL    HW125799   0.299   6.959   4.275
 8300SOL    HW225800   0.161   7.026   4.220
 8301SOL     OW25801   4.731   0.999   6.796
 8301SOL    HW125802   4.747   0.904   6.823
 8301SOL    HW225803   4.740   1.007   6.697
 8302SOL     OW25804   5.225   6.819   5.609
 8302SOL    HW125805   5.214   6.912   5.643
 8302SOL    HW225806   5.202   6.754   5.682
 8303SOL     OW25807   6.625   0.425   3.392
 8303SOL    HW125808   6.547   0.431   3.331
 8303SOL    HW225809   6.643   0.329   3.415
 8304SOL     OW25810   5.684   4.886   1.461
 8304SOL    HW125811   5.709   4.982   1.446
 8304SOL    HW225812   5.619   4.881   1.537
 8305SOL     OW25813   4.423   4.986   4.199
 8305SOL    HW125814   4.416   5.074   4.246
 8305SOL    HW225815   4.358   4.921   4.239
 8306SOL     OW25816   6.231   1.156   3.681
 8306SOL    HW125817   6.291   1.076   3.681
 8306SOL    HW225818   6.270   1.226   3.621
 8307SOL     OW25819   3.374   5.337   1.487
 8307SOL    HW125820   3.390   5.402   1.561
 8307SOL    HW225821   3.292   5.284   1.506
 8308SOL     OW25822   2.633   5.507   0.189
 8308SOL    HW125823   2.546   5.536   0.150
 8308SOL    HW225824   2.668   5.429   0.136
 8309SOL     OW25825   5.895   5.603   3.196
 8309SOL    HW125826   5.807   5.617   3.241
 8309SOL    HW225827   5.880   5.583   3.099
 8310SOL     OW25828   1.433   4.947   1.169
 8310SOL    HW125829   1.367   5.017   1.142
 8310SOL    HW225830   1.429   4.871   1.105
 8311SOL     OW25831   5.882   0.662   4.229
 8311SOL    HW125832   5.959   0.631   4.173
 8311SOL    HW225833   5.913   0.731   4.294
 8312SOL     OW25834   5.589   1.195   6.281
 8312SOL    HW125835   5.522   1.171   6.351
 8312SOL    HW225836   5.604   1.116   6.221
 8313SOL     OW25837   5.989   0.474   6.196
 8313SOL    HW125838   5.952   0.561   6.163
 8313SOL    HW225839   5.930   0.439   6.269
 8314SOL     OW25840   6.475   6.996   6.331
 8314SOL    HW125841   6.417   6.960   6.258
 8314SOL    HW225842   6.568   6.958   6.322
 8315SOL     OW25843   3.985   3.066   2.769
 8315SOL    HW125844   4.007   3.082   2.865
 8315SOL    HW225845   3.918   2.992   2.762
 8316SOL     OW25846   1.727   3.325   1.308
 8316SOL    HW125847   1.694   3.333   1.401
 8316SOL    HW225848   1.793   3.249   1.302
 8317SOL     OW25849   1.296   2.255   2.852
 8317SOL    HW125850   1.296   2.158   2.829
 8317SOL    HW225851   1.379   2.277   2.903
 8318SOL     OW25852   4.149   1.477   6.317
 8318SOL    HW125853   4.120   1.444   6.406
 8318SOL    HW225854   4.224   1.543   6.328
 8319SOL     OW25855   1.293   0.585   0.292
 8319SOL    HW125856   1.373   0.613   0.237
 8319SOL    HW225857   1.234   0.527   0.236
 8320SOL     OW25858   3.137   4.020   3.430
 8320SOL    HW125859   3.086   3.937   3.451
 8320SOL    HW225860   3.203   4.039   3.503
 8321SOL     OW25861   6.938   7.026   6.982
 8321SOL    HW125862   6.911   7.012   6.887
 8321SOL    HW225863   6.857   0.025   0.010
 8322SOL     OW25864   6.532   1.553   1.370
 8322SOL    HW125865   6.492   1.542   1.460
 8322SOL    HW225866   6.541   1.463   1.326
 8323SOL     OW25867   3.984   4.841   1.536
 8323SOL    HW125868   4.069   4.793   1.516
 8323SOL    HW225869   3.916   4.775   1.568
 8324SOL     OW25870   5.415   0.652   0.787
 8324SOL    HW125871   5.474   0.604   0.722
 8324SOL    HW225872   5.324   0.611   0.786
 8325SOL     OW25873   0.875   3.528   5.416
 8325SOL    HW125874   0.910   3.576   5.335
 8325SOL    HW225875   0.848   3.435   5.391
 8326SOL     OW25876   4.225   3.729   6.177
 8326SOL    HW125877   4.177   3.812   6.206
 8326SOL    HW225878   4.193   3.701   6.087
 8327SOL     OW25879   0.772   0.821   5.608
 8327SOL    HW125880   0.758   0.893   5.677
 8327SOL    HW225881   0.849   0.764   5.634
 8328SOL     OW25882   2.708   6.514   6.438
 8328SOL    HW125883   2.690   6.461   6.521
 8328SOL    HW225884   2.799   6.492   6.403
 8329SOL     OW25885   0.729   1.849   4.738
 8329SOL    HW125886   0.709   1.850   4.640
 8329SOL    HW225887   0.727   1.943   4.773
 8330SOL     OW25888   3.619   1.506   6.966
 8330SOL    HW125889   3.596   1.413   6.996
 8330SOL    HW225890   3.552   1.570   7.002
 8331SOL     OW25891   3.505   0.764   0.492
 8331SOL    HW125892   3.569   0.691   0.516
 8331SOL    HW225893   3.494   0.767   0.393
 8332SOL     OW25894   6.016   5.297   2.087
 8332SOL    HW125895   5.924   5.267   2.112
 8332SOL    HW225896   6.065   5.327   2.168
 8333SOL     OW25897   1.264   4.798   6.647
 8333SOL    HW125898   1.224   4.746   6.722
 8333SOL    HW225899   1.196   4.860   6.609
 8334SOL     OW25900   3.324   1.842   5.797
 8334SOL    HW125901   3.402   1.822   5.857
 8334SOL    HW225902   3.352   1.834   5.702
 8335SOL     OW25903   4.279   1.291   0.203
 8335SOL    HW125904   4.347   1.330   0.265
 8335SOL    HW225905   4.313   1.203   0.169
 8336SOL     OW25906   0.470   3.841   2.894
 8336SOL    HW125907   0.503   3.853   2.800
 8336SOL    HW225908   0.474   3.929   2.942
 8337SOL     OW25909   0.500   6.700   4.025
 8337SOL    HW125910   0.421   6.758   4.006
 8337SOL    HW225911   0.538   6.665   3.940
 8338SOL     OW25912   3.788   5.452   1.383
 8338SOL    HW125913   3.776   5.538   1.333
 8338SOL    HW225914   3.742   5.378   1.333
 8339SOL     OW25915   0.119   1.071   2.122
 8339SOL    HW125916   0.203   1.045   2.074
 8339SOL    HW225917   0.040   1.048   2.065
 8340SOL     OW25918   4.778   3.667   1.083
 8340SOL    HW125919   4.778   3.744   1.147
 8340SOL    HW225920   4.684   3.647   1.056
 8341SOL     OW25921   3.485   0.082   6.792
 8341SOL    HW125922   3.508   0.119   6.702
 8341SOL    HW225923   3.550   0.010   6.816
 8342SOL     OW25924   4.565   6.708   0.353
 8342SOL    HW125925   4.505   6.727   0.275
 8342SOL    HW225926   4.509   6.685   0.432
 8343SOL     OW25927   6.833   5.325   3.582
 8343SOL    HW125928   6.770   5.288   3.514
 8343SOL    HW225929   6.782   5.374   3.652
 8344SOL     OW25930   6.532   5.378   4.698
 8344SOL    HW125931   6.577   5.445   4.638
 8344SOL    HW225932   6.447   5.347   4.656
 8345SOL     OW25933   3.872   2.054   2.968
 8345SOL    HW125934   3.788   2.056   3.022
 8345SOL    HW225935   3.874   1.972   2.911
 8346SOL     OW25936   4.245   4.623   0.065
 8346SOL    HW125937   4.292   4.536   0.049
 8346SOL    HW225938   4.163   4.628   0.008
 8347SOL     OW25939   2.975   6.365   5.701
 8347SOL    HW125940   3.017   6.332   5.616
 8347SOL    HW225941   2.938   6.457   5.686
 8348SOL     OW25942   2.070   0.962   1.562
 8348SOL    HW125943   2.123   1.035   1.518
 8348SOL    HW225944   2.004   1.003   1.626
 8349SOL     OW25945   0.673   6.578   2.036
 8349SOL    HW125946   0.746   6.515   2.061
 8349SOL    HW225947   0.649   6.634   2.116
 8350SOL     OW25948   3.028   6.738   6.343
 8350SOL    HW125949   2.943   6.767   6.388
 8350SOL    HW225950   3.097   6.809   6.354
 8351SOL     OW25951   5.088   5.358   4.892
 8351SOL    HW125952   5.086   5.258   4.886
 8351SOL    HW225953   5.153   5.395   4.827
 8352SOL     OW25954   1.614   0.126   3.394
 8352SOL    HW125955   1.542   0.120   3.325
 8352SOL    HW225956   1.673   0.046   3.388
 8353SOL     OW25957   0.851   3.780   0.707
 8353SOL    HW125958   0.877   3.839   0.784
 8353SOL    HW225959   0.768   3.817   0.664
 8354SOL     OW25960   3.162   6.886   4.458
 8354SOL    HW125961   3.067   6.907   4.478
 8354SOL    HW225962   3.213   6.972   4.443
 8355SOL     OW25963   2.017   1.289   4.512
 8355SOL    HW125964   1.992   1.306   4.607
 8355SOL    HW225965   1.981   1.363   4.455
 8356SOL     OW25966   1.463   6.295   1.424
 8356SOL    HW125967   1.365   6.284   1.436
 8356SOL    HW225968   1.500   6.215   1.376
 8357SOL     OW25969   3.805   6.986   5.762
 8357SOL    HW125970   3.880   6.959   5.701
 8357SOL    HW225971   3.828   0.046   5.807
 8358SOL     OW25972   1.140   3.395   4.464
 8358SOL    HW125973   1.045   3.417   4.486
 8358SOL    HW225974   1.158   3.299   4.488
 8359SOL     OW25975   2.850   1.372   4.933
 8359SOL    HW125976   2.925   1.414   4.984
 8359SOL    HW225977   2.861   1.391   4.836
 8360SOL     OW25978   4.335   0.425   0.351
 8360SOL    HW125979   4.347   0.375   0.438
 8360SOL    HW225980   4.423   0.458   0.319
 8361SOL     OW25981   3.827   0.695   0.983
 8361SOL    HW125982   3.745   0.747   0.963
 8361SOL    HW225983   3.905   0.756   0.991
 8362SOL     OW25984   5.210   1.941   0.995
 8362SOL    HW125985   5.214   2.015   1.062
 8362SOL    HW225986   5.252   1.859   1.035
 8363SOL     OW25987   4.917   2.595   0.107
 8363SOL    HW125988   4.925   2.681   0.057
 8363SOL    HW225989   4.952   2.520   0.052
 8364SOL     OW25990   6.892   1.975   4.159
 8364SOL    HW125991   6.982   1.998   4.124
 8364SOL    HW225992   6.894   1.885   4.202
 8365SOL     OW25993   1.755   2.193   2.220
 8365SOL    HW125994   1.854   2.194   2.206
 8365SOL    HW225995   1.731   2.261   2.289
 8366SOL     OW25996   2.925   5.113   0.935
 8366SOL    HW125997   3.003   5.175   0.930
 8366SOL    HW225998   2.844   5.164   0.964
 8367SOL     OW25999   3.583   5.632   4.835
 8367SOL    HW126000   3.595   5.720   4.880
 8367SOL    HW226001   3.531   5.570   4.894
 8368SOL     OW26002   1.094   6.068   6.943
 8368SOL    HW126003   1.158   6.049   7.017
 8368SOL    HW226004   1.001   6.073   6.980
 8369SOL     OW26005   0.774   0.393   6.772
 8369SOL    HW126006   0.868   0.409   6.742
 8369SOL    HW226007   0.724   0.345   6.700
 8370SOL     OW26008   2.275   1.269   6.022
 8370SOL    HW126009   2.199   1.333   6.019
 8370SOL    HW226010   2.247   1.182   5.981
 8371SOL     OW26011   2.471   4.260   0.629
 8371SOL    HW126012   2.419   4.325   0.574
 8371SOL    HW226013   2.487   4.177   0.576
 8372SOL     OW26014   1.557   6.212   1.929
 8372SOL    HW126015   1.620   6.177   1.998
 8372SOL    HW226016   1.492   6.139   1.903
 8373SOL     OW26017   1.739   6.768   4.419
 8373SOL    HW126018   1.690   6.689   4.456
 8373SOL    HW226019   1.829   6.739   4.386
 8374SOL     OW26020   0.192   6.927   4.942
 8374SOL    HW126021   0.145   6.996   4.888
 8374SOL    HW226022   0.291   6.942   4.937
 8375SOL     OW26023   3.879   6.695   5.544
 8375SOL    HW126024   3.783   6.682   5.519
 8375SOL    HW226025   3.899   6.643   5.627
 8376SOL     OW26026   1.421   0.904   4.022
 8376SOL    HW126027   1.521   0.907   4.017
 8376SOL    HW226028   1.393   0.837   4.091
 8377SOL     OW26029   5.618   6.334   0.259
 8377SOL    HW126030   5.620   6.434   0.260
 8377SOL    HW226031   5.708   6.299   0.284
 8378SOL     OW26032   3.662   4.901   3.154
 8378SOL    HW126033   3.683   4.994   3.123
 8378SOL    HW226034   3.566   4.895   3.180
 8379SOL     OW26035   4.962   2.924   1.926
 8379SOL    HW126036   4.908   2.871   1.860
 8379SOL    HW226037   4.901   2.968   1.992
 8380SOL     OW26038   0.435   0.326   0.616
 8380SOL    HW126039   0.387   0.399   0.664
 8380SOL    HW226040   0.424   0.338   0.517
 8381SOL     OW26041   0.308   1.982   3.814
 8381SOL    HW126042   0.302   2.071   3.858
 8381SOL    HW226043   0.356   1.991   3.726
 8382SOL     OW26044   2.097   6.353   1.908
 8382SOL    HW126045   2.115   6.402   1.823
 8382SOL    HW226046   2.112   6.414   1.986
 8383SOL     OW26047   3.039   0.054   6.081
 8383SOL    HW126048   2.951   0.035   6.037
 8383SOL    HW226049   3.080   6.995   6.112
 8384SOL     OW26050   5.860   1.827   1.840
 8384SOL    HW126051   5.858   1.842   1.741
 8384SOL    HW226052   5.953   1.840   1.874
 8385SOL     OW26053   4.996   2.281   6.650
 8385SOL    HW126054   4.924   2.283   6.719
 8385SOL    HW226055   4.967   2.331   6.569
 8386SOL     OW26056   1.658   6.269   1.669
 8386SOL    HW126057   1.593   6.277   1.593
 8386SOL    HW226058   1.609   6.244   1.752
 8387SOL     OW26059   1.254   1.545   1.295
 8387SOL    HW126060   1.223   1.590   1.379
 8387SOL    HW226061   1.344   1.503   1.311
 8388SOL     OW26062   2.198   6.670   0.548
 8388SOL    HW126063   2.118   6.655   0.491
 8388SOL    HW226064   2.281   6.648   0.497
 8389SOL     OW26065   0.113   3.090   4.029
 8389SOL    HW126066   0.091   3.122   4.122
 8389SOL    HW226067   0.047   3.021   4.002
 8390SOL     OW26068   3.734   6.643   0.538
 8390SOL    HW126069   3.809   6.660   0.602
 8390SOL    HW226070   3.647   6.658   0.585
 8391SOL     OW26071   5.113   5.312   1.233
 8391SOL    HW126072   5.143   5.330   1.327
 8391SOL    HW226073   5.038   5.246   1.234
 8392SOL     OW26074   6.717   5.492   5.335
 8392SOL    HW126075   6.621   5.516   5.325
 8392SOL    HW226076   6.774   5.558   5.286
 8393SOL     OW26077   0.281   0.011   3.367
 8393SOL    HW126078   0.201   0.071   3.366
 8393SOL    HW226079   0.350   0.045   3.304
 8394SOL     OW26080   0.523   3.537   1.887
 8394SOL    HW126081   0.492   3.510   1.796
 8394SOL    HW226082   0.464   3.496   1.956
 8395SOL     OW26083   1.804   6.032   4.278
 8395SOL    HW126084   1.789   5.944   4.234
 8395SOL    HW226085   1.879   6.026   4.343
 8396SOL     OW26086   4.547   4.823   2.450
 8396SOL    HW126087   4.603   4.753   2.494
 8396SOL    HW226088   4.458   4.828   2.495
 8397SOL     OW26089   2.593   1.218   3.170
 8397SOL    HW126090   2.682   1.228   3.213
 8397SOL    HW226091   2.558   1.308   3.144
 8398SOL     OW26092   4.166   2.811   6.305
 8398SOL    HW126093   4.252   2.838   6.349
 8398SOL    HW226094   4.148   2.872   6.228
 8399SOL     OW26095   6.072   0.394   0.499
 8399SOL    HW126096   6.100   0.400   0.403
 8399SOL    HW226097   6.107   0.308   0.537
 8400SOL     OW26098   1.391   0.386   4.008
 8400SOL    HW126099   1.483   0.392   3.970
 8400SOL    HW226100   1.387   0.313   4.076
 8401SOL     OW26101   2.988   1.854   6.275
 8401SOL    HW126102   2.906   1.903   6.247
 8401SOL    HW226103   3.016   1.790   6.204
 8402SOL     OW26104   3.835   2.166   5.892
 8402SOL    HW126105   3.830   2.091   5.958
 8402SOL    HW226106   3.799   2.135   5.804
 8403SOL     OW26107   0.758   2.044   3.524
 8403SOL    HW126108   0.841   2.051   3.470
 8403SOL    HW226109   0.774   1.986   3.604
 8404SOL     OW26110   4.501   6.162   6.134
 8404SOL    HW126111   4.575   6.185   6.197
 8404SOL    HW226112   4.485   6.239   6.072
 8405SOL     OW26113   2.488   0.712   5.868
 8405SOL    HW126114   2.524   0.670   5.951
 8405SOL    HW226115   2.398   0.751   5.886
 8406SOL     OW26116   5.073   6.862   0.847
 8406SOL    HW126117   5.004   6.905   0.787
 8406SOL    HW226118   5.150   6.832   0.792
 8407SOL     OW26119   4.132   6.397   4.060
 8407SOL    HW126120   4.231   6.393   4.056
 8407SOL    HW226121   4.099   6.342   4.136
 8408SOL     OW26122   5.345   2.912   2.088
 8408SOL    HW126123   5.264   2.854   2.075
 8408SOL    HW226124   5.413   2.862   2.140
 8409SOL     OW26125   5.985   3.193   4.029
 8409SOL    HW126126   6.032   3.244   4.101
 8409SOL    HW226127   5.889   3.220   4.027
 8410SOL     OW26128   5.018   0.206   1.718
 8410SOL    HW126129   4.938   0.239   1.769
 8410SOL    HW226130   4.989   0.179   1.626
 8411SOL     OW26131   0.711   5.404   0.056
 8411SOL    HW126132   0.715   5.375   6.987
 8411SOL    HW226133   0.761   5.339   0.113
 8412SOL     OW26134   3.599   1.992   1.764
 8412SOL    HW126135   3.661   1.956   1.694
 8412SOL    HW226136   3.595   2.092   1.756
 8413SOL     OW26137   4.067   6.008   0.108
 8413SOL    HW126138   4.140   5.985   0.173
 8413SOL    HW226139   4.009   5.928   0.093
 8414SOL     OW26140   4.325   5.462   3.022
 8414SOL    HW126141   4.363   5.507   3.103
 8414SOL    HW226142   4.391   5.396   2.986
 8415SOL     OW26143   6.625   5.613   3.283
 8415SOL    HW126144   6.712   5.576   3.314
 8415SOL    HW226145   6.564   5.626   3.361
 8416SOL     OW26146   5.615   3.430   2.857
 8416SOL    HW126147   5.700   3.398   2.815
 8416SOL    HW226148   5.620   3.417   2.956
 8417SOL     OW26149   1.439   5.118   5.754
 8417SOL    HW126150   1.456   5.092   5.849
 8417SOL    HW226151   1.524   5.151   5.712
 8418SOL     OW26152   5.640   5.363   1.038
 8418SOL    HW126153   5.641   5.439   1.103
 8418SOL    HW226154   5.731   5.322   1.035
 8419SOL     OW26155   5.106   1.001   2.425
 8419SOL    HW126156   5.043   1.073   2.394
 8419SOL    HW226157   5.066   0.911   2.406
 8420SOL     OW26158   4.020   6.903   0.521
 8420SOL    HW126159   3.967   6.988   0.526
 8420SOL    HW226160   4.113   6.919   0.553
 8421SOL     OW26161   3.031   5.967   0.323
 8421SOL    HW126162   3.090   6.048   0.321
 8421SOL    HW226163   2.972   5.970   0.403
 8422SOL     OW26164   4.335   0.845   1.172
 8422SOL    HW126165   4.336   0.881   1.266
 8422SOL    HW226166   4.398   0.899   1.116
 8423SOL     OW26167   4.062   4.749   5.800
 8423SOL    HW126168   4.037   4.846   5.795
 8423SOL    HW226169   4.010   4.705   5.874
 8424SOL     OW26170   2.160   2.538   2.810
 8424SOL    HW126171   2.125   2.554   2.902
 8424SOL    HW226172   2.084   2.521   2.747
 8425SOL     OW26173   5.575   5.929   0.494
 8425SOL    HW126174   5.543   5.941   0.400
 8425SOL    HW226175   5.627   6.009   0.522
 8426SOL     OW26176   3.191   3.697   4.123
 8426SOL    HW126177   3.095   3.675   4.141
 8426SOL    HW226178   3.196   3.784   4.073
 8427SOL     OW26179   2.984   3.622   5.225
 8427SOL    HW126180   2.925   3.542   5.210
 8427SOL    HW226181   3.079   3.596   5.210
 8428SOL     OW26182   0.197   4.424   1.911
 8428SOL    HW126183   0.104   4.425   1.947
 8428SOL    HW226184   0.261   4.452   1.983
 8429SOL     OW26185   2.300   4.506   3.708
 8429SOL    HW126186   2.253   4.589   3.676
 8429SOL    HW226187   2.388   4.531   3.749
 8430SOL     OW26188   3.503   5.359   4.639
 8430SOL    HW126189   3.417   5.309   4.645
 8430SOL    HW226190   3.485   5.457   4.638
 8431SOL     OW26191   3.026   5.357   0.773
 8431SOL    HW126192   3.014   5.293   0.697
 8431SOL    HW226193   2.981   5.444   0.751
 8432SOL     OW26194   5.563   6.935   5.925
 8432SOL    HW126195   5.607   6.862   5.873
 8432SOL    HW226196   5.464   6.927   5.916
 8433SOL     OW26197   5.829   1.731   0.399
 8433SOL    HW126198   5.911   1.732   0.456
 8433SOL    HW226199   5.775   1.649   0.420
 8434SOL     OW26200   3.972   0.064   5.224
 8434SOL    HW126201   3.873   0.081   5.224
 8434SOL    HW226202   3.990   6.998   5.258
 8435SOL     OW26203   5.623   0.822   1.213
 8435SOL    HW126204   5.554   0.804   1.142
 8435SOL    HW226205   5.631   0.921   1.226
 8436SOL     OW26206   3.298   0.107   4.392
 8436SOL    HW126207   3.242   0.190   4.386
 8436SOL    HW226208   3.393   0.129   4.368
 8437SOL     OW26209   2.106   0.190   3.784
 8437SOL    HW126210   2.113   0.210   3.686
 8437SOL    HW226211   2.135   0.269   3.837
 8438SOL     OW26212   2.505   4.805   2.179
 8438SOL    HW126213   2.516   4.896   2.218
 8438SOL    HW226214   2.489   4.812   2.080
 8439SOL     OW26215   6.226   5.215   2.476
 8439SOL    HW126216   6.282   5.141   2.439
 8439SOL    HW226217   6.130   5.186   2.478
 8440SOL     OW26218   1.224   1.813   3.391
 8440SOL    HW126219   1.272   1.752   3.454
 8440SOL    HW226220   1.180   1.759   3.319
 8441SOL     OW26221   5.861   0.232   0.278
 8441SOL    HW126222   5.958   0.255   0.270
 8441SOL    HW226223   5.838   0.220   0.375
 8442SOL     OW26224   3.280   2.053   5.488
 8442SOL    HW126225   3.313   2.099   5.405
 8442SOL    HW226226   3.355   2.041   5.552
 8443SOL     OW26227   1.482   5.522   3.804
 8443SOL    HW126228   1.450   5.515   3.709
 8443SOL    HW226229   1.488   5.430   3.843
 8444SOL     OW26230   3.369   5.939   3.924
 8444SOL    HW126231   3.272   5.963   3.928
 8444SOL    HW226232   3.395   5.922   3.829
 8445SOL     OW26233   3.624   5.940   1.000
 8445SOL    HW126234   3.685   6.019   0.990
 8445SOL    HW226235   3.676   5.856   0.984
 8446SOL     OW26236   5.007   5.094   6.572
 8446SOL    HW126237   4.937   5.045   6.624
 8446SOL    HW226238   4.973   5.114   6.480
 8447SOL     OW26239   4.918   2.400   2.382
 8447SOL    HW126240   4.953   2.433   2.470
 8447SOL    HW226241   4.949   2.461   2.309
 8448SOL     OW26242   4.931   6.068   3.973
 8448SOL    HW126243   4.892   6.160   3.974
 8448SOL    HW226244   5.021   6.069   4.015
 8449SOL     OW26245   6.825   2.423   4.283
 8449SOL    HW126246   6.778   2.339   4.309
 8449SOL    HW226247   6.805   2.445   4.187
 8450SOL     OW26248   1.102   5.719   1.611
 8450SOL    HW126249   1.029   5.741   1.676
 8450SOL    HW226250   1.067   5.653   1.544
 8451SOL     OW26251   4.440   2.505   0.252
 8451SOL    HW126252   4.440   2.570   0.328
 8451SOL    HW226253   4.365   2.440   0.263
 8452SOL     OW26254   6.416   0.853   3.194
 8452SOL    HW126255   6.434   0.943   3.235
 8452SOL    HW226256   6.503   0.808   3.175
 8453SOL     OW26257   6.954   4.386   6.193
 8453SOL    HW126258   7.024   4.401   6.123
 8453SOL    HW226259   6.941   4.289   6.209
 8454SOL     OW26260   7.002   6.671   0.949
 8454SOL    HW126261   6.963   6.596   0.897
 8454SOL    HW226262   0.001   6.745   0.887
 8455SOL     OW26263   5.716   2.206   1.683
 8455SOL    HW126264   5.708   2.304   1.702
 8455SOL    HW226265   5.628   2.161   1.699
 8456SOL     OW26266   4.973   5.991   3.077
 8456SOL    HW126267   5.039   6.054   3.119
 8456SOL    HW226268   4.953   6.022   2.984
 8457SOL     OW26269   6.807   6.663   4.336
 8457SOL    HW126270   6.722   6.702   4.298
 8457SOL    HW226271   6.878   6.665   4.266
 8458SOL     OW26272   2.578   1.713   6.187
 8458SOL    HW126273   2.610   1.639   6.247
 8458SOL    HW226274   2.579   1.799   6.237
 8459SOL     OW26275   3.093   6.487   1.951
 8459SOL    HW126276   3.157   6.437   1.894
 8459SOL    HW226277   3.111   6.467   2.048
 8460SOL     OW26278   4.486   3.456   5.616
 8460SOL    HW126279   4.516   3.449   5.521
 8460SOL    HW226280   4.408   3.518   5.623
 8461SOL     OW26281   7.004   3.960   3.378
 8461SOL    HW126282   0.027   3.968   3.464
 8461SOL    HW226283   6.947   4.040   3.364
 8462SOL     OW26284   3.291   2.286   0.122
 8462SOL    HW126285   3.212   2.346   0.110
 8462SOL    HW226286   3.375   2.337   0.099
 8463SOL     OW26287   6.154   6.855   0.380
 8463SOL    HW126288   6.159   6.919   0.304
 8463SOL    HW226289   6.226   6.786   0.370
 8464SOL     OW26290   5.246   3.598   5.966
 8464SOL    HW126291   5.149   3.622   5.965
 8464SOL    HW226292   5.291   3.645   6.042
 8465SOL     OW26293   1.657   2.815   1.073
 8465SOL    HW126294   1.692   2.758   0.999
 8465SOL    HW226295   1.719   2.808   1.152
 8466SOL     OW26296   0.871   6.659   5.241
 8466SOL    HW126297   0.858   6.758   5.249
 8466SOL    HW226298   0.834   6.614   5.323
 8467SOL     OW26299   4.415   0.324   1.559
 8467SOL    HW126300   4.470   0.311   1.641
 8467SOL    HW226301   4.325   0.282   1.571
 8468SOL     OW26302   4.470   2.562   6.979
 8468SOL    HW126303   4.544   2.496   6.966
 8468SOL    HW226304   4.442   2.562   0.048
 8469SOL     OW26305   4.000   1.425   5.637
 8469SOL    HW126306   3.919   1.379   5.671
 8469SOL    HW226307   3.974   1.509   5.590
 8470SOL     OW26308   1.313   4.621   0.199
 8470SOL    HW126309   1.290   4.697   0.138
 8470SOL    HW226310   1.410   4.624   0.222
 8471SOL     OW26311   3.949   0.621   4.129
 8471SOL    HW126312   3.858   0.585   4.152
 8471SOL    HW226313   3.991   0.565   4.058
 8472SOL     OW26314   6.461   0.673   5.269
 8472SOL    HW126315   6.426   0.589   5.228
 8472SOL    HW226316   6.561   0.670   5.268
 8473SOL     OW26317   6.539   6.141   0.928
 8473SOL    HW126318   6.570   6.064   0.874
 8473SOL    HW226319   6.611   6.170   0.990
 8474SOL     OW26320   3.462   3.184   2.627
 8474SOL    HW126321   3.556   3.214   2.644
 8474SOL    HW226322   3.445   3.184   2.528
 8475SOL     OW26323   0.077   2.028   3.562
 8475SOL    HW126324   0.006   1.992   3.503
 8475SOL    HW226325   0.092   2.125   3.541
 8476SOL     OW26326   6.718   2.091   1.149
 8476SOL    HW126327   6.689   2.016   1.210
 8476SOL    HW226328   6.654   2.167   1.159
 8477SOL     OW26329   4.727   0.070   2.056
 8477SOL    HW126330   4.825   0.067   2.040
 8477SOL    HW226331   4.703   0.150   2.111
 8478SOL     OW26332   1.677   0.219   6.334
 8478SOL    HW126333   1.602   0.265   6.286
 8478SOL    HW226334   1.682   0.124   6.305
 8479SOL     OW26335   0.131   2.597   1.068
 8479SOL    HW126336   0.126   2.529   0.996
 8479SOL    HW226337   0.137   2.551   1.157
 8480SOL     OW26338   4.695   2.646   6.505
 8480SOL    HW126339   4.650   2.620   6.590
 8480SOL    HW226340   4.755   2.571   6.476
 8481SOL     OW26341   4.588   2.529   4.792
 8481SOL    HW126342   4.520   2.458   4.811
 8481SOL    HW226343   4.595   2.591   4.870
 8482SOL     OW26344   4.590   5.779   2.473
 8482SOL    HW126345   4.549   5.765   2.383
 8482SOL    HW226346   4.532   5.737   2.543
 8483SOL     OW26347   4.149   6.543   1.979
 8483SOL    HW126348   4.245   6.538   2.008
 8483SOL    HW226349   4.093   6.575   2.055
 8484SOL     OW26350   7.005   6.257   3.038
 8484SOL    HW126351   0.007   6.283   2.945
 8484SOL    HW226352   0.001   6.330   3.102
 8485SOL     OW26353   3.261   2.650   0.230
 8485SOL    HW126354   3.312   2.569   0.201
 8485SOL    HW226355   3.245   2.709   0.151
 8486SOL     OW26356   2.298   1.497   2.333
 8486SOL    HW126357   2.216   1.444   2.314
 8486SOL    HW226358   2.271   1.588   2.367
 8487SOL     OW26359   6.029   1.127   5.568
 8487SOL    HW126360   5.973   1.182   5.507
 8487SOL    HW226361   6.046   1.038   5.527
 8488SOL     OW26362   5.008   5.969   0.857
 8488SOL    HW126363   5.063   5.904   0.910
 8488SOL    HW226364   4.951   6.021   0.919
 8489SOL     OW26365   6.127   2.166   1.711
 8489SOL    HW126366   6.184   2.247   1.697
 8489SOL    HW226367   6.039   2.194   1.749
 8490SOL     OW26368   4.441   0.002   4.016
 8490SOL    HW126369   4.423   6.969   4.094
 8490SOL    HW226370   4.499   0.078   4.045
 8491SOL     OW26371   2.887   5.750   1.341
 8491SOL    HW126372   2.825   5.674   1.361
 8491SOL    HW226373   2.878   5.820   1.412
 8492SOL     OW26374   5.138   3.742   5.373
 8492SOL    HW126375   5.112   3.704   5.462
 8492SOL    HW226376   5.055   3.753   5.317
 8493SOL     OW26377   2.591   2.768   6.524
 8493SOL    HW126378   2.497   2.751   6.553
 8493SOL    HW226379   2.597   2.858   6.480
 8494SOL     OW26380   4.049   5.567   1.514
 8494SOL    HW126381   4.070   5.469   1.517
 8494SOL    HW226382   3.992   5.587   1.434
 8495SOL     OW26383   6.338   5.026   2.354
 8495SOL    HW126384   6.322   4.957   2.425
 8495SOL    HW226385   6.334   4.983   2.264
 8496SOL     OW26386   1.319   1.943   2.263
 8496SOL    HW126387   1.316   2.029   2.314
 8496SOL    HW226388   1.231   1.927   2.219
 8497SOL     OW26389   6.777   0.632   3.729
 8497SOL    HW126390   6.710   0.696   3.692
 8497SOL    HW226391   6.867   0.675   3.730
 8498SOL     OW26392   6.146   6.098   3.535
 8498SOL    HW126393   6.220   6.141   3.484
 8498SOL    HW226394   6.154   6.122   3.632
 8499SOL     OW26395   2.030   4.465   6.562
 8499SOL    HW126396   2.056   4.544   6.619
 8499SOL    HW226397   2.056   4.381   6.608
 8500SOL     OW26398   1.447   6.453   5.813
 8500SOL    HW126399   1.408   6.527   5.759
 8500SOL    HW226400   1.412   6.365   5.780
 8501SOL     OW26401   0.124   2.279   6.920
 8501SOL    HW126402   0.043   2.250   6.971
 8501SOL    HW226403   0.153   2.369   6.952
 8502SOL     OW26404   0.681   3.567   1.286
 8502SOL    HW126405   0.650   3.538   1.195
 8502SOL    HW226406   0.682   3.488   1.347
 8503SOL     OW26407   0.617   6.270   4.106
 8503SOL    HW126408   0.702   6.321   4.095
 8503SOL    HW226409   0.633   6.191   4.166
 8504SOL     OW26410   2.232   4.828   2.677
 8504SOL    HW126411   2.177   4.911   2.682
 8504SOL    HW226412   2.252   4.808   2.581
 8505SOL     OW26413   5.408   3.274   3.522
 8505SOL    HW126414   5.455   3.188   3.540
 8505SOL    HW226415   5.370   3.310   3.608
 8506SOL     OW26416   0.834   0.702   6.831
 8506SOL    HW126417   0.917   0.752   6.807
 8506SOL    HW226418   0.821   0.626   6.767
 8507SOL     OW26419   3.539   0.673   4.907
 8507SOL    HW126420   3.589   0.709   4.986
 8507SOL    HW226421   3.486   0.747   4.865
 8508SOL     OW26422   5.089   1.572   4.664
 8508SOL    HW126423   5.012   1.626   4.630
 8508SOL    HW226424   5.126   1.616   4.746
 8509SOL     OW26425   4.194   1.260   4.189
 8509SOL    HW126426   4.153   1.346   4.158
 8509SOL    HW226427   4.286   1.251   4.152
 8510SOL     OW26428   5.761   4.341   2.865
 8510SOL    HW126429   5.792   4.390   2.783
 8510SOL    HW226430   5.662   4.344   2.870
 8511SOL     OW26431   6.132   4.355   2.170
 8511SOL    HW126432   6.134   4.401   2.258
 8511SOL    HW226433   6.223   4.319   2.150
 8512SOL     OW26434   2.905   1.941   1.562
 8512SOL    HW126435   2.869   1.983   1.478
 8512SOL    HW226436   3.001   1.916   1.547
 8513SOL     OW26437   6.415   5.218   0.909
 8513SOL    HW126438   6.456   5.227   0.818
 8513SOL    HW226439   6.365   5.132   0.914
 8514SOL     OW26440   2.502   2.558   4.141
 8514SOL    HW126441   2.441   2.485   4.110
 8514SOL    HW226442   2.513   2.552   4.240
 8515SOL     OW26443   4.599   2.185   0.993
 8515SOL    HW126444   4.517   2.239   0.973
 8515SOL    HW226445   4.602   2.106   0.933
 8516SOL     OW26446   5.977   2.110   2.128
 8516SOL    HW126447   5.983   2.011   2.134
 8516SOL    HW226448   5.884   2.139   2.153
 8517SOL     OW26449   0.843   2.645   6.537
 8517SOL    HW126450   0.924   2.664   6.592
 8517SOL    HW226451   0.857   2.562   6.483
 8518SOL     OW26452   4.447   4.760   6.852
 8518SOL    HW126453   4.356   4.796   6.871
 8518SOL    HW226454   4.443   4.696   6.776
 8519SOL     OW26455   1.748   4.999   1.897
 8519SOL    HW126456   1.712   4.986   1.805
 8519SOL    HW226457   1.709   5.082   1.936
 8520SOL     OW26458   3.016   2.193   0.284
 8520SOL    HW126459   3.079   2.160   0.355
 8520SOL    HW226460   2.945   2.250   0.327
 8521SOL     OW26461   1.381   5.009   6.035
 8521SOL    HW126462   1.287   4.975   6.041
 8521SOL    HW226463   1.438   4.961   6.101
 8522SOL     OW26464   1.257   5.623   1.813
 8522SOL    HW126465   1.327   5.689   1.842
 8522SOL    HW226466   1.228   5.646   1.720
 8523SOL     OW26467   3.305   6.764   6.685
 8523SOL    HW126468   3.210   6.755   6.716
 8523SOL    HW226469   3.366   6.760   6.764
 8524SOL     OW26470   0.932   2.202   4.686
 8524SOL    HW126471   0.835   2.205   4.663
 8524SOL    HW226472   0.945   2.222   4.783
 8525SOL     OW26473   6.246   4.118   3.206
 8525SOL    HW126474   6.325   4.082   3.157
 8525SOL    HW226475   6.194   4.043   3.247
 8526SOL     OW26476   3.628   5.255   6.995
 8526SOL    HW126477   3.574   5.326   6.948
 8526SOL    HW226478   3.566   5.195   0.018
 8527SOL     OW26479   2.994   0.611   5.660
 8527SOL    HW126480   3.011   0.513   5.649
 8527SOL    HW226481   2.906   0.625   5.705
 8528SOL     OW26482   4.780   2.865   5.963
 8528SOL    HW126483   4.694   2.841   5.918
 8528SOL    HW226484   4.827   2.782   5.993
 8529SOL     OW26485   0.398   0.107   0.797
 8529SOL    HW126486   0.418   0.191   0.748
 8529SOL    HW226487   0.399   0.124   0.896
 8530SOL     OW26488   2.623   3.649   5.353
 8530SOL    HW126489   2.694   3.578   5.350
 8530SOL    HW226490   2.661   3.735   5.319
 8531SOL     OW26491   6.949   4.683   2.022
 8531SOL    HW126492   6.884   4.709   2.094
 8531SOL    HW226493   6.980   4.765   1.974
 8532SOL     OW26494   4.179   4.877   4.696
 8532SOL    HW126495   4.093   4.828   4.709
 8532SOL    HW226496   4.162   4.967   4.656
 8533SOL     OW26497   1.970   0.073   5.936
 8533SOL    HW126498   2.062   0.096   5.904
 8533SOL    HW226499   1.920   0.027   5.863
 8534SOL     OW26500   6.514   3.346   4.494
 8534SOL    HW126501   6.491   3.390   4.581
 8534SOL    HW226502   6.436   3.292   4.463
 8535SOL     OW26503   0.189   2.000   4.855
 8535SOL    HW126504   0.199   2.004   4.755
 8535SOL    HW226505   0.159   1.909   4.882
 8536SOL     OW26506   5.572   2.557   4.802
 8536SOL    HW126507   5.610   2.492   4.737
 8536SOL    HW226508   5.540   2.509   4.884
 8537SOL     OW26509   5.361   1.473   2.798
 8537SOL    HW126510   5.419   1.498   2.721
 8537SOL    HW226511   5.313   1.388   2.778
 8538SOL     OW26512   0.788   1.188   5.981
 8538SOL    HW126513   0.856   1.115   5.992
 8538SOL    HW226514   0.826   1.260   5.924
 8539SOL     OW26515   6.149   1.312   2.120
 8539SOL    HW126516   6.223   1.379   2.107
 8539SOL    HW226517   6.061   1.358   2.112
 8540SOL     OW26518   4.873   1.432   0.132
 8540SOL    HW126519   4.950   1.374   0.161
 8540SOL    HW226520   4.837   1.480   0.212
 8541SOL     OW26521   2.958   2.213   4.199
 8541SOL    HW126522   2.908   2.210   4.285
 8541SOL    HW226523   2.903   2.260   4.130
 8542SOL     OW26524   2.452   4.210   6.374
 8542SOL    HW126525   2.423   4.278   6.441
 8542SOL    HW226526   2.546   4.183   6.392
 8543SOL     OW26527   3.075   1.339   0.130
 8543SOL    HW126528   3.063   1.386   0.217
 8543SOL    HW226529   2.990   1.344   0.076
 8544SOL     OW26530   5.469   2.835   4.508
 8544SOL    HW126531   5.477   2.745   4.463
 8544SOL    HW226532   5.539   2.896   4.471
 8545SOL     OW26533   4.712   6.957   4.097
 8545SOL    HW126534   4.641   6.934   4.164
 8545SOL    HW226535   4.769   0.003   4.133
 8546SOL     OW26536   0.663   0.200   2.749
 8546SOL    HW126537   0.620   0.120   2.707
 8546SOL    HW226538   0.672   0.273   2.682
 8547SOL     OW26539   1.065   6.816   6.748
 8547SOL    HW126540   1.157   6.814   6.707
 8547SOL    HW226541   1.027   6.908   6.741
 8548SOL     OW26542   6.823   2.798   5.981
 8548SOL    HW126543   6.915   2.833   5.963
 8548SOL    HW226544   6.822   2.752   6.070
 8549SOL     OW26545   1.015   2.727   4.449
 8549SOL    HW126546   0.982   2.726   4.355
 8549SOL    HW226547   1.000   2.637   4.490
 8550SOL     OW26548   1.194   5.246   0.318
 8550SOL    HW126549   1.293   5.229   0.315
 8550SOL    HW226550   1.152   5.217   0.233
 8551SOL     OW26551   2.610   2.841   6.797
 8551SOL    HW126552   2.685   2.792   6.841
 8551SOL    HW226553   2.600   2.810   6.702
 8552SOL     OW26554   2.202   0.165   2.884
 8552SOL    HW126555   2.275   0.189   2.949
 8552SOL    HW226556   2.147   0.246   2.865
 8553SOL     OW26557   4.422   4.568   6.676
 8553SOL    HW126558   4.465   4.523   6.597
 8553SOL    HW226559   4.323   4.557   6.671
 8554SOL     OW26560   0.536   4.988   0.613
 8554SOL    HW126561   0.520   5.041   0.697
 8554SOL    HW226562   0.489   5.031   0.537
 8555SOL     OW26563   3.239   0.888   3.170
 8555SOL    HW126564   3.255   0.876   3.073
 8555SOL    HW226565   3.317   0.853   3.222
 8556SOL     OW26566   2.199   6.598   5.153
 8556SOL    HW126567   2.100   6.584   5.151
 8556SOL    HW226568   2.245   6.510   5.156
 8557SOL     OW26569   6.817   6.471   2.783
 8557SOL    HW126570   6.794   6.482   2.879
 8557SOL    HW226571   6.897   6.527   2.760
 8558SOL     OW26572   2.368   5.236   2.576
 8558SOL    HW126573   2.355   5.145   2.615
 8558SOL    HW226574   2.437   5.285   2.629
 8559SOL     OW26575   1.803   0.045   2.683
 8559SOL    HW126576   1.794   6.993   2.622
 8559SOL    HW226577   1.873   0.027   2.752
 8560SOL     OW26578   1.040   6.136   1.728
 8560SOL    HW126579   1.123   6.175   1.687
 8560SOL    HW226580   0.971   6.122   1.657
 8561SOL     OW26581   3.702   0.347   3.029
 8561SOL    HW126582   3.720   0.249   3.027
 8561SOL    HW226583   3.630   0.369   2.962
 8562SOL     OW26584   4.370   6.450   6.257
 8562SOL    HW126585   4.302   6.435   6.329
 8562SOL    HW226586   4.427   6.369   6.248
 8563SOL     OW26587   0.839   5.055   1.271
 8563SOL    HW126588   0.851   5.090   1.364
 8563SOL    HW226589   0.928   5.049   1.226
 8564SOL     OW26590   3.118   0.316   5.310
 8564SOL    HW126591   3.027   0.329   5.271
 8564SOL    HW226592   3.182   0.382   5.270
 8565SOL     OW26593   3.820   4.991   0.895
 8565SOL    HW126594   3.724   4.962   0.891
 8565SOL    HW226595   3.846   5.009   0.990
 8566SOL     OW26596   0.734   6.335   1.411
 8566SOL    HW126597   0.653   6.368   1.362
 8566SOL    HW226598   0.815   6.379   1.374
 8567SOL     OW26599   6.975   1.680   2.832
 8567SOL    HW126600   6.996   1.648   2.925
 8567SOL    HW226601   6.972   1.601   2.770
 8568SOL     OW26602   5.368   1.437   6.568
 8568SOL    HW126603   5.344   1.533   6.555
 8568SOL    HW226604   5.463   1.422   6.541
 8569SOL     OW26605   4.662   1.496   5.553
 8569SOL    HW126606   4.602   1.421   5.523
 8569SOL    HW226607   4.627   1.583   5.519
 8570SOL     OW26608   1.690   1.163   4.766
 8570SOL    HW126609   1.760   1.198   4.827
 8570SOL    HW226610   1.642   1.239   4.722
 8571SOL     OW26611   0.450   6.164   5.668
 8571SOL    HW126612   0.523   6.123   5.723
 8571SOL    HW226613   0.489   6.235   5.609
 8572SOL     OW26614   2.749   4.459   5.894
 8572SOL    HW126615   2.796   4.459   5.982
 8572SOL    HW226616   2.741   4.365   5.860
 8573SOL     OW26617   3.047   6.098   6.134
 8573SOL    HW126618   3.139   6.135   6.149
 8573SOL    HW226619   3.053   5.999   6.124
 8574SOL     OW26620   6.889   6.999   6.225
 8574SOL    HW126621   6.914   0.066   6.253
 8574SOL    HW226622   6.972   6.943   6.220
 8575SOL     OW26623   2.147   2.180   3.091
 8575SOL    HW126624   2.057   2.224   3.088
 8575SOL    HW226625   2.178   2.173   3.186
 8576SOL     OW26626   1.232   4.364   4.890
 8576SOL    HW126627   1.193   4.389   4.979
 8576SOL    HW226628   1.320   4.319   4.904
 8577SOL     OW26629   1.866   6.568   5.124
 8577SOL    HW126630   1.776   6.609   5.108
 8577SOL    HW226631   1.877   6.489   5.065
 8578SOL     OW26632   6.189   6.091   4.617
 8578SOL    HW126633   6.212   6.014   4.676
 8578SOL    HW226634   6.093   6.116   4.632
 8579SOL     OW26635   1.800   0.056   2.009
 8579SOL    HW126636   1.751   0.037   1.924
 8579SOL    HW226637   1.749   0.124   2.062
 8580SOL     OW26638   1.888   6.221   1.045
 8580SOL    HW126639   1.954   6.280   0.999
 8580SOL    HW226640   1.822   6.186   0.978
 8581SOL     OW26641   3.258   3.772   1.616
 8581SOL    HW126642   3.324   3.748   1.687
 8581SOL    HW226643   3.293   3.744   1.527
 8582SOL     OW26644   4.746   4.296   4.774
 8582SOL    HW126645   4.660   4.332   4.738
 8582SOL    HW226646   4.817   4.366   4.767
 8583SOL     OW26647   4.730   0.515   4.384
 8583SOL    HW126648   4.756   0.578   4.311
 8583SOL    HW226649   4.687   0.433   4.344
 8584SOL     OW26650   0.635   5.784   6.480
 8584SOL    HW126651   0.598   5.860   6.427
 8584SOL    HW226652   0.694   5.819   6.553
 8585SOL     OW26653   6.484   0.958   6.971
 8585SOL    HW126654   6.386   0.957   6.950
 8585SOL    HW226655   6.524   1.044   6.939
 8586SOL     OW26656   2.901   6.878   1.963
 8586SOL    HW126657   2.876   6.926   2.047
 8586SOL    HW226658   2.998   6.855   1.966
 8587SOL     OW26659   0.928   0.469   4.429
 8587SOL    HW126660   0.905   0.372   4.422
 8587SOL    HW226661   0.865   0.523   4.375
 8588SOL     OW26662   4.014   0.862   0.314
 8588SOL    HW126663   4.031   0.951   0.269
 8588SOL    HW226664   3.938   0.871   0.378
 8589SOL     OW26665   5.430   2.684   5.686
 8589SOL    HW126666   5.400   2.756   5.623
 8589SOL    HW226667   5.380   2.692   5.773
 8590SOL     OW26668   0.235   6.909   2.731
 8590SOL    HW126669   0.271   6.824   2.769
 8590SOL    HW226670   0.225   6.976   2.803
 8591SOL     OW26671   0.333   4.320   0.409
 8591SOL    HW126672   0.308   4.226   0.385
 8591SOL    HW226673   0.418   4.320   0.462
 8592SOL     OW26674   5.860   2.220   6.578
 8592SOL    HW126675   5.794   2.209   6.653
 8592SOL    HW226676   5.840   2.306   6.530
 8593SOL     OW26677   2.641   1.077   0.467
 8593SOL    HW126678   2.547   1.044   0.456
 8593SOL    HW226679   2.670   1.126   0.384
 8594SOL     OW26680   4.556   2.685   5.050
 8594SOL    HW126681   4.624   2.725   5.112
 8594SOL    HW226682   4.471   2.736   5.055
 8595SOL     OW26683   0.559   0.710   3.513
 8595SOL    HW126684   0.648   0.722   3.470
 8595SOL    HW226685   0.537   0.791   3.568
 8596SOL     OW26686   1.204   4.369   2.926
 8596SOL    HW126687   1.299   4.376   2.897
 8596SOL    HW226688   1.170   4.461   2.949
 8597SOL     OW26689   4.680   2.142   1.262
 8597SOL    HW126690   4.763   2.089   1.244
 8597SOL    HW226691   4.635   2.163   1.176
 8598SOL     OW26692   6.139   0.254   0.267
 8598SOL    HW126693   6.229   0.290   0.243
 8598SOL    HW226694   6.146   0.156   0.286
 8599SOL     OW26695   1.869   2.712   4.992
 8599SOL    HW126696   1.812   2.634   4.967
 8599SOL    HW226697   1.855   2.734   5.089
 8600SOL     OW26698   5.415   4.453   6.609
 8600SOL    HW126699   5.365   4.366   6.604
 8600SOL    HW226700   5.357   4.526   6.574
 8601SOL     OW26701   1.279   1.297   4.442
 8601SOL    HW126702   1.216   1.368   4.410
 8601SOL    HW226703   1.233   1.209   4.439
 8602SOL     OW26704   3.109   6.031   2.298
 8602SOL    HW126705   3.140   5.943   2.333
 8602SOL    HW226706   3.073   6.086   2.373
 8603SOL     OW26707   5.177   5.986   1.177
 8603SOL    HW126708   5.261   6.013   1.131
 8603SOL    HW226709   5.119   6.066   1.192
 8604SOL     OW26710   0.666   2.466   4.988
 8604SOL    HW126711   0.577   2.492   4.949
 8604SOL    HW226712   0.672   2.499   5.082
 8605SOL     OW26713   2.739   5.465   4.077
 8605SOL    HW126714   2.798   5.395   4.116
 8605SOL    HW226715   2.711   5.529   4.149
 8606SOL     OW26716   1.866   3.626   6.567
 8606SOL    HW126717   1.932   3.699   6.549
 8606SOL    HW226718   1.914   3.539   6.572
 8607SOL     OW26719   3.389   5.133   6.356
 8607SOL    HW126720   3.391   5.043   6.314
 8607SOL    HW226721   3.465   5.141   6.421
 8608SOL     OW26722   2.634   4.734   2.511
 8608SOL    HW126723   2.682   4.701   2.429
 8608SOL    HW226724   2.674   4.821   2.539
 8609SOL     OW26725   4.971   0.691   2.750
 8609SOL    HW126726   5.052   0.740   2.717
 8609SOL    HW226727   4.889   0.744   2.729
 8610SOL     OW26728   0.775   2.193   2.865
 8610SOL    HW126729   0.840   2.139   2.813
 8610SOL    HW226730   0.812   2.285   2.880
 8611SOL     OW26731   3.309   2.134   4.805
 8611SOL    HW126732   3.250   2.100   4.732
 8611SOL    HW226733   3.257   2.197   4.863
 8612SOL     OW26734   2.641   3.082   0.486
 8612SOL    HW126735   2.700   3.013   0.527
 8612SOL    HW226736   2.558   3.093   0.540
 8613SOL     OW26737   2.697   1.472   1.688
 8613SOL    HW126738   2.650   1.560   1.690
 8613SOL    HW226739   2.781   1.479   1.742
 8614SOL     OW26740   1.065   2.871   3.730
 8614SOL    HW126741   0.993   2.851   3.663
 8614SOL    HW226742   1.153   2.875   3.683
 8615SOL     OW26743   4.471   2.056   5.039
 8615SOL    HW126744   4.555   2.014   5.003
 8615SOL    HW226745   4.393   2.026   4.985
 8616SOL     OW26746   3.094   4.619   1.717
 8616SOL    HW126747   3.007   4.618   1.767
 8616SOL    HW226748   3.146   4.700   1.745
 8617SOL     OW26749   6.266   1.382   5.727
 8617SOL    HW126750   6.208   1.379   5.646
 8617SOL    HW226751   6.343   1.320   5.716
 8618SOL     OW26752   6.287   4.978   0.941
 8618SOL    HW126753   6.298   4.928   0.855
 8618SOL    HW226754   6.345   4.937   1.011
 8619SOL     OW26755   3.991   5.041   2.014
 8619SOL    HW126756   3.900   5.011   2.041
 8619SOL    HW226757   4.055   5.028   2.090
 8620SOL     OW26758   1.704   6.891   3.445
 8620SOL    HW126759   1.746   6.801   3.446
 8620SOL    HW226760   1.636   6.897   3.518
 8621SOL     OW26761   5.771   1.635   2.705
 8621SOL    HW126762   5.688   1.688   2.720
 8621SOL    HW226763   5.753   1.562   2.639
 8622SOL     OW26764   5.372   3.356   1.231
 8622SOL    HW126765   5.443   3.319   1.292
 8622SOL    HW226766   5.287   3.368   1.283
 8623SOL     OW26767   1.060   3.687   4.983
 8623SOL    HW126768   1.113   3.603   4.969
 8623SOL    HW226769   1.008   3.679   5.068
 8624SOL     OW26770   1.787   3.929   4.705
 8624SOL    HW126771   1.877   3.957   4.737
 8624SOL    HW226772   1.761   3.842   4.747
 8625SOL     OW26773   4.465   1.019   6.023
 8625SOL    HW126774   4.413   1.104   6.032
 8625SOL    HW226775   4.496   1.009   5.929
 8626SOL     OW26776   3.250   2.712   6.668
 8626SOL    HW126777   3.184   2.713   6.593
 8626SOL    HW226778   3.286   2.619   6.679
 8627SOL     OW26779   0.844   1.483   3.059
 8627SOL    HW126780   0.772   1.487   3.128
 8627SOL    HW226781   0.933   1.472   3.104
 8628SOL     OW26782   6.662   6.571   0.632
 8628SOL    HW126783   6.593   6.515   0.679
 8628SOL    HW226784   6.629   6.597   0.542
 8629SOL     OW26785   2.182   5.702   5.015
 8629SOL    HW126786   2.235   5.631   5.062
 8629SOL    HW226787   2.097   5.663   4.979
 8630SOL     OW26788   5.521   4.382   4.229
 8630SOL    HW126789   5.526   4.340   4.320
 8630SOL    HW226790   5.571   4.468   4.229
 8631SOL     OW26791   0.352   5.457   6.827
 8631SOL    HW126792   0.333   5.401   6.747
 8631SOL    HW226793   0.379   5.549   6.798
 8632SOL     OW26794   3.902   5.071   4.883
 8632SOL    HW126795   3.805   5.082   4.903
 8632SOL    HW226796   3.954   5.073   4.969
 8633SOL     OW26797   5.326   2.168   5.863
 8633SOL    HW126798   5.275   2.229   5.803
 8633SOL    HW226799   5.271   2.086   5.882
 8634SOL     OW26800   4.935   3.766   0.294
 8634SOL    HW126801   4.990   3.690   0.329
 8634SOL    HW226802   4.955   3.780   0.198
 8635SOL     OW26803   4.888   3.230   6.401
 8635SOL    HW126804   4.910   3.170   6.479
 8635SOL    HW226805   4.969   3.241   6.344
 8636SOL     OW26806   5.885   5.757   0.666
 8636SOL    HW126807   5.860   5.853   0.681
 8636SOL    HW226808   5.858   5.731   0.573
 8637SOL     OW26809   2.949   0.999   6.989
 8637SOL    HW126810   2.932   1.036   0.053
 8637SOL    HW226811   2.928   0.901   6.988
 8638SOL     OW26812   3.692   2.061   5.065
 8638SOL    HW126813   3.620   2.006   5.023
 8638SOL    HW226814   3.656   2.107   5.146
 8639SOL     OW26815   5.294   2.456   7.019
 8639SOL    HW126816   5.196   2.457   6.999
 8639SOL    HW226817   5.309   2.431   0.088
 8640SOL     OW26818   4.236   4.102   7.006
 8640SOL    HW126819   4.165   4.049   0.026
 8640SOL    HW226820   4.324   4.056   7.017
 8641SOL     OW26821   4.414   4.602   3.828
 8641SOL    HW126822   4.510   4.582   3.845
 8641SOL    HW226823   4.397   4.600   3.729
 8642SOL     OW26824   0.930   6.016   4.004
 8642SOL    HW126825   0.963   6.089   3.944
 8642SOL    HW226826   0.980   6.019   4.091
 8643SOL     OW26827   2.669   0.799   6.127
 8643SOL    HW126828   2.699   0.893   6.111
 8643SOL    HW226829   2.624   0.793   6.216
 8644SOL     OW26830   5.296   2.180   5.094
 8644SOL    HW126831   5.237   2.260   5.108
 8644SOL    HW226832   5.321   2.141   5.182
 8645SOL     OW26833   4.338   4.628   1.103
 8645SOL    HW126834   4.238   4.621   1.112
 8645SOL    HW226835   4.365   4.600   1.011
 8646SOL     OW26836   0.429   2.063   0.162
 8646SOL    HW126837   0.464   2.029   0.250
 8646SOL    HW226838   0.351   2.008   0.134
 8647SOL     OW26839   2.567   4.982   6.578
 8647SOL    HW126840   2.573   4.893   6.624
 8647SOL    HW226841   2.659   5.012   6.553
 8648SOL     OW26842   6.550   0.032   2.878
 8648SOL    HW126843   6.642   0.066   2.898
 8648SOL    HW226844   6.483   0.105   2.893
 8649SOL     OW26845   5.262   5.688   6.359
 8649SOL    HW126846   5.224   5.737   6.437
 8649SOL    HW226847   5.220   5.598   6.352
 8650SOL     OW26848   2.368   5.069   4.258
 8650SOL    HW126849   2.349   4.971   4.265
 8650SOL    HW226850   2.457   5.083   4.216
 8651SOL     OW26851   4.686   1.200   0.562
 8651SOL    HW126852   4.691   1.111   0.606
 8651SOL    HW226853   4.619   1.257   0.610
 8652SOL     OW26854   1.761   5.105   3.408
 8652SOL    HW126855   1.858   5.087   3.429
 8652SOL    HW226856   1.753   5.141   3.315
 8653SOL     OW26857   6.591   0.950   6.021
 8653SOL    HW126858   6.497   0.982   6.032
 8653SOL    HW226859   6.649   0.995   6.088
 8654SOL     OW26860   0.468   4.800   2.555
 8654SOL    HW126861   0.460   4.705   2.586
 8654SOL    HW226862   0.496   4.858   2.633
 8655SOL     OW26863   6.017   0.735   3.714
 8655SOL    HW126864   6.092   0.761   3.654
 8655SOL    HW226865   6.037   0.645   3.754
 8656SOL     OW26866   6.572   0.005   1.599
 8656SOL    HW126867   6.490   0.022   1.544
 8656SOL    HW226868   6.550   0.016   1.696
 8657SOL     OW26869   4.617   5.484   6.719
 8657SOL    HW126870   4.527   5.449   6.691
 8657SOL    HW226871   4.624   5.483   6.818
 8658SOL     OW26872   6.359   6.673   0.401
 8658SOL    HW126873   6.328   6.596   0.458
 8658SOL    HW226874   6.458   6.682   0.409
 8659SOL     OW26875   4.573   2.140   2.327
 8659SOL    HW126876   4.601   2.071   2.394
 8659SOL    HW226877   4.654   2.183   2.287
 8660SOL     OW26878   6.950   3.063   1.577
 8660SOL    HW126879   6.965   2.974   1.619
 8660SOL    HW226880   6.972   3.135   1.644
 8661SOL     OW26881   7.006   3.860   1.267
 8661SOL    HW126882   6.997   3.836   1.170
 8661SOL    HW226883   6.929   3.918   1.294
 8662SOL     OW26884   4.133   6.004   1.066
 8662SOL    HW126885   4.100   6.048   1.150
 8662SOL    HW226886   4.145   5.906   1.082
 8663SOL     OW26887   3.081   5.268   2.248
 8663SOL    HW126888   3.021   5.333   2.202
 8663SOL    HW226889   3.028   5.209   2.308
 8664SOL     OW26890   1.304   6.306   1.100
 8664SOL    HW126891   1.387   6.253   1.084
 8664SOL    HW226892   1.271   6.343   1.014
 8665SOL     OW26893   5.761   5.744   5.310
 8665SOL    HW126894   5.740   5.827   5.361
 8665SOL    HW226895   5.727   5.752   5.216
 8666SOL     OW26896   5.713   1.038   3.596
 8666SOL    HW126897   5.718   1.002   3.503
 8666SOL    HW226898   5.652   1.118   3.598
 8667SOL     OW26899   3.693   1.973   3.845
 8667SOL    HW126900   3.708   2.001   3.940
 8667SOL    HW226901   3.676   1.875   3.841
 8668SOL     OW26902   5.340   3.438   3.731
 8668SOL    HW126903   5.415   3.504   3.734
 8668SOL    HW226904   5.253   3.485   3.746
 8669SOL     OW26905   1.117   6.420   6.622
 8669SOL    HW126906   1.181   6.372   6.561
 8669SOL    HW226907   1.062   6.484   6.569
 8670SOL     OW26908   4.570   4.896   5.803
 8670SOL    HW126909   4.586   4.831   5.877
 8670SOL    HW226910   4.493   4.864   5.747
 8671SOL     OW26911   5.038   1.912   3.347
 8671SOL    HW126912   5.137   1.927   3.348
 8671SOL    HW226913   4.996   1.972   3.278
 8672SOL     OW26914   1.296   4.936   4.025
 8672SOL    HW126915   1.364   4.866   4.006
 8672SOL    HW226916   1.274   4.936   4.123
 8673SOL     OW26917   5.396   2.517   6.599
 8673SOL    HW126918   5.427   2.452   6.530
 8673SOL    HW226919   5.453   2.509   6.681
 8674SOL     OW26920   4.917   6.090   2.788
 8674SOL    HW126921   4.877   6.182   2.800
 8674SOL    HW226922   4.854   6.034   2.733
 8675SOL     OW26923   4.264   1.943   4.894
 8675SOL    HW126924   4.186   2.002   4.913
 8675SOL    HW226925   4.260   1.863   4.954
 8676SOL     OW26926   5.479   6.735   3.373
 8676SOL    HW126927   5.423   6.663   3.413
 8676SOL    HW226928   5.427   6.781   3.301
 8677SOL     OW26929   2.306   5.346   6.267
 8677SOL    HW126930   2.347   5.379   6.183
 8677SOL    HW226931   2.335   5.252   6.284
 8678SOL     OW26932   0.122   0.453   1.353
 8678SOL    HW126933   0.175   0.497   1.280
 8678SOL    HW226934   0.027   0.443   1.324
 8679SOL     OW26935   0.872   1.560   3.367
 8679SOL    HW126936   0.926   1.562   3.451
 8679SOL    HW226937   0.868   1.653   3.329
 8680SOL     OW26938   6.779   3.146   6.852
 8680SOL    HW126939   6.752   3.191   6.937
 8680SOL    HW226940   6.846   3.075   6.871
 8681SOL     OW26941   4.698   5.506   1.347
 8681SOL    HW126942   4.616   5.449   1.357
 8681SOL    HW226943   4.721   5.515   1.250
 8682SOL     OW26944   5.686   6.916   2.576
 8682SOL    HW126945   5.637   6.999   2.548
 8682SOL    HW226946   5.784   6.935   2.579
 8683SOL     OW26947   2.002   2.287   4.689
 8683SOL    HW126948   1.960   2.205   4.728
 8683SOL    HW226949   2.014   2.355   4.761
 8684SOL     OW26950   6.371   2.760   5.161
 8684SOL    HW126951   6.402   2.668   5.138
 8684SOL    HW226952   6.334   2.760   5.254
 8685SOL     OW26953   6.684   2.102   6.427
 8685SOL    HW126954   6.729   2.022   6.467
 8685SOL    HW226955   6.652   2.163   6.500
 8686SOL     OW26956   0.107   0.869   3.239
 8686SOL    HW126957   0.027   0.858   3.180
 8686SOL    HW226958   0.136   0.780   3.274
 8687SOL     OW26959   4.799   5.397   2.139
 8687SOL    HW126960   4.726   5.424   2.202
 8687SOL    HW226961   4.873   5.354   2.190
 8688SOL     OW26962   0.612   5.228   6.049
 8688SOL    HW126963   0.656   5.241   5.960
 8688SOL    HW226964   0.679   5.240   6.122
 8689SOL     OW26965   3.613   3.192   1.069
 8689SOL    HW126966   3.519   3.160   1.055
 8689SOL    HW226967   3.619   3.289   1.045
 8690SOL     OW26968   1.653   3.891   3.806
 8690SOL    HW126969   1.716   3.962   3.775
 8690SOL    HW226970   1.561   3.911   3.773
 8691SOL     OW26971   3.753   2.374   6.289
 8691SOL    HW126972   3.713   2.447   6.344
 8691SOL    HW226973   3.852   2.373   6.303
 8692SOL     OW26974   2.743   1.417   4.455
 8692SOL    HW126975   2.712   1.500   4.407
 8692SOL    HW226976   2.732   1.338   4.394
 8693SOL     OW26977   5.576   0.110   0.350
 8693SOL    HW126978   5.589   0.024   0.300
 8693SOL    HW226979   5.643   0.177   0.320
 8694SOL     OW26980   5.280   1.079   4.680
 8694SOL    HW126981   5.263   1.021   4.760
 8694SOL    HW226982   5.244   1.034   4.598
 8695SOL     OW26983   4.825   3.028   5.747
 8695SOL    HW126984   4.795   3.123   5.741
 8695SOL    HW226985   4.810   2.993   5.840
 8696SOL     OW26986   2.305   5.064   5.156
 8696SOL    HW126987   2.239   4.992   5.133
 8696SOL    HW226988   2.381   5.023   5.207
 8697SOL     OW26989   0.637   3.842   6.193
 8697SOL    HW126990   0.602   3.842   6.287
 8697SOL    HW226991   0.573   3.792   6.134
 8698SOL     OW26992   5.035   6.157   4.893
 8698SOL    HW126993   5.015   6.252   4.918
 8698SOL    HW226994   5.111   6.156   4.827
 8699SOL     OW26995   1.402   3.307   5.027
 8699SOL    HW126996   1.360   3.229   5.075
 8699SOL    HW226997   1.475   3.274   4.968
 8700SOL     OW26998   0.994   0.152   4.863
 8700SOL    HW126999   1.070   0.207   4.899
 8700SOL    HW227000   0.988   0.067   4.914
 8701SOL     OW27001   1.316   1.180   6.734
 8701SOL    HW127002   1.259   1.259   6.758
 8701SOL    HW227003   1.412   1.201   6.753
 8702SOL     OW27004   5.602   4.853   1.806
 8702SOL    HW127005   5.541   4.878   1.731
 8702SOL    HW227006   5.561   4.777   1.857
 8703SOL     OW27007   3.286   5.119   6.977
 8703SOL    HW127008   3.251   5.174   6.902
 8703SOL    HW227009   3.296   5.024   6.948
 8704SOL     OW27010   0.769   3.977   3.412
 8704SOL    HW127011   0.836   4.050   3.400
 8704SOL    HW227012   0.687   3.998   3.359
 8705SOL     OW27013   5.103   1.142   6.267
 8705SOL    HW127014   5.140   1.052   6.245
 8705SOL    HW227015   5.070   1.186   6.183
 8706SOL     OW27016   5.179   2.110   6.741
 8706SOL    HW127017   5.146   2.031   6.793
 8706SOL    HW227018   5.101   2.165   6.712
 8707SOL     OW27019   0.514   1.616   5.579
 8707SOL    HW127020   0.470   1.534   5.543
 8707SOL    HW227021   0.592   1.590   5.635
 8708SOL     OW27022   3.794   1.283   3.216
 8708SOL    HW127023   3.814   1.208   3.152
 8708SOL    HW227024   3.716   1.335   3.182
 8709SOL     OW27025   6.613   6.690   0.361
 8709SOL    HW127026   6.666   6.736   0.289
 8709SOL    HW227027   6.596   6.595   0.335
 8710SOL     OW27028   1.606   3.093   3.432
 8710SOL    HW127029   1.688   3.109   3.377
 8710SOL    HW227030   1.625   3.113   3.528
 8711SOL     OW27031   1.647   6.591   2.498
 8711SOL    HW127032   1.555   6.565   2.526
 8711SOL    HW227033   1.689   6.517   2.445
 8712SOL     OW27034   3.755   1.832   4.468
 8712SOL    HW127035   3.788   1.925   4.485
 8712SOL    HW227036   3.801   1.769   4.531
 8713SOL     OW27037   6.417   3.197   2.846
 8713SOL    HW127038   6.442   3.281   2.797
 8713SOL    HW227039   6.424   3.119   2.784
 8714SOL     OW27040   0.961   6.850   5.735
 8714SOL    HW127041   0.868   6.816   5.749
 8714SOL    HW227042   1.023   6.772   5.727
 8715SOL     OW27043   4.090   0.772   0.723
 8715SOL    HW127044   4.137   0.744   0.807
 8715SOL    HW227045   4.155   0.777   0.648
 8716SOL     OW27046   6.742   0.282   0.821
 8716SOL    HW127047   6.746   0.183   0.828
 8716SOL    HW227048   6.734   0.308   0.724
 8717SOL     OW27049   2.941   4.064   5.398
 8717SOL    HW127050   2.987   4.097   5.480
 8717SOL    HW227051   3.007   4.016   5.340
 8718SOL     OW27052   1.321   2.934   5.705
 8718SOL    HW127053   1.379   2.857   5.681
 8718SOL    HW227054   1.241   2.901   5.755
 8719SOL     OW27055   4.162   6.865   0.235
 8719SOL    HW127056   4.118   6.917   0.162
 8719SOL    HW227057   4.160   6.918   0.320
 8720SOL     OW27058   0.537   6.007   6.326
 8720SOL    HW127059   0.442   6.027   6.351
 8720SOL    HW227060   0.554   6.038   6.232
 8721SOL     OW27061   6.096   2.723   1.936
 8721SOL    HW127062   6.075   2.815   1.970
 8721SOL    HW227063   6.169   2.683   1.990
 8722SOL     OW27064   3.526   1.245   1.365
 8722SOL    HW127065   3.519   1.345   1.359
 8722SOL    HW227066   3.620   1.220   1.388
 8723SOL     OW27067   4.618   6.676   1.966
 8723SOL    HW127068   4.530   6.640   1.995
 8723SOL    HW227069   4.603   6.757   1.908
 8724SOL     OW27070   5.552   6.896   4.454
 8724SOL    HW127071   5.457   6.886   4.482
 8724SOL    HW227072   5.559   6.964   4.382
 8725SOL     OW27073   1.989   5.594   5.588
 8725SOL    HW127074   2.051   5.573   5.664
 8725SOL    HW227075   1.981   5.693   5.578
 8726SOL     OW27076   0.051   0.577   3.374
 8726SOL    HW127077   0.057   0.478   3.357
 8726SOL    HW227078   0.123   0.603   3.439
 8727SOL     OW27079   5.381   0.479   2.667
 8727SOL    HW127080   5.427   0.398   2.704
 8727SOL    HW227081   5.297   0.452   2.620
 8728SOL     OW27082   6.353   0.594   2.417
 8728SOL    HW127083   6.442   0.615   2.457
 8728SOL    HW227084   6.339   0.495   2.418
 8729SOL     OW27085   3.482   5.050   5.994
 8729SOL    HW127086   3.393   5.011   6.016
 8729SOL    HW227087   3.550   4.978   5.988
 8730SOL     OW27088   5.471   4.105   2.528
 8730SOL    HW127089   5.508   4.107   2.435
 8730SOL    HW227090   5.545   4.084   2.592
 8731SOL     OW27091   0.949   3.178   2.641
 8731SOL    HW127092   1.020   3.194   2.572
 8731SOL    HW227093   0.989   3.134   2.721
 8732SOL     OW27094   5.903   5.056   1.657
 8732SOL    HW127095   5.972   5.078   1.725
 8732SOL    HW227096   5.812   5.071   1.695
 8733SOL     OW27097   1.526   6.045   1.319
 8733SOL    HW127098   1.625   6.039   1.304
 8733SOL    HW227099   1.485   5.954   1.305
 8734SOL     OW27100   0.692   3.577   2.785
 8734SOL    HW127101   0.691   3.672   2.752
 8734SOL    HW227102   0.783   3.538   2.770
 8735SOL     OW27103   1.093   2.909   6.876
 8735SOL    HW127104   1.140   2.941   6.959
 8735SOL    HW227105   1.140   2.944   6.795
 8736SOL     OW27106   0.207   5.065   1.329
 8736SOL    HW127107   0.244   5.136   1.388
 8736SOL    HW227108   0.111   5.084   1.308
 8737SOL     OW27109   1.751   6.618   0.708
 8737SOL    HW127110   1.733   6.710   0.674
 8737SOL    HW227111   1.685   6.554   0.669
 8738SOL     OW27112   2.841   5.841   3.775
 8738SOL    HW127113   2.760   5.854   3.718
 8738SOL    HW227114   2.829   5.887   3.862
 8739SOL     OW27115   5.474   5.754   6.200
 8739SOL    HW127116   5.398   5.725   6.259
 8739SOL    HW227117   5.520   5.674   6.163
 8740SOL     OW27118   3.847   1.622   4.631
 8740SOL    HW127119   3.759   1.578   4.650
 8740SOL    HW227120   3.909   1.607   4.708
 8741SOL     OW27121   2.110   1.312   2.280
 8741SOL    HW127122   2.079   1.364   2.200
 8741SOL    HW227123   2.053   1.230   2.290
 8742SOL     OW27124   4.912   6.802   1.737
 8742SOL    HW127125   4.930   6.846   1.826
 8742SOL    HW227126   4.944   6.861   1.664
 8743SOL     OW27127   1.203   6.916   1.964
 8743SOL    HW127128   1.159   6.832   1.997
 8743SOL    HW227129   1.145   6.995   1.986
 8744SOL     OW27130   4.044   2.908   0.254
 8744SOL    HW127131   4.016   2.813   0.273
 8744SOL    HW227132   4.140   2.910   0.226
 8745SOL     OW27133   6.548   1.790   6.110
 8745SOL    HW127134   6.474   1.724   6.112
 8745SOL    HW227135   6.581   1.801   6.016
 8746SOL     OW27136   4.705   5.461   4.513
 8746SOL    HW127137   4.680   5.544   4.563
 8746SOL    HW227138   4.630   5.435   4.453
 8747SOL     OW27139   6.687   1.806   3.375
 8747SOL    HW127140   6.611   1.859   3.337
 8747SOL    HW227141   6.711   1.732   3.311
 8748SOL     OW27142   0.334   1.233   4.171
 8748SOL    HW127143   0.361   1.141   4.144
 8748SOL    HW227144   0.372   1.300   4.108
 8749SOL     OW27145   2.556   0.289   5.203
 8749SOL    HW127146   2.468   0.247   5.223
 8749SOL    HW227147   2.567   0.371   5.259
 8750SOL     OW27148   3.336   4.287   5.354
 8750SOL    HW127149   3.366   4.274   5.448
 8750SOL    HW227150   3.323   4.384   5.336
 8751SOL     OW27151   5.928   1.603   2.090
 8751SOL    HW127152   5.984   1.579   2.169
 8751SOL    HW227153   5.833   1.617   2.119
 8752SOL     OW27154   3.311   3.057   6.218
 8752SOL    HW127155   3.411   3.057   6.212
 8752SOL    HW227156   3.278   3.151   6.221
 8753SOL     OW27157   3.193   1.854   6.491
 8753SOL    HW127158   3.115   1.839   6.430
 8753SOL    HW227159   3.275   1.814   6.450
 8754SOL     OW27160   1.644   3.824   5.741
 8754SOL    HW127161   1.621   3.919   5.761
 8754SOL    HW227162   1.674   3.779   5.825
 8755SOL     OW27163   2.300   1.078   1.165
 8755SOL    HW127164   2.258   0.988   1.175
 8755SOL    HW227165   2.397   1.068   1.142
 8756SOL     OW27166   1.524   3.079   4.060
 8756SOL    HW127167   1.522   3.068   3.960
 8756SOL    HW227168   1.610   3.123   4.087
 8757SOL     OW27169   3.948   5.895   6.804
 8757SOL    HW127170   3.940   5.875   6.706
 8757SOL    HW227171   3.940   5.810   6.856
 8758SOL     OW27172   5.318   6.198   2.471
 8758SOL    HW127173   5.265   6.168   2.550
 8758SOL    HW227174   5.403   6.240   2.503
 8759SOL     OW27175   4.704   3.092   6.916
 8759SOL    HW127176   4.800   3.101   6.942
 8759SOL    HW227177   4.693   3.012   6.857
 8760SOL     OW27178   2.821   0.851   5.424
 8760SOL    HW127179   2.910   0.819   5.456
 8760SOL    HW227180   2.802   0.942   5.463
 8761SOL     OW27181   6.159   2.459   1.500
 8761SOL    HW127182   6.254   2.428   1.496
 8761SOL    HW227183   6.135   2.482   1.594
 8762SOL     OW27184   1.026   4.796   3.762
 8762SOL    HW127185   0.951   4.823   3.822
 8762SOL    HW227186   1.105   4.856   3.779
 8763SOL     OW27187   6.341   6.892   6.090
 8763SOL    HW127188   6.362   6.971   6.031
 8763SOL    HW227189   6.352   6.808   6.037
 8764SOL     OW27190   4.700   0.169   5.722
 8764SOL    HW127191   4.701   0.081   5.674
 8764SOL    HW227192   4.649   0.236   5.669
 8765SOL     OW27193   4.870   0.189   3.915
 8765SOL    HW127194   4.878   0.123   3.840
 8765SOL    HW227195   4.940   0.260   3.904
 8766SOL     OW27196   4.596   4.506   4.996
 8766SOL    HW127197   4.496   4.514   4.995
 8766SOL    HW227198   4.631   4.516   4.902
 8767SOL     OW27199   5.476   5.929   2.122
 8767SOL    HW127200   5.570   5.895   2.110
 8767SOL    HW227201   5.447   5.975   2.038
 8768SOL     OW27202   1.398   2.313   0.584
 8768SOL    HW127203   1.359   2.248   0.519
 8768SOL    HW227204   1.467   2.267   0.640
 8769SOL     OW27205   6.859   0.744   3.321
 8769SOL    HW127206   6.920   0.665   3.328
 8769SOL    HW227207   6.863   0.796   3.406
 8770SOL     OW27208   4.520   4.568   1.942
 8770SOL    HW127209   4.513   4.475   1.979
 8770SOL    HW227210   4.479   4.633   2.006
 8771SOL     OW27211   1.558   1.985   6.754
 8771SOL    HW127212   1.490   2.053   6.779
 8771SOL    HW227213   1.514   1.896   6.743
 8772SOL     OW27214   4.569   0.675   6.596
 8772SOL    HW127215   4.500   0.608   6.567
 8772SOL    HW227216   4.532   0.767   6.586
 8773SOL     OW27217   5.628   2.859   3.905
 8773SOL    HW127218   5.681   2.804   3.970
 8773SOL    HW227219   5.690   2.898   3.837
 8774SOL     OW27220   1.544   0.609   0.140
 8774SOL    HW127221   1.611   0.613   0.066
 8774SOL    HW227222   1.531   0.700   0.178
 8775SOL     OW27223   5.454   1.018   5.501
 8775SOL    HW127224   5.369   1.070   5.509
 8775SOL    HW227225   5.529   1.079   5.479
 8776SOL     OW27226   4.566   3.248   0.690
 8776SOL    HW127227   4.537   3.344   0.692
 8776SOL    HW227228   4.664   3.242   0.708
 8777SOL     OW27229   5.842   4.205   3.667
 8777SOL    HW127230   5.825   4.106   3.669
 8777SOL    HW227231   5.848   4.240   3.760
 8778SOL     OW27232   5.653   3.175   6.129
 8778SOL    HW127233   5.614   3.137   6.046
 8778SOL    HW227234   5.752   3.181   6.121
 8779SOL     OW27235   2.671   5.005   2.602
 8779SOL    HW127236   2.643   5.062   2.524
 8779SOL    HW227237   2.596   5.000   2.668
 8780SOL     OW27238   0.403   6.829   3.144
 8780SOL    HW127239   0.462   6.862   3.071
 8780SOL    HW227240   0.355   6.906   3.186
 8781SOL     OW27241   5.165   1.096   4.220
 8781SOL    HW127242   5.148   1.069   4.126
 8781SOL    HW227243   5.243   1.159   4.223
 8782SOL     OW27244   6.414   0.134   2.632
 8782SOL    HW127245   6.439   0.095   2.544
 8782SOL    HW227246   6.480   0.104   2.701
 8783SOL     OW27247   6.612   4.051   3.626
 8783SOL    HW127248   6.529   4.083   3.672
 8783SOL    HW227249   6.661   3.989   3.687
 8784SOL     OW27250   0.218   6.033   5.622
 8784SOL    HW127251   0.311   6.068   5.633
 8784SOL    HW227252   0.207   5.996   5.529
 8785SOL     OW27253   5.446   5.146   0.233
 8785SOL    HW127254   5.546   5.146   0.236
 8785SOL    HW227255   5.412   5.234   0.266
 8786SOL     OW27256   2.328   1.228   0.345
 8786SOL    HW127257   2.327   1.141   0.394
 8786SOL    HW227258   2.333   1.211   0.247
 8787SOL     OW27259   2.820   1.209   2.233
 8787SOL    HW127260   2.765   1.278   2.280
 8787SOL    HW227261   2.893   1.254   2.181
 8788SOL     OW27262   0.022   0.486   5.626
 8788SOL    HW127263   0.069   0.398   5.634
 8788SOL    HW227264   0.062   0.539   5.551
 8789SOL     OW27265   6.066   5.592   5.161
 8789SOL    HW127266   6.045   5.527   5.234
 8789SOL    HW227267   6.162   5.619   5.167
 8790SOL     OW27268   6.536   0.492   6.510
 8790SOL    HW127269   6.472   0.543   6.453
 8790SOL    HW227270   6.495   0.405   6.537
 8791SOL     OW27271   5.801   6.452   5.173
 8791SOL    HW127272   5.762   6.520   5.236
 8791SOL    HW227273   5.727   6.406   5.124
 8792SOL     OW27274   3.143   5.338   3.113
 8792SOL    HW127275   3.210   5.325   3.039
 8792SOL    HW227276   3.060   5.287   3.092
 8793SOL     OW27277   0.835   4.412   2.355
 8793SOL    HW127278   0.809   4.464   2.436
 8793SOL    HW227279   0.902   4.341   2.381
 8794SOL     OW27280   5.176   0.296   2.634
 8794SOL    HW127281   5.190   0.210   2.683
 8794SOL    HW227282   5.132   0.362   2.695
 8795SOL     OW27283   0.995   3.930   5.770
 8795SOL    HW127284   0.950   3.870   5.705
 8795SOL    HW227285   1.010   4.020   5.727
 8796SOL     OW27286   4.892   2.142   4.083
 8796SOL    HW127287   4.888   2.240   4.065
 8796SOL    HW227288   4.841   2.093   4.012
 8797SOL     OW27289   0.209   0.331   7.013
 8797SOL    HW127290   0.169   0.328   6.921
 8797SOL    HW227291   0.308   0.319   7.007
 8798SOL     OW27292   4.703   6.318   6.259
 8798SOL    HW127293   4.718   6.378   6.181
 8798SOL    HW227294   4.773   6.247   6.261
 8799SOL     OW27295   2.862   4.776   3.694
 8799SOL    HW127296   2.845   4.737   3.604
 8799SOL    HW227297   2.928   4.850   3.687
 8800SOL     OW27298   6.009   4.381   6.378
 8800SOL    HW127299   5.946   4.455   6.356
 8800SOL    HW227300   6.103   4.414   6.376
 8801SOL     OW27301   0.196   1.112   4.406
 8801SOL    HW127302   0.250   1.133   4.487
 8801SOL    HW227303   0.252   1.122   4.324
 8802SOL     OW27304   2.133   6.505   6.186
 8802SOL    HW127305   2.153   6.539   6.278
 8802SOL    HW227306   2.190   6.553   6.119
 8803SOL     OW27307   0.002   6.654   0.325
 8803SOL    HW127308   0.005   6.730   0.390
 8803SOL    HW227309   0.094   6.634   0.292
 8804SOL     OW27310   2.477   6.415   1.583
 8804SOL    HW127311   2.505   6.336   1.529
 8804SOL    HW227312   2.545   6.487   1.575
 8805SOL     OW27313   3.519   6.410   3.543
 8805SOL    HW127314   3.474   6.499   3.541
 8805SOL    HW227315   3.617   6.422   3.531
 8806SOL     OW27316   3.258   4.782   1.091
 8806SOL    HW127317   3.326   4.709   1.083
 8806SOL    HW227318   3.288   4.862   1.039
 8807SOL     OW27319   5.172   1.001   0.463
 8807SOL    HW127320   5.074   1.004   0.482
 8807SOL    HW227321   5.220   0.969   0.545
 8808SOL     OW27322   6.321   2.904   6.552
 8808SOL    HW127323   6.295   2.881   6.458
 8808SOL    HW227324   6.250   2.961   6.593
 8809SOL     OW27325   3.726   5.185   3.549
 8809SOL    HW127326   3.760   5.245   3.477
 8809SOL    HW227327   3.740   5.229   3.638
 8810SOL     OW27328   6.080   0.826   4.935
 8810SOL    HW127329   6.173   0.790   4.948
 8810SOL    HW227330   6.035   0.776   4.862
 8811SOL     OW27331   3.448   1.524   2.756
 8811SOL    HW127332   3.446   1.512   2.656
 8811SOL    HW227333   3.361   1.565   2.785
 8812SOL     OW27334   2.146   0.458   0.584
 8812SOL    HW127335   2.112   0.452   0.490
 8812SOL    HW227336   2.073   0.435   0.647
 8813SOL     OW27337   2.107   5.831   2.989
 8813SOL    HW127338   2.171   5.873   2.925
 8813SOL    HW227339   2.136   5.850   3.083
 8814SOL     OW27340   6.383   0.342   0.796
 8814SOL    HW127341   6.345   0.424   0.755
 8814SOL    HW227342   6.454   0.367   0.862
 8815SOL     OW27343   5.509   7.024   1.435
 8815SOL    HW127344   5.553   6.998   1.349
 8815SOL    HW227345   5.519   0.096   1.449
 8816SOL     OW27346   0.777   6.045   0.434
 8816SOL    HW127347   0.803   5.967   0.379
 8816SOL    HW227348   0.819   6.128   0.397
 8817SOL     OW27349   0.168   4.563   4.055
 8817SOL    HW127350   0.085   4.582   4.107
 8817SOL    HW227351   0.244   4.617   4.091
 8818SOL     OW27352   0.790   4.839   4.370
 8818SOL    HW127353   0.721   4.849   4.442
 8818SOL    HW227354   0.837   4.927   4.357
 8819SOL     OW27355   5.207   5.321   5.560
 8819SOL    HW127356   5.190   5.401   5.501
 8819SOL    HW227357   5.304   5.298   5.557
 8820SOL     OW27358   2.548   0.779   5.416
 8820SOL    HW127359   2.492   0.858   5.442
 8820SOL    HW227360   2.644   0.799   5.435
 8821SOL     OW27361   1.992   5.836   0.942
 8821SOL    HW127362   2.040   5.766   0.995
 8821SOL    HW227363   2.057   5.905   0.911
 8822SOL     OW27364   0.928   0.612   4.680
 8822SOL    HW127365   0.995   0.684   4.662
 8822SOL    HW227366   0.915   0.557   4.598
 8823SOL     OW27367   2.285   0.981   2.440
 8823SOL    HW127368   2.310   1.052   2.375
 8823SOL    HW227369   2.186   0.980   2.453
 8824SOL     OW27370   1.362   1.116   0.281
 8824SOL    HW127371   1.367   1.148   0.186
 8824SOL    HW227372   1.289   1.165   0.328
 8825SOL     OW27373   1.717   0.885   1.777
 8825SOL    HW127374   1.694   0.939   1.696
 8825SOL    HW227375   1.806   0.914   1.812
 8826SOL     OW27376   0.820   3.913   0.005
 8826SOL    HW127377   0.856   3.836   0.058
 8826SOL    HW227378   0.897   3.966   6.995
 8827SOL     OW27379   4.157   0.757   3.255
 8827SOL    HW127380   4.112   0.834   3.300
 8827SOL    HW227381   4.151   0.768   3.156
 8828SOL     OW27382   4.130   5.578   6.592
 8828SOL    HW127383   4.113   5.677   6.589
 8828SOL    HW227384   4.044   5.530   6.573
 8829SOL     OW27385   5.217   2.164   1.177
 8829SOL    HW127386   5.190   2.169   1.273
 8829SOL    HW227387   5.310   2.201   1.167
 8830SOL     OW27388   1.675   1.792   2.799
 8830SOL    HW127389   1.717   1.879   2.771
 8830SOL    HW227390   1.578   1.794   2.779
 8831SOL     OW27391   4.852   2.589   3.483
 8831SOL    HW127392   4.782   2.660   3.485
 8831SOL    HW227393   4.810   2.499   3.468
 8832SOL     OW27394   6.972   6.476   3.234
 8832SOL    HW127395   7.025   6.543   3.286
 8832SOL    HW227396   6.891   6.450   3.286
 8833SOL     OW27397   2.931   5.220   6.838
 8833SOL    HW127398   2.885   5.173   6.763
 8833SOL    HW227399   2.888   5.195   6.925
 8834SOL     OW27400   5.875   4.040   4.777
 8834SOL    HW127401   5.807   3.984   4.731
 8834SOL    HW227402   5.891   4.004   4.869
 8835SOL     OW27403   5.146   0.801   5.959
 8835SOL    HW127404   5.170   0.790   5.863
 8835SOL    HW227405   5.047   0.790   5.970
 8836SOL     OW27406   4.959   2.174   0.366
 8836SOL    HW127407   4.913   2.262   0.374
 8836SOL    HW227408   4.896   2.107   0.327
 8837SOL     OW27409   0.565   6.962   2.680
 8837SOL    HW127410   0.635   6.914   2.627
 8837SOL    HW227411   0.544   6.910   2.763
 8838SOL     OW27412   2.442   4.865   3.928
 8838SOL    HW127413   2.515   4.798   3.915
 8838SOL    HW227414   2.354   4.824   3.902
 8839SOL     OW27415   4.281   5.661   1.481
 8839SOL    HW127416   4.285   5.759   1.500
 8839SOL    HW227417   4.191   5.626   1.504
 8840SOL     OW27418   0.399   1.003   3.221
 8840SOL    HW127419   0.462   0.931   3.191
 8840SOL    HW227420   0.311   0.962   3.246
 8841SOL     OW27421   0.531   1.044   4.789
 8841SOL    HW127422   0.505   0.994   4.871
 8841SOL    HW227423   0.630   1.059   4.788
 8842SOL     OW27424   3.263   3.256   3.277
 8842SOL    HW127425   3.247   3.349   3.245
 8842SOL    HW227426   3.258   3.193   3.200
 8843SOL     OW27427   1.620   3.179   4.895
 8843SOL    HW127428   1.613   3.109   4.825
 8843SOL    HW227429   1.693   3.156   4.959
 8844SOL     OW27430   0.786   1.757   5.325
 8844SOL    HW127431   0.698   1.802   5.336
 8844SOL    HW227432   0.787   1.670   5.375
 8845SOL     OW27433   2.971   3.561   1.199
 8845SOL    HW127434   2.980   3.638   1.136
 8845SOL    HW227435   2.879   3.521   1.189
 8846SOL     OW27436   4.007   4.891   4.305
 8846SOL    HW127437   3.936   4.877   4.236
 8846SOL    HW227438   3.966   4.930   4.387
 8847SOL     OW27439   2.421   1.283   2.833
 8847SOL    HW127440   2.322   1.297   2.836
 8847SOL    HW227441   2.442   1.205   2.774
 8848SOL     OW27442   2.242   2.097   2.313
 8848SOL    HW127443   2.324   2.115   2.259
 8848SOL    HW227444   2.266   2.098   2.410
 8849SOL     OW27445   3.573   5.468   3.572
 8849SOL    HW127446   3.663   5.463   3.614
 8849SOL    HW227447   3.503   5.445   3.639
 8850SOL     OW27448   2.099   1.099   6.686
 8850SOL    HW127449   2.094   1.199   6.677
 8850SOL    HW227450   2.189   1.073   6.721
 8851SOL     OW27451   0.770   4.959   2.049
 8851SOL    HW127452   0.847   4.906   2.014
 8851SOL    HW227453   0.752   4.932   2.144
 8852SOL     OW27454   4.782   3.892   5.967
 8852SOL    HW127455   4.684   3.913   5.961
 8852SOL    HW227456   4.796   3.818   6.034
 8853SOL     OW27457   3.197   0.915   6.575
 8853SOL    HW127458   3.273   0.893   6.514
 8853SOL    HW227459   3.124   0.848   6.563
 8854SOL     OW27460   3.054   1.633   6.143
 8854SOL    HW127461   3.073   1.633   6.045
 8854SOL    HW227462   2.986   1.562   6.164
 8855SOL     OW27463   0.237   5.787   0.517
 8855SOL    HW127464   0.237   5.878   0.477
 8855SOL    HW227465   0.191   5.723   0.455
 8856SOL     OW27466   6.728   0.338   6.347
 8856SOL    HW127467   6.694   0.420   6.393
 8856SOL    HW227468   6.661   0.309   6.278
 8857SOL     OW27469   6.923   1.377   4.015
 8857SOL    HW127470   6.830   1.404   4.041
 8857SOL    HW227471   6.981   1.375   4.096
 8858SOL     OW27472   1.127   2.430   5.371
 8858SOL    HW127473   1.147   2.335   5.351
 8858SOL    HW227474   1.206   2.473   5.414
 8859SOL     OW27475   6.689   0.649   4.382
 8859SOL    HW127476   6.689   0.573   4.446
 8859SOL    HW227477   6.750   0.721   4.416
 8860SOL     OW27478   0.682   3.167   2.561
 8860SOL    HW127479   0.781   3.150   2.559
 8860SOL    HW227480   0.652   3.175   2.656
 8861SOL     OW27481   4.121   1.744   6.175
 8861SOL    HW127482   4.037   1.788   6.206
 8861SOL    HW227483   4.116   1.646   6.193
 8862SOL     OW27484   5.776   0.822   3.761
 8862SOL    HW127485   5.766   0.913   3.721
 8862SOL    HW227486   5.863   0.782   3.733
 8863SOL     OW27487   2.002   5.045   4.117
 8863SOL    HW127488   2.045   4.968   4.164
 8863SOL    HW227489   2.070   5.116   4.099
 8864SOL     OW27490   3.235   3.601   5.682
 8864SOL    HW127491   3.178   3.663   5.628
 8864SOL    HW227492   3.212   3.506   5.658
 8865SOL     OW27493   2.931   1.401   6.222
 8865SOL    HW127494   2.989   1.353   6.156
 8865SOL    HW227495   2.946   1.363   6.314
 8866SOL     OW27496   5.324   6.947   3.207
 8866SOL    HW127497   5.231   6.932   3.241
 8866SOL    HW227498   5.363   0.001   3.252
 8867SOL     OW27499   5.311   3.170   2.131
 8867SOL    HW127500   5.341   3.173   2.226
 8867SOL    HW227501   5.341   3.083   2.090
 8868SOL     OW27502   6.653   2.805   0.578
 8868SOL    HW127503   6.665   2.749   0.660
 8868SOL    HW227504   6.693   2.758   0.499
 8869SOL     OW27505   4.541   6.195   4.623
 8869SOL    HW127506   4.448   6.228   4.608
 8869SOL    HW227507   4.539   6.096   4.637
 8870SOL     OW27508   3.987   0.373   6.603
 8870SOL    HW127509   3.948   0.460   6.635
 8870SOL    HW227510   3.927   0.298   6.630
 8871SOL     OW27511   1.953   0.574   3.974
 8871SOL    HW127512   1.859   0.562   3.943
 8871SOL    HW227513   1.970   0.671   3.992
 8872SOL     OW27514   1.579   4.619   4.692
 8872SOL    HW127515   1.662   4.618   4.749
 8872SOL    HW227516   1.560   4.713   4.663
 8873SOL     OW27517   0.798   5.808   1.973
 8873SOL    HW127518   0.700   5.791   1.968
 8873SOL    HW227519   0.842   5.771   1.891
 8874SOL     OW27520   2.405   5.669   2.248
 8874SOL    HW127521   2.337   5.597   2.244
 8874SOL    HW227522   2.488   5.635   2.293
 8875SOL     OW27523   6.683   3.516   5.075
 8875SOL    HW127524   6.714   3.425   5.049
 8875SOL    HW227525   6.611   3.546   5.012
 8876SOL     OW27526   2.159   6.939   4.506
 8876SOL    HW127527   2.228   6.904   4.442
 8876SOL    HW227528   2.072   6.893   4.490
 8877SOL     OW27529   2.949   0.668   3.884
 8877SOL    HW127530   2.960   0.736   3.956
 8877SOL    HW227531   3.013   0.689   3.809
 8878SOL     OW27532   6.510   5.210   6.762
 8878SOL    HW127533   6.457   5.227   6.678
 8878SOL    HW227534   6.605   5.238   6.748
 8879SOL     OW27535   4.900   4.188   1.970
 8879SOL    HW127536   4.877   4.163   2.064
 8879SOL    HW227537   4.829   4.155   1.908
 8880SOL     OW27538   5.413   5.924   4.648
 8880SOL    HW127539   5.424   5.922   4.548
 8880SOL    HW227540   5.358   5.845   4.676
 8881SOL     OW27541   6.482   0.032   3.705
 8881SOL    HW127542   6.418   0.086   3.760
 8881SOL    HW227543   6.430   6.995   3.648
 8882SOL     OW27544   5.707   2.036   1.091
 8882SOL    HW127545   5.766   2.116   1.079
 8882SOL    HW227546   5.651   2.023   1.009
 8883SOL     OW27547   1.887   6.289   6.403
 8883SOL    HW127548   1.927   6.369   6.446
 8883SOL    HW227549   1.800   6.314   6.361
 8884SOL     OW27550   6.255   4.477   6.370
 8884SOL    HW127551   6.248   4.500   6.273
 8884SOL    HW227552   6.341   4.430   6.387
 8885SOL     OW27553   0.071   3.456   0.919
 8885SOL    HW127554   0.026   3.495   0.999
 8885SOL    HW227555   0.022   3.484   0.837
 8886SOL     OW27556   3.228   6.485   4.811
 8886SOL    HW127557   3.167   6.430   4.754
 8886SOL    HW227558   3.234   6.578   4.774
 8887SOL     OW27559   3.234   1.636   1.284
 8887SOL    HW127560   3.268   1.586   1.205
 8887SOL    HW227561   3.312   1.670   1.338
 8888SOL     OW27562   1.982   1.819   6.543
 8888SOL    HW127563   2.074   1.844   6.573
 8888SOL    HW227564   1.918   1.893   6.563
 8889SOL     OW27565   6.221   0.507   6.019
 8889SOL    HW127566   6.150   0.479   6.083
 8889SOL    HW227567   6.309   0.473   6.050
 8890SOL     OW27568   6.751   5.618   3.970
 8890SOL    HW127569   6.826   5.589   4.028
 8890SOL    HW227570   6.683   5.667   4.025
 8891SOL     OW27571   5.158   3.764   6.281
 8891SOL    HW127572   5.251   3.764   6.245
 8891SOL    HW227573   5.113   3.678   6.258
 8892SOL     OW27574   3.809   5.583   3.136
 8892SOL    HW127575   3.818   5.681   3.118
 8892SOL    HW227576   3.732   5.567   3.197
 8893SOL     OW27577   0.782   5.895   3.621
 8893SOL    HW127578   0.767   5.864   3.527
 8893SOL    HW227579   0.836   5.827   3.670
 8894SOL     OW27580   4.423   2.936   6.168
 8894SOL    HW127581   4.424   2.876   6.248
 8894SOL    HW227582   4.470   3.022   6.191
 8895SOL     OW27583   6.421   2.467   2.495
 8895SOL    HW127584   6.392   2.481   2.589
 8895SOL    HW227585   6.356   2.407   2.448
 8896SOL     OW27586   2.407   3.702   5.788
 8896SOL    HW127587   2.472   3.656   5.727
 8896SOL    HW227588   2.342   3.755   5.734
 8897SOL     OW27589   1.821   2.639   3.355
 8897SOL    HW127590   1.919   2.623   3.369
 8897SOL    HW227591   1.769   2.596   3.428
 8898SOL     OW27592   5.426   3.614   3.256
 8898SOL    HW127593   5.428   3.636   3.353
 8898SOL    HW227594   5.518   3.628   3.217
 8899SOL     OW27595   2.055   5.397   0.588
 8899SOL    HW127596   1.993   5.372   0.662
 8899SOL    HW227597   2.002   5.425   0.508
 8900SOL     OW27598   6.127   3.412   2.723
 8900SOL    HW127599   6.154   3.486   2.785
 8900SOL    HW227600   6.192   3.405   2.648
 8901SOL     OW27601   2.009   0.793   4.460
 8901SOL    HW127602   2.061   0.763   4.540
 8901SOL    HW227603   2.026   0.891   4.445
 8902SOL     OW27604   1.943   0.235   0.098
 8902SOL    HW127605   1.967   0.209   0.192
 8902SOL    HW227606   1.851   0.202   0.077
 8903SOL     OW27607   1.357   1.808   5.048
 8903SOL    HW127608   1.433   1.743   5.044
 8903SOL    HW227609   1.293   1.788   4.974
 8904SOL     OW27610   6.229   6.158   4.069
 8904SOL    HW127611   6.168   6.118   4.137
 8904SOL    HW227612   6.267   6.244   4.104
 8905SOL     OW27613   1.239   4.572   3.983
 8905SOL    HW127614   1.334   4.566   4.015
 8905SOL    HW227615   1.177   4.535   4.052
 8906SOL     OW27616   0.258   6.318   0.436
 8906SOL    HW127617   0.191   6.344   0.506
 8906SOL    HW227618   0.350   6.331   0.472
 8907SOL     OW27619   2.615   2.343   5.091
 8907SOL    HW127620   2.610   2.409   5.016
 8907SOL    HW227621   2.644   2.390   5.175
 8908SOL     OW27622   1.081   3.808   6.440
 8908SOL    HW127623   1.052   3.738   6.375
 8908SOL    HW227624   1.027   3.801   6.523
 8909SOL     OW27625   2.995   0.801   5.971
 8909SOL    HW127626   3.020   0.773   5.879
 8909SOL    HW227627   2.895   0.809   5.978
 8910SOL     OW27628   0.461   2.696   5.936
 8910SOL    HW127629   0.469   2.794   5.916
 8910SOL    HW227630   0.367   2.675   5.961
 8911SOL     OW27631   3.934   2.024   4.599
 8911SOL    HW127632   3.898   2.063   4.683
 8911SOL    HW227633   3.979   2.096   4.545
 8912SOL     OW27634   3.561   3.094   0.182
 8912SOL    HW127635   3.648   3.124   0.142
 8912SOL    HW227636   3.563   3.107   0.281
 8913SOL     OW27637   5.202   5.228   5.811
 8913SOL    HW127638   5.183   5.283   5.729
 8913SOL    HW227639   5.238   5.287   5.883
 8914SOL     OW27640   4.607   0.212   4.774
 8914SOL    HW127641   4.705   0.200   4.790
 8914SOL    HW227642   4.575   0.293   4.822
 8915SOL     OW27643   0.699   2.739   3.765
 8915SOL    HW127644   0.610   2.779   3.743
 8915SOL    HW227645   0.693   2.689   3.852
 8916SOL     OW27646   0.267   3.680   0.928
 8916SOL    HW127647   0.287   3.778   0.933
 8916SOL    HW227648   0.351   3.628   0.948
 8917SOL     OW27649   6.826   3.579   0.232
 8917SOL    HW127650   6.889   3.501   0.243
 8917SOL    HW227651   6.848   3.628   0.148
 8918SOL     OW27652   6.588   4.143   1.382
 8918SOL    HW127653   6.588   4.213   1.311
 8918SOL    HW227654   6.494   4.111   1.397
 8919SOL     OW27655   3.880   4.437   0.367
 8919SOL    HW127656   3.953   4.488   0.322
 8919SOL    HW227657   3.794   4.448   0.316
 8920SOL     OW27658   0.708   0.473   7.026
 8920SOL    HW127659   0.801   0.503   0.022
 8920SOL    HW227660   0.710   0.424   6.939
 8921SOL     OW27661   1.601   1.947   2.233
 8921SOL    HW127662   1.635   2.040   2.249
 8921SOL    HW227663   1.501   1.949   2.228
 8922SOL     OW27664   3.659   5.277   1.217
 8922SOL    HW127665   3.705   5.189   1.204
 8922SOL    HW227666   3.572   5.262   1.265
 8923SOL     OW27667   1.704   3.446   6.271
 8923SOL    HW127668   1.746   3.362   6.306
 8923SOL    HW227669   1.776   3.508   6.238
 8924SOL     OW27670   4.025   5.199   5.567
 8924SOL    HW127671   3.925   5.192   5.571
 8924SOL    HW227672   4.053   5.293   5.585
 8925SOL     OW27673   0.921   1.300   2.638
 8925SOL    HW127674   0.846   1.361   2.664
 8925SOL    HW227675   0.896   1.206   2.662
 8926SOL     OW27676   6.512   3.691   5.761
 8926SOL    HW127677   6.499   3.680   5.859
 8926SOL    HW227678   6.432   3.734   5.721
 8927SOL     OW27679   0.817   1.272   4.852
 8927SOL    HW127680   0.776   1.333   4.784
 8927SOL    HW227681   0.816   1.178   4.818
 8928SOL     OW27682   6.971   0.213   6.367
 8928SOL    HW127683   7.016   0.237   6.453
 8928SOL    HW227684   6.894   0.274   6.351
 8929SOL     OW27685   6.276   2.824   4.473
 8929SOL    HW127686   6.249   2.874   4.555
 8929SOL    HW227687   6.214   2.747   4.459
 8930SOL     OW27688   1.160   3.824   4.394
 8930SOL    HW127689   1.214   3.744   4.368
 8930SOL    HW227690   1.151   3.886   4.316
 8931SOL     OW27691   3.059   2.746   0.662
 8931SOL    HW127692   2.999   2.677   0.702
 8931SOL    HW227693   3.005   2.809   0.607
 8932SOL     OW27694   5.823   0.740   0.903
 8932SOL    HW127695   5.919   0.715   0.892
 8932SOL    HW227696   5.768   0.656   0.904
 8933SOL     OW27697   1.792   3.086   6.080
 8933SOL    HW127698   1.881   3.062   6.120
 8933SOL    HW227699   1.755   3.166   6.126
 8934SOL     OW27700   3.647   5.156   4.521
 8934SOL    HW127701   3.596   5.231   4.563
 8934SOL    HW227702   3.583   5.092   4.479
 8935SOL     OW27703   6.528   4.334   1.203
 8935SOL    HW127704   6.530   4.406   1.272
 8935SOL    HW227705   6.585   4.360   1.125
 8936SOL     OW27706   1.375   3.592   2.220
 8936SOL    HW127707   1.329   3.645   2.149
 8936SOL    HW227708   1.313   3.523   2.257
 8937SOL     OW27709   0.081   6.683   4.986
 8937SOL    HW127710   0.118   6.775   4.973
 8937SOL    HW227711   0.089   6.658   5.083
 8938SOL     OW27712   0.407   1.669   0.357
 8938SOL    HW127713   0.505   1.649   0.362
 8938SOL    HW227714   0.359   1.591   0.316
 8939SOL     OW27715   5.715   4.954   4.333
 8939SOL    HW127716   5.803   4.921   4.299
 8939SOL    HW227717   5.730   5.009   4.416
 8940SOL     OW27718   5.371   0.708   1.455
 8940SOL    HW127719   5.366   0.806   1.473
 8940SOL    HW227720   5.377   0.659   1.542
 8941SOL     OW27721   6.359   2.627   3.872
 8941SOL    HW127722   6.387   2.606   3.966
 8941SOL    HW227723   6.295   2.557   3.840
 8942SOL     OW27724   6.597   5.918   5.883
 8942SOL    HW127725   6.603   5.819   5.872
 8942SOL    HW227726   6.619   5.943   5.977
 8943SOL     OW27727   3.755   5.461   0.406
 8943SOL    HW127728   3.688   5.429   0.339
 8943SOL    HW227729   3.847   5.443   0.371
 8944SOL     OW27730   5.253   6.372   4.166
 8944SOL    HW127731   5.237   6.346   4.261
 8944SOL    HW227732   5.213   6.462   4.149
 8945SOL     OW27733   0.663   1.143   4.168
 8945SOL    HW127734   0.581   1.117   4.117
 8945SOL    HW227735   0.737   1.079   4.147
 8946SOL     OW27736   3.290   0.614   3.654
 8946SOL    HW127737   3.359   0.554   3.695
 8946SOL    HW227738   3.244   0.666   3.727
 8947SOL     OW27739   2.553   3.578   5.595
 8947SOL    HW127740   2.594   3.601   5.506
 8947SOL    HW227741   2.533   3.480   5.597
 8948SOL     OW27742   6.172   5.777   3.614
 8948SOL    HW127743   6.153   5.844   3.542
 8948SOL    HW227744   6.141   5.687   3.583
 8949SOL     OW27745   3.945   6.699   0.703
 8949SOL    HW127746   3.989   6.761   0.638
 8949SOL    HW227747   3.975   6.722   0.796
 8950SOL     OW27748   3.609   3.317   0.590
 8950SOL    HW127749   3.696   3.337   0.635
 8950SOL    HW227750   3.567   3.403   0.560
 8951SOL     OW27751   2.025   1.042   4.363
 8951SOL    HW127752   2.034   1.130   4.409
 8951SOL    HW227753   1.962   1.051   4.286
 8952SOL     OW27754   0.953   5.174   3.783
 8952SOL    HW127755   1.028   5.111   3.803
 8952SOL    HW227756   0.989   5.254   3.734
 8953SOL     OW27757   1.236   4.609   0.697
 8953SOL    HW127758   1.299   4.684   0.720
 8953SOL    HW227759   1.277   4.553   0.625
 8954SOL     OW27760   6.828   6.790   4.571
 8954SOL    HW127761   6.815   6.732   4.490
 8954SOL    HW227762   6.755   6.858   4.574
 8955SOL     OW27763   6.924   4.952   3.140
 8955SOL    HW127764   6.844   4.938   3.199
 8955SOL    HW227765   6.957   5.046   3.151
 8956SOL     OW27766   1.639   1.929   5.894
 8956SOL    HW127767   1.718   1.970   5.849
 8956SOL    HW227768   1.587   1.999   5.943
 8957SOL     OW27769   1.898   4.536   1.295
 8957SOL    HW127770   1.984   4.538   1.245
 8957SOL    HW227771   1.886   4.623   1.343
 8958SOL     OW27772   0.611   2.257   5.279
 8958SOL    HW127773   0.649   2.173   5.240
 8958SOL    HW227774   0.547   2.298   5.215
 8959SOL     OW27775   1.532   4.397   2.255
 8959SOL    HW127776   1.442   4.374   2.218
 8959SOL    HW227777   1.550   4.494   2.240
 8960SOL     OW27778   4.680   5.564   3.773
 8960SOL    HW127779   4.654   5.478   3.815
 8960SOL    HW227780   4.778   5.581   3.789
 8961SOL     OW27781   3.421   1.258   3.422
 8961SOL    HW127782   3.365   1.175   3.422
 8961SOL    HW227783   3.471   1.265   3.508
 8962SOL     OW27784   5.894   5.514   2.471
 8962SOL    HW127785   5.949   5.477   2.396
 8962SOL    HW227786   5.935   5.600   2.503
 8963SOL     OW27787   3.663   0.550   4.657
 8963SOL    HW127788   3.632   0.554   4.752
 8963SOL    HW227789   3.589   0.513   4.600
 8964SOL     OW27790   5.735   2.986   3.223
 8964SOL    HW127791   5.641   2.964   3.199
 8964SOL    HW227792   5.792   2.904   3.212
 8965SOL     OW27793   2.608   5.416   6.874
 8965SOL    HW127794   2.700   5.454   6.873
 8965SOL    HW227795   2.598   5.355   6.953
 8966SOL     OW27796   6.755   3.898   0.155
 8966SOL    HW127797   6.833   3.930   0.209
 8966SOL    HW227798   6.788   3.852   0.073
 8967SOL     OW27799   3.620   0.414   1.792
 8967SOL    HW127800   3.554   0.488   1.806
 8967SOL    HW227801   3.667   0.429   1.705
 8968SOL     OW27802   4.278   5.708   2.692
 8968SOL    HW127803   4.218   5.688   2.770
 8968SOL    HW227804   4.249   5.652   2.614
 8969SOL     OW27805   6.665   0.394   3.843
 8969SOL    HW127806   6.601   0.349   3.781
 8969SOL    HW227807   6.699   0.478   3.801
 8970SOL     OW27808   2.675   3.098   6.784
 8970SOL    HW127809   2.628   3.009   6.784
 8970SOL    HW227810   2.770   3.085   6.757
 8971SOL     OW27811   6.064   5.058   1.423
 8971SOL    HW127812   6.054   4.971   1.374
 8971SOL    HW227813   5.992   5.065   1.492
 8972SOL     OW27814   4.458   4.058   0.555
 8972SOL    HW127815   4.525   4.125   0.586
 8972SOL    HW227816   4.366   4.089   0.577
 8973SOL     OW27817   0.230   3.676   3.228
 8973SOL    HW127818   0.267   3.737   3.298
 8973SOL    HW227819   0.135   3.700   3.209
 8974SOL     OW27820   1.557   3.863   4.063
 8974SOL    HW127821   1.586   3.881   3.968
 8974SOL    HW227822   1.481   3.798   4.063
 8975SOL     OW27823   0.567   6.315   0.532
 8975SOL    HW127824   0.553   6.292   0.436
 8975SOL    HW227825   0.591   6.232   0.583
 8976SOL     OW27826   0.203   5.176   0.188
 8976SOL    HW127827   0.142   5.185   0.267
 8976SOL    HW227828   0.266   5.254   0.187
 8977SOL     OW27829   6.910   3.181   6.596
 8977SOL    HW127830   6.856   3.185   6.680
 8977SOL    HW227831   6.852   3.149   6.521
 8978SOL     OW27832   5.274   6.793   4.319
 8978SOL    HW127833   5.324   6.780   4.234
 8978SOL    HW227834   5.264   6.891   4.337
 8979SOL     OW27835   0.860   4.757   5.395
 8979SOL    HW127836   0.830   4.662   5.395
 8979SOL    HW227837   0.853   4.795   5.303
 8980SOL     OW27838   4.705   2.811   5.239
 8980SOL    HW127839   4.790   2.864   5.232
 8980SOL    HW227840   4.633   2.869   5.279
 8981SOL     OW27841   4.648   2.264   4.993
 8981SOL    HW127842   4.735   2.216   4.979
 8981SOL    HW227843   4.580   2.200   5.027
 8982SOL     OW27844   1.559   1.692   1.469
 8982SOL    HW127845   1.550   1.790   1.455
 8982SOL    HW227846   1.532   1.669   1.563
 8983SOL     OW27847   0.524   5.319   0.524
 8983SOL    HW127848   0.509   5.356   0.615
 8983SOL    HW227849   0.622   5.326   0.502
 8984SOL     OW27850   6.089   6.252   3.806
 8984SOL    HW127851   6.118   6.239   3.901
 8984SOL    HW227852   6.011   6.193   3.786
 8985SOL     OW27853   2.117   1.564   0.532
 8985SOL    HW127854   2.028   1.533   0.564
 8985SOL    HW227855   2.156   1.627   0.599
 8986SOL     OW27856   4.096   4.800   2.199
 8986SOL    HW127857   3.999   4.820   2.185
 8986SOL    HW227858   4.150   4.884   2.188
 8987SOL     OW27859   3.751   0.236   0.927
 8987SOL    HW127860   3.770   0.210   1.022
 8987SOL    HW227861   3.809   0.182   0.866
 8988SOL     OW27862   1.568   4.509   0.309
 8988SOL    HW127863   1.544   4.457   0.227
 8988SOL    HW227864   1.667   4.506   0.322
 8989SOL     OW27865   4.857   3.945   2.151
 8989SOL    HW127866   4.868   3.891   2.067
 8989SOL    HW227867   4.763   3.934   2.184
 8990SOL     OW27868   2.366   6.041   2.850
 8990SOL    HW127869   2.463   6.062   2.838
 8990SOL    HW227870   2.324   6.024   2.761
 8991SOL     OW27871   1.765   1.608   6.646
 8991SOL    HW127872   1.683   1.643   6.691
 8991SOL    HW227873   1.821   1.685   6.614
 8992SOL     OW27874   6.857   2.638   6.597
 8992SOL    HW127875   6.793   2.697   6.548
 8992SOL    HW227876   6.900   2.575   6.533
 8993SOL     OW27877   4.784   2.893   2.911
 8993SOL    HW127878   4.738   2.870   2.825
 8993SOL    HW227879   4.883   2.889   2.898
 8994SOL     OW27880   0.821   5.345   4.604
 8994SOL    HW127881   0.772   5.416   4.552
 8994SOL    HW227882   0.760   5.267   4.617
 8995SOL     OW27883   1.222   2.864   6.458
 8995SOL    HW127884   1.186   2.831   6.370
 8995SOL    HW227885   1.262   2.786   6.508
 8996SOL     OW27886   6.332   5.149   1.964
 8996SOL    HW127887   6.397   5.195   2.025
 8996SOL    HW227888   6.375   5.067   1.926
 8997SOL     OW27889   3.794   1.384   6.300
 8997SOL    HW127890   3.791   1.324   6.381
 8997SOL    HW227891   3.856   1.345   6.232
 8998SOL     OW27892   0.221   3.280   4.834
 8998SOL    HW127893   0.285   3.266   4.758
 8998SOL    HW227894   0.271   3.314   4.914
 8999SOL     OW27895   5.000   0.336   0.440
 8999SOL    HW127896   5.090   0.302   0.469
 8999SOL    HW227897   4.950   0.263   0.394
 9000SOL     OW27898   2.335   4.033   6.202
 9000SOL    HW127899   2.308   4.031   6.106
 9000SOL    HW227900   2.361   4.126   6.228
 9001SOL     OW27901   1.166   5.478   2.806
 9001SOL    HW127902   1.102   5.496   2.731
 9001SOL    HW227903   1.161   5.552   2.873
 9002SOL     OW27904   6.852   5.193   4.773
 9002SOL    HW127905   6.909   5.191   4.856
 9002SOL    HW227906   6.756   5.201   4.799
 9003SOL     OW27907   5.276   2.567   1.188
 9003SOL    HW127908   5.226   2.531   1.110
 9003SOL    HW227909   5.268   2.667   1.190
 9004SOL     OW27910   4.999   6.568   1.866
 9004SOL    HW127911   4.910   6.525   1.848
 9004SOL    HW227912   4.988   6.668   1.868
 9005SOL     OW27913   5.319   1.984   4.910
 9005SOL    HW127914   5.325   2.045   4.989
 9005SOL    HW227915   5.224   1.958   4.895
 9006SOL     OW27916   2.328   6.324   0.353
 9006SOL    HW127917   2.240   6.280   0.376
 9006SOL    HW227918   2.344   6.401   0.415
 9007SOL     OW27919   3.801   6.389   4.040
 9007SOL    HW127920   3.816   6.290   4.031
 9007SOL    HW227921   3.706   6.405   4.068
 9008SOL     OW27922   6.358   5.194   2.881
 9008SOL    HW127923   6.390   5.281   2.920
 9008SOL    HW227924   6.425   5.160   2.815
 9009SOL     OW27925   2.744   0.032   0.423
 9009SOL    HW127926   2.733   0.126   0.391
 9009SOL    HW227927   2.666   0.006   0.479
 9010SOL     OW27928   0.922   6.917   4.997
 9010SOL    HW127929   0.842   6.858   4.986
 9010SOL    HW227930   1.003   6.871   4.961
 9011SOL     OW27931   4.097   2.128   1.524
 9011SOL    HW127932   4.165   2.076   1.576
 9011SOL    HW227933   4.054   2.197   1.583
 9012SOL     OW27934   3.703   4.236   1.093
 9012SOL    HW127935   3.749   4.310   1.044
 9012SOL    HW227936   3.608   4.230   1.062
 9013SOL     OW27937   0.093   6.327   4.014
 9013SOL    HW127938   0.142   6.274   3.944
 9013SOL    HW227939   0.120   6.295   4.105
 9014SOL     OW27940   1.077   0.647   0.053
 9014SOL    HW127941   1.056   0.744   0.060
 9014SOL    HW227942   1.161   0.634   0.001
 9015SOL     OW27943   5.989   1.645   1.372
 9015SOL    HW127944   6.059   1.610   1.310
 9015SOL    HW227945   5.930   1.709   1.323
 9016SOL     OW27946   0.360   6.595   6.668
 9016SOL    HW127947   0.344   6.499   6.643
 9016SOL    HW227948   0.429   6.599   6.740
 9017SOL     OW27949   4.471   2.444   1.979
 9017SOL    HW127950   4.519   2.529   2.002
 9017SOL    HW227951   4.444   2.396   2.063
 9018SOL     OW27952   4.281   1.471   5.647
 9018SOL    HW127953   4.183   1.468   5.625
 9018SOL    HW227954   4.321   1.552   5.604
 9019SOL     OW27955   0.725   0.779   0.794
 9019SOL    HW127956   0.650   0.786   0.727
 9019SOL    HW227957   0.721   0.690   0.839
 9020SOL     OW27958   1.343   3.757   1.512
 9020SOL    HW127959   1.435   3.791   1.498
 9020SOL    HW227960   1.323   3.754   1.611
 9021SOL     OW27961   6.717   0.199   4.027
 9021SOL    HW127962   6.697   0.263   3.953
 9021SOL    HW227963   6.816   0.185   4.034
 9022SOL     OW27964   2.859   1.427   0.900
 9022SOL    HW127965   2.769   1.451   0.937
 9022SOL    HW227966   2.882   1.489   0.825
 9023SOL     OW27967   3.344   2.935   2.652
 9023SOL    HW127968   3.391   3.011   2.697
 9023SOL    HW227969   3.386   2.918   2.563
 9024SOL     OW27970   0.511   5.493   5.302
 9024SOL    HW127971   0.478   5.471   5.210
 9024SOL    HW227972   0.453   5.450   5.370
 9025SOL     OW27973   7.020   6.017   0.139
 9025SOL    HW127974   0.088   6.048   0.149
 9025SOL    HW227975   7.013   5.922   0.168
 9026SOL     OW27976   3.750   3.250   1.971
 9026SOL    HW127977   3.713   3.296   2.052
 9026SOL    HW227978   3.767   3.318   1.899
 9027SOL     OW27979   1.252   1.971   3.815
 9027SOL    HW127980   1.328   2.034   3.832
 9027SOL    HW227981   1.182   2.018   3.761
 9028SOL     OW27982   2.491   3.479   6.832
 9028SOL    HW127983   2.430   3.534   6.776
 9028SOL    HW227984   2.575   3.530   6.851
 9029SOL     OW27985   3.267   5.474   5.248
 9029SOL    HW127986   3.262   5.375   5.233
 9029SOL    HW227987   3.331   5.493   5.323
 9030SOL     OW27988   1.996   0.877   3.358
 9030SOL    HW127989   1.995   0.877   3.458
 9030SOL    HW227990   2.090   0.869   3.326
 9031SOL     OW27991   4.960   5.773   4.648
 9031SOL    HW127992   4.938   5.727   4.562
 9031SOL    HW227993   4.878   5.775   4.706
 9032SOL     OW27994   2.789   2.860   0.618
 9032SOL    HW127995   2.856   2.931   0.641
 9032SOL    HW227996   2.795   2.786   0.685
 9033SOL     OW27997   2.023   4.686   3.648
 9033SOL    HW127998   1.987   4.633   3.725
 9033SOL    HW227999   1.951   4.742   3.610
 9034SOL     OW28000   3.047   0.845   5.195
 9034SOL    HW128001   3.114   0.784   5.152
 9034SOL    HW228002   3.042   0.826   5.293
 9035SOL     OW28003   0.993   5.344   5.805
 9035SOL    HW128004   1.032   5.343   5.713
 9035SOL    HW228005   1.053   5.295   5.868
 9036SOL     OW28006   1.609   0.738   5.312
 9036SOL    HW128007   1.635   0.675   5.386
 9036SOL    HW228008   1.644   0.829   5.333
 9037SOL     OW28009   1.386   3.349   5.777
 9037SOL    HW128010   1.481   3.343   5.808
 9037SOL    HW228011   1.370   3.280   5.706
 9038SOL     OW28012   4.703   0.051   6.164
 9038SOL    HW128013   4.783   0.032   6.222
 9038SOL    HW228014   4.725   0.125   6.100
 9039SOL     OW28015   2.756   4.769   4.570
 9039SOL    HW128016   2.696   4.840   4.533
 9039SOL    HW228017   2.712   4.680   4.562
 9040SOL     OW28018   2.681   1.897   2.392
 9040SOL    HW128019   2.596   1.893   2.445
 9040SOL    HW228020   2.756   1.926   2.451
 9041SOL     OW28021   0.818   2.400   2.072
 9041SOL    HW128022   0.774   2.483   2.036
 9041SOL    HW228023   0.842   2.414   2.168
 9042SOL     OW28024   3.141   6.922   3.652
 9042SOL    HW128025   3.098   7.009   3.674
 9042SOL    HW228026   3.087   6.875   3.582
 9043SOL     OW28027   2.691   1.499   6.308
 9043SOL    HW128028   2.641   1.424   6.352
 9043SOL    HW228029   2.772   1.463   6.262
 9044SOL     OW28030   5.745   1.593   1.677
 9044SOL    HW128031   5.715   1.664   1.740
 9044SOL    HW228032   5.688   1.595   1.595
 9045SOL     OW28033   3.170   1.843   2.368
 9045SOL    HW128034   3.206   1.927   2.409
 9045SOL    HW228035   3.111   1.866   2.291
 9046SOL     OW28036   3.697   3.866   4.713
 9046SOL    HW128037   3.700   3.787   4.775
 9046SOL    HW228038   3.751   3.940   4.752
 9047SOL     OW28039   1.039   2.823   5.382
 9047SOL    HW128040   1.097   2.781   5.312
 9047SOL    HW228041   1.057   2.921   5.385
 9048SOL     OW28042   6.232   2.733   6.016
 9048SOL    HW128043   6.232   2.636   6.041
 9048SOL    HW228044   6.247   2.789   6.097
 9049SOL     OW28045   4.151   0.277   6.358
 9049SOL    HW128046   4.141   0.328   6.273
 9049SOL    HW228047   4.118   0.332   6.435
 9050SOL     OW28048   0.323   4.456   5.749
 9050SOL    HW128049   0.300   4.360   5.766
 9050SOL    HW228050   0.422   4.464   5.733
 9051SOL     OW28051   3.876   6.200   0.685
 9051SOL    HW128052   3.840   6.150   0.607
 9051SOL    HW228053   3.974   6.215   0.673
 9052SOL     OW28054   1.839   2.266   2.804
 9052SOL    HW128055   1.856   2.242   2.900
 9052SOL    HW228056   1.837   2.366   2.795
 9053SOL     OW28057   1.608   1.260   2.982
 9053SOL    HW128058   1.646   1.237   2.893
 9053SOL    HW228059   1.617   1.358   2.998
 9054SOL     OW28060   1.608   0.168   1.852
 9054SOL    HW128061   1.562   0.081   1.836
 9054SOL    HW228062   1.610   0.221   1.768
 9055SOL     OW28063   6.478   3.481   3.714
 9055SOL    HW128064   6.565   3.443   3.683
 9055SOL    HW228065   6.451   3.557   3.655
 9056SOL     OW28066   6.312   0.495   1.692
 9056SOL    HW128067   6.240   0.479   1.625
 9056SOL    HW228068   6.328   0.412   1.745
 9057SOL     OW28069   5.656   4.955   5.468
 9057SOL    HW128070   5.594   4.904   5.408
 9057SOL    HW228071   5.645   4.922   5.562
 9058SOL     OW28072   2.083   1.911   3.527
 9058SOL    HW128073   2.158   1.856   3.563
 9058SOL    HW228074   2.011   1.917   3.596
 9059SOL     OW28075   1.298   1.221   4.740
 9059SOL    HW128076   1.309   1.252   4.646
 9059SOL    HW228077   1.361   1.145   4.757
 9060SOL     OW28078   6.850   2.629   2.377
 9060SOL    HW128079   6.807   2.680   2.303
 9060SOL    HW228080   6.940   2.596   2.348
 9061SOL     OW28081   3.175   5.806   2.450
 9061SOL    HW128082   3.191   5.751   2.369
 9061SOL    HW228083   3.243   5.784   2.520
 9062SOL     OW28084   1.488   5.579   2.076
 9062SOL    HW128085   1.418   5.515   2.045
 9062SOL    HW228086   1.447   5.668   2.097
 9063SOL     OW28087   2.093   6.792   2.610
 9063SOL    HW128088   2.008   6.818   2.656
 9063SOL    HW228089   2.076   6.783   2.512
 9064SOL     OW28090   6.044   3.937   5.531
 9064SOL    HW128091   6.051   3.994   5.449
 9064SOL    HW228092   6.015   3.845   5.505
 9065SOL     OW28093   3.077   6.160   6.488
 9065SOL    HW128094   3.172   6.134   6.470
 9065SOL    HW228095   3.070   6.196   6.582
 9066SOL     OW28096   5.842   0.577   0.183
 9066SOL    HW128097   5.840   0.676   0.173
 9066SOL    HW228098   5.917   0.539   0.128
 9067SOL     OW28099   6.552   0.220   4.378
 9067SOL    HW128100   6.488   0.254   4.446
 9067SOL    HW228101   6.524   0.252   4.287
 9068SOL     OW28102   3.061   0.378   5.570
 9068SOL    HW128103   2.984   0.316   5.558
 9068SOL    HW228104   3.129   0.361   5.499
 9069SOL     OW28105   2.850   2.264   1.721
 9069SOL    HW128106   2.876   2.169   1.740
 9069SOL    HW228107   2.889   2.324   1.791
 9070SOL     OW28108   1.012   3.234   5.783
 9070SOL    HW128109   0.964   3.259   5.867
 9070SOL    HW228110   1.091   3.293   5.771
 9071SOL     OW28111   5.383   0.057   0.703
 9071SOL    HW128112   5.353   0.065   0.608
 9071SOL    HW228113   5.360   6.993   0.738
 9072SOL     OW28114   6.223   1.053   2.040
 9072SOL    HW128115   6.194   1.149   2.049
 9072SOL    HW228116   6.302   1.036   2.099
 9073SOL     OW28117   3.361   6.492   0.579
 9073SOL    HW128118   3.448   6.502   0.628
 9073SOL    HW228119   3.300   6.567   0.604
 9074SOL     OW28120   2.063   0.885   2.109
 9074SOL    HW128121   2.092   0.855   2.018
 9074SOL    HW228122   1.995   0.821   2.145
 9075SOL     OW28123   1.084   0.973   1.975
 9075SOL    HW128124   1.024   1.005   2.048
 9075SOL    HW228125   1.034   0.910   1.915
 9076SOL     OW28126   5.698   1.814   4.848
 9076SOL    HW128127   5.722   1.910   4.864
 9076SOL    HW228128   5.766   1.773   4.786
 9077SOL     OW28129   5.500   0.146   6.680
 9077SOL    HW128130   5.514   0.228   6.735
 9077SOL    HW228131   5.584   0.092   6.679
 9078SOL     OW28132   4.365   3.764   6.607
 9078SOL    HW128133   4.405   3.677   6.635
 9078SOL    HW228134   4.276   3.749   6.566
 9079SOL     OW28135   2.706   6.409   4.161
 9079SOL    HW128136   2.805   6.424   4.159
 9079SOL    HW228137   2.672   6.404   4.067
 9080SOL     OW28138   5.410   1.969   0.365
 9080SOL    HW128139   5.438   1.899   0.431
 9080SOL    HW228140   5.311   1.983   0.372
 9081SOL     OW28141   4.295   6.431   2.689
 9081SOL    HW128142   4.235   6.484   2.749
 9081SOL    HW228143   4.295   6.472   2.598
 9082SOL     OW28144   2.901   6.590   5.603
 9082SOL    HW128145   2.889   6.648   5.684
 9082SOL    HW228146   2.825   6.603   5.540
 9083SOL     OW28147   3.896   4.414   5.861
 9083SOL    HW128148   3.991   4.396   5.885
 9083SOL    HW228149   3.888   4.426   5.762
 9084SOL     OW28150   3.179   3.340   5.555
 9084SOL    HW128151   3.247   3.364   5.485
 9084SOL    HW228152   3.183   3.242   5.573
 9085SOL     OW28153   1.924   4.543   0.983
 9085SOL    HW128154   1.848   4.608   0.991
 9085SOL    HW228155   2.001   4.574   1.040
 9086SOL     OW28156   0.684   4.619   0.523
 9086SOL    HW128157   0.680   4.715   0.552
 9086SOL    HW228158   0.755   4.572   0.575
 9087SOL     OW28159   4.387   2.317   2.227
 9087SOL    HW128160   4.308   2.255   2.229
 9087SOL    HW228161   4.468   2.267   2.259
 9088SOL     OW28162   5.769   5.993   0.717
 9088SOL    HW128163   5.787   6.019   0.811
 9088SOL    HW228164   5.768   6.074   0.659
 9089SOL     OW28165   5.046   6.382   4.711
 9089SOL    HW128166   5.011   6.474   4.730
 9089SOL    HW228167   5.125   6.364   4.769
 9090SOL     OW28168   6.733   6.437   3.386
 9090SOL    HW128169   6.716   6.536   3.382
 9090SOL    HW228170   6.758   6.411   3.479
 9091SOL     OW28171   3.235   3.814   0.751
 9091SOL    HW128172   3.160   3.748   0.745
 9091SOL    HW228173   3.198   3.907   0.753
 9092SOL     OW28174   0.215   2.199   1.069
 9092SOL    HW128175   0.116   2.208   1.060
 9092SOL    HW228176   0.260   2.262   1.004
 9093SOL     OW28177   1.254   6.339   6.410
 9093SOL    HW128178   1.284   6.407   6.344
 9093SOL    HW228179   1.300   6.252   6.392
 9094SOL     OW28180   5.917   5.522   2.919
 9094SOL    HW128181   5.900   5.478   2.831
 9094SOL    HW228182   5.979   5.465   2.973
 9095SOL     OW28183   4.455   4.019   6.338
 9095SOL    HW128184   4.375   3.958   6.337
 9095SOL    HW228185   4.537   3.965   6.318
 9096SOL     OW28186   5.736   3.863   1.905
 9096SOL    HW128187   5.724   3.789   1.840
 9096SOL    HW228188   5.760   3.826   1.994
 9097SOL     OW28189   1.008   2.033   6.710
 9097SOL    HW128190   0.997   1.936   6.690
 9097SOL    HW228191   0.978   2.052   6.804
 9098SOL     OW28192   3.682   2.118   6.262
 9098SOL    HW128193   3.709   2.214   6.271
 9098SOL    HW228194   3.739   2.073   6.194
 9099SOL     OW28195   2.747   2.656   5.988
 9099SOL    HW128196   2.823   2.592   5.976
 9099SOL    HW228197   2.670   2.609   6.032
 9100SOL     OW28198   0.469   3.756   3.915
 9100SOL    HW128199   0.450   3.819   3.990
 9100SOL    HW228200   0.502   3.806   3.836
 9101SOL     OW28201   2.220   2.249   2.836
 9101SOL    HW128202   2.169   2.226   2.919
 9101SOL    HW228203   2.229   2.348   2.829
 9102SOL     OW28204   2.692   0.132   1.396
 9102SOL    HW128205   2.725   0.042   1.425
 9102SOL    HW228206   2.749   0.203   1.438
 9103SOL     OW28207   6.445   3.182   6.623
 9103SOL    HW128208   6.402   3.092   6.620
 9103SOL    HW228209   6.417   3.229   6.706
 9104SOL     OW28210   6.747   6.334   1.993
 9104SOL    HW128211   6.651   6.309   2.005
 9104SOL    HW228212   6.781   6.377   2.077
 9105SOL     OW28213   1.515   1.613   6.779
 9105SOL    HW128214   1.425   1.655   6.767
 9105SOL    HW228215   1.538   1.611   6.876
 9106SOL     OW28216   0.093   3.015   0.141
 9106SOL    HW128217   0.176   3.069   0.157
 9106SOL    HW228218   0.078   2.954   0.218
 9107SOL     OW28219   3.548   1.146   6.072
 9107SOL    HW128220   3.633   1.119   6.116
 9107SOL    HW228221   3.536   1.245   6.079
 9108SOL     OW28222   4.792   4.027   5.752
 9108SOL    HW128223   4.891   4.026   5.736
 9108SOL    HW228224   4.769   3.958   5.820
 9109SOL     OW28225   6.611   2.184   2.833
 9109SOL    HW128226   6.603   2.284   2.833
 9109SOL    HW228227   6.539   2.145   2.776
 9110SOL     OW28228   1.953   4.474   3.869
 9110SOL    HW128229   1.947   4.376   3.846
 9110SOL    HW228230   1.861   4.514   3.867
 9111SOL     OW28231   4.798   1.997   0.606
 9111SOL    HW128232   4.873   1.932   0.598
 9111SOL    HW228233   4.828   2.078   0.656
 9112SOL     OW28234   0.681   5.291   3.681
 9112SOL    HW128235   0.748   5.228   3.721
 9112SOL    HW228236   0.591   5.247   3.680
 9113SOL     OW28237   4.823   1.162   2.783
 9113SOL    HW128238   4.836   1.066   2.811
 9113SOL    HW228239   4.909   1.212   2.793
 9114SOL     OW28240   0.459   4.634   2.154
 9114SOL    HW128241   0.544   4.665   2.111
 9114SOL    HW228242   0.445   4.537   2.132
 9115SOL     OW28243   0.393   5.934   4.454
 9115SOL    HW128244   0.309   5.970   4.415
 9115SOL    HW228245   0.376   5.904   4.548
 9116SOL     OW28246   6.702   1.142   1.942
 9116SOL    HW128247   6.693   1.238   1.967
 9116SOL    HW228248   6.619   1.111   1.895
 9117SOL     OW28249   5.579   2.341   0.610
 9117SOL    HW128250   5.619   2.256   0.576
 9117SOL    HW228251   5.579   2.410   0.538
 9118SOL     OW28252   6.577   3.549   0.054
 9118SOL    HW128253   6.648   3.581   0.118
 9118SOL    HW228254   6.578   3.606   6.998
 9119SOL     OW28255   4.661   0.245   2.558
 9119SOL    HW128256   4.663   0.149   2.586
 9119SOL    HW228257   4.593   0.294   2.613
 9120SOL     OW28258   6.234   1.999   6.130
 9120SOL    HW128259   6.311   2.041   6.177
 9120SOL    HW228260   6.184   1.940   6.194
 9121SOL     OW28261   4.232   1.144   4.694
 9121SOL    HW128262   4.244   1.102   4.783
 9121SOL    HW228263   4.250   1.077   4.622
 9122SOL     OW28264   2.251   4.153   2.348
 9122SOL    HW128265   2.254   4.189   2.441
 9122SOL    HW228266   2.261   4.053   2.351
 9123SOL     OW28267   2.672   0.598   3.295
 9123SOL    HW128268   2.595   0.652   3.260
 9123SOL    HW228269   2.758   0.633   3.257
 9124SOL     OW28270   5.472   6.561   0.208
 9124SOL    HW128271   5.533   6.570   0.129
 9124SOL    HW228272   5.394   6.503   0.184
 9125SOL     OW28273   4.975   4.486   0.330
 9125SOL    HW128274   5.010   4.396   0.356
 9125SOL    HW228275   4.899   4.475   0.266
 9126SOL     OW28276   6.107   3.536   1.361
 9126SOL    HW128277   6.144   3.449   1.393
 9126SOL    HW228278   6.138   3.553   1.268
 9127SOL     OW28279   0.000   1.675   6.263
 9127SOL    HW128280   6.927   1.669   6.265
 9127SOL    HW228281   0.030   1.692   6.169
 9128SOL     OW28282   5.943   2.491   5.345
 9128SOL    HW128283   5.996   2.527   5.422
 9128SOL    HW228284   6.001   2.427   5.292
 9129SOL     OW28285   0.302   2.373   0.598
 9129SOL    HW128286   0.205   2.397   0.588
 9129SOL    HW228287   0.343   2.362   0.507
 9130SOL     OW28288   0.424   3.421   6.029
 9130SOL    HW128289   0.405   3.495   5.964
 9130SOL    HW228290   0.356   3.348   6.017
 9131SOL     OW28291   5.676   2.647   5.553
 9131SOL    HW128292   5.732   2.728   5.567
 9131SOL    HW228293   5.594   2.652   5.611
 9132SOL     OW28294   0.291   5.715   4.229
 9132SOL    HW128295   0.293   5.651   4.152
 9132SOL    HW228296   0.247   5.800   4.201
 9133SOL     OW28297   3.752   6.911   1.618
 9133SOL    HW128298   3.814   6.956   1.682
 9133SOL    HW228299   3.805   6.874   1.541
 9134SOL     OW28300   3.641   5.920   1.274
 9134SOL    HW128301   3.592   5.993   1.322
 9134SOL    HW228302   3.614   5.920   1.177
 9135SOL     OW28303   6.292   6.835   1.382
 9135SOL    HW128304   6.278   6.771   1.457
 9135SOL    HW228305   6.352   6.794   1.314
 9136SOL     OW28306   5.045   6.147   7.013
 9136SOL    HW128307   5.125   6.202   0.015
 9136SOL    HW228308   4.976   6.150   0.059
 9137SOL     OW28309   5.229   1.381   0.796
 9137SOL    HW128310   5.190   1.418   0.880
 9137SOL    HW228311   5.323   1.351   0.813
 9138SOL     OW28312   0.313   5.973   6.577
 9138SOL    HW128313   0.308   6.049   6.512
 9138SOL    HW228314   0.222   5.936   6.592
 9139SOL     OW28315   1.795   1.758   3.030
 9139SOL    HW128316   1.895   1.763   3.020
 9139SOL    HW228317   1.752   1.790   2.946
 9140SOL     OW28318   6.865   3.443   2.461
 9140SOL    HW128319   6.783   3.386   2.460
 9140SOL    HW228320   6.945   3.389   2.436
 9141SOL     OW28321   5.503   0.243   1.201
 9141SOL    HW128322   5.413   0.209   1.175
 9141SOL    HW228323   5.504   0.342   1.194
 9142SOL     OW28324   0.490   2.833   0.684
 9142SOL    HW128325   0.533   2.911   0.729
 9142SOL    HW228326   0.394   2.826   0.714
 9143SOL     OW28327   6.516   3.159   0.338
 9143SOL    HW128328   6.475   3.192   0.253
 9143SOL    HW228329   6.522   3.234   0.403
 9144SOL     OW28330   2.774   5.111   4.737
 9144SOL    HW128331   2.726   5.156   4.813
 9144SOL    HW228332   2.788   5.015   4.759
 9145SOL     OW28333   0.439   5.291   0.026
 9145SOL    HW128334   0.415   5.347   6.974
 9145SOL    HW228335   0.514   5.334   0.076
 9146SOL     OW28336   5.558   3.218   3.884
 9146SOL    HW128337   5.530   3.301   3.836
 9146SOL    HW228338   5.616   3.162   3.824
 9147SOL     OW28339   5.923   6.437   5.412
 9147SOL    HW128340   5.893   6.515   5.467
 9147SOL    HW228341   5.891   6.448   5.318
 9148SOL     OW28342   4.892   6.212   1.504
 9148SOL    HW128343   4.803   6.223   1.548
 9148SOL    HW228344   4.951   6.289   1.527
 9149SOL     OW28345   5.702   4.088   2.694
 9149SOL    HW128346   5.763   4.013   2.667
 9149SOL    HW228347   5.752   4.174   2.690
 9150SOL     OW28348   3.216   5.210   0.918
 9150SOL    HW128349   3.159   5.270   0.862
 9150SOL    HW228350   3.244   5.258   1.001
 9151SOL     OW28351   1.601   4.408   3.578
 9151SOL    HW128352   1.563   4.482   3.523
 9151SOL    HW228353   1.531   4.372   3.640
 9152SOL     OW28354   2.188   3.970   4.443
 9152SOL    HW128355   2.177   3.906   4.519
 9152SOL    HW228356   2.206   3.919   4.359
 9153SOL     OW28357   0.223   2.798   0.002
 9153SOL    HW128358   0.290   2.853   6.978
 9153SOL    HW228359   0.162   2.859   0.054
 9154SOL     OW28360   5.555   4.870   5.808
 9154SOL    HW128361   5.588   4.790   5.758
 9154SOL    HW228362   5.633   4.926   5.835
 9155SOL     OW28363   1.870   3.946   2.611
 9155SOL    HW128364   1.854   3.919   2.706
 9155SOL    HW228365   1.785   3.978   2.571
 9156SOL     OW28366   0.726   2.094   1.012
 9156SOL    HW128367   0.814   2.050   1.035
 9156SOL    HW228368   0.742   2.189   0.987
 9157SOL     OW28369   2.143   4.260   6.361
 9157SOL    HW128370   2.178   4.261   6.455
 9157SOL    HW228371   2.197   4.324   6.306
 9158SOL     OW28372   6.156   3.216   4.608
 9158SOL    HW128373   6.174   3.309   4.578
 9158SOL    HW228374   6.066   3.212   4.652
 9159SOL     OW28375   1.690   0.857   2.413
 9159SOL    HW128376   1.667   0.760   2.414
 9159SOL    HW228377   1.655   0.900   2.496
 9160SOL     OW28378   0.064   6.783   6.307
 9160SOL    HW128379   0.069   6.728   6.390
 9160SOL    HW228380   0.114   6.869   6.321
 9161SOL     OW28381   5.014   5.263   3.959
 9161SOL    HW128382   5.084   5.292   4.024
 9161SOL    HW228383   4.988   5.168   3.978
 9162SOL     OW28384   4.189   0.664   3.589
 9162SOL    HW128385   4.220   0.698   3.677
 9162SOL    HW228386   4.245   0.586   3.561
 9163SOL     OW28387   7.026   2.326   4.437
 9163SOL    HW128388   0.089   2.362   4.412
 9163SOL    HW228389   6.955   2.380   4.393
 9164SOL     OW28390   1.701   0.628   6.940
 9164SOL    HW128391   1.794   0.591   6.947
 9164SOL    HW228392   1.658   0.597   6.855
 9165SOL     OW28393   5.944   1.584   5.926
 9165SOL    HW128394   5.887   1.656   5.886
 9165SOL    HW228395   6.015   1.625   5.983
 9166SOL     OW28396   3.862   6.329   1.306
 9166SOL    HW128397   3.895   6.241   1.272
 9166SOL    HW228398   3.838   6.321   1.403
 9167SOL     OW28399   1.897   2.314   6.121
 9167SOL    HW128400   1.902   2.306   6.221
 9167SOL    HW228401   1.975   2.366   6.087
 9168SOL     OW28402   6.316   6.120   6.427
 9168SOL    HW128403   6.276   6.114   6.519
 9168SOL    HW228404   6.260   6.068   6.363
 9169SOL     OW28405   6.730   6.630   6.944
 9169SOL    HW128406   6.773   6.664   6.860
 9169SOL    HW228407   6.755   6.690   7.021
 9170SOL     OW28408   1.606   0.185   6.611
 9170SOL    HW128409   1.623   0.211   6.516
 9170SOL    HW228410   1.692   0.189   6.662
 9171SOL     OW28411   3.276   6.043   0.748
 9171SOL    HW128412   3.330   5.969   0.708
 9171SOL    HW228413   3.234   6.011   0.833
 9172SOL     OW28414   4.824   1.138   3.643
 9172SOL    HW128415   4.802   1.060   3.701
 9172SOL    HW228416   4.923   1.144   3.632
 9173SOL     OW28417   5.950   4.778   5.820
 9173SOL    HW128418   6.035   4.752   5.775
 9173SOL    HW228419   5.939   4.725   5.904
 9174SOL     OW28420   6.979   5.421   0.399
 9174SOL    HW128421   6.987   5.321   0.401
 9174SOL    HW228422   6.920   5.448   0.322
 9175SOL     OW28423   1.668   5.980   6.443
 9175SOL    HW128424   1.753   6.003   6.394
 9175SOL    HW228425   1.672   6.019   6.535
 9176SOL     OW28426   2.365   0.952   2.011
 9176SOL    HW128427   2.394   0.857   1.999
 9176SOL    HW228428   2.281   0.955   2.066
 9177SOL     OW28429   0.683   4.041   4.088
 9177SOL    HW128430   0.733   4.048   4.001
 9177SOL    HW228431   0.711   3.958   4.136
 9178SOL     OW28432   2.283   4.723   6.583
 9178SOL    HW128433   2.217   4.702   6.655
 9178SOL    HW228434   2.237   4.773   6.509
 9179SOL     OW28435   2.090   5.462   4.168
 9179SOL    HW128436   2.068   5.492   4.075
 9179SOL    HW228437   2.189   5.458   4.179
 9180SOL     OW28438   6.302   2.577   3.414
 9180SOL    HW128439   6.254   2.493   3.440
 9180SOL    HW228440   6.381   2.590   3.474
 9181SOL     OW28441   6.177   2.432   4.596
 9181SOL    HW128442   6.130   2.448   4.684
 9181SOL    HW228443   6.266   2.392   4.613
 9182SOL     OW28444   2.728   6.879   2.917
 9182SOL    HW128445   2.790   6.817   2.966
 9182SOL    HW228446   2.637   6.872   2.957
 9183SOL     OW28447   4.801   4.960   6.697
 9183SOL    HW128448   4.712   4.963   6.653
 9183SOL    HW228449   4.811   4.873   6.746
 9184SOL     OW28450   4.193   2.820   1.468
 9184SOL    HW128451   4.156   2.729   1.449
 9184SOL    HW228452   4.146   2.888   1.412
 9185SOL     OW28453   6.486   6.540   4.865
 9185SOL    HW128454   6.444   6.613   4.812
 9185SOL    HW228455   6.571   6.572   4.905
 9186SOL     OW28456   5.931   0.029   4.759
 9186SOL    HW128457   5.919   0.080   4.845
 9186SOL    HW228458   5.841   0.014   4.717
 9187SOL     OW28459   3.855   1.620   6.992
 9187SOL    HW128460   3.934   1.566   6.962
 9187SOL    HW228461   3.773   1.563   6.992
 9188SOL     OW28462   2.112   0.242   1.462
 9188SOL    HW128463   2.140   0.155   1.422
 9188SOL    HW228464   2.025   0.231   1.510
 9189SOL     OW28465   3.649   6.033   2.258
 9189SOL    HW128466   3.576   6.025   2.190
 9189SOL    HW228467   3.621   5.989   2.343
 9190SOL     OW28468   0.786   2.890   5.122
 9190SOL    HW128469   0.712   2.857   5.181
 9190SOL    HW228470   0.874   2.875   5.168
 9191SOL     OW28471   5.731   0.925   6.682
 9191SOL    HW128472   5.687   0.890   6.598
 9191SOL    HW228473   5.830   0.916   6.673
 9192SOL     OW28474   6.947   2.392   6.209
 9192SOL    HW128475   6.860   2.373   6.163
 9192SOL    HW228476   7.009   2.314   6.198
 9193SOL     OW28477   3.772   3.312   4.501
 9193SOL    HW128478   3.748   3.252   4.425
 9193SOL    HW228479   3.717   3.396   4.497
 9194SOL     OW28480   3.097   0.453   2.778
 9194SOL    HW128481   3.025   0.510   2.738
 9194SOL    HW228482   3.087   0.453   2.878
 9195SOL     OW28483   1.402   3.135   2.821
 9195SOL    HW128484   1.487   3.130   2.873
 9195SOL    HW228485   1.353   3.219   2.844
 9196SOL     OW28486   5.921   6.514   3.906
 9196SOL    HW128487   5.967   6.456   3.839
 9196SOL    HW228488   5.982   6.531   3.983
 9197SOL     OW28489   3.194   4.742   0.667
 9197SOL    HW128490   3.176   4.830   0.711
 9197SOL    HW228491   3.287   4.712   0.689
 9198SOL     OW28492   6.615   4.214   6.755
 9198SOL    HW128493   6.579   4.182   6.667
 9198SOL    HW228494   6.548   4.275   6.798
 9199SOL     OW28495   0.120   3.061   5.571
 9199SOL    HW128496   0.027   3.024   5.574
 9199SOL    HW228497   0.186   2.986   5.575
 9200SOL     OW28498   2.677   5.997   5.731
 9200SOL    HW128499   2.771   5.966   5.747
 9200SOL    HW228500   2.630   6.005   5.819
 9201SOL     OW28501   0.151   3.145   6.690
 9201SOL    HW128502   0.062   3.157   6.645
 9201SOL    HW228503   0.155   3.204   6.771
 9202SOL     OW28504   1.135   5.233   4.287
 9202SOL    HW128505   1.090   5.322   4.300
 9202SOL    HW228506   1.225   5.247   4.246
 9203SOL     OW28507   6.291   2.886   6.264
 9203SOL    HW128508   6.246   2.974   6.279
 9203SOL    HW228509   6.381   2.901   6.223
 9204SOL     OW28510   4.899   3.730   4.383
 9204SOL    HW128511   4.858   3.639   4.388
 9204SOL    HW228512   4.885   3.777   4.471
 9205SOL     OW28513   4.878   5.550   2.863
 9205SOL    HW128514   4.955   5.488   2.847
 9205SOL    HW228515   4.903   5.616   2.935
 9206SOL     OW28516   3.118   6.289   3.586
 9206SOL    HW128517   3.025   6.296   3.621
 9206SOL    HW228518   3.180   6.343   3.642
 9207SOL     OW28519   4.164   4.982   0.051
 9207SOL    HW128520   4.145   5.014   0.144
 9207SOL    HW228521   4.240   4.917   0.053
 9208SOL     OW28522   5.755   3.761   2.158
 9208SOL    HW128523   5.792   3.838   2.208
 9208SOL    HW228524   5.699   3.704   2.219
 9209SOL     OW28525   4.647   0.963   1.562
 9209SOL    HW128526   4.725   1.012   1.602
 9209SOL    HW228527   4.572   0.963   1.628
 9210SOL     OW28528   1.163   1.278   1.211
 9210SOL    HW128529   1.209   1.251   1.126
 9210SOL    HW228530   1.170   1.378   1.221
 9211SOL     OW28531   6.009   3.113   6.362
 9211SOL    HW128532   6.007   3.210   6.383
 9211SOL    HW228533   5.967   3.097   6.272
 9212SOL     OW28534   4.990   4.402   4.185
 9212SOL    HW128535   5.016   4.436   4.095
 9212SOL    HW228536   4.999   4.303   4.187
 9213SOL     OW28537   5.037   5.292   4.280
 9213SOL    HW128538   5.024   5.354   4.358
 9213SOL    HW228539   5.125   5.310   4.237
 9214SOL     OW28540   0.262   2.921   5.165
 9214SOL    HW128541   0.347   2.973   5.154
 9214SOL    HW228542   0.184   2.982   5.154
 9215SOL     OW28543   1.693   4.200   2.631
 9215SOL    HW128544   1.612   4.256   2.614
 9215SOL    HW228545   1.681   4.149   2.716
 9216SOL     OW28546   2.538   6.490   3.775
 9216SOL    HW128547   2.538   6.589   3.792
 9216SOL    HW228548   2.527   6.473   3.677
 9217SOL     OW28549   6.589   2.949   6.794
 9217SOL    HW128550   6.608   2.928   6.698
 9217SOL    HW228551   6.658   3.013   6.829
 9218SOL     OW28552   4.042   1.113   0.179
 9218SOL    HW128553   4.093   1.195   0.206
 9218SOL    HW228554   3.953   1.140   0.144
 9219SOL     OW28555   4.656   3.758   6.547
 9219SOL    HW128556   4.683   3.759   6.451
 9219SOL    HW228557   4.557   3.745   6.554
 9220SOL     OW28558   0.886   6.402   2.079
 9220SOL    HW128559   0.890   6.333   2.151
 9220SOL    HW228560   0.854   6.359   1.994
 9221SOL     OW28561   2.654   0.099   4.105
 9221SOL    HW128562   2.713   0.086   4.185
 9221SOL    HW228563   2.633   0.197   4.096
 9222SOL     OW28564   2.353   5.518   5.364
 9222SOL    HW128565   2.371   5.616   5.352
 9222SOL    HW228566   2.287   5.488   5.295
 9223SOL     OW28567   1.211   2.613   4.640
 9223SOL    HW128568   1.309   2.630   4.650
 9223SOL    HW228569   1.179   2.653   4.554
 9224SOL     OW28570   1.549   4.930   3.490
 9224SOL    HW128571   1.605   4.965   3.415
 9224SOL    HW228572   1.458   4.906   3.455
 9225SOL     OW28573   3.354   5.770   5.792
 9225SOL    HW128574   3.337   5.754   5.889
 9225SOL    HW228575   3.280   5.731   5.738
 9226SOL     OW28576   0.592   6.864   1.395
 9226SOL    HW128577   0.599   6.960   1.423
 9226SOL    HW228578   0.627   6.805   1.468
 9227SOL     OW28579   2.123   6.014   1.171
 9227SOL    HW128580   2.027   6.034   1.185
 9227SOL    HW228581   2.145   6.022   1.073
 9228SOL     OW28582   2.730   1.897   6.923
 9228SOL    HW128583   2.759   1.816   6.974
 9228SOL    HW228584   2.681   1.868   6.840
 9229SOL     OW28585   1.216   4.536   5.326
 9229SOL    HW128586   1.278   4.601   5.283
 9229SOL    HW228587   1.216   4.550   5.425
 9230SOL     OW28588   5.219   3.063   3.924
 9230SOL    HW128589   5.186   3.157   3.932
 9230SOL    HW228590   5.202   3.029   3.832
 9231SOL     OW28591   1.126   3.080   5.370
 9231SOL    HW128592   1.146   3.059   5.274
 9231SOL    HW228593   1.207   3.120   5.412
 9232SOL     OW28594   3.196   5.261   6.770
 9232SOL    HW128595   3.106   5.236   6.804
 9232SOL    HW228596   3.189   5.346   6.717
 9233SOL     OW28597   6.477   6.568   0.928
 9233SOL    HW128598   6.421   6.598   1.005
 9233SOL    HW228599   6.573   6.560   0.956
 9234SOL     OW28600   2.907   5.905   0.564
 9234SOL    HW128601   2.919   5.956   0.650
 9234SOL    HW228602   2.984   5.843   0.552
 9235SOL     OW28603   2.051   2.367   3.480
 9235SOL    HW128604   2.078   2.435   3.412
 9235SOL    HW228605   2.102   2.381   3.565
 9236SOL     OW28606   1.846   4.086   6.802
 9236SOL    HW128607   1.828   4.142   6.883
 9236SOL    HW228608   1.797   4.122   6.724
 9237SOL     OW28609   0.757   5.769   2.898
 9237SOL    HW128610   0.804   5.819   2.972
 9237SOL    HW228611   0.661   5.759   2.922
 9238SOL     OW28612   2.585   3.021   6.426
 9238SOL    HW128613   2.600   3.115   6.454
 9238SOL    HW228614   2.606   3.011   6.328
 9239SOL     OW28615   0.336   3.782   5.690
 9239SOL    HW128616   0.312   3.731   5.774
 9239SOL    HW228617   0.410   3.734   5.643
 9240SOL     OW28618   4.794   2.932   2.302
 9240SOL    HW128619   4.893   2.922   2.314
 9240SOL    HW228620   4.775   2.967   2.210
 9241SOL     OW28621   6.999   5.166   0.357
 9241SOL    HW128622   7.000   5.085   0.416
 9241SOL    HW228623   6.944   5.147   0.276
 9242SOL     OW28624   1.284   3.821   1.028
 9242SOL    HW128625   1.304   3.760   1.104
 9242SOL    HW228626   1.340   3.904   1.035
 9243SOL     OW28627   6.820   0.057   1.113
 9243SOL    HW128628   6.917   0.034   1.119
 9243SOL    HW228629   6.778   0.005   1.038
 9244SOL     OW28630   3.098   5.810   6.049
 9244SOL    HW128631   3.183   5.804   6.100
 9244SOL    HW228632   3.085   5.726   5.995
 9245SOL     OW28633   0.824   5.306   3.976
 9245SOL    HW128634   0.842   5.404   3.986
 9245SOL    HW228635   0.882   5.268   3.904
 9246SOL     OW28636   6.129   6.928   3.074
 9246SOL    HW128637   6.132   6.891   2.981
 9246SOL    HW228638   6.061   6.878   3.127
 9247SOL     OW28639   2.386   5.906   3.456
 9247SOL    HW128640   2.313   5.854   3.501
 9247SOL    HW228641   2.358   5.927   3.362
 9248SOL     OW28642   2.919   1.972   4.043
 9248SOL    HW128643   2.942   2.040   4.113
 9248SOL    HW228644   2.871   2.017   3.968
 9249SOL     OW28645   3.834   5.054   1.171
 9249SOL    HW128646   3.904   5.062   1.242
 9249SOL    HW228647   3.794   4.962   1.174
 9250SOL     OW28648   5.602   3.512   4.951
 9250SOL    HW128649   5.584   3.606   4.981
 9250SOL    HW228650   5.544   3.492   4.872
 9251SOL     OW28651   4.222   1.891   2.842
 9251SOL    HW128652   4.236   1.945   2.759
 9251SOL    HW228653   4.220   1.793   2.818
 9252SOL     OW28654   5.447   0.516   4.769
 9252SOL    HW128655   5.424   0.425   4.802
 9252SOL    HW228656   5.488   0.508   4.678
 9253SOL     OW28657   5.379   5.547   5.705
 9253SOL    HW128658   5.326   5.627   5.733
 9253SOL    HW228659   5.330   5.499   5.632
 9254SOL     OW28660   5.119   5.455   2.836
 9254SOL    HW128661   5.164   5.426   2.920
 9254SOL    HW228662   5.181   5.513   2.783
 9255SOL     OW28663   5.115   3.584   0.388
 9255SOL    HW128664   5.206   3.609   0.355
 9255SOL    HW228665   5.119   3.567   0.487
 9256SOL     OW28666   3.284   0.234   2.367
 9256SOL    HW128667   3.284   0.236   2.467
 9256SOL    HW228668   3.225   0.307   2.333
 9257SOL     OW28669   6.884   4.537   3.445
 9257SOL    HW128670   6.829   4.489   3.513
 9257SOL    HW228671   6.825   4.589   3.384
 9258SOL     OW28672   3.860   3.766   2.378
 9258SOL    HW128673   3.844   3.671   2.404
 9258SOL    HW228674   3.793   3.794   2.309
 9259SOL     OW28675   0.654   1.852   0.871
 9259SOL    HW128676   0.687   1.925   0.931
 9259SOL    HW228677   0.581   1.886   0.813
 9260SOL     OW28678   6.026   2.018   5.421
 9260SOL    HW128679   6.026   1.918   5.413
 9260SOL    HW228680   5.942   2.055   5.381
 9261SOL     OW28681   3.546   1.517   0.512
 9261SOL    HW128682   3.598   1.492   0.593
 9261SOL    HW228683   3.537   1.617   0.507
 9262SOL     OW28684   6.907   5.670   5.250
 9262SOL    HW128685   7.001   5.644   5.271
 9262SOL    HW228686   6.881   5.749   5.305
 9263SOL     OW28687   4.414   0.350   2.008
 9263SOL    HW128688   4.356   0.296   2.070
 9263SOL    HW228689   4.498   0.376   2.056
 9264SOL     OW28690   5.284   4.749   0.589
 9264SOL    HW128691   5.287   4.660   0.634
 9264SOL    HW228692   5.195   4.793   0.607
 9265SOL     OW28693   3.671   2.659   6.842
 9265SOL    HW128694   3.643   2.690   6.751
 9265SOL    HW228695   3.770   2.659   6.848
 9266SOL     OW28696   0.974   5.869   0.767
 9266SOL    HW128697   0.945   5.786   0.719
 9266SOL    HW228698   0.970   5.853   0.865
 9267SOL     OW28699   0.441   1.811   4.637
 9267SOL    HW128700   0.341   1.823   4.637
 9267SOL    HW228701   0.468   1.764   4.553
 9268SOL     OW28702   1.176   6.243   2.746
 9268SOL    HW128703   1.082   6.209   2.740
 9268SOL    HW228704   1.219   6.209   2.829
 9269SOL     OW28705   4.346   1.118   6.682
 9269SOL    HW128706   4.398   1.136   6.765
 9269SOL    HW228707   4.353   1.197   6.620
 9270SOL     OW28708   4.761   6.477   6.041
 9270SOL    HW128709   4.716   6.430   5.966
 9270SOL    HW228710   4.709   6.560   6.064
 9271SOL     OW28711   6.138   0.244   0.915
 9271SOL    HW128712   6.232   0.269   0.894
 9271SOL    HW228713   6.079   0.269   0.838
 9272SOL     OW28714   0.896   5.547   5.534
 9272SOL    HW128715   0.860   5.594   5.453
 9272SOL    HW228716   0.883   5.605   5.615
 9273SOL     OW28717   5.763   6.222   2.750
 9273SOL    HW128718   5.732   6.154   2.816
 9273SOL    HW228719   5.683   6.273   2.716
 9274SOL     OW28720   6.782   1.651   0.773
 9274SOL    HW128721   6.820   1.742   0.756
 9274SOL    HW228722   6.745   1.614   0.688
 9275SOL     OW28723   6.250   1.349   6.938
 9275SOL    HW128724   6.278   1.315   0.001
 9275SOL    HW228725   6.198   1.278   6.890
 9276SOL     OW28726   1.629   3.960   1.519
 9276SOL    HW128727   1.660   4.039   1.573
 9276SOL    HW228728   1.635   3.877   1.575
 9277SOL     OW28729   4.455   4.670   0.636
 9277SOL    HW128730   4.478   4.724   0.717
 9277SOL    HW228731   4.367   4.701   0.599
 9278SOL     OW28732   1.724   0.271   5.983
 9278SOL    HW128733   1.808   0.224   6.013
 9278SOL    HW228734   1.728   0.287   5.885
 9279SOL     OW28735   2.921   0.646   1.674
 9279SOL    HW128736   3.015   0.679   1.684
 9279SOL    HW228737   2.921   0.554   1.637
 9280SOL     OW28738   2.156   1.895   2.001
 9280SOL    HW128739   2.087   1.895   2.073
 9280SOL    HW228740   2.131   1.827   1.931
 9281SOL     OW28741   2.817   4.009   6.831
 9281SOL    HW128742   2.743   3.958   6.876
 9281SOL    HW228743   2.886   4.033   6.899
 9282SOL     OW28744   5.601   0.693   3.480
 9282SOL    HW128745   5.546   0.744   3.546
 9282SOL    HW228746   5.660   0.757   3.431
 9283SOL     OW28747   4.887   0.920   4.017
 9283SOL    HW128748   4.797   0.905   3.976
 9283SOL    HW228749   4.958   0.879   3.959
 9284SOL     OW28750   2.915   2.960   5.284
 9284SOL    HW128751   2.963   3.019   5.350
 9284SOL    HW228752   2.817   2.963   5.303
 9285SOL     OW28753   5.259   2.961   0.952
 9285SOL    HW128754   5.346   2.993   0.917
 9285SOL    HW228755   5.192   3.035   0.949
 9286SOL     OW28756   5.357   5.899   0.687
 9286SOL    HW128757   5.384   5.984   0.733
 9286SOL    HW228758   5.417   5.883   0.608
 9287SOL     OW28759   3.574   5.196   6.549
 9287SOL    HW128760   3.660   5.205   6.599
 9287SOL    HW228761   3.509   5.144   6.605
 9288SOL     OW28762   4.384   1.168   2.917
 9288SOL    HW128763   4.419   1.196   3.007
 9288SOL    HW228764   4.415   1.233   2.848
 9289SOL     OW28765   4.394   0.570   1.475
 9289SOL    HW128766   4.409   0.478   1.511
 9289SOL    HW228767   4.416   0.637   1.545
 9290SOL     OW28768   5.419   0.561   3.308
 9290SOL    HW128769   5.488   0.598   3.371
 9290SOL    HW228770   5.465   0.526   3.226
 9291SOL     OW28771   1.278   4.907   5.751
 9291SOL    HW128772   1.217   4.866   5.818
 9291SOL    HW228773   1.312   4.994   5.786
 9292SOL     OW28774   2.083   2.487   6.008
 9292SOL    HW128775   2.113   2.542   6.086
 9292SOL    HW228776   2.151   2.491   5.936
 9293SOL     OW28777   6.101   3.069   6.682
 9293SOL    HW128778   6.073   3.150   6.632
 9293SOL    HW228779   6.055   3.065   6.770
 9294SOL     OW28780   5.118   0.359   6.069
 9294SOL    HW128781   5.086   0.321   5.982
 9294SOL    HW228782   5.200   0.414   6.053
 9295SOL     OW28783   5.539   0.861   5.153
 9295SOL    HW128784   5.513   0.957   5.140
 9295SOL    HW228785   5.587   0.828   5.071
 9296SOL     OW28786   1.306   5.597   6.521
 9296SOL    HW128787   1.226   5.644   6.485
 9296SOL    HW228788   1.389   5.632   6.477
 9297SOL     OW28789   1.184   6.667   3.308
 9297SOL    HW128790   1.176   6.665   3.208
 9297SOL    HW228791   1.243   6.743   3.335
 9298SOL     OW28792   1.234   6.237   6.792
 9298SOL    HW128793   1.171   6.179   6.843
 9298SOL    HW228794   1.183   6.293   6.727
 9299SOL     OW28795   0.244   1.825   4.340
 9299SOL    HW128796   0.229   1.757   4.268
 9299SOL    HW228797   0.320   1.797   4.398
 9300SOL     OW28798   0.598   4.425   5.686
 9300SOL    HW128799   0.655   4.353   5.724
 9300SOL    HW228800   0.625   4.513   5.724
 9301SOL     OW28801   5.447   5.179   5.046
 9301SOL    HW128802   5.468   5.143   5.137
 9301SOL    HW228803   5.374   5.126   5.005
 9302SOL     OW28804   2.228   3.043   4.060
 9302SOL    HW128805   2.274   3.078   4.142
 9302SOL    HW228806   2.264   2.952   4.038
 9303SOL     OW28807   3.013   3.805   0.435
 9303SOL    HW128808   2.958   3.878   0.476
 9303SOL    HW228809   2.967   3.717   0.450
 9304SOL     OW28810   4.038   4.528   1.729
 9304SOL    HW128811   3.986   4.443   1.739
 9304SOL    HW228812   4.112   4.514   1.664
 9305SOL     OW28813   3.666   1.474   0.948
 9305SOL    HW128814   3.614   1.559   0.946
 9305SOL    HW228815   3.688   1.451   1.043
 9306SOL     OW28816   1.218   3.807   5.281
 9306SOL    HW128817   1.206   3.740   5.355
 9306SOL    HW228818   1.264   3.763   5.203
 9307SOL     OW28819   0.987   4.127   0.980
 9307SOL    HW128820   1.058   4.163   0.920
 9307SOL    HW228821   0.978   4.028   0.966
 9308SOL     OW28822   1.501   3.768   0.689
 9308SOL    HW128823   1.584   3.774   0.745
 9308SOL    HW228824   1.519   3.712   0.609
 9309SOL     OW28825   3.768   5.444   6.270
 9309SOL    HW128826   3.776   5.355   6.225
 9309SOL    HW228827   3.743   5.514   6.202
 9310SOL     OW28828   5.662   5.859   5.826
 9310SOL    HW128829   5.759   5.869   5.804
 9310SOL    HW228830   5.625   5.948   5.853
 9311SOL     OW28831   4.927   5.011   1.253
 9311SOL    HW128832   4.836   4.972   1.264
 9311SOL    HW228833   4.993   4.960   1.308
 9312SOL     OW28834   1.303   3.482   1.480
 9312SOL    HW128835   1.333   3.577   1.474
 9312SOL    HW228836   1.250   3.470   1.564
 9313SOL     OW28837   6.880   0.415   1.578
 9313SOL    HW128838   6.842   0.322   1.582
 9313SOL    HW228839   6.932   0.425   1.493
 9314SOL     OW28840   6.242   4.120   6.965
 9314SOL    HW128841   6.229   4.196   0.002
 9314SOL    HW228842   6.300   4.149   6.889
 9315SOL     OW28843   6.927   0.023   5.383
 9315SOL    HW128844   6.927   6.990   5.463
 9315SOL    HW228845   6.896   0.114   5.410
 9316SOL     OW28846   5.587   6.463   5.975
 9316SOL    HW128847   5.543   6.375   5.991
 9316SOL    HW228848   5.685   6.455   5.994
 9317SOL     OW28849   4.413   5.759   4.035
 9317SOL    HW128850   4.503   5.761   3.991
 9317SOL    HW228851   4.379   5.852   4.047
 9318SOL     OW28852   6.330   1.021   6.342
 9318SOL    HW128853   6.365   1.040   6.251
 9318SOL    HW228854   6.270   0.940   6.338
 9319SOL     OW28855   2.169   3.347   0.861
 9319SOL    HW128856   2.227   3.427   0.875
 9319SOL    HW228857   2.151   3.303   0.949
 9320SOL     OW28858   3.670   0.780   5.141
 9320SOL    HW128859   3.723   0.827   5.070
 9320SOL    HW228860   3.732   0.739   5.208
 9321SOL     OW28861   1.147   0.205   5.155
 9321SOL    HW128862   1.164   0.248   5.243
 9321SOL    HW228863   1.215   0.133   5.140
 9322SOL     OW28864   0.077   3.923   6.322
 9322SOL    HW128865   0.145   3.976   6.372
 9322SOL    HW228866   0.001   3.900   6.383
 9323SOL     OW28867   1.045   1.071   5.155
 9323SOL    HW128868   0.987   1.137   5.203
 9323SOL    HW228869   0.988   0.997   5.120
 9324SOL     OW28870   1.299   4.570   2.178
 9324SOL    HW128871   1.392   4.584   2.143
 9324SOL    HW228872   1.241   4.534   2.105
 9325SOL     OW28873   6.270   0.284   6.888
 9325SOL    HW128874   6.271   0.384   6.891
 9325SOL    HW228875   6.196   0.253   6.828
 9326SOL     OW28876   2.725   4.482   0.261
 9326SOL    HW128877   2.778   4.402   0.231
 9326SOL    HW228878   2.783   4.540   0.319
 9327SOL     OW28879   4.785   0.279   2.323
 9327SOL    HW128880   4.738   0.268   2.410
 9327SOL    HW228881   4.883   0.294   2.339
 9328SOL     OW28882   2.307   1.056   4.227
 9328SOL    HW128883   2.238   1.012   4.284
 9328SOL    HW228884   2.305   1.016   4.136
 9329SOL     OW28885   5.761   3.885   1.160
 9329SOL    HW128886   5.783   3.900   1.064
 9329SOL    HW228887   5.810   3.804   1.194
 9330SOL     OW28888   6.829   0.295   5.278
 9330SOL    HW128889   6.764   0.361   5.313
 9330SOL    HW228890   6.784   0.207   5.265
 9331SOL     OW28891   2.560   0.836   6.395
 9331SOL    HW128892   2.625   0.894   6.444
 9331SOL    HW228893   2.483   0.891   6.364
 9332SOL     OW28894   3.072   4.475   0.179
 9332SOL    HW128895   3.160   4.514   0.153
 9332SOL    HW228896   3.031   4.530   0.252
 9333SOL     OW28897   3.990   5.053   6.341
 9333SOL    HW128898   3.959   5.087   6.429
 9333SOL    HW228899   4.083   5.084   6.323
 9334SOL     OW28900   4.710   6.613   4.596
 9334SOL    HW128901   4.791   6.648   4.644
 9334SOL    HW228902   4.716   6.638   4.499
 9335SOL     OW28903   1.304   1.501   6.590
 9335SOL    HW128904   1.279   1.472   6.498
 9335SOL    HW228905   1.279   1.597   6.603
 9336SOL     OW28906   3.868   0.341   4.672
 9336SOL    HW128907   3.806   0.419   4.665
 9336SOL    HW228908   3.929   0.340   4.592
 9337SOL     OW28909   4.672   0.555   5.048
 9337SOL    HW128910   4.621   0.622   5.101
 9337SOL    HW228911   4.623   0.534   4.964
 9338SOL     OW28912   6.085   6.993   1.354
 9338SOL    HW128913   6.066   0.044   1.293
 9338SOL    HW228914   6.162   6.941   1.318
 9339SOL     OW28915   6.003   6.683   0.151
 9339SOL    HW128916   6.101   6.702   0.158
 9339SOL    HW228917   5.956   6.723   0.229
 9340SOL     OW28918   4.158   4.713   3.240
 9340SOL    HW128919   4.165   4.733   3.337
 9340SOL    HW228920   4.062   4.722   3.211
 9341SOL     OW28921   5.755   5.116   1.348
 9341SOL    HW128922   5.691   5.080   1.280
 9341SOL    HW228923   5.838   5.147   1.302
 9342SOL     OW28924   3.071   6.852   4.088
 9342SOL    HW128925   3.129   6.872   4.167
 9342SOL    HW228926   2.975   6.845   4.118
 9343SOL     OW28927   4.727   4.221   2.198
 9343SOL    HW128928   4.672   4.202   2.279
 9343SOL    HW228929   4.667   4.247   2.123
 9344SOL     OW28930   5.471   6.588   1.687
 9344SOL    HW128931   5.451   6.521   1.617
 9344SOL    HW228932   5.519   6.666   1.646
 9345SOL     OW28933   6.603   5.228   1.253
 9345SOL    HW128934   6.508   5.253   1.268
 9345SOL    HW228935   6.609   5.155   1.185
 9346SOL     OW28936   4.959   1.134   1.832
 9346SOL    HW128937   4.981   1.085   1.747
 9346SOL    HW228938   4.894   1.207   1.812
 9347SOL     OW28939   3.225   4.740   0.392
 9347SOL    HW128940   3.305   4.683   0.374
 9347SOL    HW228941   3.219   4.760   0.490
 9348SOL     OW28942   2.809   5.947   2.586
 9348SOL    HW128943   2.749   6.018   2.625
 9348SOL    HW228944   2.900   5.955   2.625
 9349SOL     OW28945   6.100   5.010   2.025
 9349SOL    HW128946   6.028   5.075   2.049
 9349SOL    HW228947   6.183   5.061   2.002
 9350SOL     OW28948   6.337   1.949   5.227
 9350SOL    HW128949   6.239   1.929   5.237
 9350SOL    HW228950   6.390   1.878   5.274
 9351SOL     OW28951   3.392   6.728   5.783
 9351SOL    HW128952   3.455   6.801   5.757
 9351SOL    HW228953   3.389   6.721   5.883
 9352SOL     OW28954   3.311   1.503   6.194
 9352SOL    HW128955   3.222   1.548   6.186
 9352SOL    HW228956   3.331   1.484   6.290
 9353SOL     OW28957   0.775   4.462   0.765
 9353SOL    HW128958   0.854   4.482   0.823
 9353SOL    HW228959   0.695   4.509   0.802
 9354SOL     OW28960   0.426   1.969   6.033
 9354SOL    HW128961   0.438   1.994   6.129
 9354SOL    HW228962   0.329   1.969   6.010
 9355SOL     OW28963   0.478   1.397   4.367
 9355SOL    HW128964   0.440   1.344   4.291
 9355SOL    HW228965   0.462   1.348   4.453
 9356SOL     OW28966   4.665   6.085   2.114
 9356SOL    HW128967   4.702   6.116   2.027
 9356SOL    HW228968   4.692   6.148   2.186
 9357SOL     OW28969   2.354   3.247   6.739
 9357SOL    HW128970   2.417   3.252   6.816
 9357SOL    HW228971   2.289   3.323   6.744
 9358SOL     OW28972   6.559   3.410   2.721
 9358SOL    HW128973   6.630   3.415   2.791
 9358SOL    HW228974   6.583   3.471   2.645
 9359SOL     OW28975   0.766   3.574   5.671
 9359SOL    HW128976   0.824   3.548   5.748
 9359SOL    HW228977   0.815   3.559   5.585
 9360SOL     OW28978   1.593   5.225   6.644
 9360SOL    HW128979   1.650   5.300   6.612
 9360SOL    HW228980   1.638   5.178   6.720
 9361SOL     OW28981   1.329   6.241   2.480
 9361SOL    HW128982   1.303   6.196   2.565
 9361SOL    HW228983   1.250   6.246   2.419
 9362SOL     OW28984   2.084   3.501   3.083
 9362SOL    HW128985   2.045   3.474   2.995
 9362SOL    HW228986   2.075   3.600   3.095
 9363SOL     OW28987   3.755   6.742   2.186
 9363SOL    HW128988   3.668   6.739   2.137
 9363SOL    HW228989   3.773   6.652   2.227
 9364SOL     OW28990   4.242   3.193   6.370
 9364SOL    HW128991   4.163   3.133   6.387
 9364SOL    HW228992   4.324   3.152   6.409
 9365SOL     OW28993   2.454   2.028   4.648
 9365SOL    HW128994   2.548   2.007   4.623
 9365SOL    HW228995   2.393   1.960   4.609
 9366SOL     OW28996   3.294   6.229   6.192
 9366SOL    HW128997   3.345   6.254   6.110
 9366SOL    HW228998   3.226   6.299   6.212
 9367SOL     OW28999   0.337   6.386   2.509
 9367SOL    HW129000   0.383   6.408   2.423
 9367SOL    HW229001   0.271   6.458   2.531
 9368SOL     OW29002   2.989   1.343   2.868
 9368SOL    HW129003   2.928   1.400   2.923
 9368SOL    HW229004   2.945   1.320   2.782
 9369SOL     OW29005   6.394   6.403   5.091
 9369SOL    HW129006   6.442   6.435   5.009
 9369SOL    HW229007   6.315   6.462   5.108
 9370SOL     OW29008   4.954   0.656   3.142
 9370SOL    HW129009   5.004   0.572   3.121
 9370SOL    HW229010   4.865   0.654   3.097
 9371SOL     OW29011   2.640   5.260   0.066
 9371SOL    HW129012   2.685   5.175   0.039
 9371SOL    HW229013   2.570   5.240   0.136
 9372SOL     OW29014   5.862   6.619   2.446
 9372SOL    HW129015   5.793   6.691   2.451
 9372SOL    HW229016   5.843   6.559   2.369
 9373SOL     OW29017   4.971   2.294   3.097
 9373SOL    HW129018   4.915   2.374   3.120
 9373SOL    HW229019   5.032   2.318   3.021
 9374SOL     OW29020   0.538   3.690   0.321
 9374SOL    HW129021   0.575   3.609   0.366
 9374SOL    HW229022   0.540   3.676   0.222
 9375SOL     OW29023   0.431   1.216   2.299
 9375SOL    HW129024   0.359   1.172   2.353
 9375SOL    HW229025   0.518   1.208   2.346
 9376SOL     OW29026   2.676   4.193   1.392
 9376SOL    HW129027   2.606   4.147   1.446
 9376SOL    HW229028   2.632   4.247   1.320
 9377SOL     OW29029   2.359   5.570   4.247
 9377SOL    HW129030   2.346   5.477   4.283
 9377SOL    HW229031   2.342   5.636   4.320
 9378SOL     OW29032   1.719   1.398   4.173
 9378SOL    HW129033   1.702   1.397   4.074
 9378SOL    HW229034   1.638   1.365   4.221
 9379SOL     OW29035   4.324   6.290   5.777
 9379SOL    HW129036   4.226   6.269   5.777
 9379SOL    HW229037   4.376   6.209   5.752
 9380SOL     OW29038   5.269   5.424   4.698
 9380SOL    HW129039   5.355   5.391   4.736
 9380SOL    HW229040   5.232   5.356   4.635
 9381SOL     OW29041   3.547   2.562   6.149
 9381SOL    HW129042   3.607   2.494   6.108
 9381SOL    HW229043   3.485   2.517   6.214
 9382SOL     OW29044   3.789   0.817   3.636
 9382SOL    HW129045   3.797   0.803   3.734
 9382SOL    HW229046   3.727   0.894   3.618
 9383SOL     OW29047   0.407   5.528   4.606
 9383SOL    HW129048   0.372   5.483   4.689
 9383SOL    HW229049   0.331   5.574   4.560
 9384SOL     OW29050   4.071   0.354   2.255
 9384SOL    HW129051   4.056   0.327   2.350
 9384SOL    HW229052   3.990   0.403   2.222
 9385SOL     OW29053   4.693   1.156   3.405
 9385SOL    HW129054   4.644   1.243   3.405
 9385SOL    HW229055   4.740   1.144   3.493
 9386SOL     OW29056   1.728   6.148   5.276
 9386SOL    HW129057   1.721   6.094   5.193
 9386SOL    HW229058   1.668   6.228   5.268
 9387SOL     OW29059   2.828   1.713   6.437
 9387SOL    HW129060   2.807   1.641   6.371
 9387SOL    HW229061   2.911   1.761   6.409
 9388SOL     OW29062   3.046   5.948   2.730
 9388SOL    HW129063   3.033   5.950   2.829
 9388SOL    HW229064   3.124   5.890   2.708
 9389SOL     OW29065   2.119   6.696   3.494
 9389SOL    HW129066   2.072   6.780   3.465
 9389SOL    HW229067   2.130   6.697   3.593
 9390SOL     OW29068   4.987   5.026   5.927
 9390SOL    HW129069   5.032   5.097   5.873
 9390SOL    HW229070   5.011   4.936   5.891
 9391SOL     OW29071   2.329   1.754   5.147
 9391SOL    HW129072   2.316   1.658   5.123
 9391SOL    HW229073   2.372   1.762   5.237
 9392SOL     OW29074   5.831   5.990   4.975
 9392SOL    HW129075   5.731   5.992   4.977
 9392SOL    HW229076   5.867   6.072   5.020
 9393SOL     OW29077   3.038   6.240   6.754
 9393SOL    HW129078   2.950   6.218   6.795
 9393SOL    HW229079   3.052   6.339   6.756
 9394SOL     OW29080   6.932   0.885   1.675
 9394SOL    HW129081   6.994   0.813   1.643
 9394SOL    HW229082   6.845   0.844   1.702
 9395SOL     OW29083   2.581   1.611   1.235
 9395SOL    HW129084   2.592   1.623   1.136
 9395SOL    HW229085   2.664   1.572   1.274
 9396SOL     OW29086   2.262   4.175   4.018
 9396SOL    HW129087   2.253   4.075   4.011
 9396SOL    HW229088   2.255   4.202   4.114
 9397SOL     OW29089   4.926   0.327   6.297
 9397SOL    HW129090   4.897   0.233   6.278
 9397SOL    HW229091   4.996   0.354   6.231
 9398SOL     OW29092   6.999   1.383   4.979
 9398SOL    HW129093   6.929   1.448   4.951
 9398SOL    HW229094   0.044   1.379   4.909
 9399SOL     OW29095   0.869   2.476   5.718
 9399SOL    HW129096   0.808   2.526   5.780
 9399SOL    HW229097   0.891   2.534   5.639
 9400SOL     OW29098   4.554   0.700   1.775
 9400SOL    HW129099   4.640   0.731   1.817
 9400SOL    HW229100   4.500   0.780   1.748
 9401SOL     OW29101   6.523   0.721   3.864
 9401SOL    HW129102   6.615   0.700   3.896
 9401SOL    HW229103   6.512   0.820   3.857
 9402SOL     OW29104   1.518   5.255   2.848
 9402SOL    HW129105   1.427   5.214   2.851
 9402SOL    HW229106   1.518   5.331   2.783
 9403SOL     OW29107   6.844   1.237   2.840
 9403SOL    HW129108   6.809   1.182   2.764
 9403SOL    HW229109   6.776   1.239   2.913
 9404SOL     OW29110   0.996   3.202   0.400
 9404SOL    HW129111   1.093   3.178   0.401
 9404SOL    HW229112   0.954   3.172   0.485
 9405SOL     OW29113   2.567   4.531   3.796
 9405SOL    HW129114   2.571   4.537   3.696
 9405SOL    HW229115   2.630   4.597   3.836
 9406SOL     OW29116   6.682   2.562   5.891
 9406SOL    HW129117   6.749   2.635   5.907
 9406SOL    HW229118   6.593   2.602   5.869
 9407SOL     OW29119   3.199   5.019   3.496
 9407SOL    HW129120   3.270   5.089   3.503
 9407SOL    HW229121   3.166   4.996   3.587
 9408SOL     OW29122   6.552   2.959   6.148
 9408SOL    HW129123   6.565   2.954   6.049
 9408SOL    HW229124   6.640   2.943   6.194
 9409SOL     OW29125   5.916   5.980   0.349
 9409SOL    HW129126   5.946   6.042   0.422
 9409SOL    HW229127   5.972   5.995   0.268
 9410SOL     OW29128   2.525   0.431   1.831
 9410SOL    HW129129   2.451   0.366   1.818
 9410SOL    HW229130   2.553   0.468   1.742
 9411SOL     OW29131   3.425   3.159   2.359
 9411SOL    HW129132   3.351   3.202   2.307
 9411SOL    HW229133   3.431   3.062   2.335
 9412SOL     OW29134   0.667   1.175   2.907
 9412SOL    HW129135   0.734   1.132   2.968
 9412SOL    HW229136   0.586   1.199   2.960
 9413SOL     OW29137   3.950   5.671   3.577
 9413SOL    HW129138   4.008   5.656   3.657
 9413SOL    HW229139   4.008   5.691   3.498
 9414SOL     OW29140   2.934   1.020   3.047
 9414SOL    HW129141   2.888   1.040   2.961
 9414SOL    HW229142   3.025   1.060   3.046
 9415SOL     OW29143   2.545   6.931   2.270
 9415SOL    HW129144   2.468   6.911   2.211
 9415SOL    HW229145   2.580   6.846   2.310
 9416SOL     OW29146   6.877   2.082   0.403
 9416SOL    HW129147   6.946   2.094   0.474
 9416SOL    HW229148   6.904   2.007   0.342
 9417SOL     OW29149   4.476   0.593   0.717
 9417SOL    HW129150   4.488   0.567   0.813
 9417SOL    HW229151   4.555   0.562   0.664
 9418SOL     OW29152   3.311   0.578   1.087
 9418SOL    HW129153   3.336   0.639   1.163
 9418SOL    HW229154   3.348   0.487   1.104
 9419SOL     OW29155   2.738   4.649   5.603
 9419SOL    HW129156   2.722   4.551   5.618
 9419SOL    HW229157   2.703   4.701   5.680
 9420SOL     OW29158   5.817   4.261   5.789
 9420SOL    HW129159   5.874   4.343   5.799
 9420SOL    HW229160   5.876   4.180   5.784
 9421SOL     OW29161   2.555   6.291   4.378
 9421SOL    HW129162   2.593   6.347   4.304
 9421SOL    HW229163   2.587   6.197   4.369
 9422SOL     OW29164   2.923   5.566   2.811
 9422SOL    HW129165   2.921   5.666   2.803
 9422SOL    HW229166   2.905   5.540   2.906
 9423SOL     OW29167   2.848   6.331   3.700
 9423SOL    HW129168   2.805   6.244   3.677
 9423SOL    HW229169   2.884   6.328   3.793
 9424SOL     OW29170   5.122   2.414   5.159
 9424SOL    HW129171   5.146   2.483   5.090
 9424SOL    HW229172   5.062   2.455   5.227
 9425SOL     OW29173   5.675   3.899   0.887
 9425SOL    HW129174   5.608   3.965   0.920
 9425SOL    HW229175   5.736   3.944   0.821
 9426SOL     OW29176   3.802   1.715   6.081
 9426SOL    HW129177   3.790   1.668   6.169
 9426SOL    HW229178   3.847   1.653   6.016
 9427SOL     OW29179   2.452   5.239   3.082
 9427SOL    HW129180   2.398   5.323   3.088
 9427SOL    HW229181   2.454   5.195   3.172
 9428SOL     OW29182   6.930   1.162   1.274
 9428SOL    HW129183   7.026   1.180   1.253
 9428SOL    HW229184   6.920   1.138   1.370
 9429SOL     OW29185   2.102   3.894   2.924
 9429SOL    HW129186   2.124   3.986   2.957
 9429SOL    HW229187   2.119   3.889   2.825
 9430SOL     OW29188   0.250   3.586   4.334
 9430SOL    HW129189   0.178   3.532   4.379
 9430SOL    HW229190   0.337   3.570   4.379
 9431SOL     OW29191   6.581   3.788   0.624
 9431SOL    HW129192   6.680   3.793   0.616
 9431SOL    HW229193   6.557   3.772   0.720
 9432SOL     OW29194   5.436   0.150   3.638
 9432SOL    HW129195   5.355   0.097   3.660
 9432SOL    HW229196   5.493   0.098   3.573
 9433SOL     OW29197   2.994   6.133   2.978
 9433SOL    HW129198   2.972   6.036   2.986
 9433SOL    HW229199   3.083   6.151   3.019
 9434SOL     OW29200   5.144   5.827   2.543
 9434SOL    HW129201   5.192   5.881   2.474
 9434SOL    HW229202   5.202   5.751   2.573
 9435SOL     OW29203   0.454   2.722   4.192
 9435SOL    HW129204   0.506   2.688   4.270
 9435SOL    HW229205   0.508   2.712   4.109
 9436SOL     OW29206   1.798   2.757   1.315
 9436SOL    HW129207   1.732   2.800   1.377
 9436SOL    HW229208   1.883   2.738   1.365
 9437SOL     OW29209   1.221   5.667   3.179
 9437SOL    HW129210   1.262   5.737   3.238
 9437SOL    HW229211   1.146   5.708   3.127
 9438SOL     OW29212   0.601   0.104   1.424
 9438SOL    HW129213   0.665   0.118   1.500
 9438SOL    HW229214   0.634   0.153   1.343
 9439SOL     OW29215   0.064   3.137   0.817
 9439SOL    HW129216   0.101   3.098   0.732
 9439SOL    HW229217   0.057   3.065   0.886
 9440SOL     OW29218   3.912   4.837   3.306
 9440SOL    HW129219   3.823   4.874   3.280
 9440SOL    HW229220   3.913   4.816   3.404
 9441SOL     OW29221   6.007   4.448   5.867
 9441SOL    HW129222   5.966   4.447   5.958
 9441SOL    HW229223   6.106   4.436   5.875
 9442SOL     OW29224   4.402   3.443   1.121
 9442SOL    HW129225   4.323   3.460   1.179
 9442SOL    HW229226   4.486   3.453   1.175
 9443SOL     OW29227   2.718   5.298   1.024
 9443SOL    HW129228   2.664   5.307   0.940
 9443SOL    HW229229   2.783   5.374   1.030
 9444SOL     OW29230   1.204   3.344   1.138
 9444SOL    HW129231   1.298   3.344   1.173
 9444SOL    HW229232   1.156   3.425   1.171
 9445SOL     OW29233   5.929   2.957   2.885
 9445SOL    HW129234   5.934   2.857   2.891
 9445SOL    HW229235   5.997   2.998   2.946
 9446SOL     OW29236   6.289   5.666   4.198
 9446SOL    HW129237   6.229   5.745   4.194
 9446SOL    HW229238   6.328   5.648   4.107
 9447SOL     OW29239   5.981   4.841   3.267
 9447SOL    HW129240   5.954   4.770   3.201
 9447SOL    HW229241   5.955   4.931   3.232
 9448SOL     OW29242   0.071   7.003   6.568
 9448SOL    HW129243   7.014   0.018   6.604
 9448SOL    HW229244   0.080   6.910   6.604
 9449SOL     OW29245   6.037   0.027   6.953
 9449SOL    HW129246   6.014   6.963   6.918
 9449SOL    HW229247   5.954   0.079   6.970
 9450SOL     OW29248   1.853   5.487   4.309
 9450SOL    HW129249   1.898   5.464   4.395
 9450SOL    HW229250   1.914   5.465   4.233
 9451SOL     OW29251   4.378   0.313   6.105
 9451SOL    HW129252   4.401   0.333   6.010
 9451SOL    HW229253   4.461   0.307   6.160
 9452SOL     OW29254   1.681   3.919   0.186
 9452SOL    HW129255   1.612   3.991   0.182
 9452SOL    HW229256   1.730   3.915   0.099
 9453SOL     OW29257   2.498   4.559   3.091
 9453SOL    HW129258   2.431   4.571   3.018
 9453SOL    HW229259   2.454   4.512   3.168
 9454SOL     OW29260   3.396   3.905   6.596
 9454SOL    HW129261   3.493   3.905   6.623
 9454SOL    HW229262   3.388   3.884   6.499
 9455SOL     OW29263   2.332   1.525   3.877
 9455SOL    HW129264   2.327   1.596   3.948
 9455SOL    HW229265   2.296   1.561   3.791
 9456SOL     OW29266   7.022   3.785   1.001
 9456SOL    HW129267   0.073   3.724   0.983
 9456SOL    HW229268   6.983   3.815   0.914
 9457SOL     OW29269   1.120   3.664   4.604
 9457SOL    HW129270   1.191   3.594   4.598
 9457SOL    HW229271   1.132   3.730   4.530
 9458SOL     OW29272   1.214   3.177   0.092
 9458SOL    HW129273   1.138   3.241   0.079
 9458SOL    HW229274   1.280   3.189   0.018
 9459SOL     OW29275   5.918   4.304   3.906
 9459SOL    HW129276   5.990   4.237   3.921
 9459SOL    HW229277   5.957   4.387   3.866
 9460SOL     OW29278   1.327   3.738   4.101
 9460SOL    HW129279   1.240   3.788   4.104
 9460SOL    HW229280   1.344   3.696   4.190
 9461SOL     OW29281   0.160   1.869   1.627
 9461SOL    HW129282   0.062   1.879   1.642
 9461SOL    HW229283   0.204   1.839   1.711
 9462SOL     OW29284   2.099   3.287   3.248
 9462SOL    HW129285   2.108   3.373   3.198
 9462SOL    HW229286   2.010   3.284   3.293
 9463SOL     OW29287   6.550   0.391   1.386
 9463SOL    HW129288   6.559   0.459   1.458
 9463SOL    HW229289   6.635   0.339   1.377
 9464SOL     OW29290   6.109   0.575   0.941
 9464SOL    HW129291   6.162   0.650   0.900
 9464SOL    HW229292   6.118   0.579   1.041
 9465SOL     OW29293   0.724   4.594   2.040
 9465SOL    HW129294   0.785   4.561   1.968
 9465SOL    HW229295   0.772   4.595   2.127
 9466SOL     OW29296   3.821   4.435   5.570
 9466SOL    HW129297   3.837   4.388   5.483
 9466SOL    HW229298   3.888   4.508   5.581
 9467SOL     OW29299   1.519   2.538   1.792
 9467SOL    HW129300   1.587   2.495   1.850
 9467SOL    HW229301   1.452   2.586   1.848
 9468SOL     OW29302   5.983   3.716   6.740
 9468SOL    HW129303   6.079   3.725   6.763
 9468SOL    HW229304   5.974   3.666   6.654
 9469SOL     OW29305   6.127   5.211   1.783
 9469SOL    HW129306   6.087   5.300   1.808
 9469SOL    HW229307   6.209   5.196   1.836
 9470SOL     OW29308   4.881   3.311   5.929
 9470SOL    HW129309   4.816   3.333   5.856
 9470SOL    HW229310   4.972   3.296   5.889
 9471SOL     OW29311   6.724   2.165   4.259
 9471SOL    HW129312   6.686   2.222   4.186
 9471SOL    HW229313   6.794   2.105   4.220
 9472SOL     OW29314   6.253   3.011   5.413
 9472SOL    HW129315   6.323   3.071   5.373
 9472SOL    HW229316   6.191   3.066   5.468
 9473SOL     OW29317   2.826   4.944   6.811
 9473SOL    HW129318   2.772   4.860   6.806
 9473SOL    HW229319   2.841   4.980   6.718
 9474SOL     OW29320   6.906   3.540   6.829
 9474SOL    HW129321   6.910   3.448   6.870
 9474SOL    HW229322   6.850   3.537   6.747
 9475SOL     OW29323   3.792   3.306   6.810
 9475SOL    HW129324   3.777   3.209   6.829
 9475SOL    HW229325   3.842   3.316   6.724
 9476SOL     OW29326   3.989   3.688   4.585
 9476SOL    HW129327   3.989   3.647   4.676
 9476SOL    HW229328   4.032   3.625   4.520
 9477SOL     OW29329   0.762   2.748   0.774
 9477SOL    HW129330   0.695   2.800   0.721
 9477SOL    HW229331   0.799   2.674   0.719
 9478SOL     OW29332   4.901   2.970   0.740
 9478SOL    HW129333   4.884   2.894   0.677
 9478SOL    HW229334   4.898   2.936   0.834
 9479SOL     OW29335   4.299   6.301   6.915
 9479SOL    HW129336   4.374   6.238   6.939
 9479SOL    HW229337   4.229   6.251   6.865
 9480SOL     OW29338   5.762   4.719   0.858
 9480SOL    HW129339   5.791   4.801   0.907
 9480SOL    HW229340   5.803   4.720   0.766
 9481SOL     OW29341   5.099   2.988   2.270
 9481SOL    HW129342   5.043   3.065   2.300
 9481SOL    HW229343   5.185   3.023   2.233
 9482SOL     OW29344   0.459   1.213   3.064
 9482SOL    HW129345   0.412   1.144   3.120
 9482SOL    HW229346   0.394   1.284   3.036
 9483SOL     OW29347   2.024   0.923   1.039
 9483SOL    HW129348   1.948   0.868   1.005
 9483SOL    HW229349   2.051   0.990   0.970
 9484SOL     OW29350   4.443   0.378   4.083
 9484SOL    HW129351   4.474   0.341   4.170
 9484SOL    HW229352   4.498   0.340   4.009
 9485SOL     OW29353   0.569   1.040   0.177
 9485SOL    HW129354   0.588   0.985   0.096
 9485SOL    HW229355   0.502   1.111   0.154
 9486SOL     OW29356   3.967   6.675   0.971
 9486SOL    HW129357   3.872   6.701   0.955
 9486SOL    HW229358   3.970   6.598   1.035
 9487SOL     OW29359   3.462   3.907   4.348
 9487SOL    HW129360   3.436   3.881   4.441
 9487SOL    HW229361   3.496   4.000   4.347
 9488SOL     OW29362   3.033   6.748   0.880
 9488SOL    HW129363   3.067   6.657   0.903
 9488SOL    HW229364   3.101   6.797   0.827
 9489SOL     OW29365   4.634   4.509   0.924
 9489SOL    HW129366   4.720   4.462   0.906
 9489SOL    HW229367   4.647   4.577   0.996
 9490SOL     OW29368   5.945   4.906   2.217
 9490SOL    HW129369   6.013   4.938   2.151
 9490SOL    HW229370   5.963   4.810   2.239
 9491SOL     OW29371   5.961   4.774   3.993
 9491SOL    HW129372   5.877   4.821   4.019
 9491SOL    HW229373   5.959   4.753   3.895
 9492SOL     OW29374   3.628   2.893   4.475
 9492SOL    HW129375   3.536   2.890   4.516
 9492SOL    HW229376   3.646   2.808   4.427
 9493SOL     OW29377   2.913   5.534   4.292
 9493SOL    HW129378   2.981   5.606   4.284
 9493SOL    HW229379   2.957   5.449   4.320
 9494SOL     OW29380   4.967   2.930   2.698
 9494SOL    HW129381   4.912   3.000   2.652
 9494SOL    HW229382   5.063   2.943   2.675
 9495SOL     OW29383   6.338   1.369   3.546
 9495SOL    HW129384   6.432   1.343   3.568
 9495SOL    HW229385   6.333   1.468   3.534
 9496SOL     OW29386   5.876   3.636   1.200
 9496SOL    HW129387   5.842   3.545   1.173
 9496SOL    HW229388   5.959   3.625   1.255
 9497SOL     OW29389   5.724   6.749   5.753
 9497SOL    HW129390   5.646   6.777   5.697
 9497SOL    HW229391   5.797   6.715   5.694
 9498SOL     OW29392   4.421   6.641   4.638
 9498SOL    HW129393   4.389   6.730   4.607
 9498SOL    HW229394   4.515   6.650   4.671
 9499SOL     OW29395   2.202   4.684   6.173
 9499SOL    HW129396   2.142   4.638   6.238
 9499SOL    HW229397   2.244   4.763   6.216
 9500SOL     OW29398   5.070   0.034   1.051
 9500SOL    HW129399   4.987   0.039   1.106
 9500SOL    HW229400   5.067   6.979   0.993
 9501SOL     OW29401   2.599   1.227   4.910
 9501SOL    HW129402   2.549   1.287   4.848
 9501SOL    HW229403   2.695   1.224   4.883
 9502SOL     OW29404   5.344   3.131   4.919
 9502SOL    HW129405   5.319   3.038   4.892
 9502SOL    HW229406   5.303   3.196   4.855
 9503SOL     OW29407   0.746   1.786   1.475
 9503SOL    HW129408   0.696   1.720   1.531
 9503SOL    HW229409   0.811   1.836   1.533
 9504SOL     OW29410   0.486   2.337   0.349
 9504SOL    HW129411   0.459   2.242   0.331
 9504SOL    HW229412   0.565   2.337   0.410
 9505SOL     OW29413   4.743   4.747   4.090
 9505SOL    HW129414   4.751   4.822   4.024
 9505SOL    HW229415   4.788   4.773   4.175
 9506SOL     OW29416   1.077   2.236   6.383
 9506SOL    HW129417   1.098   2.262   6.289
 9506SOL    HW229418   1.035   2.146   6.385
 9507SOL     OW29419   0.800   1.827   3.227
 9507SOL    HW129420   0.837   1.913   3.261
 9507SOL    HW229421   0.854   1.796   3.149
 9508SOL     OW29422   6.118   2.114   1.172
 9508SOL    HW129423   6.200   2.127   1.228
 9508SOL    HW229424   6.142   2.059   1.092
 9509SOL     OW29425   0.847   0.978   4.085
 9509SOL    HW129426   0.819   0.918   4.160
 9509SOL    HW229427   0.860   0.924   4.002
 9510SOL     OW29428   1.260   3.698   3.683
 9510SOL    HW129429   1.310   3.637   3.745
 9510SOL    HW229430   1.163   3.676   3.685
 9511SOL     OW29431   1.599   0.590   0.826
 9511SOL    HW129432   1.558   0.554   0.742
 9511SOL    HW229433   1.696   0.563   0.830
 9512SOL     OW29434   6.011   1.192   1.434
 9512SOL    HW129435   6.051   1.273   1.477
 9512SOL    HW229436   6.083   1.134   1.398
 9513SOL     OW29437   2.203   3.832   6.310
 9513SOL    HW129438   2.184   3.763   6.239
 9513SOL    HW229439   2.259   3.905   6.271
 9514SOL     OW29440   1.941   5.369   5.894
 9514SOL    HW129441   1.868   5.428   5.927
 9514SOL    HW229442   1.917   5.332   5.804
 9515SOL     OW29443   1.809   5.748   0.779
 9515SOL    HW129444   1.877   5.744   0.853
 9515SOL    HW229445   1.853   5.782   0.696
 9516SOL     OW29446   6.017   4.693   6.087
 9516SOL    HW129447   6.041   4.790   6.081
 9516SOL    HW229448   6.099   4.638   6.075
 9517SOL     OW29449   1.865   4.962   1.095
 9517SOL    HW129450   1.804   5.041   1.096
 9517SOL    HW229451   1.954   4.988   1.059
 9518SOL     OW29452   2.042   1.940   0.179
 9518SOL    HW129453   1.979   1.873   0.218
 9518SOL    HW229454   2.134   1.902   0.178
 9519SOL     OW29455   3.904   3.662   5.064
 9519SOL    HW129456   3.911   3.761   5.077
 9519SOL    HW229457   3.995   3.621   5.071
 9520SOL     OW29458   1.448   2.003   3.556
 9520SOL    HW129459   1.538   1.988   3.516
 9520SOL    HW229460   1.380   2.010   3.482
 9521SOL     OW29461   4.679   5.707   1.564
 9521SOL    HW129462   4.699   5.627   1.508
 9521SOL    HW229463   4.605   5.685   1.628
 9522SOL     OW29464   2.880   5.915   1.124
 9522SOL    HW129465   2.953   5.978   1.098
 9522SOL    HW229466   2.915   5.852   1.194
 9523SOL     OW29467   2.548   4.611   4.900
 9523SOL    HW129468   2.494   4.546   4.953
 9523SOL    HW229469   2.643   4.609   4.931
 9524SOL     OW29470   3.268   2.888   1.545
 9524SOL    HW129471   3.306   2.809   1.593
 9524SOL    HW229472   3.174   2.905   1.576
 9525SOL     OW29473   2.523   3.303   5.534
 9525SOL    HW129474   2.437   3.266   5.570
 9525SOL    HW229475   2.599   3.272   5.590
 9526SOL     OW29476   5.314   5.349   1.438
 9526SOL    HW129477   5.410   5.324   1.450
 9526SOL    HW229478   5.308   5.442   1.403
 9527SOL     OW29479   1.105   0.219   3.147
 9527SOL    HW129480   1.142   0.220   3.054
 9527SOL    HW229481   1.076   0.312   3.172
 9528SOL     OW29482   0.212   1.461   0.301
 9528SOL    HW129483   0.222   1.469   0.400
 9528SOL    HW229484   0.116   1.447   0.278
 9529SOL     OW29485   6.187   3.256   5.574
 9529SOL    HW129486   6.273   3.256   5.523
 9529SOL    HW229487   6.180   3.341   5.627
 9530SOL     OW29488   1.901   3.830   2.206
 9530SOL    HW129489   1.904   3.899   2.133
 9530SOL    HW229490   1.953   3.749   2.177
 9531SOL     OW29491   4.691   5.252   2.730
 9531SOL    HW129492   4.733   5.326   2.677
 9531SOL    HW229493   4.759   5.179   2.744
 9532SOL     OW29494   6.867   6.731   2.306
 9532SOL    HW129495   6.800   6.765   2.372
 9532SOL    HW229496   6.957   6.766   2.330
 9533SOL     OW29497   6.832   6.987   5.960
 9533SOL    HW129498   6.856   6.985   6.057
 9533SOL    HW229499   6.915   7.000   5.906
 9534SOL     OW29500   6.799   3.746   5.219
 9534SOL    HW129501   6.729   3.777   5.283
 9534SOL    HW229502   6.772   3.659   5.179
 9535SOL     OW29503   2.539   1.295   5.983
 9535SOL    HW129504   2.567   1.365   6.049
 9535SOL    HW229505   2.440   1.283   5.986
 9536SOL     OW29506   2.703   4.208   5.341
 9536SOL    HW129507   2.791   4.161   5.339
 9536SOL    HW229508   2.718   4.307   5.345
 9537SOL     OW29509   2.959   6.345   2.637
 9537SOL    HW129510   3.006   6.281   2.577
 9537SOL    HW229511   2.975   6.319   2.732
 9538SOL     OW29512   6.314   2.182   3.622
 9538SOL    HW129513   6.406   2.187   3.583
 9538SOL    HW229514   6.247   2.180   3.547
 9539SOL     OW29515   3.055   3.885   5.215
 9539SOL    HW129516   2.979   3.821   5.203
 9539SOL    HW229517   3.133   3.855   5.160
 9540SOL     OW29518   6.134   4.109   4.406
 9540SOL    HW129519   6.109   4.103   4.503
 9540SOL    HW229520   6.053   4.129   4.351
 9541SOL     OW29521   3.488   1.053   5.547
 9541SOL    HW129522   3.537   0.989   5.487
 9541SOL    HW229523   3.448   1.126   5.491
 9542SOL     OW29524   5.627   4.267   4.467
 9542SOL    HW129525   5.685   4.302   4.541
 9542SOL    HW229526   5.574   4.189   4.500
 9543SOL     OW29527   3.388   1.160   5.129
 9543SOL    HW129528   3.466   1.167   5.066
 9543SOL    HW229529   3.343   1.072   5.116
 9544SOL     OW29530   0.276   1.078   3.762
 9544SOL    HW129531   0.230   1.122   3.838
 9544SOL    HW229532   0.232   1.106   3.676
 9545SOL     OW29533   6.186   5.522   3.823
 9545SOL    HW129534   6.174   5.434   3.869
 9545SOL    HW229535   6.246   5.510   3.743
 9546SOL     OW29536   3.054   2.391   5.614
 9546SOL    HW129537   3.039   2.330   5.536
 9546SOL    HW229538   3.002   2.475   5.601
 9547SOL     OW29539   2.559   6.578   4.508
 9547SOL    HW129540   2.572   6.479   4.509
 9547SOL    HW229541   2.501   6.605   4.585
 9548SOL     OW29542   5.914   6.111   5.905
 9548SOL    HW129543   5.847   6.134   5.976
 9548SOL    HW229544   5.923   6.188   5.842
 9549SOL     OW29545   2.975   3.221   1.165
 9549SOL    HW129546   3.061   3.271   1.156
 9549SOL    HW229547   2.944   3.223   1.260
 9550SOL     OW29548   0.299   1.526   0.841
 9550SOL    HW129549   0.311   1.567   0.751
 9550SOL    HW229550   0.322   1.428   0.836
 9551SOL     OW29551   6.184   1.482   4.072
 9551SOL    HW129552   6.253   1.554   4.063
 9551SOL    HW229553   6.103   1.506   4.018
 9552SOL     OW29554   1.007   6.460   2.655
 9552SOL    HW129555   1.071   6.392   2.691
 9552SOL    HW229556   0.989   6.441   2.559
 9553SOL     OW29557   6.187   3.865   7.025
 9553SOL    HW129558   6.211   3.863   0.096
 9553SOL    HW229559   6.185   3.959   6.993
 9554SOL     OW29560   2.558   0.513   1.554
 9554SOL    HW129561   2.626   0.490   1.484
 9554SOL    HW229562   2.469   0.478   1.526
 9555SOL     OW29563   1.306   0.827   2.915
 9555SOL    HW129564   1.303   0.924   2.939
 9555SOL    HW229565   1.277   0.816   2.820
 9556SOL     OW29566   1.960   2.179   1.089
 9556SOL    HW129567   1.865   2.210   1.081
 9556SOL    HW229568   1.969   2.088   1.049
 9557SOL     OW29569   0.155   0.191   2.810
 9557SOL    HW129570   0.245   0.231   2.792
 9557SOL    HW229571   0.086   0.263   2.806
 9558SOL     OW29572   6.594   6.249   4.786
 9558SOL    HW129573   6.647   6.232   4.702
 9558SOL    HW229574   6.611   6.342   4.817
 9559SOL     OW29575   0.733   4.180   0.912
 9559SOL    HW129576   0.726   4.251   0.843
 9559SOL    HW229577   0.821   4.188   0.959
 9560SOL     OW29578   1.131   1.685   3.163
 9560SOL    HW129579   1.128   1.588   3.188
 9560SOL    HW229580   1.046   1.710   3.117
 9561SOL     OW29581   1.000   6.262   0.246
 9561SOL    HW129582   1.069   6.282   0.176
 9561SOL    HW229583   0.987   6.343   0.303
 9562SOL     OW29584   3.420   0.204   5.509
 9562SOL    HW129585   3.373   0.276   5.561
 9562SOL    HW229586   3.519   0.215   5.520
 9563SOL     OW29587   6.093   0.089   0.633
 9563SOL    HW129588   6.182   0.063   0.594
 9563SOL    HW229589   6.069   0.023   0.704
 9564SOL     OW29590   3.072   0.212   6.869
 9564SOL    HW129591   3.020   0.172   6.794
 9564SOL    HW229592   3.146   0.151   6.895
 9565SOL     OW29593   4.025   6.209   4.996
 9565SOL    HW129594   3.938   6.199   5.044
 9565SOL    HW229595   4.088   6.263   5.051
 9566SOL     OW29596   2.549   4.723   6.642
 9566SOL    HW129597   2.453   4.751   6.641
 9566SOL    HW229598   2.570   4.672   6.559
 9567SOL     OW29599   5.989   4.298   0.017
 9567SOL    HW129600   5.995   4.201   7.019
 9567SOL    HW229601   5.921   4.343   6.985
 9568SOL     OW29602   4.447   2.946   6.688
 9568SOL    HW129603   4.491   3.003   6.618
 9568SOL    HW229604   4.406   3.005   6.758
 9569SOL     OW29605   7.000   0.619   2.836
 9569SOL    HW129606   0.011   0.621   2.929
 9569SOL    HW229607   6.974   0.525   2.813
 9570SOL     OW29608   0.737   2.702   2.576
 9570SOL    HW129609   0.671   2.626   2.584
 9570SOL    HW229610   0.702   2.781   2.627
 9571SOL     OW29611   2.190   3.759   6.991
 9571SOL    HW129612   2.257   3.732   6.922
 9571SOL    HW229613   2.149   3.678   0.004
 9572SOL     OW29614   1.786   5.749   1.306
 9572SOL    HW129615   1.822   5.732   1.397
 9572SOL    HW229616   1.806   5.843   1.279
 9573SOL     OW29617   0.971   1.392   6.949
 9573SOL    HW129618   0.912   1.403   0.003
 9573SOL    HW229619   1.066   1.407   6.975
 9574SOL     OW29620   3.546   2.912   4.039
 9574SOL    HW129621   3.494   2.945   4.118
 9574SOL    HW229622   3.640   2.890   4.068
 9575SOL     OW29623   6.064   1.704   1.042
 9575SOL    HW129624   6.109   1.794   1.038
 9575SOL    HW229625   5.969   1.714   1.011
 9576SOL     OW29626   2.981   0.805   2.770
 9576SOL    HW129627   2.972   0.765   2.679
 9576SOL    HW229628   2.891   0.824   2.808
 9577SOL     OW29629   0.991   0.526   4.024
 9577SOL    HW129630   0.998   0.426   4.021
 9577SOL    HW229631   1.077   0.564   4.057
 9578SOL     OW29632   0.151   4.001   3.586
 9578SOL    HW129633   0.196   4.089   3.576
 9578SOL    HW229634   0.134   3.982   3.682
 9579SOL     OW29635   2.047   5.652   2.445
 9579SOL    HW129636   2.014   5.718   2.511
 9579SOL    HW229637   2.119   5.596   2.487
 9580SOL     OW29638   4.472   3.010   0.783
 9580SOL    HW129639   4.491   3.101   0.746
 9580SOL    HW229640   4.480   3.012   0.883
 9581SOL     OW29641   1.188   5.423   6.196
 9581SOL    HW129642   1.275   5.376   6.183
 9581SOL    HW229643   1.122   5.360   6.238
 9582SOL     OW29644   4.535   4.499   4.631
 9582SOL    HW129645   4.522   4.452   4.544
 9582SOL    HW229646   4.453   4.550   4.655
 9583SOL     OW29647   3.306   4.323   1.023
 9583SOL    HW129648   3.234   4.328   1.092
 9583SOL    HW229649   3.265   4.332   0.932
 9584SOL     OW29650   6.619   6.437   0.282
 9584SOL    HW129651   6.593   6.366   0.349
 9584SOL    HW229652   6.575   6.418   0.195
 9585SOL     OW29653   6.135   0.334   3.269
 9585SOL    HW129654   6.053   0.353   3.215
 9585SOL    HW229655   6.182   0.420   3.288
 9586SOL     OW29656   5.585   4.135   2.277
 9586SOL    HW129657   5.673   4.135   2.230
 9586SOL    HW229658   5.530   4.058   2.244
 9587SOL     OW29659   6.087   0.584   2.434
 9587SOL    HW129660   6.076   0.484   2.440
 9587SOL    HW229661   6.179   0.605   2.401
 9588SOL     OW29662   0.651   1.733   2.254
 9588SOL    HW129663   0.566   1.769   2.293
 9588SOL    HW229664   0.637   1.637   2.228
 9589SOL     OW29665   2.739   5.383   6.327
 9589SOL    HW129666   2.786   5.435   6.255
 9589SOL    HW229667   2.790   5.391   6.412
 9590SOL     OW29668   0.011   4.873   2.378
 9590SOL    HW129669   0.016   4.935   2.299
 9590SOL    HW229670   0.096   4.822   2.386
 9591SOL     OW29671   2.677   5.890   0.433
 9591SOL    HW129672   2.617   5.964   0.463
 9591SOL    HW229673   2.771   5.908   0.461
 9592SOL     OW29674   3.782   4.624   1.648
 9592SOL    HW129675   3.852   4.566   1.689
 9592SOL    HW229676   3.694   4.605   1.690
 9593SOL     OW29677   6.353   1.087   4.916
 9593SOL    HW129678   6.347   1.175   4.963
 9593SOL    HW229679   6.271   1.033   4.933
 9594SOL     OW29680   1.398   5.779   3.594
 9594SOL    HW129681   1.399   5.680   3.581
 9594SOL    HW229682   1.374   5.801   3.688
 9595SOL     OW29683   2.023   4.483   4.663
 9595SOL    HW129684   2.119   4.462   4.643
 9595SOL    HW229685   1.968   4.400   4.650
 9596SOL     OW29686   6.927   5.790   0.292
 9596SOL    HW129687   6.847   5.752   0.244
 9596SOL    HW229688   6.995   5.717   0.306
 9597SOL     OW29689   0.179   4.516   0.566
 9597SOL    HW129690   0.249   4.582   0.537
 9597SOL    HW229691   0.196   4.429   0.520
 9598SOL     OW29692   0.442   3.907   5.060
 9598SOL    HW129693   0.365   3.932   5.118
 9598SOL    HW229694   0.410   3.854   4.981
 9599SOL     OW29695   3.077   0.766   5.460
 9599SOL    HW129696   3.172   0.770   5.430
 9599SOL    HW229697   3.067   0.695   5.529
 9600SOL     OW29698   1.890   6.740   6.799
 9600SOL    HW129699   1.807   6.792   6.784
 9600SOL    HW229700   1.950   6.747   6.719
 9601SOL     OW29701   6.203   4.418   0.175
 9601SOL    HW129702   6.117   4.403   0.126
 9601SOL    HW229703   6.221   4.341   0.236
 9602SOL     OW29704   6.171   5.237   6.593
 9602SOL    HW129705   6.136   5.153   6.636
 9602SOL    HW229706   6.267   5.225   6.570
 9603SOL     OW29707   3.146   0.345   4.929
 9603SOL    HW129708   3.139   0.248   4.953
 9603SOL    HW229709   3.241   0.365   4.902
 9604SOL     OW29710   5.084   0.127   0.674
 9604SOL    HW129711   5.067   0.036   0.635
 9604SOL    HW229712   5.165   0.166   0.630
 9605SOL     OW29713   0.655   5.155   5.261
 9605SOL    HW129714   0.595   5.086   5.221
 9605SOL    HW229715   0.725   5.110   5.317
 9606SOL     OW29716   1.327   6.266   5.072
 9606SOL    HW129717   1.302   6.255   4.976
 9606SOL    HW229718   1.303   6.184   5.123
 9607SOL     OW29719   0.972   2.117   2.248
 9607SOL    HW129720   0.991   2.035   2.195
 9607SOL    HW229721   1.057   2.168   2.263
 9608SOL     OW29722   6.491   6.449   2.522
 9608SOL    HW129723   6.449   6.371   2.475
 9608SOL    HW229724   6.588   6.454   2.499
 9609SOL     OW29725   1.443   3.565   5.305
 9609SOL    HW129726   1.413   3.548   5.211
 9609SOL    HW229727   1.509   3.640   5.306
 9610SOL     OW29728   1.410   3.898   4.541
 9610SOL    HW129729   1.389   3.928   4.634
 9610SOL    HW229730   1.327   3.898   4.487
 9611SOL     OW29731   0.071   6.476   0.634
 9611SOL    HW129732   0.110   6.568   0.629
 9611SOL    HW229733   7.026   6.473   0.703
 9612SOL     OW29734   6.143   3.273   1.711
 9612SOL    HW129735   6.116   3.369   1.709
 9612SOL    HW229736   6.071   3.217   1.670
 9613SOL     OW29737   4.103   6.023   3.603
 9613SOL    HW129738   4.025   5.987   3.553
 9613SOL    HW229739   4.082   6.115   3.637
 9614SOL     OW29740   3.691   3.196   1.361
 9614SOL    HW129741   3.612   3.223   1.415
 9614SOL    HW229742   3.670   3.208   1.264
 9615SOL     OW29743   1.009   6.878   2.598
 9615SOL    HW129744   0.977   6.785   2.576
 9615SOL    HW229745   0.984   6.940   2.524
 9616SOL     OW29746   4.123   4.147   0.492
 9616SOL    HW129747   4.182   4.223   0.465
 9616SOL    HW229748   4.139   4.069   0.431
 9617SOL     OW29749   0.718   3.581   4.282
 9617SOL    HW129750   0.770   3.654   4.238
 9617SOL    HW229751   0.673   3.525   4.212
 9618SOL     OW29752   4.749   6.786   5.997
 9618SOL    HW129753   4.680   6.807   5.929
 9618SOL    HW229754   4.739   6.849   6.075
 9619SOL     OW29755   1.259   0.480   0.545
 9619SOL    HW129756   1.251   0.517   0.452
 9619SOL    HW229757   1.356   0.477   0.571
 9620SOL     OW29758   5.285   1.692   6.532
 9620SOL    HW129759   5.370   1.744   6.542
 9620SOL    HW229760   5.218   1.747   6.481
 9621SOL     OW29761   1.669   1.258   2.724
 9621SOL    HW129762   1.651   1.328   2.655
 9621SOL    HW229763   1.655   1.168   2.685
 9622SOL     OW29764   5.730   1.243   6.687
 9622SOL    HW129765   5.735   1.272   6.783
 9622SOL    HW229766   5.741   1.143   6.682
 9623SOL     OW29767   4.438   5.274   5.685
 9623SOL    HW129768   4.441   5.309   5.779
 9623SOL    HW229769   4.523   5.225   5.665
 9624SOL     OW29770   5.204   4.739   4.257
 9624SOL    HW129771   5.205   4.641   4.243
 9624SOL    HW229772   5.298   4.773   4.267
 9625SOL     OW29773   5.279   4.384   7.018
 9625SOL    HW129774   5.377   4.364   7.010
 9625SOL    HW229775   5.267   4.471   0.040
 9626SOL     OW29776   2.367   5.919   5.566
 9626SOL    HW129777   2.435   5.857   5.606
 9626SOL    HW229778   2.381   6.012   5.602
 9627SOL     OW29779   6.860   3.915   5.015
 9627SOL    HW129780   6.841   3.860   5.097
 9627SOL    HW229781   6.945   3.884   4.973
 9628SOL     OW29782   6.206   4.160   0.749
 9628SOL    HW129783   6.280   4.200   0.694
 9628SOL    HW229784   6.197   4.211   0.834
 9629SOL     OW29785   6.747   5.822   2.823
 9629SOL    HW129786   6.790   5.899   2.870
 9629SOL    HW229787   6.770   5.737   2.870
 9630SOL     OW29788   6.237   6.252   5.556
 9630SOL    HW129789   6.187   6.190   5.495
 9630SOL    HW229790   6.262   6.202   5.639
 9631SOL     OW29791   4.627   2.295   0.695
 9631SOL    HW129792   4.706   2.274   0.753
 9631SOL    HW229793   4.654   2.358   0.623
 9632SOL     OW29794   2.449   5.282   1.851
 9632SOL    HW129795   2.511   5.228   1.909
 9632SOL    HW229796   2.461   5.379   1.872
 9633SOL     OW29797   3.763   4.346   0.606
 9633SOL    HW129798   3.802   4.261   0.642
 9633SOL    HW229799   3.803   4.366   0.517
 9634SOL     OW29800   0.499   5.567   3.446
 9634SOL    HW129801   0.412   5.520   3.435
 9634SOL    HW229802   0.519   5.621   3.364
 9635SOL     OW29803   1.819   4.160   5.398
 9635SOL    HW129804   1.868   4.105   5.331
 9635SOL    HW229805   1.829   4.257   5.376
 9636SOL     OW29806   4.177   2.059   5.976
 9636SOL    HW129807   4.183   2.080   6.073
 9636SOL    HW229808   4.269   2.058   5.936
 9637SOL     OW29809   4.036   2.612   1.378
 9637SOL    HW129810   3.969   2.538   1.387
 9637SOL    HW229811   4.070   2.615   1.284
 9638SOL     OW29812   6.858   3.272   6.257
 9638SOL    HW129813   6.930   3.280   6.188
 9638SOL    HW229814   6.769   3.271   6.213
 9639SOL     OW29815   4.139   2.129   1.930
 9639SOL    HW129816   4.160   2.135   2.028
 9639SOL    HW229817   4.040   2.121   1.919
 9640SOL     OW29818   3.303   0.613   2.635
 9640SOL    HW129819   3.239   0.553   2.684
 9640SOL    HW229820   3.285   0.606   2.537
 9641SOL     OW29821   5.837   5.573   1.778
 9641SOL    HW129822   5.925   5.543   1.813
 9641SOL    HW229823   5.771   5.498   1.787
 9642SOL     OW29824   1.350   6.089   4.593
 9642SOL    HW129825   1.425   6.039   4.550
 9642SOL    HW229826   1.312   6.155   4.529
 9643SOL     OW29827   4.870   4.004   3.656
 9643SOL    HW129828   4.828   3.985   3.567
 9643SOL    HW229829   4.853   3.928   3.718
 9644SOL     OW29830   0.993   5.872   5.426
 9644SOL    HW129831   1.041   5.852   5.512
 9644SOL    HW229832   1.029   5.813   5.354
 9645SOL     OW29833   2.863   4.908   4.135
 9645SOL    HW129834   2.941   4.970   4.127
 9645SOL    HW229835   2.883   4.840   4.206
 9646SOL     OW29836   2.488   5.029   1.965
 9646SOL    HW129837   2.427   4.980   1.903
 9646SOL    HW229838   2.574   4.980   1.974
 9647SOL     OW29839   0.031   6.733   3.351
 9647SOL    HW129840   7.014   6.810   3.397
 9647SOL    HW229841   0.052   6.662   3.419
 9648SOL     OW29842   4.243   2.707   6.907
 9648SOL    HW129843   4.319   2.646   6.931
 9648SOL    HW229844   4.164   2.686   6.965
 9649SOL     OW29845   2.033   4.256   7.006
 9649SOL    HW129846   2.078   4.186   6.950
 9649SOL    HW229847   2.099   4.327   0.004
 9650SOL     OW29848   5.010   4.422   2.783
 9650SOL    HW129849   5.092   4.480   2.785
 9650SOL    HW229850   4.969   4.419   2.874
 9651SOL     OW29851   5.663   1.569   1.127
 9651SOL    HW129852   5.665   1.643   1.194
 9651SOL    HW229853   5.721   1.493   1.158
 9652SOL     OW29854   0.634   4.694   1.563
 9652SOL    HW129855   0.590   4.609   1.531
 9652SOL    HW229856   0.657   4.751   1.484
 9653SOL     OW29857   4.416   5.061   4.580
 9653SOL    HW129858   4.390   4.966   4.563
 9653SOL    HW229859   4.343   5.107   4.630
 9654SOL     OW29860   2.886   3.476   2.964
 9654SOL    HW129861   2.903   3.573   2.980
 9654SOL    HW229862   2.930   3.422   3.035
 9655SOL     OW29863   0.182   2.147   0.305
 9655SOL    HW129864   0.234   2.086   0.364
 9655SOL    HW229865   0.186   2.114   0.210
 9656SOL     OW29866   4.363   3.042   1.231
 9656SOL    HW129867   4.321   2.958   1.196
 9656SOL    HW229868   4.301   3.086   1.296
 9657SOL     OW29869   5.501   3.131   2.653
 9657SOL    HW129870   5.596   3.111   2.676
 9657SOL    HW229871   5.474   3.219   2.694
 9658SOL     OW29872   5.660   1.257   2.473
 9658SOL    HW129873   5.610   1.185   2.521
 9658SOL    HW229874   5.688   1.223   2.383
 9659SOL     OW29875   0.768   3.467   0.001
 9659SOL    HW129876   0.787   3.392   0.064
 9659SOL    HW229877   0.682   3.511   0.026
 9660SOL     OW29878   0.742   6.918   3.222
 9660SOL    HW129879   0.839   6.940   3.216
 9660SOL    HW229880   0.690   6.980   3.164
 9661SOL     OW29881   3.464   6.532   1.662
 9661SOL    HW129882   3.396   6.471   1.702
 9661SOL    HW229883   3.423   6.623   1.649
 9662SOL     OW29884   4.310   3.207   5.943
 9662SOL    HW129885   4.283   3.176   5.852
 9662SOL    HW229886   4.329   3.305   5.941
 9663SOL     OW29887   0.314   5.845   2.743
 9663SOL    HW129888   0.218   5.873   2.746
 9663SOL    HW229889   0.349   5.855   2.650
 9664SOL     OW29890   5.786   5.367   4.023
 9664SOL    HW129891   5.774   5.453   3.973
 9664SOL    HW229892   5.870   5.322   3.992
 9665SOL     OW29893   6.272   6.598   6.346
 9665SOL    HW129894   6.305   6.679   6.394
 9665SOL    HW229895   6.343   6.528   6.344
 9666SOL     OW29896   6.330   3.894   2.072
 9666SOL    HW129897   6.331   3.795   2.066
 9666SOL    HW229898   6.418   3.930   2.041
 9667SOL     OW29899   4.058   3.929   0.125
 9667SOL    HW129900   4.039   4.007   0.184
 9667SOL    HW229901   3.974   3.877   0.111
 9668SOL     OW29902   0.685   0.441   6.370
 9668SOL    HW129903   0.662   0.368   6.434
 9668SOL    HW229904   0.637   0.425   6.283
 9669SOL     OW29905   2.060   0.007   2.179
 9669SOL    HW129906   1.984   0.040   2.122
 9669SOL    HW229907   2.031   6.950   2.227
 9670SOL     OW29908   7.002   4.813   6.113
 9670SOL    HW129909   0.050   4.830   6.048
 9670SOL    HW229910   6.915   4.832   6.069
 9671SOL     OW29911   0.055   4.638   0.767
 9671SOL    HW129912   0.099   4.590   0.691
 9671SOL    HW229913   0.047   4.735   0.744
 9672SOL     OW29914   2.170   5.403   3.405
 9672SOL    HW129915   2.188   5.488   3.356
 9672SOL    HW229916   2.219   5.328   3.361
 9673SOL     OW29917   3.963   4.022   1.172
 9673SOL    HW129918   3.913   3.958   1.114
 9673SOL    HW229919   3.902   4.058   1.243
 9674SOL     OW29920   3.544   6.819   3.430
 9674SOL    HW129921   3.613   6.865   3.374
 9674SOL    HW229922   3.494   6.886   3.485
 9675SOL     OW29923   5.644   2.561   6.256
 9675SOL    HW129924   5.574   2.632   6.264
 9675SOL    HW229925   5.661   2.541   6.160
 9676SOL     OW29926   0.897   2.863   5.793
 9676SOL    HW129927   0.892   2.949   5.743
 9676SOL    HW229928   0.983   2.859   5.845
 9677SOL     OW29929   6.027   5.305   4.995
 9677SOL    HW129930   5.945   5.362   5.002
 9677SOL    HW229931   6.000   5.209   4.993
 9678SOL     OW29932   2.882   3.775   4.032
 9678SOL    HW129933   2.786   3.773   4.058
 9678SOL    HW229934   2.923   3.861   4.064
 9679SOL     OW29935   2.894   0.201   3.120
 9679SOL    HW129936   2.842   0.271   3.169
 9679SOL    HW229937   2.866   0.200   3.024
 9680SOL     OW29938   3.844   0.479   3.781
 9680SOL    HW129939   3.940   0.483   3.810
 9680SOL    HW229940   3.799   0.565   3.804
 9681SOL     OW29941   2.567   2.133   0.800
 9681SOL    HW129942   2.564   2.033   0.795
 9681SOL    HW229943   2.518   2.163   0.881
 9682SOL     OW29944   4.952   4.349   3.597
 9682SOL    HW129945   4.922   4.442   3.575
 9682SOL    HW229946   4.910   4.320   3.683
 9683SOL     OW29947   3.343   6.762   1.612
 9683SOL    HW129948   3.246   6.743   1.594
 9683SOL    HW229949   3.350   6.844   1.669
 9684SOL     OW29950   0.870   3.210   6.025
 9684SOL    HW129951   0.838   3.299   6.055
 9684SOL    HW229952   0.957   3.189   6.069
 9685SOL     OW29953   4.933   4.408   0.929
 9685SOL    HW129954   4.866   4.356   0.982
 9685SOL    HW229955   4.926   4.384   0.832
 9686SOL     OW29956   0.698   3.446   6.136
 9686SOL    HW129957   0.605   3.423   6.108
 9686SOL    HW229958   0.723   3.391   6.216
 9687SOL     OW29959   0.981   0.498   3.670
 9687SOL    HW129960   1.065   0.512   3.723
 9687SOL    HW229961   0.909   0.467   3.731
 9688SOL     OW29962   1.275   2.861   1.216
 9688SOL    HW129963   1.355   2.906   1.177
 9688SOL    HW229964   1.263   2.891   1.311
 9689SOL     OW29965   0.756   4.658   6.282
 9689SOL    HW129966   0.728   4.702   6.367
 9689SOL    HW229967   0.676   4.639   6.225
 9690SOL     OW29968   6.181   6.056   6.648
 9690SOL    HW129969   6.126   5.973   6.651
 9690SOL    HW229970   6.177   6.102   6.736
 9691SOL     OW29971   3.428   4.593   0.758
 9691SOL    HW129972   3.451   4.603   0.855
 9691SOL    HW229973   3.401   4.499   0.741
 9692SOL     OW29974   4.007   6.212   1.666
 9692SOL    HW129975   3.991   6.114   1.679
 9692SOL    HW229976   4.061   6.248   1.742
 9693SOL     OW29977   5.906   3.906   2.644
 9693SOL    HW129978   5.956   3.820   2.634
 9693SOL    HW229979   5.913   3.959   2.560
 9694SOL     OW29980   3.190   1.258   1.481
 9694SOL    HW129981   3.163   1.209   1.397
 9694SOL    HW229982   3.286   1.241   1.500
 9695SOL     OW29983   0.148   2.575   3.155
 9695SOL    HW129984   0.127   2.622   3.240
 9695SOL    HW229985   0.121   2.479   3.162
 9696SOL     OW29986   5.474   2.483   1.364
 9696SOL    HW129987   5.475   2.549   1.439
 9696SOL    HW229988   5.414   2.517   1.291
 9697SOL     OW29989   0.162   5.158   6.934
 9697SOL    HW129990   0.138   5.201   7.021
 9697SOL    HW229991   0.164   5.228   6.862
 9698SOL     OW29992   5.733   2.150   6.077
 9698SOL    HW129993   5.791   2.222   6.039
 9698SOL    HW229994   5.646   2.189   6.107
 9699SOL     OW29995   6.246   6.393   6.587
 9699SOL    HW129996   6.164   6.397   6.643
 9699SOL    HW229997   6.221   6.391   6.490
 9700SOL     OW29998   5.249   5.905   4.975
 9700SOL    HW129999   5.269   5.816   4.935
 9700SOL    HW230000   5.224   5.970   4.903
 9701SOL     OW30001   4.400   5.170   5.187
 9701SOL    HW130002   4.399   5.260   5.145
 9701SOL    HW230003   4.456   5.172   5.270
 9702SOL     OW30004   4.148   1.797   6.720
 9702SOL    HW130005   4.220   1.742   6.763
 9702SOL    HW230006   4.102   1.851   6.791
 9703SOL     OW30007   4.956   3.806   3.834
 9703SOL    HW130008   4.910   3.785   3.921
 9703SOL    HW230009   5.042   3.853   3.853
 9704SOL     OW30010   3.353   6.906   1.360
 9704SOL    HW130011   3.319   6.820   1.398
 9704SOL    HW230012   3.294   6.935   1.284
 9705SOL     OW30013   5.787   3.928   6.234
 9705SOL    HW130014   5.709   3.927   6.171
 9705SOL    HW230015   5.783   3.850   6.296
 9706SOL     OW30016   1.865   2.945   0.726
 9706SOL    HW130017   1.776   2.955   0.682
 9706SOL    HW230018   1.895   3.034   0.760
 9707SOL     OW30019   6.173   4.539   2.398
 9707SOL    HW130020   6.133   4.533   2.489
 9707SOL    HW230021   6.273   4.535   2.404
 9708SOL     OW30022   1.317   1.721   3.628
 9708SOL    HW130023   1.292   1.812   3.662
 9708SOL    HW230024   1.411   1.700   3.654
 9709SOL     OW30025   5.237   6.482   2.858
 9709SOL    HW130026   5.177   6.416   2.903
 9709SOL    HW230027   5.328   6.443   2.846
 9710SOL     OW30028   6.876   1.869   1.745
 9710SOL    HW130029   6.851   1.858   1.649
 9710SOL    HW230030   6.914   1.782   1.780
 9711SOL     OW30031   3.586   5.180   5.742
 9711SOL    HW130032   3.506   5.219   5.696
 9711SOL    HW230033   3.575   5.189   5.841
 9712SOL     OW30034   5.396   3.741   6.664
 9712SOL    HW130035   5.495   3.758   6.669
 9712SOL    HW230036   5.351   3.819   6.621
 9713SOL     OW30037   1.922   4.051   3.339
 9713SOL    HW130038   1.894   3.955   3.329
 9713SOL    HW230039   1.842   4.108   3.357
 9714SOL     OW30040   4.382   6.585   6.726
 9714SOL    HW130041   4.384   6.490   6.697
 9714SOL    HW230042   4.376   6.590   6.825
 9715SOL     OW30043   5.787   4.063   0.461
 9715SOL    HW130044   5.823   3.998   0.395
 9715SOL    HW230045   5.859   4.128   0.487
 9716SOL     OW30046   3.590   4.471   6.622
 9716SOL    HW130047   3.552   4.382   6.593
 9716SOL    HW230048   3.532   4.510   6.693
 9717SOL     OW30049   5.055   6.795   6.010
 9717SOL    HW130050   4.956   6.793   6.021
 9717SOL    HW230051   5.099   6.787   6.099
 9718SOL     OW30052   5.529   3.289   0.308
 9718SOL    HW130053   5.437   3.264   0.338
 9718SOL    HW230054   5.544   3.386   0.326
 9719SOL     OW30055   6.347   0.348   5.748
 9719SOL    HW130056   6.350   0.382   5.842
 9719SOL    HW230057   6.270   0.284   5.738
 9720SOL     OW30058   0.779   4.851   2.318
 9720SOL    HW130059   0.845   4.795   2.369
 9720SOL    HW230060   0.690   4.846   2.364
 9721SOL     OW30061   0.290   2.023   0.820
 9721SOL    HW130062   0.283   2.003   0.918
 9721SOL    HW230063   0.378   2.067   0.801
 9722SOL     OW30064   4.421   1.365   4.394
 9722SOL    HW130065   4.399   1.268   4.381
 9722SOL    HW230066   4.404   1.391   4.489
 9723SOL     OW30067   3.192   6.834   3.298
 9723SOL    HW130068   3.128   6.904   3.264
 9723SOL    HW230069   3.270   6.827   3.235
 9724SOL     OW30070   1.487   4.928   6.709
 9724SOL    HW130071   1.452   5.012   6.750
 9724SOL    HW230072   1.410   4.867   6.688
 9725SOL     OW30073   5.128   5.924   5.903
 9725SOL    HW130074   5.055   5.963   5.847
 9725SOL    HW230075   5.209   5.984   5.899
 9726SOL     OW30076   4.771   1.667   4.198
 9726SOL    HW130077   4.824   1.743   4.159
 9726SOL    HW230078   4.719   1.701   4.277
 9727SOL     OW30079   1.295   2.190   0.358
 9727SOL    HW130080   1.362   2.128   0.318
 9727SOL    HW230081   1.281   2.268   0.297
 9728SOL     OW30082   0.982   0.131   5.806
 9728SOL    HW130083   0.890   0.118   5.770
 9728SOL    HW230084   1.038   0.051   5.786
 9729SOL     OW30085   1.468   4.475   3.160
 9729SOL    HW130086   1.566   4.477   3.179
 9729SOL    HW230087   1.452   4.451   3.064
 9730SOL     OW30088   2.009   4.268   3.513
 9730SOL    HW130089   2.096   4.236   3.549
 9730SOL    HW230090   1.956   4.190   3.479
 9731SOL     OW30091   5.448   4.706   0.991
 9731SOL    HW130092   5.525   4.651   0.957
 9731SOL    HW230093   5.409   4.663   1.072
 9732SOL     OW30094   0.189   5.393   2.731
 9732SOL    HW130095   0.118   5.459   2.757
 9732SOL    HW230096   0.170   5.359   2.639
 9733SOL     OW30097   4.955   5.087   0.360
 9733SOL    HW130098   4.913   5.163   0.311
 9733SOL    HW230099   5.035   5.119   0.411
 9734SOL     OW30100   6.477   1.665   0.805
 9734SOL    HW130101   6.575   1.650   0.816
 9734SOL    HW230102   6.461   1.725   0.726
 9735SOL     OW30103   2.126   3.617   3.406
 9735SOL    HW130104   2.098   3.653   3.318
 9735SOL    HW230105   2.217   3.576   3.398
 9736SOL     OW30106   6.161   1.667   6.069
 9736SOL    HW130107   6.233   1.608   6.032
 9736SOL    HW230108   6.182   1.762   6.049
 9737SOL     OW30109   5.462   2.646   3.247
 9737SOL    HW130110   5.433   2.580   3.178
 9737SOL    HW230111   5.395   2.649   3.321
 9738SOL     OW30112   2.595   6.932   0.605
 9738SOL    HW130113   2.497   6.952   0.614
 9738SOL    HW230114   2.618   6.853   0.661
 9739SOL     OW30115   5.366   5.590   1.305
 9739SOL    HW130116   5.423   5.671   1.290
 9739SOL    HW230117   5.345   5.548   1.216
 9740SOL     OW30118   0.007   0.951   3.529
 9740SOL    HW130119   0.085   0.953   3.467
 9740SOL    HW230120   6.951   0.980   3.480
 9741SOL     OW30121   3.709   2.119   2.523
 9741SOL    HW130122   3.716   2.075   2.434
 9741SOL    HW230123   3.775   2.078   2.586
 9742SOL     OW30124   4.496   1.381   0.337
 9742SOL    HW130125   4.522   1.423   0.251
 9742SOL    HW230126   4.559   1.409   0.409
 9743SOL     OW30127   6.739   2.988   4.315
 9743SOL    HW130128   6.728   2.898   4.357
 9743SOL    HW230129   6.669   2.999   4.244
 9744SOL     OW30130   1.406   6.907   2.140
 9744SOL    HW130131   1.346   6.918   2.061
 9744SOL    HW230132   1.357   6.932   2.223
 9745SOL     OW30133   5.447   2.375   6.365
 9745SOL    HW130134   5.495   2.449   6.318
 9745SOL    HW230135   5.359   2.359   6.320
 9746SOL     OW30136   6.436   0.248   5.467
 9746SOL    HW130137   6.354   0.304   5.474
 9746SOL    HW230138   6.425   0.165   5.522
 9747SOL     OW30139   2.761   1.758   1.726
 9747SOL    HW130140   2.790   1.826   1.660
 9747SOL    HW230141   2.747   1.801   1.815
 9748SOL     OW30142   7.016   0.190   3.455
 9748SOL    HW130143   6.962   0.114   3.420
 9748SOL    HW230144   6.959   0.249   3.511
 9749SOL     OW30145   2.231   0.133   4.278
 9749SOL    HW130146   2.266   0.211   4.226
 9749SOL    HW230147   2.271   0.134   4.370
 9750SOL     OW30148   6.097   3.892   3.813
 9750SOL    HW130149   6.010   3.895   3.763
 9750SOL    HW230150   6.093   3.952   3.893
 9751SOL     OW30151   2.357   0.704   0.350
 9751SOL    HW130152   2.308   0.622   0.322
 9751SOL    HW230153   2.417   0.682   0.427
 9752SOL     OW30154   4.066   2.135   4.913
 9752SOL    HW130155   4.127   2.213   4.926
 9752SOL    HW230156   3.981   2.165   4.870
 9753SOL     OW30157   0.212   5.442   6.108
 9753SOL    HW130158   0.246   5.514   6.048
 9753SOL    HW230159   0.286   5.409   6.167
 9754SOL     OW30160   2.023   0.533   0.330
 9754SOL    HW130161   1.930   0.502   0.309
 9754SOL    HW230162   2.045   0.615   0.277
 9755SOL     OW30163   3.785   3.769   4.371
 9755SOL    HW130164   3.843   3.733   4.445
 9755SOL    HW230165   3.832   3.847   4.328
 9756SOL     OW30166   5.875   2.931   6.621
 9756SOL    HW130167   5.973   2.947   6.611
 9756SOL    HW230168   5.833   2.923   6.531
 9757SOL     OW30169   6.145   4.484   4.084
 9757SOL    HW130170   6.122   4.428   4.004
 9757SOL    HW230171   6.060   4.515   4.127
 9758SOL     OW30172   3.164   0.273   6.189
 9758SOL    HW130173   3.181   0.343   6.119
 9758SOL    HW230174   3.125   0.192   6.145
 9759SOL     OW30175   1.336   0.650   6.954
 9759SOL    HW130176   1.405   0.623   6.887
 9759SOL    HW230177   1.379   0.665   0.016
 9760SOL     OW30178   5.259   3.025   5.786
 9760SOL    HW130179   5.197   2.956   5.824
 9760SOL    HW230180   5.270   3.011   5.688
 9761SOL     OW30181   0.369   1.448   2.664
 9761SOL    HW130182   0.325   1.520   2.717
 9761SOL    HW230183   0.307   1.370   2.655
 9762SOL     OW30184   3.046   1.964   4.850
 9762SOL    HW130185   3.089   2.022   4.918
 9762SOL    HW230186   2.996   2.021   4.784
 9763SOL     OW30187   4.631   1.926   2.476
 9763SOL    HW130188   4.651   1.859   2.404
 9763SOL    HW230189   4.576   1.882   2.548
 9764SOL     OW30190   0.152   2.940   3.075
 9764SOL    HW130191   0.157   2.847   3.039
 9764SOL    HW230192   0.244   2.975   3.092
 9765SOL     OW30193   6.657   6.712   3.373
 9765SOL    HW130194   6.566   6.713   3.333
 9765SOL    HW230195   6.724   6.745   3.306
 9766SOL     OW30196   3.046   0.427   2.135
 9766SOL    HW130197   3.075   0.349   2.079
 9766SOL    HW230198   2.979   0.481   2.084
 9767SOL     OW30199   4.125   1.183   5.519
 9767SOL    HW130200   4.077   1.259   5.562
 9767SOL    HW230201   4.160   1.122   5.589
 9768SOL     OW30202   5.648   1.136   1.799
 9768SOL    HW130203   5.590   1.080   1.858
 9768SOL    HW230204   5.737   1.091   1.787
 9769SOL     OW30205   4.200   0.982   4.018
 9769SOL    HW130206   4.181   1.037   3.936
 9769SOL    HW230207   4.214   1.043   4.096
 9770SOL     OW30208   4.154   1.594   5.945
 9770SOL    HW130209   4.235   1.570   5.891
 9770SOL    HW230210   4.182   1.642   6.028
 9771SOL     OW30211   2.839   6.300   0.589
 9771SOL    HW130212   2.916   6.258   0.639
 9771SOL    HW230213   2.798   6.371   0.646
 9772SOL     OW30214   1.851   6.230   1.465
 9772SOL    HW130215   1.935   6.206   1.515
 9772SOL    HW230216   1.777   6.244   1.531
 9773SOL     OW30217   4.988   5.535   3.881
 9773SOL    HW130218   5.084   5.559   3.898
 9773SOL    HW230219   4.974   5.437   3.896
 9774SOL     OW30220   0.156   5.459   1.831
 9774SOL    HW130221   0.122   5.478   1.924
 9774SOL    HW230222   0.112   5.522   1.767
 9775SOL     OW30223   2.890   0.744   3.128
 9775SOL    HW130224   2.879   0.673   3.059
 9775SOL    HW230225   2.887   0.834   3.085
 9776SOL     OW30226   1.131   4.849   5.045
 9776SOL    HW130227   1.149   4.869   5.141
 9776SOL    HW230228   1.218   4.840   4.996
 9777SOL     OW30229   6.398   5.932   6.986
 9777SOL    HW130230   6.318   5.882   6.954
 9777SOL    HW230231   6.435   5.987   6.911
 9778SOL     OW30232   0.443   0.818   4.335
 9778SOL    HW130233   0.464   0.856   4.426
 9778SOL    HW230234   0.417   0.722   4.345
 9779SOL     OW30235   1.110   1.506   4.373
 9779SOL    HW130236   1.156   1.586   4.335
 9779SOL    HW230237   1.021   1.494   4.328
 9780SOL     OW30238   2.082   2.794   0.832
 9780SOL    HW130239   2.008   2.850   0.795
 9780SOL    HW230240   2.084   2.803   0.932
 9781SOL     OW30241   2.262   3.071   4.343
 9781SOL    HW130242   2.244   2.976   4.368
 9781SOL    HW230243   2.286   3.123   4.425
 9782SOL     OW30244   0.272   0.623   1.173
 9782SOL    HW130245   0.292   0.577   1.087
 9782SOL    HW230246   0.187   0.675   1.164
 9783SOL     OW30247   4.105   1.976   3.081
 9783SOL    HW130248   4.023   2.025   3.053
 9783SOL    HW230249   4.152   1.940   3.000
 9784SOL     OW30250   3.015   1.772   5.521
 9784SOL    HW130251   3.049   1.864   5.504
 9784SOL    HW230252   2.918   1.777   5.546
 9785SOL     OW30253   1.287   2.579   6.608
 9785SOL    HW130254   1.354   2.522   6.655
 9785SOL    HW230255   1.265   2.539   6.519
 9786SOL     OW30256   2.461   3.809   0.147
 9786SOL    HW130257   2.373   3.854   0.158
 9786SOL    HW230258   2.447   3.712   0.130
 9787SOL     OW30259   3.604   3.675   2.317
 9787SOL    HW130260   3.520   3.726   2.299
 9787SOL    HW230261   3.601   3.638   2.410
 9788SOL     OW30262   1.104   0.604   3.445
 9788SOL    HW130263   1.200   0.617   3.471
 9788SOL    HW230264   1.057   0.552   3.517
 9789SOL     OW30265   1.923   5.879   0.572
 9789SOL    HW130266   1.882   5.862   0.482
 9789SOL    HW230267   2.014   5.836   0.576
 9790SOL     OW30268   6.800   4.590   6.577
 9790SOL    HW130269   6.790   4.675   6.526
 9790SOL    HW230270   6.737   4.590   6.655
 9791SOL     OW30271   0.104   0.833   0.974
 9791SOL    HW130272   0.173   0.905   0.985
 9791SOL    HW230273   0.058   0.817   1.061
 9792SOL     OW30274   4.132   4.561   0.327
 9792SOL    HW130275   4.172   4.470   0.335
 9792SOL    HW230276   4.154   4.600   0.238
 9793SOL     OW30277   4.446   6.676   2.847
 9793SOL    HW130278   4.401   6.761   2.871
 9793SOL    HW230279   4.381   6.600   2.854
 9794SOL     OW30280   0.371   4.153   0.092
 9794SOL    HW130281   0.434   4.090   0.046
 9794SOL    HW230282   0.423   4.216   0.149
 9795SOL     OW30283   2.156   1.894   4.451
 9795SOL    HW130284   2.224   1.821   4.452
 9795SOL    HW230285   2.073   1.861   4.406
 9796SOL     OW30286   3.447   2.889   2.363
 9796SOL    HW130287   3.472   2.859   2.271
 9796SOL    HW230288   3.347   2.891   2.371
 9797SOL     OW30289   1.977   5.426   0.022
 9797SOL    HW130290   1.992   5.432   6.950
 9797SOL    HW230291   2.029   5.498   0.068
 9798SOL     OW30292   2.571   0.176   2.228
 9798SOL    HW130293   2.503   0.103   2.241
 9798SOL    HW230294   2.593   0.183   2.131
 9799SOL     OW30295   2.901   3.343   5.025
 9799SOL    HW130296   2.952   3.258   5.013
 9799SOL    HW230297   2.870   3.377   4.936
 9800SOL     OW30298   3.896   5.357   4.831
 9800SOL    HW130299   3.800   5.371   4.807
 9800SOL    HW230300   3.913   5.259   4.841
 9801SOL     OW30301   4.452   4.425   0.156
 9801SOL    HW130302   4.551   4.419   0.150
 9801SOL    HW230303   4.411   4.407   0.067
 9802SOL     OW30304   6.913   3.989   1.747
 9802SOL    HW130305   6.857   3.913   1.715
 9802SOL    HW230306   6.955   4.035   1.669
 9803SOL     OW30307   1.441   2.435   6.766
 9803SOL    HW130308   1.382   2.492   6.822
 9803SOL    HW230309   1.429   2.339   6.791
 9804SOL     OW30310   1.502   5.766   3.300
 9804SOL    HW130311   1.460   5.750   3.390
 9804SOL    HW230312   1.596   5.731   3.300
 9805SOL     OW30313   1.440   6.582   4.364
 9805SOL    HW130314   1.484   6.576   4.274
 9805SOL    HW230315   1.438   6.677   4.394
 9806SOL     OW30316   1.139   1.136   6.500
 9806SOL    HW130317   1.200   1.133   6.578
 9806SOL    HW230318   1.050   1.172   6.528
 9807SOL     OW30319   3.012   4.475   6.946
 9807SOL    HW130320   3.007   4.486   0.019
 9807SOL    HW230321   3.101   4.437   6.921
 9808SOL     OW30322   3.834   0.470   5.491
 9808SOL    HW130323   3.814   0.373   5.474
 9808SOL    HW230324   3.768   0.506   5.557
 9809SOL     OW30325   1.688   2.974   6.406
 9809SOL    HW130326   1.614   3.001   6.468
 9809SOL    HW230327   1.732   3.056   6.368
 9810SOL     OW30328   1.984   2.816   3.636
 9810SOL    HW130329   2.076   2.851   3.656
 9810SOL    HW230330   1.945   2.868   3.560
 9811SOL     OW30331   5.530   4.514   3.259
 9811SOL    HW130332   5.443   4.563   3.245
 9811SOL    HW230333   5.511   4.417   3.274
 9812SOL     OW30334   3.709   2.644   5.940
 9812SOL    HW130335   3.736   2.549   5.925
 9812SOL    HW230336   3.620   2.646   5.987
 9813SOL     OW30337   5.795   1.529   0.740
 9813SOL    HW130338   5.802   1.430   0.751
 9813SOL    HW230339   5.751   1.550   0.652
 9814SOL     OW30340   7.003   0.269   0.468
 9814SOL    HW130341   0.072   0.258   0.497
 9814SOL    HW230342   7.000   0.281   0.368
 9815SOL     OW30343   5.362   4.356   3.938
 9815SOL    HW130344   5.338   4.366   4.035
 9815SOL    HW230345   5.349   4.443   3.891
 9816SOL     OW30346   0.695   1.161   6.442
 9816SOL    HW130347   0.639   1.133   6.364
 9816SOL    HW230348   0.748   1.083   6.475
 9817SOL     OW30349   2.933   7.010   3.437
 9817SOL    HW130350   2.927   0.067   3.491
 9817SOL    HW230351   2.989   0.001   3.355
 9818SOL     OW30352   1.430   0.487   4.407
 9818SOL    HW130353   1.400   0.579   4.383
 9818SOL    HW230354   1.353   0.435   4.444
 9819SOL     OW30355   4.906   3.162   3.959
 9819SOL    HW130356   4.922   3.259   3.941
 9819SOL    HW230357   4.863   3.152   4.049
 9820SOL     OW30358   4.145   3.428   6.573
 9820SOL    HW130359   4.230   3.395   6.532
 9820SOL    HW230360   4.147   3.412   6.671
 9821SOL     OW30361   5.199   0.787   6.677
 9821SOL    HW130362   5.193   0.841   6.594
 9821SOL    HW230363   5.291   0.751   6.687
 9822SOL     OW30364   2.910   6.071   3.553
 9822SOL    HW130365   2.928   6.077   3.455
 9822SOL    HW230366   2.812   6.079   3.570
 9823SOL     OW30367   2.573   1.292   6.465
 9823SOL    HW130368   2.492   1.278   6.408
 9823SOL    HW230369   2.617   1.203   6.483
 9824SOL     OW30370   1.962   4.855   4.468
 9824SOL    HW130371   1.922   4.781   4.415
 9824SOL    HW230372   2.008   4.818   4.549
 9825SOL     OW30373   5.222   5.718   4.777
 9825SOL    HW130374   5.240   5.631   4.730
 9825SOL    HW230375   5.129   5.748   4.756
 9826SOL     OW30376   4.681   5.132   5.679
 9826SOL    HW130377   4.748   5.090   5.617
 9826SOL    HW230378   4.648   5.062   5.742
 9827SOL     OW30379   2.075   3.758   3.659
 9827SOL    HW130380   2.121   3.744   3.572
 9827SOL    HW230381   2.056   3.855   3.672
 9828SOL     OW30382   2.298   2.364   5.604
 9828SOL    HW130383   2.280   2.453   5.563
 9828SOL    HW230384   2.356   2.376   5.685
 9829SOL     OW30385   4.116   5.424   6.024
 9829SOL    HW130386   4.102   5.477   6.108
 9829SOL    HW230387   4.213   5.427   5.999
 9830SOL     OW30388   5.366   2.038   2.350
 9830SOL    HW130389   5.266   2.036   2.347
 9830SOL    HW230390   5.399   2.125   2.311
 9831SOL     OW30391   1.931   5.348   1.623
 9831SOL    HW130392   1.864   5.396   1.680
 9831SOL    HW230393   2.008   5.319   1.680
 9832SOL     OW30394   5.090   5.885   2.095
 9832SOL    HW130395   5.101   5.978   2.059
 9832SOL    HW230396   5.018   5.886   2.165
 9833SOL     OW30397   3.048   3.653   4.888
 9833SOL    HW130398   3.003   3.578   4.840
 9833SOL    HW230399   3.056   3.629   4.985
 9834SOL     OW30400   2.417   4.245   5.270
 9834SOL    HW130401   2.515   4.257   5.283
 9834SOL    HW230402   2.399   4.156   5.229
 9835SOL     OW30403   3.999   3.360   5.204
 9835SOL    HW130404   4.041   3.287   5.257
 9835SOL    HW230405   3.970   3.325   5.115
 9836SOL     OW30406   6.641   3.839   3.437
 9836SOL    HW130407   6.639   3.939   3.442
 9836SOL    HW230408   6.713   3.804   3.497
 9837SOL     OW30409   3.706   0.266   2.456
 9837SOL    HW130410   3.697   0.236   2.361
 9837SOL    HW230411   3.695   0.365   2.461
 9838SOL     OW30412   1.774   6.861   0.563
 9838SOL    HW130413   1.868   6.881   0.588
 9838SOL    HW230414   1.771   6.819   0.472
 9839SOL     OW30415   5.232   7.015   3.733
 9839SOL    HW130416   5.196   0.018   3.821
 9839SOL    HW230417   5.186   6.931   3.704
 9840SOL     OW30418   5.563   1.999   0.867
 9840SOL    HW130419   5.614   1.973   0.785
 9840SOL    HW230420   5.494   1.929   0.887
 9841SOL     OW30421   1.508   4.882   4.636
 9841SOL    HW130422   1.586   4.944   4.624
 9841SOL    HW230423   1.426   4.926   4.600
 9842SOL     OW30424   3.107   3.338   1.928
 9842SOL    HW130425   3.015   3.299   1.921
 9842SOL    HW230426   3.150   3.305   2.013
 9843SOL     OW30427   6.621   0.502   1.646
 9843SOL    HW130428   6.707   0.451   1.652
 9843SOL    HW230429   6.568   0.488   1.730
 9844SOL     OW30430   6.352   0.713   2.773
 9844SOL    HW130431   6.304   0.746   2.854
 9844SOL    HW230432   6.308   0.630   2.739
 9845SOL     OW30433   2.386   2.791   3.254
 9845SOL    HW130434   2.434   2.703   3.255
 9845SOL    HW230435   2.376   2.825   3.348
 9846SOL     OW30436   3.540   2.824   2.113
 9846SOL    HW130437   3.611   2.894   2.103
 9846SOL    HW230438   3.583   2.736   2.132
 9847SOL     OW30439   3.553   2.843   3.519
 9847SOL    HW130440   3.570   2.869   3.614
 9847SOL    HW230441   3.509   2.753   3.517
 9848SOL     OW30442   4.349   3.128   5.306
 9848SOL    HW130443   4.347   3.227   5.316
 9848SOL    HW230444   4.255   3.093   5.305
 9849SOL     OW30445   0.655   6.749   6.475
 9849SOL    HW130446   0.719   6.704   6.536
 9849SOL    HW230447   0.682   6.845   6.463
 9850SOL     OW30448   6.182   6.894   4.123
 9850SOL    HW130449   6.160   6.804   4.160
 9850SOL    HW230450   6.268   6.890   4.071
 9851SOL     OW30451   6.940   0.555   4.795
 9851SOL    HW130452   6.969   0.459   4.801
 9851SOL    HW230453   6.931   0.592   4.887
 9852SOL     OW30454   3.280   1.409   3.879
 9852SOL    HW130455   3.291   1.452   3.969
 9852SOL    HW230456   3.211   1.337   3.884
 9853SOL     OW30457   5.074   4.101   4.600
 9853SOL    HW130458   4.999   4.038   4.617
 9853SOL    HW230459   5.131   4.108   4.682
 9854SOL     OW30460   6.495   5.853   4.867
 9854SOL    HW130461   6.406   5.866   4.824
 9854SOL    HW230462   6.566   5.853   4.797
 9855SOL     OW30463   2.071   3.844   1.188
 9855SOL    HW130464   2.033   3.765   1.139
 9855SOL    HW230465   2.032   3.848   1.280
 9856SOL     OW30466   4.805   4.187   4.457
 9856SOL    HW130467   4.721   4.241   4.448
 9856SOL    HW230468   4.801   4.135   4.543
 9857SOL     OW30469   4.960   2.661   2.665
 9857SOL    HW130470   4.961   2.761   2.665
 9857SOL    HW230471   4.873   2.628   2.703
 9858SOL     OW30472   6.961   0.537   1.802
 9858SOL    HW130473   0.018   0.593   1.806
 9858SOL    HW230474   6.947   0.505   1.708
 9859SOL     OW30475   6.129   6.151   3.036
 9859SOL    HW130476   6.096   6.184   2.947
 9859SOL    HW230477   6.058   6.095   3.079
 9860SOL     OW30478   1.821   2.391   3.631
 9860SOL    HW130479   1.898   2.374   3.569
 9860SOL    HW230480   1.813   2.490   3.647
 9861SOL     OW30481   3.105   0.604   3.226
 9861SOL    HW130482   3.037   0.663   3.183
 9861SOL    HW230483   3.178   0.660   3.265
 9862SOL     OW30484   3.528   3.042   6.808
 9862SOL    HW130485   3.511   3.065   6.712
 9862SOL    HW230486   3.625   3.023   6.821
 9863SOL     OW30487   3.952   6.836   2.506
 9863SOL    HW130488   4.038   6.825   2.556
 9863SOL    HW230489   3.965   6.903   2.433
 9864SOL     OW30490   3.905   6.504   3.832
 9864SOL    HW130491   3.881   6.451   3.913
 9864SOL    HW230492   3.965   6.579   3.858
 9865SOL     OW30493   1.710   6.803   4.800
 9865SOL    HW130494   1.716   6.896   4.763
 9865SOL    HW230495   1.790   6.750   4.771
 9866SOL     OW30496   4.867   4.635   6.233
 9866SOL    HW130497   4.910   4.575   6.301
 9866SOL    HW230498   4.889   4.730   6.255
 9867SOL     OW30499   6.695   1.707   1.166
 9867SOL    HW130500   6.648   1.660   1.240
 9867SOL    HW230501   6.737   1.641   1.105
 9868SOL     OW30502   0.788   3.391   5.080
 9868SOL    HW130503   0.731   3.309   5.070
 9868SOL    HW230504   0.862   3.373   5.145
 9869SOL     OW30505   0.611   2.477   1.745
 9869SOL    HW130506   0.538   2.536   1.710
 9869SOL    HW230507   0.588   2.382   1.726
 9870SOL     OW30508   3.866   5.829   2.341
 9870SOL    HW130509   3.800   5.889   2.296
 9870SOL    HW230510   3.819   5.750   2.380
 9871SOL     OW30511   6.602   5.141   6.150
 9871SOL    HW130512   6.629   5.237   6.154
 9871SOL    HW230513   6.539   5.126   6.074
 9872SOL     OW30514   2.662   5.207   4.969
 9872SOL    HW130515   2.673   5.163   5.058
 9872SOL    HW230516   2.574   5.254   4.965
 9873SOL     OW30517   2.353   2.552   0.532
 9873SOL    HW130518   2.323   2.460   0.507
 9873SOL    HW230519   2.274   2.607   0.558
 9874SOL     OW30520   5.262   3.699   5.088
 9874SOL    HW130521   5.315   3.719   5.171
 9874SOL    HW230522   5.298   3.618   5.043
 9875SOL     OW30523   6.009   5.810   1.598
 9875SOL    HW130524   6.054   5.725   1.570
 9875SOL    HW230525   5.922   5.818   1.550
 9876SOL     OW30526   5.674   1.153   4.028
 9876SOL    HW130527   5.653   1.153   4.125
 9876SOL    HW230528   5.651   1.064   3.988
 9877SOL     OW30529   6.296   4.921   4.309
 9877SOL    HW130530   6.209   4.871   4.315
 9877SOL    HW230531   6.371   4.860   4.334
 9878SOL     OW30532   3.132   4.254   5.859
 9878SOL    HW130533   3.161   4.325   5.923
 9878SOL    HW230534   3.170   4.166   5.887
 9879SOL     OW30535   5.018   6.091   5.170
 9879SOL    HW130536   5.025   5.992   5.182
 9879SOL    HW230537   5.035   6.115   5.074
 9880SOL     OW30538   3.794   0.882   0.053
 9880SOL    HW130539   3.852   0.802   0.038
 9880SOL    HW230540   3.811   0.919   0.144
 9881SOL     OW30541   1.136   1.449   5.145
 9881SOL    HW130542   1.207   1.393   5.102
 9881SOL    HW230543   1.099   1.513   5.078
 9882SOL     OW30544   1.859   3.781   4.950
 9882SOL    HW130545   1.855   3.697   5.004
 9882SOL    HW230546   1.796   3.849   4.988
 9883SOL     OW30547   1.502   6.087   0.761
 9883SOL    HW130548   1.529   6.176   0.796
 9883SOL    HW230549   1.405   6.088   0.736
 9884SOL     OW30550   4.811   2.357   1.022
 9884SOL    HW130551   4.834   2.408   0.939
 9884SOL    HW230552   4.733   2.297   1.003
 9885SOL     OW30553   6.911   1.897   4.828
 9885SOL    HW130554   6.986   1.853   4.779
 9885SOL    HW230555   6.838   1.920   4.763
 9886SOL     OW30556   1.071   5.367   2.186
 9886SOL    HW130557   0.975   5.340   2.199
 9886SOL    HW230558   1.103   5.333   2.098
 9887SOL     OW30559   3.899   0.340   6.935
 9887SOL    HW130560   3.947   0.263   6.894
 9887SOL    HW230561   3.895   0.416   6.869
 9888SOL     OW30562   5.231   5.175   2.672
 9888SOL    HW130563   5.206   5.083   2.642
 9888SOL    HW230564   5.167   5.206   2.742
 9889SOL     OW30565   6.263   4.478   0.988
 9889SOL    HW130566   6.283   4.386   1.024
 9889SOL    HW230567   6.347   4.530   0.981
 9890SOL     OW30568   0.619   2.491   1.191
 9890SOL    HW130569   0.687   2.422   1.217
 9890SOL    HW230570   0.570   2.522   1.272
 9891SOL     OW30571   5.983   3.016   1.685
 9891SOL    HW130572   5.953   3.054   1.772
 9891SOL    HW230573   5.919   2.945   1.655
 9892SOL     OW30574   1.741   5.173   2.401
 9892SOL    HW130575   1.704   5.261   2.430
 9892SOL    HW230576   1.714   5.155   2.306
 9893SOL     OW30577   6.352   0.329   2.427
 9893SOL    HW130578   6.375   0.265   2.354
 9893SOL    HW230579   6.367   0.285   2.516
 9894SOL     OW30580   2.941   1.984   6.728
 9894SOL    HW130581   2.943   1.892   6.689
 9894SOL    HW230582   2.859   1.996   6.783
 9895SOL     OW30583   4.980   3.698   5.615
 9895SOL    HW130584   4.924   3.708   5.532
 9895SOL    HW230585   5.021   3.606   5.616
 9896SOL     OW30586   5.487   1.380   0.830
 9896SOL    HW130587   5.554   1.454   0.834
 9896SOL    HW230588   5.532   1.294   0.807
 9897SOL     OW30589   5.464   0.224   2.288
 9897SOL    HW130590   5.525   0.223   2.209
 9897SOL    HW230591   5.501   0.284   2.359
 9898SOL     OW30592   0.537   4.630   6.109
 9898SOL    HW130593   0.588   4.682   6.040
 9898SOL    HW230594   0.509   4.543   6.070
 9899SOL     OW30595   1.190   5.055   2.062
 9899SOL    HW130596   1.232   4.970   2.094
 9899SOL    HW230597   1.259   5.127   2.062
 9900SOL     OW30598   1.556   3.366   2.058
 9900SOL    HW130599   1.550   3.281   2.110
 9900SOL    HW230600   1.596   3.437   2.115
 9901SOL     OW30601   3.234   0.517   0.016
 9901SOL    HW130602   3.199   0.605   0.048
 9901SOL    HW230603   3.215   0.506   6.945
 9902SOL     OW30604   3.980   4.300   1.379
 9902SOL    HW130605   3.924   4.218   1.370
 9902SOL    HW230606   4.010   4.310   1.474
 9903SOL     OW30607   5.397   1.734   1.284
 9903SOL    HW130608   5.417   1.825   1.321
 9903SOL    HW230609   5.413   1.733   1.185
 9904SOL     OW30610   0.485   3.823   6.432
 9904SOL    HW130611   0.417   3.896   6.437
 9904SOL    HW230612   0.508   3.792   6.525
 9905SOL     OW30613   2.431   0.342   5.955
 9905SOL    HW130614   2.335   0.335   5.983
 9905SOL    HW230615   2.482   0.392   6.025
 9906SOL     OW30616   1.966   3.409   0.489
 9906SOL    HW130617   2.032   3.354   0.540
 9906SOL    HW230618   1.937   3.488   0.544
 9907SOL     OW30619   1.303   0.923   1.562
 9907SOL    HW130620   1.326   0.925   1.660
 9907SOL    HW230621   1.328   1.010   1.520
 9908SOL     OW30622   6.777   2.914   5.156
 9908SOL    HW130623   6.743   2.841   5.215
 9908SOL    HW230624   6.746   3.002   5.191
 9909SOL     OW30625   4.001   0.572   2.555
 9909SOL    HW130626   4.045   0.649   2.509
 9909SOL    HW230627   4.070   0.505   2.582
 9910SOL     OW30628   1.540   5.388   1.373
 9910SOL    HW130629   1.520   5.459   1.441
 9910SOL    HW230630   1.478   5.399   1.295
 9911SOL     OW30631   2.873   5.835   1.956
 9911SOL    HW130632   2.972   5.833   1.968
 9911SOL    HW230633   2.835   5.744   1.974
 9912SOL     OW30634   3.799   0.884   1.327
 9912SOL    HW130635   3.753   0.799   1.304
 9912SOL    HW230636   3.897   0.866   1.342
 9913SOL     OW30637   5.996   2.871   1.217
 9913SOL    HW130638   5.936   2.791   1.217
 9913SOL    HW230639   6.007   2.905   1.124
 9914SOL     OW30640   6.922   6.883   5.576
 9914SOL    HW130641   6.976   6.815   5.527
 9914SOL    HW230642   6.826   6.854   5.580
 9915SOL     OW30643   5.655   1.330   3.272
 9915SOL    HW130644   5.663   1.335   3.172
 9915SOL    HW230645   5.606   1.246   3.297
 9916SOL     OW30646   1.882   2.272   3.096
 9916SOL    HW130647   1.843   2.214   3.167
 9916SOL    HW230648   1.866   2.368   3.119
 9917SOL     OW30649   3.334   3.504   5.363
 9917SOL    HW130650   3.321   3.600   5.388
 9917SOL    HW230651   3.422   3.472   5.397
 9918SOL     OW30652   1.194   3.176   2.441
 9918SOL    HW130653   1.110   3.149   2.393
 9918SOL    HW230654   1.232   3.098   2.489
 9919SOL     OW30655   2.757   5.604   2.049
 9919SOL    HW130656   2.776   5.518   2.002
 9919SOL    HW230657   2.767   5.592   2.147
 9920SOL     OW30658   4.804   0.429   2.878
 9920SOL    HW130659   4.890   0.449   2.830
 9920SOL    HW230660   4.735   0.496   2.852
 9921SOL     OW30661   4.458   7.000   4.817
 9921SOL    HW130662   4.381   7.015   4.879
 9921SOL    HW230663   4.504   0.061   4.800
 9922SOL     OW30664   4.099   4.408   1.153
 9922SOL    HW130665   4.161   4.334   1.129
 9922SOL    HW230666   4.052   4.386   1.239
 9923SOL     OW30667   6.254   3.699   0.482
 9923SOL    HW130668   6.288   3.777   0.534
 9923SOL    HW230669   6.325   3.630   0.474
 9924SOL     OW30670   5.021   1.719   3.071
 9924SOL    HW130671   5.018   1.780   3.150
 9924SOL    HW230672   5.054   1.769   2.991
 9925SOL     OW30673   0.656   4.915   3.879
 9925SOL    HW130674   0.652   4.973   3.961
 9925SOL    HW230675   0.671   4.820   3.906
 9926SOL     OW30676   3.761   2.801   0.507
 9926SOL    HW130677   3.680   2.746   0.526
 9926SOL    HW230678   3.738   2.872   0.441
 9927SOL     OW30679   1.305   1.184   0.638
 9927SOL    HW130680   1.253   1.222   0.562
 9927SOL    HW230681   1.371   1.252   0.671
 9928SOL     OW30682   5.634   3.881   3.424
 9928SOL    HW130683   5.625   3.919   3.332
 9928SOL    HW230684   5.706   3.812   3.425
 9929SOL     OW30685   3.745   4.085   4.487
 9929SOL    HW130686   3.840   4.061   4.468
 9929SOL    HW230687   3.703   4.013   4.543
 9930SOL     OW30688   0.647   6.840   6.161
 9930SOL    HW130689   0.639   6.855   6.260
 9930SOL    HW230690   0.744   6.835   6.136
 9931SOL     OW30691   0.008   5.980   3.965
 9931SOL    HW130692   0.026   5.883   3.950
 9931SOL    HW230693   6.939   5.993   3.991
 9932SOL     OW30694   2.723   2.354   5.766
 9932SOL    HW130695   2.737   2.394   5.676
 9932SOL    HW230696   2.810   2.346   5.814
 9933SOL     OW30697   1.813   6.899   4.120
 9933SOL    HW130698   1.907   6.908   4.154
 9933SOL    HW230699   1.795   6.803   4.098
 9934SOL     OW30700   6.749   1.666   6.242
 9934SOL    HW130701   6.677   1.705   6.185
 9934SOL    HW230702   6.708   1.620   6.321
 9935SOL     OW30703   2.763   0.194   1.131
 9935SOL    HW130704   2.720   0.135   1.199
 9935SOL    HW230705   2.732   0.288   1.143
 9936SOL     OW30706   6.527   4.971   0.378
 9936SOL    HW130707   6.452   5.027   0.413
 9936SOL    HW230708   6.501   4.875   0.382
 9937SOL     OW30709   0.829   1.231   1.893
 9937SOL    HW130710   0.823   1.328   1.918
 9937SOL    HW230711   0.918   1.213   1.852
 9938SOL     OW30712   5.794   5.666   4.197
 9938SOL    HW130713   5.786   5.577   4.241
 9938SOL    HW230714   5.786   5.654   4.098
 9939SOL     OW30715   2.995   3.054   0.716
 9939SOL    HW130716   3.027   3.027   0.807
 9939SOL    HW230717   3.072   3.085   0.661
 9940SOL     OW30718   1.241   0.217   2.143
 9940SOL    HW130719   1.172   0.205   2.071
 9940SOL    HW230720   1.242   0.136   2.201
 9941SOL     OW30721   3.137   4.628   6.090
 9941SOL    HW130722   3.120   4.578   6.175
 9941SOL    HW230723   3.138   4.726   6.109
 9942SOL     OW30724   4.078   5.608   2.301
 9942SOL    HW130725   4.119   5.576   2.215
 9942SOL    HW230726   4.098   5.706   2.312
 9943SOL     OW30727   1.025   4.816   6.474
 9943SOL    HW130728   0.932   4.834   6.443
 9943SOL    HW230729   1.043   4.717   6.471
 9944SOL     OW30730   0.849   4.597   6.633
 9944SOL    HW130731   0.802   4.509   6.634
 9944SOL    HW230732   0.908   4.603   6.553
 9945SOL     OW30733   4.647   5.417   0.014
 9945SOL    HW130734   4.658   5.442   0.110
 9945SOL    HW230735   4.613   5.323   0.008
 9946SOL     OW30736   6.580   0.163   3.218
 9946SOL    HW130737   6.607   0.112   3.300
 9946SOL    HW230738   6.485   0.142   3.196
 9947SOL     OW30739   2.806   2.283   4.896
 9947SOL    HW130740   2.761   2.299   4.984
 9947SOL    HW230741   2.905   2.287   4.908
 9948SOL     OW30742   6.257   5.827   4.739
 9948SOL    HW130743   6.191   5.759   4.770
 9948SOL    HW230744   6.290   5.802   4.648
 9949SOL     OW30745   0.340   4.947   4.009
 9949SOL    HW130746   0.409   4.916   4.073
 9949SOL    HW230747   0.254   4.898   4.026
 9950SOL     OW30748   6.100   6.288   6.897
 9950SOL    HW130749   6.036   6.248   6.831
 9950SOL    HW230750   6.049   6.334   6.969
 9951SOL     OW30751   0.695   2.606   3.037
 9951SOL    HW130752   0.772   2.664   3.064
 9951SOL    HW230753   0.620   2.664   3.006
 9952SOL     OW30754   1.892   3.960   0.618
 9952SOL    HW130755   1.984   3.986   0.649
 9952SOL    HW230756   1.825   3.992   0.684
 9953SOL     OW30757   6.159   1.745   3.585
 9953SOL    HW130758   6.170   1.671   3.651
 9953SOL    HW230759   6.216   1.822   3.612
 9954SOL     OW30760   1.394   6.960   5.255
 9954SOL    HW130761   1.492   6.960   5.276
 9954SOL    HW230762   1.381   6.972   5.157
 9955SOL     OW30763   4.519   3.556   6.348
 9955SOL    HW130764   4.470   3.500   6.415
 9955SOL    HW230765   4.458   3.627   6.313
 9956SOL     OW30766   0.404   5.109   3.775
 9956SOL    HW130767   0.349   5.193   3.778
 9956SOL    HW230768   0.422   5.078   3.868
 9957SOL     OW30769   5.894   0.495   1.813
 9957SOL    HW130770   5.875   0.556   1.890
 9957SOL    HW230771   5.940   0.413   1.846
 9958SOL     OW30772   2.822   5.805   6.903
 9958SOL    HW130773   2.758   5.875   6.933
 9958SOL    HW230774   2.915   5.839   6.911
 9959SOL     OW30775   4.142   3.658   3.612
 9959SOL    HW130776   4.241   3.656   3.625
 9959SOL    HW230777   4.122   3.664   3.514
 9960SOL     OW30778   0.610   6.749   2.251
 9960SOL    HW130779   0.511   6.737   2.250
 9960SOL    HW230780   0.634   6.829   2.196
 9961SOL     OW30781   1.802   5.111   4.265
 9961SOL    HW130782   1.830   5.202   4.296
 9961SOL    HW230783   1.864   5.081   4.192
 9962SOL     OW30784   4.617   0.704   2.742
 9962SOL    HW130785   4.583   0.638   2.675
 9962SOL    HW230786   4.542   0.763   2.770
 9963SOL     OW30787   2.144   2.651   6.236
 9963SOL    HW130788   2.066   2.650   6.300
 9963SOL    HW230789   2.183   2.743   6.234
 9964SOL     OW30790   4.211   4.550   6.127
 9964SOL    HW130791   4.196   4.471   6.067
 9964SOL    HW230792   4.275   4.524   6.199
 9965SOL     OW30793   3.701   4.906   5.308
 9965SOL    HW130794   3.647   4.949   5.235
 9965SOL    HW230795   3.658   4.922   5.396
 9966SOL     OW30796   2.720   5.269   2.403
 9966SOL    HW130797   2.640   5.307   2.357
 9966SOL    HW230798   2.749   5.331   2.476
 9967SOL     OW30799   5.374   5.880   1.513
 9967SOL    HW130800   5.290   5.899   1.563
 9967SOL    HW230801   5.430   5.814   1.564
 9968SOL     OW30802   3.530   5.417   6.406
 9968SOL    HW130803   3.552   5.338   6.463
 9968SOL    HW230804   3.602   5.429   6.337
 9969SOL     OW30805   0.624   2.580   4.016
 9969SOL    HW130806   0.615   2.482   4.031
 9969SOL    HW230807   0.712   2.611   4.051
 9970SOL     OW30808   6.585   4.456   1.978
 9970SOL    HW130809   6.612   4.446   1.882
 9970SOL    HW230810   6.531   4.540   1.988
 9971SOL     OW30811   2.525   4.011   0.494
 9971SOL    HW130812   2.602   3.959   0.459
 9971SOL    HW230813   2.440   3.977   0.452
 9972SOL     OW30814   3.623   4.455   0.266
 9972SOL    HW130815   3.567   4.503   0.334
 9972SOL    HW230816   3.595   4.359   0.262
 9973SOL     OW30817   4.319   2.160   4.657
 9973SOL    HW130818   4.288   2.166   4.563
 9973SOL    HW230819   4.280   2.078   4.700
 9974SOL     OW30820   6.016   3.625   3.254
 9974SOL    HW130821   6.033   3.573   3.170
 9974SOL    HW230822   6.060   3.579   3.331
 9975SOL     OW30823   0.190   4.482   0.227
 9975SOL    HW130824   0.092   4.463   0.236
 9975SOL    HW230825   0.242   4.426   0.291
 9976SOL     OW30826   6.757   5.572   5.626
 9976SOL    HW130827   6.714   5.508   5.562
 9976SOL    HW230828   6.809   5.640   5.574
 9977SOL     OW30829   6.738   4.984   5.767
 9977SOL    HW130830   6.652   4.968   5.719
 9977SOL    HW230831   6.797   5.043   5.713
 9978SOL     OW30832   6.366   2.313   3.842
 9978SOL    HW130833   6.281   2.366   3.839
 9978SOL    HW230834   6.377   2.263   3.755
 9979SOL     OW30835   6.606   5.099   6.432
 9979SOL    HW130836   6.641   5.113   6.340
 9979SOL    HW230837   6.627   5.006   6.462
 9980SOL     OW30838   1.560   1.453   6.480
 9980SOL    HW130839   1.484   1.433   6.542
 9980SOL    HW230840   1.588   1.548   6.492
 9981SOL     OW30841   2.485   1.922   1.201
 9981SOL    HW130842   2.498   1.841   1.144
 9981SOL    HW230843   2.485   1.895   1.298
 9982SOL     OW30844   0.576   1.650   3.125
 9982SOL    HW130845   0.641   1.702   3.181
 9982SOL    HW230846   0.597   1.664   3.028
 9983SOL     OW30847   1.482   1.971   1.874
 9983SOL    HW130848   1.485   1.873   1.895
 9983SOL    HW230849   1.568   1.998   1.831
 9984SOL     OW30850   1.303   0.204   0.306
 9984SOL    HW130851   1.386   0.153   0.283
 9984SOL    HW230852   1.272   0.178   0.397
 9985SOL     OW30853   3.004   0.705   1.228
 9985SOL    HW130854   3.081   0.672   1.284
 9985SOL    HW230855   3.035   0.718   1.134
 9986SOL     OW30856   5.288   4.189   6.597
 9986SOL    HW130857   5.290   4.092   6.571
 9986SOL    HW230858   5.198   4.212   6.633
 9987SOL     OW30859   5.154   1.866   2.894
 9987SOL    HW130860   5.247   1.831   2.888
 9987SOL    HW230861   5.117   1.879   2.801
 9988SOL     OW30862   0.330   5.717   4.926
 9988SOL    HW130863   0.231   5.702   4.926
 9988SOL    HW230864   0.352   5.796   4.983
 9989SOL     OW30865   5.246   3.395   2.526
 9989SOL    HW130866   5.214   3.489   2.522
 9989SOL    HW230867   5.294   3.379   2.613
 9990SOL     OW30868   2.707   6.683   3.313
 9990SOL    HW130869   2.732   6.619   3.386
 9990SOL    HW230870   2.789   6.718   3.269
 9991SOL     OW30871   1.331   3.064   5.163
 9991SOL    HW130872   1.273   3.020   5.095
 9991SOL    HW230873   1.393   2.996   5.203
 9992SOL     OW30874   5.138   3.556   0.674
 9992SOL    HW130875   5.216   3.586   0.729
 9992SOL    HW230876   5.055   3.602   0.705
 9993SOL     OW30877   4.599   6.726   2.620
 9993SOL    HW130878   4.545   6.703   2.701
 9993SOL    HW230879   4.694   6.697   2.635
 9994SOL     OW30880   6.613   3.714   4.328
 9994SOL    HW130881   6.630   3.668   4.415
 9994SOL    HW230882   6.637   3.810   4.336
 9995SOL     OW30883   2.902   6.865   2.550
 9995SOL    HW130884   2.865   6.928   2.618
 9995SOL    HW230885   2.934   6.917   2.471
 9996SOL     OW30886   2.551   2.435   1.147
 9996SOL    HW130887   2.517   2.350   1.106
 9996SOL    HW230888   2.651   2.436   1.143
 9997SOL     OW30889   4.073   1.995   0.945
 9997SOL    HW130890   4.105   2.088   0.965
 9997SOL    HW230891   3.990   2.000   0.889
 9998SOL     OW30892   6.707   3.783   2.113
 9998SOL    HW130893   6.685   3.731   2.030
 9998SOL    HW230894   6.802   3.765   2.139
 9999SOL     OW30895   6.550   4.526   4.578
 9999SOL    HW130896   6.576   4.444   4.527
 9999SOL    HW230897   6.510   4.593   4.516
10000SOL     OW30898   5.901   2.470   6.883
10000SOL    HW130899   5.812   2.504   6.913
10000SOL    HW230900   5.917   2.379   6.921
10001SOL     OW30901   4.930   1.372   1.640
10001SOL    HW130902   5.010   1.346   1.586
10001SOL    HW230903   4.857   1.306   1.627
10002SOL     OW30904   1.342   0.657   1.392
10002SOL    HW130905   1.386   0.736   1.350
10002SOL    HW230906   1.377   0.644   1.485
10003SOL     OW30907   3.901   2.155   3.743
10003SOL    HW130908   3.849   2.080   3.782
10003SOL    HW230909   3.982   2.173   3.800
10004SOL     OW30910   4.844   3.092   4.547
10004SOL    HW130911   4.811   3.105   4.640
10004SOL    HW230912   4.893   3.004   4.541
10005SOL     OW30913   4.989   5.856   3.506
10005SOL    HW130914   4.959   5.894   3.594
10005SOL    HW230915   4.913   5.807   3.463
10006SOL     OW30916   5.626   1.142   4.309
10006SOL    HW130917   5.625   1.054   4.356
10006SOL    HW230918   5.705   1.195   4.340
10007SOL     OW30919   0.729   4.515   5.099
10007SOL    HW130920   0.824   4.543   5.116
10007SOL    HW230921   0.725   4.456   5.019
10008SOL     OW30922   4.070   1.506   4.165
10008SOL    HW130923   4.024   1.524   4.252
10008SOL    HW230924   4.132   1.582   4.144
10009SOL     OW30925   1.973   3.868   1.450
10009SOL    HW130926   1.889   3.845   1.499
10009SOL    HW230927   2.029   3.928   1.507
10010SOL     OW30928   2.088   6.511   0.103
10010SOL    HW130929   2.105   6.551   0.013
10010SOL    HW230930   2.068   6.413   0.092
10011SOL     OW30931   0.116   2.444   5.154
10011SOL    HW130932   0.113   2.520   5.220
10011SOL    HW230933   0.146   2.361   5.200
10012SOL     OW30934   5.227   0.060   2.742
10012SOL    HW130935   5.236   7.015   2.672
10012SOL    HW230936   5.267   0.027   2.828
10013SOL     OW30937   1.785   1.698   4.148
10013SOL    HW130938   1.729   1.729   4.071
10013SOL    HW230939   1.783   1.598   4.152
10014SOL     OW30940   6.420   2.717   0.215
10014SOL    HW130941   6.431   2.804   0.263
10014SOL    HW230942   6.444   2.730   0.118
10015SOL     OW30943   2.856   4.220   0.165
10015SOL    HW130944   2.926   4.192   0.099
10015SOL    HW230945   2.815   4.139   0.208
10016SOL     OW30946   2.304   0.180   4.961
10016SOL    HW130947   2.228   0.245   4.958
10016SOL    HW230948   2.305   0.135   5.051
10017SOL     OW30949   1.893   2.580   2.239
10017SOL    HW130950   1.981   2.575   2.191
10017SOL    HW230951   1.892   2.660   2.298
10018SOL     OW30952   5.415   6.625   6.200
10018SOL    HW130953   5.401   6.559   6.125
10018SOL    HW230954   5.511   6.625   6.227
10019SOL     OW30955   1.402   1.592   3.161
10019SOL    HW130956   1.319   1.636   3.129
10019SOL    HW230957   1.459   1.566   3.083
10020SOL     OW30958   0.091   2.435   1.308
10020SOL    HW130959   7.025   2.396   1.301
10020SOL    HW230960   0.158   2.362   1.294
10021SOL     OW30961   0.917   2.996   1.486
10021SOL    HW130962   0.963   2.987   1.398
10021SOL    HW230963   0.836   3.053   1.476
10022SOL     OW30964   3.349   6.905   0.958
10022SOL    HW130965   3.323   6.867   0.869
10022SOL    HW230966   3.405   6.838   1.007
10023SOL     OW30967   1.654   5.294   5.835
10023SOL    HW130968   1.683   5.275   5.929
10023SOL    HW230969   1.722   5.256   5.772
10024SOL     OW30970   2.418   6.565   2.097
10024SOL    HW130971   2.374   6.654   2.110
10024SOL    HW230972   2.442   6.526   2.186
10025SOL     OW30973   1.025   0.813   1.174
10025SOL    HW130974   1.015   0.753   1.095
10025SOL    HW230975   0.993   0.905   1.150
10026SOL     OW30976   4.814   6.411   3.762
10026SOL    HW130977   4.730   6.383   3.715
10026SOL    HW230978   4.812   6.378   3.856
10027SOL     OW30979   0.440   4.337   5.013
10027SOL    HW130980   0.528   4.297   4.987
10027SOL    HW230981   0.449   4.436   5.019
10028SOL     OW30982   1.480   1.939   1.524
10028SOL    HW130983   1.397   1.924   1.470
10028SOL    HW230984   1.456   1.986   1.609
10029SOL     OW30985   3.333   1.949   3.649
10029SOL    HW130986   3.260   2.017   3.637
10029SOL    HW230987   3.292   1.858   3.650
10030SOL     OW30988   2.491   6.634   4.139
10030SOL    HW130989   2.550   6.569   4.187
10030SOL    HW230990   2.540   6.720   4.128
10031SOL     OW30991   5.971   5.216   3.909
10031SOL    HW130992   6.068   5.236   3.921
10031SOL    HW230993   5.953   5.197   3.812
10032SOL     OW30994   3.087   1.063   5.546
10032SOL    HW130995   3.075   1.057   5.447
10032SOL    HW230996   3.163   1.005   5.574
10033SOL     OW30997   4.922   2.424   4.053
10033SOL    HW130998   4.884   2.514   4.033
10033SOL    HW230999   5.015   2.418   4.018
10034SOL     OW31000   2.964   0.257   4.407
10034SOL    HW131001   2.963   0.332   4.341
10034SOL    HW231002   3.030   0.276   4.479
10035SOL     OW31003   6.683   4.445   2.258
10035SOL    HW131004   6.661   4.459   2.161
10035SOL    HW231005   6.762   4.384   2.266
10036SOL     OW31006   5.370   1.684   0.773
10036SOL    HW131007   5.386   1.722   0.682
10036SOL    HW231008   5.333   1.591   0.765
10037SOL     OW31009   5.803   1.716   0.950
10037SOL    HW131010   5.804   1.667   0.863
10037SOL    HW231011   5.737   1.673   1.012
10038SOL     OW31012   3.993   1.089   6.481
10038SOL    HW131013   3.910   1.142   6.501
10038SOL    HW231014   3.987   1.000   6.527
10039SOL     OW31015   3.370   0.176   3.755
10039SOL    HW131016   3.303   0.151   3.825
10039SOL    HW231017   3.379   0.101   3.689
10040SOL     OW31018   4.280   6.003   6.290
10040SOL    HW131019   4.347   6.051   6.346
10040SOL    HW231020   4.295   6.024   6.194
10041SOL     OW31021   4.114   6.430   6.080
10041SOL    HW131022   4.152   6.423   6.172
10041SOL    HW231023   4.146   6.514   6.037
10042SOL     OW31024   1.023   1.632   4.611
10042SOL    HW131025   0.924   1.627   4.618
10042SOL    HW231026   1.054   1.578   4.533
10043SOL     OW31027   6.773   1.905   4.552
10043SOL    HW131028   6.833   1.981   4.528
10043SOL    HW231029   6.679   1.928   4.527
10044SOL     OW31030   2.650   1.502   5.180
10044SOL    HW131031   2.740   1.491   5.220
10044SOL    HW231032   2.659   1.542   5.088
10045SOL     OW31033   3.991   0.549   3.307
10045SOL    HW131034   4.051   0.627   3.292
10045SOL    HW231035   3.895   0.580   3.303
10046SOL     OW31036   2.163   3.975   0.704
10046SOL    HW131037   2.221   3.918   0.644
10046SOL    HW231038   2.216   4.004   0.784
10047SOL     OW31039   0.738   3.867   5.075
10047SOL    HW131040   0.747   3.846   4.978
10047SOL    HW231041   0.642   3.865   5.101
10048SOL     OW31042   6.287   1.023   2.765
10048SOL    HW131043   6.275   0.924   2.770
10048SOL    HW231044   6.364   1.051   2.822
10049SOL     OW31045   0.607   1.700   6.440
10049SOL    HW131046   0.694   1.681   6.484
10049SOL    HW231047   0.545   1.623   6.454
10050SOL     OW31048   5.469   4.072   4.509
10050SOL    HW131049   5.461   4.017   4.592
10050SOL    HW231050   5.384   4.065   4.456
10051SOL     OW31051   6.251   3.865   5.691
10051SOL    HW131052   6.259   3.937   5.760
10051SOL    HW231053   6.159   3.867   5.651
10052SOL     OW31054   1.955   1.287   3.219
10052SOL    HW131055   1.901   1.372   3.219
10052SOL    HW231056   1.944   1.241   3.307
10053SOL     OW31057   3.881   5.327   3.073
10053SOL    HW131058   3.970   5.322   3.028
10053SOL    HW231059   3.871   5.415   3.118
10054SOL     OW31060   5.490   5.991   6.429
10054SOL    HW131061   5.402   5.946   6.415
10054SOL    HW231062   5.476   6.090   6.435
10055SOL     OW31063   5.955   1.162   4.771
10055SOL    HW131064   5.950   1.225   4.849
10055SOL    HW231065   6.018   1.199   4.703
10056SOL     OW31066   5.467   4.356   2.972
10056SOL    HW131067   5.497   4.353   3.068
10056SOL    HW231068   5.427   4.268   2.947
10057SOL     OW31069   4.025   2.587   5.686
10057SOL    HW131070   4.114   2.574   5.643
10057SOL    HW231071   3.980   2.498   5.696
10058SOL     OW31072   6.547   3.468   5.314
10058SOL    HW131073   6.575   3.500   5.404
10058SOL    HW231074   6.616   3.495   5.247
10059SOL     OW31075   0.213   1.429   0.597
10059SOL    HW131076   0.178   1.354   0.654
10059SOL    HW231077   0.312   1.421   0.590
10060SOL     OW31078   2.081   3.078   2.255
10060SOL    HW131079   2.103   3.157   2.199
10060SOL    HW231080   1.989   3.088   2.293
10061SOL     OW31081   4.654   1.413   4.515
10061SOL    HW131082   4.736   1.370   4.477
10061SOL    HW231083   4.574   1.386   4.461
10062SOL     OW31084   5.366   0.262   3.898
10062SOL    HW131085   5.371   0.162   3.889
10062SOL    HW231086   5.451   0.296   3.938
10063SOL     OW31087   2.834   1.040   4.048
10063SOL    HW131088   2.737   1.023   4.029
10063SOL    HW231089   2.870   1.104   3.980
10064SOL     OW31090   4.879   6.628   0.227
10064SOL    HW131091   4.860   6.532   0.249
10064SOL    HW231092   4.828   6.654   0.145
10065SOL     OW31093   2.785   0.014   2.707
10065SOL    HW131094   2.763   6.979   2.783
10065SOL    HW231095   2.706   0.023   2.647
10066SOL     OW31096   0.738   2.160   4.313
10066SOL    HW131097   0.754   2.110   4.398
10066SOL    HW231098   0.826   2.186   4.273
10067SOL     OW31099   0.386   3.563   4.999
10067SOL    HW131100   0.291   3.549   5.028
10067SOL    HW231101   0.391   3.564   4.899
10068SOL     OW31102   0.492   3.419   3.472
10068SOL    HW131103   0.519   3.508   3.437
10068SOL    HW231104   0.570   3.376   3.517
10069SOL     OW31105   3.285   4.894   1.520
10069SOL    HW131106   3.372   4.915   1.475
10069SOL    HW231107   3.296   4.814   1.579
10070SOL     OW31108   6.966   6.359   5.174
10070SOL    HW131109   0.022   6.325   5.219
10070SOL    HW231110   6.957   6.316   5.084
10071SOL     OW31111   6.560   5.935   4.467
10071SOL    HW131112   6.579   6.029   4.496
10071SOL    HW231113   6.482   5.935   4.405
10072SOL     OW31114   0.663   6.746   4.277
10072SOL    HW131115   0.638   6.674   4.342
10072SOL    HW231116   0.599   6.744   4.199
10073SOL     OW31117   6.823   4.102   4.293
10073SOL    HW131118   6.752   4.056   4.346
10073SOL    HW231119   6.877   4.033   4.243
10074SOL     OW31120   2.409   0.190   6.385
10074SOL    HW131121   2.482   0.154   6.327
10074SOL    HW231122   2.414   0.290   6.385
10075SOL     OW31123   1.692   2.414   1.990
10075SOL    HW131124   1.721   2.326   1.953
10075SOL    HW231125   1.737   2.430   2.078
10076SOL     OW31126   5.942   5.998   3.348
10076SOL    HW131127   6.011   6.025   3.416
10076SOL    HW231128   5.912   6.079   3.298
10077SOL     OW31129   4.668   3.501   0.291
10077SOL    HW131130   4.617   3.419   0.265
10077SOL    HW231131   4.728   3.528   0.215
10078SOL     OW31132   6.575   6.134   4.126
10078SOL    HW131133   6.536   6.165   4.213
10078SOL    HW231134   6.582   6.212   4.063
10079SOL     OW31135   5.989   3.054   3.342
10079SOL    HW131136   6.051   3.038   3.265
10079SOL    HW231137   5.895   3.032   3.314
10080SOL     OW31138   5.484   0.853   5.798
10080SOL    HW131139   5.434   0.927   5.844
10080SOL    HW231140   5.514   0.885   5.708
10081SOL     OW31141   0.530   1.693   0.049
10081SOL    HW131142   0.569   1.779   0.081
10081SOL    HW231143   0.568   1.669   6.987
10082SOL     OW31144   0.510   5.215   1.995
10082SOL    HW131145   0.410   5.208   1.989
10082SOL    HW231146   0.537   5.215   2.092
10083SOL     OW31147   3.761   0.218   3.836
10083SOL    HW131148   3.792   0.310   3.812
10083SOL    HW231149   3.683   0.225   3.898
10084SOL     OW31150   1.416   0.664   5.722
10084SOL    HW131151   1.331   0.690   5.768
10084SOL    HW231152   1.394   0.607   5.642
10085SOL     OW31153   3.099   6.682   0.590
10085SOL    HW131154   3.066   6.602   0.539
10085SOL    HW231155   3.041   6.761   0.569
10086SOL     OW31156   5.962   5.852   2.942
10086SOL    HW131157   6.000   5.796   3.015
10086SOL    HW231158   5.987   5.814   2.853
10087SOL     OW31159   6.391   5.631   3.954
10087SOL    HW131160   6.306   5.616   3.905
10087SOL    HW231161   6.464   5.652   3.890
10088SOL     OW31162   6.717   6.812   2.526
10088SOL    HW131163   6.667   6.754   2.590
10088SOL    HW231164   6.791   6.859   2.574
10089SOL     OW31165   2.828   1.971   3.592
10089SOL    HW131166   2.915   1.922   3.586
10089SOL    HW231167   2.806   2.010   3.503
10090SOL     OW31168   6.886   5.038   1.829
10090SOL    HW131169   6.905   5.122   1.879
10090SOL    HW231170   6.963   4.975   1.839
10091SOL     OW31171   6.677   5.705   6.607
10091SOL    HW131172   6.593   5.672   6.649
10091SOL    HW231173   6.682   5.805   6.615
10092SOL     OW31174   2.029   3.063   6.233
10092SOL    HW131175   2.120   3.064   6.191
10092SOL    HW231176   2.033   3.014   6.320
10093SOL     OW31177   4.569   3.401   5.355
10093SOL    HW131178   4.601   3.309   5.332
10093SOL    HW231179   4.590   3.463   5.279
10094SOL     OW31180   2.859   6.019   1.494
10094SOL    HW131181   2.764   5.987   1.496
10094SOL    HW231182   2.888   6.046   1.585
10095SOL     OW31183   5.314   1.335   4.600
10095SOL    HW131184   5.226   1.380   4.590
10095SOL    HW231185   5.301   1.237   4.618
10096SOL     OW31186   4.758   6.306   2.264
10096SOL    HW131187   4.820   6.254   2.323
10096SOL    HW231188   4.809   6.340   2.185
10097SOL     OW31189   1.467   2.087   0.123
10097SOL    HW131190   1.377   2.086   0.079
10097SOL    HW231191   1.533   2.039   0.064
10098SOL     OW31192   2.956   6.970   5.481
10098SOL    HW131193   3.051   7.002   5.485
10098SOL    HW231194   2.895   0.020   5.501
10099SOL     OW31195   0.937   4.780   1.092
10099SOL    HW131196   0.974   4.715   1.026
10099SOL    HW231197   0.906   4.862   1.045
10100SOL     OW31198   5.061   6.327   5.304
10100SOL    HW131199   5.063   6.230   5.277
10100SOL    HW231200   5.133   6.376   5.255
10101SOL     OW31201   6.978   3.012   2.226
10101SOL    HW131202   7.011   2.931   2.179
10101SOL    HW231203   6.879   3.018   2.216
10102SOL     OW31204   0.084   0.708   1.528
10102SOL    HW131205   0.178   0.742   1.541
10102SOL    HW231206   0.086   0.626   1.471
10103SOL     OW31207   2.236   0.269   5.571
10103SOL    HW131208   2.315   0.326   5.590
10103SOL    HW231209   2.232   0.193   5.636
10104SOL     OW31210   1.469   2.182   5.711
10104SOL    HW131211   1.554   2.233   5.700
10104SOL    HW231212   1.430   2.163   5.620
10105SOL     OW31213   2.250   0.107   6.195
10105SOL    HW131214   2.279   0.011   6.202
10105SOL    HW231215   2.279   0.157   6.277
10106SOL     OW31216   3.559   6.583   0.746
10106SOL    HW131217   3.643   6.533   0.766
10106SOL    HW231218   3.518   6.615   0.831
10107SOL     OW31219   5.136   1.636   6.009
10107SOL    HW131220   5.098   1.595   6.092
10107SOL    HW231221   5.230   1.666   6.027
10108SOL     OW31222   6.966   1.414   0.289
10108SOL    HW131223   6.919   1.430   0.376
10108SOL    HW231224   6.984   1.316   0.280
10109SOL     OW31225   0.241   0.768   0.743
10109SOL    HW131226   0.332   0.808   0.760
10109SOL    HW231227   0.177   0.804   0.811
10110SOL     OW31228   5.027   4.936   3.908
10110SOL    HW131229   5.000   4.953   4.003
10110SOL    HW231230   4.986   4.850   3.877
10111SOL     OW31231   6.941   3.696   3.619
10111SOL    HW131232   6.901   3.607   3.598
10111SOL    HW231233   6.983   3.694   3.710
10112SOL     OW31234   5.857   3.244   3.058
10112SOL    HW131235   5.949   3.283   3.066
10112SOL    HW231236   5.864   3.145   3.045
10113SOL     OW31237   4.266   7.002   0.629
10113SOL    HW131238   4.268   0.044   0.556
10113SOL    HW231239   4.351   6.951   0.630
10114SOL     OW31240   4.188   2.105   2.213
10114SOL    HW131241   4.265   2.050   2.180
10114SOL    HW231242   4.139   2.054   2.284
10115SOL     OW31243   4.392   2.133   5.291
10115SOL    HW131244   4.456   2.114   5.365
10115SOL    HW231245   4.431   2.101   5.204
10116SOL     OW31246   0.592   6.593   6.859
10116SOL    HW131247   0.670   6.647   6.889
10116SOL    HW231248   0.565   6.530   6.932
10117SOL     OW31249   6.540   6.636   5.706
10117SOL    HW131250   6.475   6.579   5.657
10117SOL    HW231251   6.523   6.630   5.805
10118SOL     OW31252   2.564   4.631   3.514
10118SOL    HW131253   2.654   4.637   3.471
10118SOL    HW231254   2.533   4.722   3.541
10119SOL     OW31255   6.585   4.962   3.789
10119SOL    HW131256   6.617   4.907   3.712
10119SOL    HW231257   6.579   4.905   3.871
10120SOL     OW31258   1.831   3.925   4.195
10120SOL    HW131259   1.751   3.901   4.140
10120SOL    HW231260   1.802   3.946   4.288
10121SOL     OW31261   5.673   3.826   0.010
10121SOL    HW131262   5.600   3.757   0.012
10121SOL    HW231263   5.761   3.782   0.025
10122SOL     OW31264   5.199   2.565   3.397
10122SOL    HW131265   5.105   2.570   3.364
10122SOL    HW231266   5.212   2.478   3.444
10123SOL     OW31267   5.451   6.177   0.810
10123SOL    HW131268   5.402   6.262   0.829
10123SOL    HW231269   5.521   6.194   0.740
10124SOL     OW31270   1.431   4.983   0.531
10124SOL    HW131271   1.472   4.962   0.441
10124SOL    HW231272   1.344   5.030   0.517
10125SOL     OW31273   2.162   1.260   1.014
10125SOL    HW131274   2.138   1.209   0.931
10125SOL    HW231275   2.216   1.202   1.074
10126SOL     OW31276   0.491   0.278   7.021
10126SOL    HW131277   0.535   0.367   0.008
10126SOL    HW231278   0.553   0.205   0.024
10127SOL     OW31279   2.226   3.761   0.308
10127SOL    HW131280   2.273   3.691   0.255
10127SOL    HW231281   2.137   3.781   0.267
10128SOL     OW31282   3.283   0.926   5.689
10128SOL    HW131283   3.359   0.974   5.646
10128SOL    HW231284   3.245   0.983   5.762
10129SOL     OW31285   6.994   1.331   2.429
10129SOL    HW131286   6.983   1.234   2.447
10129SOL    HW231287   6.997   1.348   2.331
10130SOL     OW31288   0.655   3.757   1.472
10130SOL    HW131289   0.671   3.694   1.396
10130SOL    HW231290   0.562   3.745   1.507
10131SOL     OW31291   2.209   0.168   4.636
10131SOL    HW131292   2.204   0.078   4.594
10131SOL    HW231293   2.136   0.226   4.599
10132SOL     OW31294   1.839   0.679   3.181
10132SOL    HW131295   1.833   0.768   3.228
10132SOL    HW231296   1.935   0.654   3.170
10133SOL     OW31297   4.504   6.624   0.984
10133SOL    HW131298   4.411   6.649   0.957
10133SOL    HW231299   4.513   6.524   0.983
10134SOL     OW31300   5.292   1.212   2.731
10134SOL    HW131301   5.292   1.187   2.828
10134SOL    HW231302   5.198   1.231   2.702
10135SOL     OW31303   5.161   2.546   4.394
10135SOL    HW131304   5.062   2.550   4.409
10135SOL    HW231305   5.190   2.628   4.344
10136SOL     OW31306   5.344   1.638   2.479
10136SOL    HW131307   5.414   1.572   2.509
10136SOL    HW231308   5.260   1.588   2.458
10137SOL     OW31309   0.381   4.622   5.397
10137SOL    HW131310   0.307   4.570   5.440
10137SOL    HW231311   0.469   4.580   5.421
10138SOL     OW31312   5.675   3.108   0.159
10138SOL    HW131313   5.638   3.181   0.217
10138SOL    HW231314   5.616   3.027   0.165
10139SOL     OW31315   2.945   3.840   4.738
10139SOL    HW131316   2.849   3.852   4.761
10139SOL    HW231317   2.986   3.773   4.800
10140SOL     OW31318   0.279   6.852   6.743
10140SOL    HW131319   0.365   6.892   6.710
10140SOL    HW231320   0.279   6.754   6.726
10141SOL     OW31321   4.542   1.221   5.073
10141SOL    HW131322   4.514   1.287   5.004
10141SOL    HW231323   4.476   1.223   5.149
10142SOL     OW31324   5.888   6.368   5.704
10142SOL    HW131325   5.914   6.317   5.622
10142SOL    HW231326   5.966   6.422   5.736
10143SOL     OW31327   5.350   2.411   0.271
10143SOL    HW131328   5.306   2.399   0.360
10143SOL    HW231329   5.412   2.334   0.255
10144SOL     OW31330   4.521   6.856   5.879
10144SOL    HW131331   4.458   6.814   5.943
10144SOL    HW231332   4.508   6.955   5.879
10145SOL     OW31333   3.680   5.529   2.875
10145SOL    HW131334   3.658   5.623   2.902
10145SOL    HW231335   3.736   5.486   2.946
10146SOL     OW31336   6.382   3.933   4.565
10146SOL    HW131337   6.304   3.970   4.514
10146SOL    HW231338   6.386   3.977   4.655
10147SOL     OW31339   4.903   3.960   6.719
10147SOL    HW131340   4.809   3.961   6.752
10147SOL    HW231341   4.951   4.041   6.753
10148SOL     OW31342   5.866   4.677   0.339
10148SOL    HW131343   5.939   4.732   0.297
10148SOL    HW231344   5.807   4.640   0.267
10149SOL     OW31345   5.014   4.002   1.147
10149SOL    HW131346   5.107   4.036   1.164
10149SOL    HW231347   5.020   3.920   1.090
10150SOL     OW31348   4.294   3.257   1.555
10150SOL    HW131349   4.326   3.198   1.629
10150SOL    HW231350   4.242   3.334   1.594
10151SOL     OW31351   1.424   6.752   6.841
10151SOL    HW131352   1.384   6.819   6.779
10151SOL    HW231353   1.424   6.662   6.797
10152SOL     OW31354   6.730   5.998   3.684
10152SOL    HW131355   6.819   6.021   3.645
10152SOL    HW231356   6.731   6.016   3.782
10153SOL     OW31357   5.173   6.199   3.978
10153SOL    HW131358   5.240   6.219   3.906
10153SOL    HW231359   5.199   6.245   4.062
10154SOL     OW31360   3.623   6.575   5.507
10154SOL    HW131361   3.562   6.654   5.497
10154SOL    HW231362   3.641   6.536   5.416
10155SOL     OW31363   4.924   2.550   5.302
10155SOL    HW131364   4.873   2.565   5.217
10155SOL    HW231365   4.861   2.555   5.380
10156SOL     OW31366   5.377   0.489   1.642
10156SOL    HW131367   5.339   0.442   1.562
10156SOL    HW231368   5.469   0.455   1.660
10157SOL     OW31369   6.941   2.176   0.026
10157SOL    HW131370   6.859   2.121   0.009
10157SOL    HW231371   6.955   2.187   0.124
10158SOL     OW31372   6.038   6.556   0.902
10158SOL    HW131373   5.962   6.617   0.878
10158SOL    HW231374   6.121   6.611   0.915
10159SOL     OW31375   3.942   3.542   2.570
10159SOL    HW131376   3.901   3.495   2.492
10159SOL    HW231377   4.001   3.479   2.620
10160SOL     OW31378   1.596   3.860   3.452
10160SOL    HW131379   1.614   3.953   3.486
10160SOL    HW231380   1.613   3.794   3.526
10161SOL     OW31381   3.496   4.266   6.493
10161SOL    HW131382   3.512   4.177   6.450
10161SOL    HW231383   3.515   4.339   6.427
10162SOL     OW31384   2.861   4.419   0.979
10162SOL    HW131385   2.765   4.444   0.971
10162SOL    HW231386   2.902   4.417   0.888
10163SOL     OW31387   0.590   4.543   6.865
10163SOL    HW131388   0.543   4.488   6.796
10163SOL    HW231389   0.671   4.494   6.898
10164SOL     OW31390   5.742   3.824   4.635
10164SOL    HW131391   5.647   3.807   4.661
10164SOL    HW231392   5.786   3.738   4.609
10165SOL     OW31393   6.567   2.238   3.487
10165SOL    HW131394   6.647   2.218   3.544
10165SOL    HW231395   6.579   2.327   3.443
10166SOL     OW31396   2.167   1.476   1.361
10166SOL    HW131397   2.231   1.493   1.436
10166SOL    HW231398   2.163   1.556   1.302
10167SOL     OW31399   6.982   5.858   6.821
10167SOL    HW131400   6.966   5.910   6.905
10167SOL    HW231401   6.946   5.766   6.831
10168SOL     OW31402   6.685   2.308   6.114
10168SOL    HW131403   6.662   2.213   6.133
10168SOL    HW231404   6.601   2.362   6.109
10169SOL     OW31405   6.356   3.399   3.283
10169SOL    HW131406   6.361   3.319   3.223
10169SOL    HW231407   6.314   3.373   3.370
10170SOL     OW31408   6.206   5.921   6.247
10170SOL    HW131409   6.134   5.964   6.301
10170SOL    HW231410   6.274   5.881   6.307
10171SOL     OW31411   0.626   2.317   4.016
10171SOL    HW131412   0.553   2.282   4.074
10171SOL    HW231413   0.627   2.268   3.929
10172SOL     OW31414   0.896   6.532   4.343
10172SOL    HW131415   0.811   6.508   4.391
10172SOL    HW231416   0.877   6.543   4.245
10173SOL     OW31417   2.344   3.068   6.535
10173SOL    HW131418   2.345   3.151   6.590
10173SOL    HW231419   2.437   3.048   6.504
10174SOL     OW31420   5.057   4.696   3.714
10174SOL    HW131421   4.989   4.684   3.641
10174SOL    HW231422   5.115   4.774   3.692
10175SOL     OW31423   5.929   1.925   3.655
10175SOL    HW131424   5.990   1.996   3.618
10175SOL    HW231425   5.922   1.850   3.589
10176SOL     OW31426   6.365   2.905   5.632
10176SOL    HW131427   6.334   2.934   5.541
10176SOL    HW231428   6.294   2.849   5.675
10177SOL     OW31429   1.514   0.447   0.609
10177SOL    HW131430   1.512   0.381   0.684
10177SOL    HW231431   1.567   0.410   0.533
10178SOL     OW31432   0.994   0.907   0.104
10178SOL    HW131433   1.032   0.999   0.115
10178SOL    HW231434   0.911   0.899   0.160
10179SOL     OW31435   0.903   3.616   6.292
10179SOL    HW131436   0.818   3.570   6.266
10179SOL    HW231437   0.893   3.655   6.383
10180SOL     OW31438   4.714   0.053   0.788
10180SOL    HW131439   4.625   0.099   0.794
10180SOL    HW231440   4.786   0.121   0.803
10181SOL     OW31441   0.650   3.073   1.145
10181SOL    HW131442   0.556   3.067   1.110
10181SOL    HW231443   0.685   2.981   1.160
10182SOL     OW31444   5.052   0.896   0.064
10182SOL    HW131445   5.015   0.985   0.090
10182SOL    HW231446   5.018   0.872   7.000
10183SOL     OW31447   5.697   2.874   5.851
10183SOL    HW131448   5.735   2.881   5.759
10183SOL    HW231449   5.632   2.948   5.867
10184SOL     OW31450   4.787   2.828   6.823
10184SOL    HW131451   4.727   2.748   6.818
10184SOL    HW231452   4.878   2.804   6.790
10185SOL     OW31453   6.164   5.736   2.019
10185SOL    HW131454   6.160   5.734   2.119
10185SOL    HW231455   6.259   5.749   1.990
10186SOL     OW31456   4.899   3.816   4.647
10186SOL    HW131457   4.832   3.873   4.694
10186SOL    HW231458   4.930   3.744   4.708
10187SOL     OW31459   1.552   3.489   6.033
10187SOL    HW131460   1.452   3.481   6.032
10187SOL    HW231461   1.588   3.448   6.117
10188SOL     OW31462   2.356   5.081   6.396
10188SOL    HW131463   2.274   5.090   6.452
10188SOL    HW231464   2.435   5.063   6.454
10189SOL     OW31465   0.891   0.739   5.861
10189SOL    HW131466   0.892   0.837   5.880
10189SOL    HW231467   0.803   0.700   5.886
10190SOL     OW31468   4.045   3.027   1.689
10190SOL    HW131469   4.011   2.947   1.738
10190SOL    HW231470   4.118   3.000   1.626
10191SOL     OW31471   5.066   5.387   6.872
10191SOL    HW131472   5.161   5.357   6.864
10191SOL    HW231473   5.005   5.310   6.856
10192SOL     OW31474   3.478   1.789   5.271
10192SOL    HW131475   3.428   1.875   5.258
10192SOL    HW231476   3.576   1.806   5.263
10193SOL     OW31477   2.925   3.789   2.570
10193SOL    HW131478   2.835   3.830   2.554
10193SOL    HW231479   2.994   3.841   2.520
10194SOL     OW31480   4.792   1.139   4.170
10194SOL    HW131481   4.709   1.110   4.216
10194SOL    HW231482   4.837   1.059   4.129
10195SOL     OW31483   7.015   0.129   1.940
10195SOL    HW131484   7.013   0.048   1.881
10195SOL    HW231485   6.929   0.178   1.932
10196SOL     OW31486   4.623   2.270   3.984
10196SOL    HW131487   4.574   2.248   4.069
10196SOL    HW231488   4.577   2.346   3.938
10197SOL     OW31489   4.396   1.867   3.990
10197SOL    HW131490   4.411   1.913   3.903
10197SOL    HW231491   4.375   1.770   3.973
10198SOL     OW31492   4.045   6.957   1.006
10198SOL    HW131493   4.143   6.949   0.992
10198SOL    HW231494   4.000   6.872   0.979
10199SOL     OW31495   0.927   2.133   6.952
10199SOL    HW131496   0.934   2.229   6.924
10199SOL    HW231497   0.833   2.112   6.977
10200SOL     OW31498   5.243   3.436   5.628
10200SOL    HW131499   5.319   3.391   5.675
10200SOL    HW231500   5.275   3.521   5.586
10201SOL     OW31501   0.439   6.133   0.956
10201SOL    HW131502   0.401   6.081   0.880
10201SOL    HW231503   0.533   6.105   0.973
10202SOL     OW31504   1.540   4.436   0.046
10202SOL    HW131505   1.523   4.387   6.987
10202SOL    HW231506   1.563   4.531   0.025
10203SOL     OW31507   1.323   2.671   2.008
10203SOL    HW131508   1.251   2.661   1.939
10203SOL    HW231509   1.291   2.731   2.081
10204SOL     OW31510   3.427   5.729   6.312
10204SOL    HW131511   3.342   5.747   6.361
10204SOL    HW231512   3.485   5.669   6.367
10205SOL     OW31513   3.064   1.378   2.399
10205SOL    HW131514   3.149   1.342   2.360
10205SOL    HW231515   3.012   1.425   2.328
10206SOL     OW31516   5.167   0.049   6.402
10206SOL    HW131517   5.201   0.096   6.483
10206SOL    HW231518   5.204   0.093   6.320
10207SOL     OW31519   2.351   1.205   0.074
10207SOL    HW131520   2.431   1.147   0.086
10207SOL    HW231521   2.287   1.161   0.011
10208SOL     OW31522   6.438   4.405   3.860
10208SOL    HW131523   6.523   4.373   3.901
10208SOL    HW231524   6.452   4.495   3.818
10209SOL     OW31525   0.401   0.472   5.890
10209SOL    HW131526   0.366   0.552   5.841
10209SOL    HW231527   0.447   0.411   5.825
10210SOL     OW31528   5.247   7.025   1.519
10210SOL    HW131529   5.341   7.002   1.494
10210SOL    HW231530   5.248   0.068   1.591
10211SOL     OW31531   3.874   6.383   5.200
10211SOL    HW131532   3.801   6.429   5.250
10211SOL    HW231533   3.860   6.284   5.205
10212SOL     OW31534   6.946   0.565   5.090
10212SOL    HW131535   6.863   0.616   5.113
10212SOL    HW231536   6.938   0.472   5.124
10213SOL     OW31537   5.233   2.631   2.703
10213SOL    HW131538   5.258   2.542   2.664
10213SOL    HW231539   5.134   2.633   2.722
10214SOL     OW31540   1.144   1.758   2.488
10214SOL    HW131541   1.114   1.847   2.452
10214SOL    HW231542   1.235   1.737   2.452
10215SOL     OW31543   3.636   2.910   3.781
10215SOL    HW131544   3.620   3.007   3.763
10215SOL    HW231545   3.597   2.885   3.869
10216SOL     OW31546   0.714   0.028   0.918
10216SOL    HW131547   0.652   7.022   0.846
10216SOL    HW231548   0.805   7.016   0.903
10217SOL     OW31549   2.344   1.790   3.303
10217SOL    HW131550   2.246   1.780   3.319
10217SOL    HW231551   2.390   1.704   3.325
10218SOL     OW31552   1.603   0.609   2.075
10218SOL    HW131553   1.685   0.606   2.018
10218SOL    HW231554   1.549   0.526   2.060
10219SOL     OW31555   0.018   3.264   2.206
10219SOL    HW131556   7.009   3.176   2.236
10219SOL    HW231557   0.116   3.257   2.189
10220SOL     OW31558   4.327   1.973   1.593
10220SOL    HW131559   4.309   1.878   1.618
10220SOL    HW231560   4.391   1.975   1.515
10221SOL     OW31561   1.943   3.024   4.186
10221SOL    HW131562   2.027   3.078   4.179
10221SOL    HW231563   1.947   2.946   4.124
10222SOL     OW31564   2.713   3.682   5.914
10222SOL    HW131565   2.725   3.730   6.001
10222SOL    HW231566   2.698   3.749   5.841
10223SOL     OW31567   1.861   5.565   6.629
10223SOL    HW131568   1.803   5.505   6.574
10223SOL    HW231569   1.944   5.588   6.577
10224SOL     OW31570   0.034   1.674   5.240
10224SOL    HW131571   0.066   1.712   5.327
10224SOL    HW231572   0.100   1.608   5.206
10225SOL     OW31573   2.021   6.057   6.766
10225SOL    HW131574   2.030   6.145   6.813
10225SOL    HW231575   2.100   6.043   6.706
10226SOL     OW31576   2.530   0.326   6.695
10226SOL    HW131577   2.515   0.425   6.697
10226SOL    HW231578   2.465   0.284   6.632
10227SOL     OW31579   5.217   4.870   0.931
10227SOL    HW131580   5.145   4.803   0.909
10227SOL    HW231581   5.300   4.821   0.958
10228SOL     OW31582   0.776   5.707   2.257
10228SOL    HW131583   0.808   5.711   2.162
10228SOL    HW231584   0.679   5.682   2.257
10229SOL     OW31585   1.172   1.756   4.247
10229SOL    HW131586   1.124   1.733   4.162
10229SOL    HW231587   1.259   1.799   4.225
10230SOL     OW31588   6.354   6.229   3.359
10230SOL    HW131589   6.279   6.253   3.298
10230SOL    HW231590   6.431   6.195   3.306
10231SOL     OW31591   6.218   5.836   5.353
10231SOL    HW131592   6.153   5.773   5.395
10231SOL    HW231593   6.246   5.800   5.264
10232SOL     OW31594   2.882   0.642   4.805
10232SOL    HW131595   2.812   0.611   4.741
10232SOL    HW231596   2.865   0.737   4.829
10233SOL     OW31597   4.812   3.695   5.402
10233SOL    HW131598   4.836   3.706   5.306
10233SOL    HW231599   4.760   3.610   5.413
10234SOL     OW31600   5.158   0.700   0.489
10234SOL    HW131601   5.060   0.696   0.510
10234SOL    HW231602   5.198   0.782   0.529
10235SOL     OW31603   4.573   3.276   0.192
10235SOL    HW131604   4.584   3.183   0.227
10235SOL    HW231605   4.520   3.274   0.107
10236SOL     OW31606   2.251   0.210   1.720
10236SOL    HW131607   2.174   0.208   1.784
10236SOL    HW231608   2.216   0.201   1.627
10237SOL     OW31609   6.591   4.416   0.791
10237SOL    HW131610   6.634   4.361   0.862
10237SOL    HW231611   6.598   4.513   0.813
10238SOL     OW31612   3.285   4.085   3.654
10238SOL    HW131613   3.379   4.063   3.628
10238SOL    HW231614   3.285   4.126   3.746
10239SOL     OW31615   1.625   3.784   5.373
10239SOL    HW131616   1.704   3.732   5.339
10239SOL    HW231617   1.612   3.765   5.470
10240SOL     OW31618   2.225   4.747   3.478
10240SOL    HW131619   2.309   4.780   3.520
10240SOL    HW231620   2.156   4.732   3.549
10241SOL     OW31621   6.829   0.364   2.227
10241SOL    HW131622   6.792   0.276   2.258
10241SOL    HW231623   6.880   0.350   2.142
10242SOL     OW31624   6.913   1.019   6.959
10242SOL    HW131625   6.855   0.941   6.936
10242SOL    HW231626   6.975   1.038   6.883
10243SOL     OW31627   0.920   4.856   1.568
10243SOL    HW131628   0.920   4.816   1.660
10243SOL    HW231629   0.835   4.832   1.521
10244SOL     OW31630   0.937   4.078   0.556
10244SOL    HW131631   0.998   4.119   0.624
10244SOL    HW231632   0.870   4.020   0.602
10245SOL     OW31633   2.835   4.439   6.743
10245SOL    HW131634   2.778   4.362   6.774
10245SOL    HW231635   2.900   4.463   6.815
10246SOL     OW31636   3.343   4.172   3.909
10246SOL    HW131637   3.416   4.143   3.971
10246SOL    HW231638   3.305   4.259   3.941
10247SOL     OW31639   6.891   5.404   5.785
10247SOL    HW131640   6.844   5.482   5.742
10247SOL    HW231641   6.832   5.363   5.854
10248SOL     OW31642   3.264   6.797   2.204
10248SOL    HW131643   3.219   6.781   2.292
10248SOL    HW231644   3.302   6.890   2.203
10249SOL     OW31645   3.278   1.109   5.931
10249SOL    HW131646   3.376   1.115   5.951
10249SOL    HW231647   3.233   1.055   6.002
10250SOL     OW31648   6.914   2.864   0.777
10250SOL    HW131649   6.913   2.961   0.800
10250SOL    HW231650   6.916   2.810   0.862
10251SOL     OW31651   2.269   2.128   5.441
10251SOL    HW131652   2.277   2.178   5.354
10251SOL    HW231653   2.279   2.192   5.517
10252SOL     OW31654   4.914   4.748   0.016
10252SOL    HW131655   5.002   4.722   7.002
10252SOL    HW231656   4.840   4.717   6.983
10253SOL     OW31657   3.821   5.898   0.254
10253SOL    HW131658   3.851   5.920   0.347
10253SOL    HW231659   3.753   5.966   0.224
10254SOL     OW31660   5.148   1.870   5.204
10254SOL    HW131661   5.136   1.925   5.287
10254SOL    HW231662   5.243   1.840   5.197
10255SOL     OW31663   1.758   6.706   1.082
10255SOL    HW131664   1.717   6.783   1.130
10255SOL    HW231665   1.780   6.634   1.147
10256SOL     OW31666   5.864   0.966   1.770
10256SOL    HW131667   5.840   0.950   1.674
10256SOL    HW231668   5.941   0.908   1.795
10257SOL     OW31669   1.974   5.381   4.525
10257SOL    HW131670   1.917   5.382   4.607
10257SOL    HW231671   2.017   5.291   4.515
10258SOL     OW31672   3.637   1.279   4.500
10258SOL    HW131673   3.670   1.269   4.407
10258SOL    HW231674   3.699   1.232   4.563
10259SOL     OW31675   0.356   4.339   3.394
10259SOL    HW131676   0.412   4.403   3.343
10259SOL    HW231677   0.262   4.343   3.361
10260SOL     OW31678   0.348   0.642   3.309
10260SOL    HW131679   0.385   0.648   3.401
10260SOL    HW231680   0.402   0.699   3.247
10261SOL     OW31681   6.935   5.490   2.969
10261SOL    HW131682   6.932   5.567   3.032
10261SOL    HW231683   6.870   5.420   2.997
10262SOL     OW31684   2.002   6.727   4.350
10262SOL    HW131685   2.042   6.635   4.351
10262SOL    HW231686   2.055   6.785   4.288
10263SOL     OW31687   5.210   0.863   6.401
10263SOL    HW131688   5.250   0.882   6.312
10263SOL    HW231689   5.147   0.785   6.394
10264SOL     OW31690   5.935   2.633   5.904
10264SOL    HW131691   5.886   2.718   5.883
10264SOL    HW231692   5.882   2.555   5.871
10265SOL     OW31693   3.108   2.164   3.123
10265SOL    HW131694   3.033   2.217   3.083
10265SOL    HW231695   3.124   2.195   3.217
10266SOL     OW31696   3.105   3.129   4.960
10266SOL    HW131697   3.198   3.164   4.953
10266SOL    HW231698   3.102   3.053   5.025
10267SOL     OW31699   6.386   1.549   0.063
10267SOL    HW131700   6.325   1.501   0.001
10267SOL    HW231701   6.333   1.593   0.136
10268SOL     OW31702   5.360   5.183   1.927
10268SOL    HW131703   5.302   5.104   1.949
10268SOL    HW231704   5.436   5.188   1.990
10269SOL     OW31705   0.395   2.723   5.312
10269SOL    HW131706   0.481   2.772   5.328
10269SOL    HW231707   0.328   2.786   5.273
10270SOL     OW31708   3.363   5.054   3.002
10270SOL    HW131709   3.429   5.050   2.927
10270SOL    HW231710   3.371   5.141   3.050
10271SOL     OW31711   3.632   2.531   0.094
10271SOL    HW131712   3.557   2.592   0.069
10271SOL    HW231713   3.676   2.496   0.012
10272SOL     OW31714   0.565   7.007   5.165
10272SOL    HW131715   0.488   0.030   5.205
10272SOL    HW231716   0.551   6.996   5.067
10273SOL     OW31717   4.100   5.324   2.891
10273SOL    HW131718   4.189   5.357   2.922
10273SOL    HW231719   4.087   5.349   2.795
10274SOL     OW31720   6.860   4.957   4.590
10274SOL    HW131721   6.844   5.052   4.618
10274SOL    HW231722   6.891   4.904   4.669
10275SOL     OW31723   0.730   6.745   1.613
10275SOL    HW131724   0.727   6.785   1.705
10275SOL    HW231725   0.792   6.667   1.612
10276SOL     OW31726   5.639   5.594   5.515
10276SOL    HW131727   5.664   5.627   5.424
10276SOL    HW231728   5.561   5.646   5.549
10277SOL     OW31729   2.452   5.550   3.988
10277SOL    HW131730   2.536   5.505   4.019
10277SOL    HW231731   2.399   5.580   4.067
10278SOL     OW31732   6.714   1.205   4.763
10278SOL    HW131733   6.688   1.299   4.783
10278SOL    HW231734   6.773   1.170   4.836
10279SOL     OW31735   2.584   5.716   4.936
10279SOL    HW131736   2.556   5.794   4.880
10279SOL    HW231737   2.506   5.684   4.989
10280SOL     OW31738   1.255   4.107   1.222
10280SOL    HW131739   1.272   4.143   1.314
10280SOL    HW231740   1.235   4.009   1.228
10281SOL     OW31741   6.057   1.154   2.874
10281SOL    HW131742   6.035   1.236   2.822
10281SOL    HW231743   6.137   1.110   2.834
10282SOL     OW31744   6.370   4.277   4.297
10282SOL    HW131745   6.366   4.220   4.215
10282SOL    HW231746   6.277   4.300   4.327
10283SOL     OW31747   0.492   3.533   1.060
10283SOL    HW131748   0.556   3.595   1.015
10283SOL    HW231749   0.521   3.438   1.044
10284SOL     OW31750   5.434   3.417   5.365
10284SOL    HW131751   5.398   3.390   5.275
10284SOL    HW231752   5.433   3.517   5.371
10285SOL     OW31753   4.816   1.011   1.171
10285SOL    HW131754   4.801   1.087   1.108
10285SOL    HW231755   4.912   1.009   1.199
10286SOL     OW31756   3.217   1.912   4.005
10286SOL    HW131757   3.118   1.918   4.000
10286SOL    HW231758   3.251   1.848   3.935
10287SOL     OW31759   2.543   6.018   0.767
10287SOL    HW131760   2.492   5.933   0.772
10287SOL    HW231761   2.641   5.999   0.779
10288SOL     OW31762   5.250   5.958   2.339
10288SOL    HW131763   5.303   5.947   2.255
10288SOL    HW231764   5.261   6.052   2.372
10289SOL     OW31765   3.211   0.927   2.108
10289SOL    HW131766   3.186   0.908   2.203
10289SOL    HW231767   3.167   1.012   2.078
10290SOL     OW31768   2.873   3.714   1.717
10290SOL    HW131769   2.870   3.667   1.629
10290SOL    HW231770   2.806   3.788   1.717
10291SOL     OW31771   3.548   1.063   3.668
10291SOL    HW131772   3.547   1.162   3.657
10291SOL    HW231773   3.581   1.040   3.760
10292SOL     OW31774   1.966   0.427   4.851
10292SOL    HW131775   1.976   0.524   4.874
10292SOL    HW231776   1.892   0.388   4.906
10293SOL     OW31777   1.630   5.401   3.441
10293SOL    HW131778   1.685   5.370   3.363
10293SOL    HW231779   1.667   5.363   3.525
10294SOL     OW31780   5.659   3.655   2.407
10294SOL    HW131781   5.720   3.584   2.441
10294SOL    HW231782   5.586   3.671   2.473
10295SOL     OW31783   5.500   5.172   6.116
10295SOL    HW131784   5.523   5.180   6.213
10295SOL    HW231785   5.575   5.126   6.068
10296SOL     OW31786   4.615   2.970   0.421
10296SOL    HW131787   4.593   2.885   0.469
10296SOL    HW231788   4.547   3.039   0.444
10297SOL     OW31789   2.103   6.452   6.639
10297SOL    HW131790   2.076   6.529   6.582
10297SOL    HW231791   2.160   6.390   6.585
10298SOL     OW31792   3.384   4.906   2.006
10298SOL    HW131793   3.314   4.857   2.058
10298SOL    HW231794   3.444   4.840   1.961
10299SOL     OW31795   4.801   5.179   2.432
10299SOL    HW131796   4.786   5.274   2.459
10299SOL    HW231797   4.718   5.143   2.390
10300SOL     OW31798   1.800   4.784   3.310
10300SOL    HW131799   1.727   4.838   3.267
10300SOL    HW231800   1.774   4.687   3.310
10301SOL     OW31801   5.930   1.734   3.902
10301SOL    HW131802   5.893   1.653   3.857
10301SOL    HW231803   5.940   1.807   3.835
10302SOL     OW31804   0.884   5.655   3.730
10302SOL    HW131805   0.887   5.630   3.827
10302SOL    HW231806   0.802   5.617   3.688
10303SOL     OW31807   2.233   5.944   2.609
10303SOL    HW131808   2.159   5.954   2.543
10303SOL    HW231809   2.318   5.924   2.560
10304SOL     OW31810   5.276   0.693   2.392
10304SOL    HW131811   5.256   0.599   2.365
10304SOL    HW231812   5.191   0.745   2.397
10305SOL     OW31813   0.301   4.678   6.744
10305SOL    HW131814   0.276   4.587   6.776
10305SOL    HW231815   0.398   4.694   6.763
10306SOL     OW31816   4.398   6.566   7.005
10306SOL    HW131817   4.316   6.620   6.987
10306SOL    HW231818   4.372   6.472   7.026
10307SOL     OW31819   2.326   2.357   4.579
10307SOL    HW131820   2.326   2.356   4.679
10307SOL    HW231821   2.296   2.268   4.545
10308SOL     OW31822   2.598   5.178   4.557
10308SOL    HW131823   2.675   5.163   4.619
10308SOL    HW231824   2.584   5.096   4.501
10309SOL     OW31825   5.833   1.274   4.439
10309SOL    HW131826   5.926   1.310   4.430
10309SOL    HW231827   5.791   1.312   4.521
10310SOL     OW31828   4.402   3.104   1.740
10310SOL    HW131829   4.396   3.016   1.691
10310SOL    HW231830   4.451   3.090   1.826
10311SOL     OW31831   0.709   6.048   1.012
10311SOL    HW131832   0.799   6.016   0.979
10311SOL    HW231833   0.697   6.021   1.107
10312SOL     OW31834   2.386   6.364   1.204
10312SOL    HW131835   2.429   6.311   1.130
10312SOL    HW231836   2.376   6.306   1.285
10313SOL     OW31837   4.360   0.273   1.279
10313SOL    HW131838   4.396   0.306   1.366
10313SOL    HW231839   4.271   0.316   1.262
10314SOL     OW31840   0.159   0.377   2.409
10314SOL    HW131841   0.141   0.464   2.454
10314SOL    HW231842   0.185   0.393   2.314
10315SOL     OW31843   6.398   5.409   4.247
10315SOL    HW131844   6.469   5.357   4.201
10315SOL    HW231845   6.371   5.487   4.190
10316SOL     OW31846   6.746   2.408   4.961
10316SOL    HW131847   6.723   2.500   4.930
10316SOL    HW231848   6.814   2.413   5.035
10317SOL     OW31849   3.560   5.709   5.608
10317SOL    HW131850   3.648   5.738   5.646
10317SOL    HW231851   3.486   5.747   5.663
10318SOL     OW31852   5.160   6.078   6.756
10318SOL    HW131853   5.137   6.047   6.848
10318SOL    HW231854   5.105   6.159   6.733
10319SOL     OW31855   2.095   2.756   5.688
10319SOL    HW131856   2.166   2.705   5.736
10319SOL    HW231857   2.006   2.713   5.706
10320SOL     OW31858   0.889   0.758   1.875
10320SOL    HW131859   0.861   0.684   1.814
10320SOL    HW231860   0.811   0.790   1.927
10321SOL     OW31861   4.399   0.623   3.351
10321SOL    HW131862   4.311   0.669   3.339
10321SOL    HW231863   4.473   0.684   3.322
10322SOL     OW31864   6.604   5.965   6.164
10322SOL    HW131865   6.628   6.061   6.178
10322SOL    HW231866   6.547   5.933   6.240
10323SOL     OW31867   6.225   3.484   5.735
10323SOL    HW131868   6.131   3.507   5.759
10323SOL    HW231869   6.276   3.567   5.713
10324SOL     OW31870   2.977   3.300   3.155
10324SOL    HW131871   3.028   3.222   3.117
10324SOL    HW231872   3.026   3.336   3.234
10325SOL     OW31873   6.429   3.953   3.089
10325SOL    HW131874   6.499   3.895   3.131
10325SOL    HW231875   6.461   3.982   2.999
10326SOL     OW31876   3.902   3.268   0.152
10326SOL    HW131877   3.813   3.286   0.111
10326SOL    HW231878   3.913   3.325   0.233
10327SOL     OW31879   2.586   1.864   1.506
10327SOL    HW131880   2.642   1.793   1.551
10327SOL    HW231881   2.512   1.891   1.568
10328SOL     OW31882   6.164   3.262   1.430
10328SOL    HW131883   6.168   3.174   1.382
10328SOL    HW231884   6.184   3.247   1.527
10329SOL     OW31885   3.543   0.173   4.346
10329SOL    HW131886   3.595   0.131   4.420
10329SOL    HW231887   3.604   0.190   4.269
10330SOL     OW31888   3.847   5.618   2.054
10330SOL    HW131889   3.866   5.713   2.081
10330SOL    HW231890   3.867   5.557   2.131
10331SOL     OW31891   6.272   0.786   4.061
10331SOL    HW131892   6.320   0.743   4.138
10331SOL    HW231893   6.324   0.866   4.031
10332SOL     OW31894   6.148   1.555   0.313
10332SOL    HW131895   6.104   1.643   0.331
10332SOL    HW231896   6.124   1.524   0.221
10333SOL     OW31897   6.597   4.253   4.440
10333SOL    HW131898   6.681   4.246   4.387
10333SOL    HW231899   6.519   4.237   4.380
10334SOL     OW31900   2.497   5.903   4.127
10334SOL    HW131901   2.537   5.823   4.173
10334SOL    HW231902   2.407   5.922   4.166
10335SOL     OW31903   2.743   4.683   6.807
10335SOL    HW131904   2.779   4.598   6.769
10335SOL    HW231905   2.663   4.711   6.755
10336SOL     OW31906   5.492   0.269   3.211
10336SOL    HW131907   5.428   0.239   3.282
10336SOL    HW231908   5.460   0.236   3.122
10337SOL     OW31909   6.520   6.528   5.970
10337SOL    HW131910   6.595   6.594   5.977
10337SOL    HW231911   6.511   6.479   6.057
10338SOL     OW31912   3.099   6.088   1.902
10338SOL    HW131913   3.149   6.144   1.969
10338SOL    HW231914   3.163   6.050   1.835
10339SOL     OW31915   3.003   5.514   0.489
10339SOL    HW131916   3.006   5.576   0.411
10339SOL    HW231917   3.073   5.444   0.479
10340SOL     OW31918   1.593   5.348   0.569
10340SOL    HW131919   1.539   5.371   0.488
10340SOL    HW231920   1.566   5.407   0.645
10341SOL     OW31921   2.109   3.476   1.688
10341SOL    HW131922   2.172   3.500   1.762
10341SOL    HW231923   2.046   3.551   1.673
10342SOL     OW31924   2.025   6.053   5.790
10342SOL    HW131925   2.081   6.070   5.871
10342SOL    HW231926   2.054   6.114   5.716
10343SOL     OW31927   1.948   3.978   0.356
10343SOL    HW131928   1.906   3.965   0.446
10343SOL    HW231929   1.927   4.070   0.323
10344SOL     OW31930   4.182   3.428   1.711
10344SOL    HW131931   4.203   3.407   1.807
10344SOL    HW231932   4.176   3.527   1.699
10345SOL     OW31933   1.560   0.835   6.046
10345SOL    HW131934   1.615   0.804   5.970
10345SOL    HW231935   1.599   0.802   6.132
10346SOL     OW31936   6.370   1.351   1.099
10346SOL    HW131937   6.450   1.332   1.043
10346SOL    HW231938   6.319   1.266   1.114
10347SOL     OW31939   5.319   2.405   2.577
10347SOL    HW131940   5.304   2.323   2.633
10347SOL    HW231941   5.291   2.387   2.483
10348SOL     OW31942   6.652   1.802   6.668
10348SOL    HW131943   6.601   1.749   6.736
10348SOL    HW231944   6.653   1.898   6.695
10349SOL     OW31945   7.009   1.858   0.252
10349SOL    HW131946   0.063   1.873   0.195
10349SOL    HW231947   0.002   1.785   0.319
10350SOL     OW31948   2.550   6.552   5.035
10350SOL    HW131949   2.618   6.524   5.103
10350SOL    HW231950   2.472   6.490   5.040
10351SOL     OW31951   5.579   5.186   6.362
10351SOL    HW131952   5.650   5.120   6.389
10351SOL    HW231953   5.569   5.255   6.434
10352SOL     OW31954   5.630   1.443   6.492
10352SOL    HW131955   5.653   1.379   6.566
10352SOL    HW231956   5.696   1.518   6.491
10353SOL     OW31957   6.605   2.723   4.552
10353SOL    HW131958   6.548   2.641   4.551
10353SOL    HW231959   6.669   2.721   4.476
10354SOL     OW31960   0.111   2.256   1.927
10354SOL    HW131961   0.083   2.301   1.842
10354SOL    HW231962   0.046   2.183   1.948
10355SOL     OW31963   1.357   0.628   0.932
10355SOL    HW131964   1.344   0.577   1.017
10355SOL    HW231965   1.448   0.609   0.895
10356SOL     OW31966   0.069   3.834   5.575
10356SOL    HW131967   0.018   3.764   5.626
10356SOL    HW231968   0.166   3.825   5.594
10357SOL     OW31969   3.976   2.737   6.516
10357SOL    HW131970   4.043   2.749   6.443
10357SOL    HW231971   3.893   2.787   6.494
10358SOL     OW31972   0.436   2.830   3.783
10358SOL    HW131973   0.345   2.799   3.812
10358SOL    HW231974   0.468   2.901   3.846
10359SOL     OW31975   5.095   1.798   1.600
10359SOL    HW131976   5.027   1.731   1.629
10359SOL    HW231977   5.051   1.871   1.548
10360SOL     OW31978   5.219   5.947   1.762
10360SOL    HW131979   5.251   6.021   1.821
10360SOL    HW231980   5.239   5.859   1.805
10361SOL     OW31981   2.386   1.012   2.716
10361SOL    HW131982   2.409   0.922   2.755
10361SOL    HW231983   2.334   0.999   2.632
10362SOL     OW31984   0.683   5.016   3.179
10362SOL    HW131985   0.766   5.032   3.232
10362SOL    HW231986   0.641   4.930   3.207
10363SOL     OW31987   5.122   2.702   1.596
10363SOL    HW131988   5.097   2.641   1.521
10363SOL    HW231989   5.163   2.649   1.670
10364SOL     OW31990   4.537   4.221   1.418
10364SOL    HW131991   4.588   4.142   1.383
10364SOL    HW231992   4.529   4.290   1.346
10365SOL     OW31993   6.057   4.045   6.729
10365SOL    HW131994   6.044   3.948   6.749
10365SOL    HW231995   6.044   4.098   6.813
10366SOL     OW31996   3.373   6.560   3.790
10366SOL    HW131997   3.317   6.637   3.822
10366SOL    HW231998   3.358   6.548   3.691
10367SOL     OW31999   6.973   1.604   1.776
10367SOL    HW132000   6.892   1.551   1.799
10367SOL    HW232001   0.020   1.543   1.746
10368SOL     OW32002   1.772   1.312   2.257
10368SOL    HW132003   1.736   1.283   2.168
10368SOL    HW232004   1.835   1.242   2.291
10369SOL     OW32005   3.367   6.913   6.070
10369SOL    HW132006   3.432   6.984   6.097
10369SOL    HW232007   3.298   6.902   6.142
10370SOL     OW32008   7.008   0.881   5.312
10370SOL    HW132009   6.926   0.935   5.292
10370SOL    HW232010   0.059   0.919   5.262
10371SOL     OW32011   2.155   6.332   4.726
10371SOL    HW132012   2.087   6.353   4.797
10371SOL    HW232013   2.173   6.414   4.672
10372SOL     OW32014   2.446   1.460   0.005
10372SOL    HW132015   2.504   1.486   0.083
10372SOL    HW232016   2.420   1.364   0.013
10373SOL     OW32017   1.587   6.521   5.322
10373SOL    HW132018   1.679   6.554   5.304
10373SOL    HW232019   1.526   6.598   5.337
10374SOL     OW32020   3.519   0.442   3.716
10374SOL    HW132021   3.497   0.344   3.709
10374SOL    HW232022   3.593   0.463   3.653
10375SOL     OW32023   2.356   2.472   6.222
10375SOL    HW132024   2.421   2.522   6.165
10375SOL    HW232025   2.272   2.526   6.232
10376SOL     OW32026   1.374   5.954   4.305
10376SOL    HW132027   1.275   5.961   4.295
10376SOL    HW232028   1.396   5.872   4.358
10377SOL     OW32029   0.072   0.733   2.078
10377SOL    HW132030   0.094   0.707   1.984
10377SOL    HW232031   0.112   0.822   2.099
10378SOL     OW32032   5.966   5.706   5.505
10378SOL    HW132033   5.932   5.757   5.584
10378SOL    HW232034   5.889   5.677   5.448
10379SOL     OW32035   3.383   5.836   4.230
10379SOL    HW132036   3.455   5.905   4.237
10379SOL    HW232037   3.375   5.805   4.136
10380SOL     OW32038   0.947   2.471   4.511
10380SOL    HW132039   0.852   2.450   4.532
10380SOL    HW232040   1.006   2.396   4.542
10381SOL     OW32041   4.212   3.967   1.242
10381SOL    HW132042   4.113   3.979   1.236
10381SOL    HW232043   4.233   3.891   1.305
10382SOL     OW32044   2.470   5.489   1.462
10382SOL    HW132045   2.455   5.508   1.365
10382SOL    HW232046   2.519   5.403   1.471
10383SOL     OW32047   1.323   3.962   0.690
10383SOL    HW132048   1.413   3.933   0.658
10383SOL    HW232049   1.290   3.899   0.759
10384SOL     OW32050   6.547   6.935   0.903
10384SOL    HW132051   6.631   6.961   0.856
10384SOL    HW232052   6.514   7.012   0.957
10385SOL     OW32053   4.030   6.101   6.368
10385SOL    HW132054   4.115   6.050   6.355
10385SOL    HW232055   3.964   6.075   6.298
10386SOL     OW32056   6.673   1.145   5.657
10386SOL    HW132057   6.763   1.135   5.699
10386SOL    HW232058   6.606   1.173   5.726
10387SOL     OW32059   4.571   2.134   3.290
10387SOL    HW132060   4.475   2.111   3.306
10387SOL    HW232061   4.627   2.053   3.303
10388SOL     OW32062   2.109   5.637   1.832
10388SOL    HW132063   2.188   5.617   1.773
10388SOL    HW232064   2.056   5.712   1.793
10389SOL     OW32065   6.619   4.910   0.788
10389SOL    HW132066   6.599   5.003   0.756
10389SOL    HW232067   6.547   4.848   0.758
10390SOL     OW32068   1.916   3.635   0.626
10390SOL    HW132069   1.847   3.687   0.676
10390SOL    HW232070   2.006   3.673   0.642
10391SOL     OW32071   0.277   6.035   3.335
10391SOL    HW132072   0.256   6.123   3.377
10391SOL    HW232073   0.365   6.002   3.370
10392SOL     OW32074   6.416   4.592   5.575
10392SOL    HW132075   6.370   4.677   5.553
10392SOL    HW232076   6.383   4.519   5.516
10393SOL     OW32077   2.513   2.544   3.248
10393SOL    HW132078   2.500   2.522   3.151
10393SOL    HW232079   2.600   2.505   3.279
10394SOL     OW32080   2.245   5.316   5.519
10394SOL    HW132081   2.168   5.281   5.465
10394SOL    HW232082   2.299   5.378   5.462
10395SOL     OW32083   0.846   1.014   1.419
10395SOL    HW132084   0.777   0.956   1.377
10395SOL    HW232085   0.874   0.974   1.507
10396SOL     OW32086   3.858   1.200   3.747
10396SOL    HW132087   3.811   1.228   3.663
10396SOL    HW232088   3.791   1.166   3.813
10397SOL     OW32089   3.112   1.405   5.024
10397SOL    HW132090   3.103   1.386   4.926
10397SOL    HW232091   3.189   1.352   5.061
10398SOL     OW32092   5.985   2.244   0.482
10398SOL    HW132093   6.038   2.322   0.515
10398SOL    HW232094   6.042   2.162   0.486
10399SOL     OW32095   4.956   1.818   3.599
10399SOL    HW132096   5.008   1.733   3.612
10399SOL    HW232097   4.979   1.858   3.510
10400SOL     OW32098   4.338   5.618   0.200
10400SOL    HW132099   4.275   5.683   0.244
10400SOL    HW232100   4.293   5.578   0.120
10401SOL     OW32101   0.051   6.433   1.999
10401SOL    HW132102   0.010   6.523   2.011
10401SOL    HW232103   0.079   6.397   2.088
10402SOL     OW32104   6.971   1.265   5.628
10402SOL    HW132105   6.998   1.170   5.615
10402SOL    HW232106   6.984   1.316   5.543
10403SOL     OW32107   4.328   1.962   3.237
10403SOL    HW132108   4.365   1.904   3.164
10403SOL    HW232109   4.231   1.977   3.222
10404SOL     OW32110   6.679   6.200   4.538
10404SOL    HW132111   6.770   6.187   4.499
10404SOL    HW232112   6.638   6.283   4.501
10405SOL     OW32113   1.053   5.991   4.996
10405SOL    HW132114   1.052   5.898   4.958
10405SOL    HW232115   1.122   5.996   5.069
10406SOL     OW32116   1.947   3.257   4.889
10406SOL    HW132117   2.039   3.226   4.867
10406SOL    HW232118   1.894   3.266   4.805
10407SOL     OW32119   3.218   6.942   6.312
10407SOL    HW132120   3.293   6.923   6.375
10407SOL    HW232121   3.170   7.025   6.342
10408SOL     OW32122   4.648   0.045   1.369
10408SOL    HW132123   4.590   0.104   1.425
10408SOL    HW232124   4.619   6.976   1.380
10409SOL     OW32125   6.942   4.262   1.364
10409SOL    HW132126   6.875   4.335   1.377
10409SOL    HW232127   6.934   4.227   1.271
10410SOL     OW32128   5.115   2.168   2.153
10410SOL    HW132129   5.067   2.086   2.124
10410SOL    HW232130   5.107   2.178   2.252
10411SOL     OW32131   3.202   6.027   3.483
10411SOL    HW132132   3.180   6.114   3.526
10411SOL    HW232133   3.301   6.019   3.472
10412SOL     OW32134   0.650   1.178   1.140
10412SOL    HW132135   0.745   1.188   1.111
10412SOL    HW232136   0.633   1.235   1.221
10413SOL     OW32137   6.214   2.860   1.695
10413SOL    HW132138   6.152   2.925   1.739
10413SOL    HW232139   6.201   2.770   1.735
10414SOL     OW32140   3.521   4.630   6.101
10414SOL    HW132141   3.616   4.636   6.071
10414SOL    HW232142   3.470   4.570   6.040
10415SOL     OW32143   1.554   4.521   4.036
10415SOL    HW132144   1.541   4.581   4.115
10415SOL    HW232145   1.490   4.445   4.042
10416SOL     OW32146   5.833   6.821   5.047
10416SOL    HW132147   5.884   6.873   5.116
10416SOL    HW232148   5.843   6.723   5.064
10417SOL     OW32149   4.037   4.922   3.890
10417SOL    HW132150   4.032   5.013   3.850
10417SOL    HW232151   4.124   4.911   3.939
10418SOL     OW32152   6.774   4.830   5.992
10418SOL    HW132153   6.763   4.855   5.895
10418SOL    HW232154   6.693   4.780   6.022
10419SOL     OW32155   3.389   6.623   6.124
10419SOL    HW132156   3.479   6.585   6.144
10419SOL    HW232157   3.398   6.703   6.066
10420SOL     OW32158   0.455   3.493   3.900
10420SOL    HW132159   0.474   3.591   3.913
10420SOL    HW232160   0.366   3.471   3.940
10421SOL     OW32161   0.924   3.405   3.768
10421SOL    HW132162   0.949   3.460   3.848
10421SOL    HW232163   0.983   3.325   3.763
10422SOL     OW32164   6.152   3.472   5.368
10422SOL    HW132165   6.081   3.407   5.345
10422SOL    HW232166   6.182   3.520   5.286
10423SOL     OW32167   5.786   4.994   5.799
10423SOL    HW132168   5.837   5.072   5.764
10423SOL    HW232169   5.844   4.912   5.796
10424SOL     OW32170   4.063   2.979   0.891
10424SOL    HW132171   3.997   2.972   0.965
10424SOL    HW232172   4.015   2.984   0.803
10425SOL     OW32173   0.911   6.460   2.396
10425SOL    HW132174   0.811   6.467   2.395
10425SOL    HW232175   0.951   6.552   2.399
10426SOL     OW32176   5.653   4.658   6.963
10426SOL    HW132177   5.660   4.595   0.014
10426SOL    HW232178   5.735   4.652   6.907
10427SOL     OW32179   3.950   1.331   0.408
10427SOL    HW132180   3.970   1.426   0.433
10427SOL    HW232181   3.912   1.328   0.315
10428SOL     OW32182   3.540   0.641   3.899
10428SOL    HW132183   3.536   0.572   3.826
10428SOL    HW232184   3.447   0.659   3.933
10429SOL     OW32185   6.689   4.176   2.509
10429SOL    HW132186   6.717   4.080   2.513
10429SOL    HW232187   6.769   4.235   2.512
10430SOL     OW32188   5.055   0.078   5.242
10430SOL    HW132189   5.130   0.099   5.179
10430SOL    HW232190   5.067   7.012   5.278
10431SOL     OW32191   2.613   6.011   4.338
10431SOL    HW132192   2.561   6.011   4.253
10431SOL    HW232193   2.619   5.918   4.374
10432SOL     OW32194   6.032   0.212   4.489
10432SOL    HW132195   5.936   0.228   4.466
10432SOL    HW232196   6.040   0.185   4.584
10433SOL     OW32197   1.023   6.000   2.501
10433SOL    HW132198   0.999   6.050   2.584
10433SOL    HW232199   0.942   5.952   2.467
10434SOL     OW32200   3.799   5.886   2.764
10434SOL    HW132201   3.795   5.920   2.670
10434SOL    HW232202   3.866   5.938   2.816
10435SOL     OW32203   0.858   1.581   5.496
10435SOL    HW132204   0.801   1.531   5.562
10435SOL    HW232205   0.926   1.520   5.457
10436SOL     OW32206   6.244   4.927   5.409
10436SOL    HW132207   6.342   4.926   5.392
10436SOL    HW232208   6.219   5.009   5.459
10437SOL     OW32209   4.684   4.240   5.965
10437SOL    HW132210   4.737   4.248   6.050
10437SOL    HW232211   4.595   4.283   5.977
10438SOL     OW32212   0.278   6.285   6.665
10438SOL    HW132213   0.235   6.213   6.720
10438SOL    HW232214   0.370   6.257   6.639
10439SOL     OW32215   4.320   1.523   4.671
10439SOL    HW132216   4.248   1.539   4.603
10439SOL    HW232217   4.297   1.569   4.756
10440SOL     OW32218   0.268   6.724   0.679
10440SOL    HW132219   0.294   6.677   0.763
10440SOL    HW232220   0.346   6.727   0.616
10441SOL     OW32221   4.207   1.387   1.477
10441SOL    HW132222   4.198   1.426   1.386
10441SOL    HW232223   4.126   1.333   1.499
10442SOL     OW32224   4.363   6.946   6.790
10442SOL    HW132225   4.313   6.860   6.799
10442SOL    HW232226   4.406   6.951   6.700
10443SOL     OW32227   4.902   3.439   3.915
10443SOL    HW132228   4.898   3.516   3.979
10443SOL    HW232229   4.906   3.475   3.822
10444SOL     OW32230   4.554   5.841   3.296
10444SOL    HW132231   4.640   5.794   3.318
10444SOL    HW232232   4.510   5.872   3.381
10445SOL     OW32233   0.192   4.407   4.369
10445SOL    HW132234   0.095   4.383   4.369
10445SOL    HW232235   0.204   4.495   4.323
10446SOL     OW32236   2.401   3.223   5.916
10446SOL    HW132237   2.346   3.248   5.836
10446SOL    HW232238   2.476   3.288   5.927
10447SOL     OW32239   0.218   0.741   2.755
10447SOL    HW132240   0.222   0.841   2.744
10447SOL    HW232241   0.127   0.715   2.785
10448SOL     OW32242   4.801   0.829   2.576
10448SOL    HW132243   4.719   0.780   2.604
10448SOL    HW232244   4.783   0.927   2.577
10449SOL     OW32245   1.614   5.000   5.542
10449SOL    HW132246   1.678   4.930   5.511
10449SOL    HW232247   1.526   4.958   5.565
10450SOL     OW32248   0.408   1.054   0.669
10450SOL    HW132249   0.354   1.077   0.751
10450SOL    HW232250   0.499   1.094   0.677
10451SOL     OW32251   2.257   5.499   2.565
10451SOL    HW132252   2.269   5.541   2.655
10451SOL    HW232253   2.294   5.406   2.566
10452SOL     OW32254   6.501   3.101   2.029
10452SOL    HW132255   6.558   3.096   1.946
10452SOL    HW232256   6.420   3.156   2.010
10453SOL     OW32257   4.851   7.002   1.205
10453SOL    HW132258   4.784   0.022   1.263
10453SOL    HW232259   4.806   6.929   1.154
10454SOL     OW32260   5.026   2.895   0.289
10454SOL    HW132261   4.964   2.973   0.299
10454SOL    HW232262   5.033   2.870   0.193
10455SOL     OW32263   6.360   6.844   3.588
10455SOL    HW132264   6.339   6.770   3.525
10455SOL    HW232265   6.372   6.807   3.680
10456SOL     OW32266   1.857   5.501   0.386
10456SOL    HW132267   1.820   5.430   0.326
10456SOL    HW232268   1.787   5.570   0.404
10457SOL     OW32269   3.311   2.747   1.160
10457SOL    HW132270   3.308   2.786   1.253
10457SOL    HW232271   3.250   2.668   1.155
10458SOL     OW32272   6.362   0.638   6.371
10458SOL    HW132273   6.272   0.679   6.360
10458SOL    HW232274   6.422   0.669   6.298
10459SOL     OW32275   4.445   6.356   1.803
10459SOL    HW132276   4.534   6.366   1.758
10459SOL    HW232277   4.372   6.376   1.737
10460SOL     OW32278   0.530   4.334   2.321
10460SOL    HW132279   0.526   4.282   2.407
10460SOL    HW232280   0.601   4.404   2.328
10461SOL     OW32281   6.454   5.182   5.604
10461SOL    HW132282   6.531   5.216   5.549
10461SOL    HW232283   6.464   5.083   5.617
10462SOL     OW32284   5.343   1.368   3.432
10462SOL    HW132285   5.301   1.279   3.415
10462SOL    HW232286   5.432   1.355   3.476
10463SOL     OW32287   4.638   3.401   6.050
10463SOL    HW132288   4.573   3.422   5.977
10463SOL    HW232289   4.715   3.349   6.013
10464SOL     OW32290   6.647   6.550   1.597
10464SOL    HW132291   6.641   6.645   1.564
10464SOL    HW232292   6.721   6.542   1.663
10465SOL     OW32293   6.019   6.195   0.534
10465SOL    HW132294   6.061   6.104   0.542
10465SOL    HW232295   6.059   6.256   0.603
10466SOL     OW32296   4.908   5.513   5.719
10466SOL    HW132297   4.992   5.552   5.755
10466SOL    HW232298   4.883   5.431   5.771
10467SOL     OW32299   2.652   1.066   6.824
10467SOL    HW132300   2.742   1.103   6.847
10467SOL    HW232301   2.587   1.086   6.897
10468SOL     OW32302   4.057   5.058   3.027
10468SOL    HW132303   4.035   5.063   3.124
10468SOL    HW232304   4.024   5.140   2.981
10469SOL     OW32305   4.077   4.607   5.562
10469SOL    HW132306   4.149   4.540   5.541
10469SOL    HW232307   4.101   4.656   5.646
10470SOL     OW32308   2.291   2.775   3.507
10470SOL    HW132309   2.286   2.866   3.547
10470SOL    HW232310   2.352   2.718   3.561
10471SOL     OW32311   3.307   1.432   1.124
10471SOL    HW132312   3.234   1.423   1.057
10471SOL    HW232313   3.365   1.351   1.121
10472SOL     OW32314   3.285   5.642   0.428
10472SOL    HW132315   3.211   5.636   0.361
10472SOL    HW232316   3.372   5.660   0.382
10473SOL     OW32317   6.545   0.013   0.053
10473SOL    HW132318   6.519   0.088   7.019
10473SOL    HW232319   6.620   0.042   0.113
10474SOL     OW32320   3.225   2.163   4.282
10474SOL    HW132321   3.275   2.175   4.196
10474SOL    HW232322   3.127   2.164   4.264
10475SOL     OW32323   4.928   6.347   1.008
10475SOL    HW132324   4.916   6.445   1.027
10475SOL    HW232325   4.840   6.308   0.981
10476SOL     OW32326   6.798   6.164   0.207
10476SOL    HW132327   6.882   6.114   0.182
10476SOL    HW232328   6.823   6.247   0.257
10477SOL     OW32329   0.295   1.271   4.913
10477SOL    HW132330   0.295   1.173   4.932
10477SOL    HW232331   0.236   1.291   4.835
10478SOL     OW32332   6.769   0.786   1.142
10478SOL    HW132333   6.686   0.743   1.107
10478SOL    HW232334   6.753   0.820   1.235
10479SOL     OW32335   0.192   2.238   2.491
10479SOL    HW132336   0.110   2.282   2.530
10479SOL    HW232337   0.185   2.236   2.392
10480SOL     OW32338   6.489   0.233   2.200
10480SOL    HW132339   6.481   0.332   2.185
10480SOL    HW232340   6.586   0.208   2.203
10481SOL     OW32341   2.922   6.957   4.546
10481SOL    HW132342   2.914   7.019   4.468
10481SOL    HW232343   2.831   6.928   4.576
10482SOL     OW32344   6.357   5.089   4.095
10482SOL    HW132345   6.355   5.010   4.035
10482SOL    HW232346   6.316   5.066   4.183
10483SOL     OW32347   6.586   4.613   0.080
10483SOL    HW132348   6.554   4.664   0.160
10483SOL    HW232349   6.532   4.639   7.026
10484SOL     OW32350   5.998   1.570   1.813
10484SOL    HW132351   5.985   1.572   1.912
10484SOL    HW232352   5.910   1.584   1.768
10485SOL     OW32353   3.108   4.077   0.771
10485SOL    HW132354   3.070   4.083   0.863
10485SOL    HW232355   3.140   4.167   0.742
10486SOL     OW32356   0.002   0.835   0.308
10486SOL    HW132357   7.008   0.774   0.232
10486SOL    HW232358   6.974   0.809   0.388
10487SOL     OW32359   4.862   2.008   2.083
10487SOL    HW132360   4.816   2.037   2.000
10487SOL    HW232361   4.848   2.077   2.155
10488SOL     OW32362   3.233   1.568   5.580
10488SOL    HW132363   3.149   1.620   5.566
10488SOL    HW232364   3.211   1.478   5.616
10489SOL     OW32365   0.064   0.100   4.781
10489SOL    HW132366   0.122   0.182   4.783
10489SOL    HW232367   0.044   0.075   4.686
10490SOL     OW32368   5.652   1.972   0.599
10490SOL    HW132369   5.694   2.029   0.528
10490SOL    HW232370   5.583   1.913   0.557
10491SOL     OW32371   2.600   2.125   5.890
10491SOL    HW132372   2.671   2.190   5.863
10491SOL    HW232373   2.574   2.069   5.811
10492SOL     OW32374   5.628   5.731   0.877
10492SOL    HW132375   5.713   5.748   0.927
10492SOL    HW232376   5.626   5.790   0.795
10493SOL     OW32377   3.475   0.190   1.823
10493SOL    HW132378   3.527   0.104   1.826
10493SOL    HW232379   3.532   0.262   1.783
10494SOL     OW32380   6.032   4.534   5.596
10494SOL    HW132381   6.006   4.503   5.688
10494SOL    HW232382   5.950   4.561   5.546
10495SOL     OW32383   1.057   6.209   1.151
10495SOL    HW132384   0.985   6.274   1.126
10495SOL    HW232385   1.145   6.243   1.119
10496SOL     OW32386   6.361   3.178   6.298
10496SOL    HW132387   6.428   3.139   6.361
10496SOL    HW232388   6.361   3.278   6.307
10497SOL     OW32389   2.004   0.184   1.865
10497SOL    HW132390   1.949   0.116   1.913
10497SOL    HW232391   2.004   0.270   1.916
10498SOL     OW32392   5.073   5.381   0.584
10498SOL    HW132393   5.140   5.316   0.622
10498SOL    HW232394   5.116   5.471   0.575
10499SOL     OW32395   4.349   6.828   1.962
10499SOL    HW132396   4.290   6.777   1.900
10499SOL    HW232397   4.435   6.850   1.916
10500SOL     OW32398   6.190   1.269   5.974
10500SOL    HW132399   6.091   1.257   5.971
10500SOL    HW232400   6.223   1.305   5.887
10501SOL     OW32401   2.324   5.845   2.056
10501SOL    HW132402   2.362   5.937   2.069
10501SOL    HW232403   2.341   5.790   2.138
10502SOL     OW32404   2.711   1.913   1.929
10502SOL    HW132405   2.782   1.976   1.898
10502SOL    HW232406   2.622   1.958   1.926
10503SOL     OW32407   5.006   2.699   1.098
10503SOL    HW132408   4.908   2.683   1.114
10503SOL    HW232409   5.041   2.631   1.035
10504SOL     OW32410   1.209   2.485   5.926
10504SOL    HW132411   1.191   2.481   5.828
10504SOL    HW232412   1.299   2.446   5.946
10505SOL     OW32413   5.395   5.499   0.596
10505SOL    HW132414   5.471   5.445   0.630
10505SOL    HW232415   5.374   5.572   0.660
10506SOL     OW32416   0.325   3.800   0.459
10506SOL    HW132417   0.412   3.785   0.412
10506SOL    HW232418   0.316   3.735   0.535
10507SOL     OW32419   1.587   6.586   0.921
10507SOL    HW132420   1.609   6.637   1.004
10507SOL    HW232421   1.653   6.609   0.849
10508SOL     OW32422   6.583   5.506   4.450
10508SOL    HW132423   6.512   5.481   4.384
10508SOL    HW232424   6.555   5.589   4.499
10509SOL     OW32425   0.210   5.606   5.244
10509SOL    HW132426   0.191   5.545   5.167
10509SOL    HW232427   0.230   5.552   5.326
10510SOL     OW32428   5.043   5.776   6.915
10510SOL    HW132429   5.006   5.697   6.964
10510SOL    HW232430   4.999   5.783   6.825
10511SOL     OW32431   2.856   1.348   1.953
10511SOL    HW132432   2.884   1.254   1.932
10511SOL    HW232433   2.899   1.410   1.888
10512SOL     OW32434   4.287   0.547   6.261
10512SOL    HW132435   4.340   0.473   6.220
10512SOL    HW232436   4.327   0.572   6.349
10513SOL     OW32437   6.369   2.526   4.137
10513SOL    HW132438   6.289   2.508   4.194
10513SOL    HW232439   6.415   2.440   4.115
10514SOL     OW32440   0.623   3.305   1.449
10514SOL    HW132441   0.636   3.243   1.527
10514SOL    HW232442   0.698   3.293   1.384
10515SOL     OW32443   0.689   3.288   3.617
10515SOL    HW132444   0.758   3.323   3.680
10515SOL    HW232445   0.732   3.224   3.553
10516SOL     OW32446   4.186   1.489   0.621
10516SOL    HW132447   4.124   1.521   0.550
10516SOL    HW232448   4.225   1.401   0.594
10517SOL     OW32449   0.341   3.275   1.492
10517SOL    HW132450   0.440   3.280   1.477
10517SOL    HW232451   0.295   3.252   1.406
10518SOL     OW32452   6.825   5.967   0.477
10518SOL    HW132453   6.869   5.902   0.415
10518SOL    HW232454   6.892   6.031   0.513
10519SOL     OW32455   3.435   3.193   0.745
10519SOL    HW132456   3.410   3.254   0.820
10519SOL    HW232457   3.497   3.240   0.682
10520SOL     OW32458   0.632   2.174   6.223
10520SOL    HW132459   0.687   2.256   6.207
10520SOL    HW232460   0.691   2.093   6.223
10521SOL     OW32461   6.544   5.662   1.680
10521SOL    HW132462   6.577   5.577   1.720
10521SOL    HW232463   6.549   5.735   1.748
10522SOL     OW32464   0.235   0.301   4.851
10522SOL    HW132465   0.226   0.398   4.829
10522SOL    HW232466   0.285   0.291   4.938
10523SOL     OW32467   0.789   4.614   3.158
10523SOL    HW132468   0.881   4.633   3.191
10523SOL    HW232469   0.787   4.622   3.058
10524SOL     OW32470   0.619   6.595   3.802
10524SOL    HW132471   0.569   6.643   3.731
10524SOL    HW232472   0.709   6.638   3.815
10525SOL     OW32473   4.364   0.391   5.832
10525SOL    HW132474   4.440   0.397   5.767
10525SOL    HW232475   4.338   0.483   5.862
10526SOL     OW32476   1.300   6.495   3.045
10526SOL    HW132477   1.319   6.501   2.947
10526SOL    HW232478   1.373   6.540   3.096
10527SOL     OW32479   0.732   1.135   5.491
10527SOL    HW132480   0.678   1.168   5.569
10527SOL    HW232481   0.813   1.088   5.525
10528SOL     OW32482   1.479   3.170   6.124
10528SOL    HW132483   1.405   3.222   6.081
10528SOL    HW232484   1.510   3.098   6.062
10529SOL     OW32485   2.976   6.455   4.226
10529SOL    HW132486   3.004   6.385   4.292
10529SOL    HW232487   3.057   6.500   4.188
10530SOL     OW32488   1.327   0.092   6.480
10530SOL    HW132489   1.326   0.147   6.396
10530SOL    HW232490   1.364   0.147   6.555
10531SOL     OW32491   1.734   2.768   4.427
10531SOL    HW132492   1.695   2.786   4.337
10531SOL    HW232493   1.722   2.848   4.486
10532SOL     OW32494   0.923   6.803   6.132
10532SOL    HW132495   1.007   6.749   6.128
10532SOL    HW232496   0.938   6.884   6.189
10533SOL     OW32497   3.051   6.612   3.389
10533SOL    HW132498   3.078   6.528   3.342
10533SOL    HW232499   3.109   6.688   3.359
10534SOL     OW32500   6.423   5.446   2.350
10534SOL    HW132501   6.472   5.358   2.345
10534SOL    HW232502   6.489   5.521   2.342
10535SOL     OW32503   1.251   2.163   1.961
10535SOL    HW132504   1.223   2.161   1.865
10535SOL    HW232505   1.303   2.081   1.983
10536SOL     OW32506   4.336   0.800   4.211
10536SOL    HW132507   4.274   0.766   4.282
10536SOL    HW232508   4.284   0.856   4.146
10537SOL     OW32509   4.304   6.301   4.533
10537SOL    HW132510   4.284   6.393   4.499
10537SOL    HW232511   4.223   6.262   4.575
10538SOL     OW32512   5.778   3.328   0.622
10538SOL    HW132513   5.718   3.390   0.571
10538SOL    HW232514   5.814   3.259   0.559
10539SOL     OW32515   0.858   4.962   6.951
10539SOL    HW132516   0.892   5.033   6.890
10539SOL    HW232517   0.831   5.002   0.012
10540SOL     OW32518   1.484   2.938   5.992
10540SOL    HW132519   1.567   2.927   5.938
10540SOL    HW232520   1.499   2.901   6.084
10541SOL     OW32521   3.223   3.674   2.006
10541SOL    HW132522   3.147   3.736   1.985
10541SOL    HW232523   3.187   3.581   2.016
10542SOL     OW32524   0.318   0.881   5.492
10542SOL    HW132525   0.329   0.859   5.589
10542SOL    HW232526   0.371   0.816   5.437
10543SOL     OW32527   0.547   1.374   4.851
10543SOL    HW132528   0.559   1.467   4.885
10543SOL    HW232529   0.458   1.339   4.879
10544SOL     OW32530   2.679   6.696   1.961
10544SOL    HW132531   2.721   6.786   1.970
10544SOL    HW232532   2.591   6.704   1.914
10545SOL     OW32533   0.364   1.997   1.219
10545SOL    HW132534   0.313   1.919   1.254
10545SOL    HW232535   0.309   2.045   1.150
10546SOL     OW32536   1.260   0.207   0.573
10546SOL    HW132537   1.328   0.189   0.645
10546SOL    HW232538   1.233   0.303   0.575
10547SOL     OW32539   4.989   3.143   3.154
10547SOL    HW132540   5.052   3.069   3.129
10547SOL    HW232541   4.952   3.184   3.071
10548SOL     OW32542   5.651   4.627   4.216
10548SOL    HW132543   5.594   4.689   4.270
10548SOL    HW232544   5.673   4.671   4.128
10549SOL     OW32545   0.799   0.355   1.933
10549SOL    HW132546   0.707   0.367   1.971
10549SOL    HW232547   0.793   0.348   1.834
10550SOL     OW32548   4.543   0.048   3.737
10550SOL    HW132549   4.641   0.030   3.727
10550SOL    HW232550   4.492   6.996   3.702
10551SOL     OW32551   1.448   2.763   0.227
10551SOL    HW132552   1.421   2.699   0.299
10551SOL    HW232553   1.524   2.724   0.175
10552SOL     OW32554   2.621   1.319   5.719
10552SOL    HW132555   2.555   1.322   5.645
10552SOL    HW232556   2.574   1.306   5.806
10553SOL     OW32557   0.510   4.466   1.450
10553SOL    HW132558   0.567   4.451   1.369
10553SOL    HW232559   0.458   4.383   1.470
10554SOL     OW32560   5.542   4.562   0.751
10554SOL    HW132561   5.603   4.483   0.737
10554SOL    HW232562   5.596   4.639   0.785
10555SOL     OW32563   1.894   2.347   0.477
10555SOL    HW132564   1.945   2.362   0.563
10555SOL    HW232565   1.914   2.255   0.443
10556SOL     OW32566   1.523   1.352   4.637
10556SOL    HW132567   1.452   1.409   4.679
10556SOL    HW232568   1.512   1.352   4.537
10557SOL     OW32569   1.607   2.790   3.236
10557SOL    HW132570   1.604   2.884   3.203
10557SOL    HW232571   1.693   2.773   3.283
10558SOL     OW32572   4.202   6.971   4.942
10558SOL    HW132573   4.141   0.017   4.972
10558SOL    HW232574   4.151   6.904   4.888
10559SOL     OW32575   4.964   0.947   1.615
10559SOL    HW132576   4.996   1.021   1.555
10559SOL    HW232577   4.961   0.861   1.563
10560SOL     OW32578   4.515   6.774   2.358
10560SOL    HW132579   4.525   6.763   2.457
10560SOL    HW232580   4.605   6.785   2.316
10561SOL     OW32581   3.670   4.274   1.801
10561SOL    HW132582   3.584   4.233   1.831
10561SOL    HW232583   3.660   4.374   1.801
10562SOL     OW32584   3.879   5.697   6.975
10562SOL    HW132585   3.795   5.700   6.921
10562SOL    HW232586   3.858   5.666   0.041
10563SOL     OW32587   0.555   1.076   3.443
10563SOL    HW132588   0.571   1.009   3.516
10563SOL    HW232589   0.492   1.036   3.376
10564SOL     OW32590   5.721   6.003   2.931
10564SOL    HW132591   5.645   5.939   2.918
10564SOL    HW232592   5.808   5.956   2.917
10565SOL     OW32593   0.767   6.464   5.851
10565SOL    HW132594   0.850   6.417   5.881
10565SOL    HW232595   0.705   6.476   5.928
10566SOL     OW32596   3.455   1.762   6.722
10566SOL    HW132597   3.525   1.730   6.658
10566SOL    HW232598   3.387   1.690   6.736
10567SOL     OW32599   2.317   2.180   4.820
10567SOL    HW132600   2.291   2.106   4.882
10567SOL    HW232601   2.380   2.144   4.751
10568SOL     OW32602   6.740   3.140   1.289
10568SOL    HW132603   6.815   3.101   1.342
10568SOL    HW232604   6.653   3.115   1.331
10569SOL     OW32605   5.747   1.165   2.241
10569SOL    HW132606   5.798   1.230   2.184
10569SOL    HW232607   5.672   1.126   2.187
10570SOL     OW32608   1.152   4.643   2.981
10570SOL    HW132609   1.111   4.673   2.895
10570SOL    HW232610   1.084   4.647   3.054
10571SOL     OW32611   6.822   4.510   4.943
10571SOL    HW132612   6.833   4.599   4.900
10571SOL    HW232613   6.782   4.446   4.876
10572SOL     OW32614   6.682   4.220   3.113
10572SOL    HW132615   6.653   4.315   3.108
10572SOL    HW232616   6.686   4.181   3.020
10573SOL     OW32617   5.545   0.373   5.200
10573SOL    HW132618   5.526   0.334   5.290
10573SOL    HW232619   5.470   0.433   5.173
10574SOL     OW32620   1.298   1.505   4.026
10574SOL    HW132621   1.262   1.589   3.984
10574SOL    HW232622   1.232   1.431   4.016
10575SOL     OW32623   0.043   0.880   3.991
10575SOL    HW132624   0.051   0.973   4.027
10575SOL    HW232625   0.083   0.816   4.057
10576SOL     OW32626   0.046   5.660   4.956
10576SOL    HW132627   0.000   5.619   5.035
10576SOL    HW232628   7.008   5.666   4.879
10577SOL     OW32629   1.891   4.569   0.106
10577SOL    HW132630   1.860   4.569   0.010
10577SOL    HW232631   1.916   4.662   0.132
10578SOL     OW32632   4.653   1.737   2.988
10578SOL    HW132633   4.560   1.747   3.026
10578SOL    HW232634   4.704   1.672   3.044
10579SOL     OW32635   4.838   3.152   1.412
10579SOL    HW132636   4.757   3.111   1.371
10579SOL    HW232637   4.821   3.172   1.508
10580SOL     OW32638   6.576   0.658   6.723
10580SOL    HW132639   6.563   0.750   6.686
10580SOL    HW232640   6.569   0.591   6.648
10581SOL     OW32641   5.532   0.086   2.995
10581SOL    HW132642   5.450   0.028   2.988
10581SOL    HW232643   5.613   0.033   2.971
10582SOL     OW32644   4.658   4.634   5.738
10582SOL    HW132645   4.716   4.554   5.754
10582SOL    HW232646   4.566   4.604   5.714
10583SOL     OW32647   3.436   1.235   4.093
10583SOL    HW132648   3.412   1.182   4.012
10583SOL    HW232649   3.498   1.309   4.067
10584SOL     OW32650   6.744   0.527   0.381
10584SOL    HW132651   6.815   0.570   0.436
10584SOL    HW232652   6.745   0.428   0.397
10585SOL     OW32653   2.638   1.962   5.399
10585SOL    HW132654   2.630   1.992   5.304
10585SOL    HW232655   2.673   2.037   5.455
10586SOL     OW32656   6.171   4.815   5.183
10586SOL    HW132657   6.208   4.869   5.259
10586SOL    HW232658   6.165   4.719   5.211
10587SOL     OW32659   6.459   4.728   6.895
10587SOL    HW132660   6.371   4.681   6.902
10587SOL    HW232661   6.446   4.826   6.909
10588SOL     OW32662   1.215   3.168   4.593
10588SOL    HW132663   1.136   3.124   4.636
10588SOL    HW232664   1.300   3.128   4.630
10589SOL     OW32665   6.130   1.332   4.644
10589SOL    HW132666   6.114   1.375   4.555
10589SOL    HW232667   6.219   1.361   4.679
10590SOL     OW32668   0.654   0.538   0.915
10590SOL    HW132669   0.676   0.463   0.852
10590SOL    HW232670   0.554   0.545   0.925
10591SOL     OW32671   1.615   2.066   0.346
10591SOL    HW132672   1.631   2.164   0.338
10591SOL    HW232673   1.571   2.032   0.263
10592SOL     OW32674   6.189   3.629   2.873
10592SOL    HW132675   6.215   3.692   2.946
10592SOL    HW232676   6.184   3.679   2.786
10593SOL     OW32677   2.193   6.072   0.520
10593SOL    HW132678   2.138   6.124   0.454
10593SOL    HW232679   2.189   6.118   0.609
10594SOL     OW32680   5.038   0.914   3.209
10594SOL    HW132681   5.005   0.825   3.176
10594SOL    HW232682   5.128   0.933   3.170
10595SOL     OW32683   5.288   6.325   0.066
10595SOL    HW132684   5.307   6.395   7.024
10595SOL    HW232685   5.235   6.365   0.141
10596SOL     OW32686   4.667   1.084   0.287
10596SOL    HW132687   4.668   0.987   0.310
10596SOL    HW232688   4.648   1.138   0.369
10597SOL     OW32689   2.940   1.135   5.907
10597SOL    HW132690   2.941   1.228   5.869
10597SOL    HW232691   2.883   1.077   5.849
10598SOL     OW32692   3.415   2.643   7.000
10598SOL    HW132693   3.406   2.742   7.000
10598SOL    HW232694   3.493   2.616   6.944
10599SOL     OW32695   5.315   3.413   6.290
10599SOL    HW132696   5.237   3.475   6.283
10599SOL    HW232697   5.299   3.348   6.365
10600SOL     OW32698   3.253   2.576   0.498
10600SOL    HW132699   3.282   2.593   0.404
10600SOL    HW232700   3.182   2.642   0.523
10601SOL     OW32701   1.661   4.646   5.098
10601SOL    HW132702   1.717   4.648   5.015
10601SOL    HW232703   1.659   4.737   5.139
10602SOL     OW32704   2.248   0.562   1.990
10602SOL    HW132705   2.203   0.625   1.925
10602SOL    HW232706   2.343   0.590   2.002
10603SOL     OW32707   3.758   0.191   3.325
10603SOL    HW132708   3.776   0.139   3.242
10603SOL    HW232709   3.844   0.226   3.362
10604SOL     OW32710   6.381   5.853   5.569
10604SOL    HW132711   6.448   5.926   5.580
10604SOL    HW232712   6.324   5.872   5.489
10605SOL     OW32713   2.153   6.591   6.869
10605SOL    HW132714   2.189   6.684   6.863
10605SOL    HW232715   2.150   6.550   6.778
10606SOL     OW32716   0.123   0.336   1.624
10606SOL    HW132717   0.106   0.239   1.605
10606SOL    HW232718   0.136   0.385   1.538
10607SOL     OW32719   4.282   5.079   5.558
10607SOL    HW132720   4.188   5.111   5.554
10607SOL    HW232721   4.335   5.139   5.618
10608SOL     OW32722   6.147   3.176   5.163
10608SOL    HW132723   6.113   3.087   5.134
10608SOL    HW232724   6.072   3.230   5.200
10609SOL     OW32725   2.644   6.397   6.704
10609SOL    HW132726   2.645   6.492   6.734
10609SOL    HW232727   2.549   6.367   6.693
10610SOL     OW32728   1.036   2.104   4.271
10610SOL    HW132729   1.032   2.100   4.171
10610SOL    HW232730   1.113   2.162   4.300
10611SOL     OW32731   2.336   3.740   6.766
10611SOL    HW132732   2.278   3.696   6.697
10611SOL    HW232733   2.343   3.838   6.746
10612SOL     OW32734   3.371   1.634   4.918
10612SOL    HW132735   3.413   1.657   4.830
10612SOL    HW232736   3.272   1.631   4.908
10613SOL     OW32737   5.221   6.124   5.617
10613SOL    HW132738   5.136   6.075   5.635
10613SOL    HW232739   5.249   6.109   5.522
10614SOL     OW32740   5.022   1.955   4.985
10614SOL    HW132741   5.064   1.937   5.074
10614SOL    HW232742   4.982   2.046   4.985
10615SOL     OW32743   4.527   0.407   5.620
10615SOL    HW132744   4.493   0.436   5.530
10615SOL    HW232745   4.611   0.456   5.642
10616SOL     OW32746   2.018   6.891   0.356
10616SOL    HW132747   2.029   6.798   0.320
10616SOL    HW232748   2.057   6.896   0.448
10617SOL     OW32749   3.136   3.862   1.327
10617SOL    HW132750   3.226   3.821   1.342
10617SOL    HW232751   3.066   3.791   1.327
10618SOL     OW32752   0.933   3.554   5.872
10618SOL    HW132753   1.023   3.510   5.863
10618SOL    HW232754   0.936   3.621   5.946
10619SOL     OW32755   0.264   3.127   2.558
10619SOL    HW132756   0.345   3.129   2.500
10619SOL    HW232757   0.228   3.033   2.563
10620SOL     OW32758   1.151   6.336   5.288
10620SOL    HW132759   1.232   6.315   5.232
10620SOL    HW232760   1.070   6.335   5.230
10621SOL     OW32761   0.632   5.113   1.749
10621SOL    HW132762   0.634   5.034   1.810
10621SOL    HW232763   0.618   5.197   1.803
10622SOL     OW32764   5.256   1.848   2.033
10622SOL    HW132765   5.319   1.837   2.109
10622SOL    HW232766   5.165   1.814   2.060
10623SOL     OW32767   0.165   5.086   5.713
10623SOL    HW132768   0.140   5.169   5.763
10623SOL    HW232769   0.238   5.107   5.647
10624SOL     OW32770   1.124   2.486   4.864
10624SOL    HW132771   1.047   2.433   4.830
10624SOL    HW232772   1.151   2.554   4.795
10625SOL     OW32773   0.385   4.841   0.853
10625SOL    HW132774   0.408   4.938   0.848
10625SOL    HW232775   0.364   4.817   0.949
10626SOL     OW32776   2.420   2.860   0.542
10626SOL    HW132777   2.487   2.838   0.613
10626SOL    HW232778   2.361   2.781   0.528
10627SOL     OW32779   4.873   0.282   0.777
10627SOL    HW132780   4.934   0.313   0.851
10627SOL    HW232781   4.928   0.239   0.705
10628SOL     OW32782   4.867   6.194   0.164
10628SOL    HW132783   4.798   6.124   0.181
10628SOL    HW232784   4.829   6.264   0.104
10629SOL     OW32785   2.518   4.845   4.795
10629SOL    HW132786   2.445   4.844   4.726
10629SOL    HW232787   2.525   4.755   4.837
10630SOL     OW32788   6.288   1.213   3.976
10630SOL    HW132789   6.222   1.167   3.916
10630SOL    HW232790   6.243   1.288   4.023
10631SOL     OW32791   3.163   5.149   5.473
10631SOL    HW132792   3.174   5.144   5.373
10631SOL    HW232793   3.074   5.189   5.495
10632SOL     OW32794   5.362   0.816   3.649
10632SOL    HW132795   5.357   0.901   3.702
10632SOL    HW232796   5.277   0.764   3.661
10633SOL     OW32797   2.154   2.739   0.565
10633SOL    HW132798   2.111   2.803   0.500
10633SOL    HW232799   2.109   2.748   0.654
10634SOL     OW32800   3.271   4.069   0.235
10634SOL    HW132801   3.197   4.116   0.284
10634SOL    HW232802   3.235   3.986   0.192
10635SOL     OW32803   1.781   3.548   0.332
10635SOL    HW132804   1.731   3.471   0.292
10635SOL    HW232805   1.849   3.514   0.397
10636SOL     OW32806   0.736   2.306   1.339
10636SOL    HW132807   0.697   2.221   1.374
10636SOL    HW232808   0.815   2.332   1.394
10637SOL     OW32809   2.089   4.439   5.737
10637SOL    HW132810   2.093   4.441   5.837
10637SOL    HW232811   2.176   4.406   5.700
10638SOL     OW32812   5.762   5.708   2.789
10638SOL    HW132813   5.817   5.769   2.731
10638SOL    HW232814   5.823   5.645   2.837
10639SOL     OW32815   1.045   3.476   3.281
10639SOL    HW132816   1.134   3.507   3.313
10639SOL    HW232817   0.977   3.548   3.297
10640SOL     OW32818   4.202   0.511   4.796
10640SOL    HW132819   4.190   0.506   4.895
10640SOL    HW232820   4.183   0.603   4.765
10641SOL     OW32821   2.419   2.286   1.912
10641SOL    HW132822   2.488   2.324   1.974
10641SOL    HW232823   2.334   2.338   1.922
10642SOL     OW32824   6.548   2.557   1.538
10642SOL    HW132825   6.625   2.579   1.477
10642SOL    HW232826   6.523   2.638   1.590
10643SOL     OW32827   1.821   5.277   4.758
10643SOL    HW132828   1.847   5.186   4.726
10643SOL    HW232829   1.881   5.304   4.833
10644SOL     OW32830   5.468   2.754   2.669
10644SOL    HW132831   5.489   2.797   2.757
10644SOL    HW232832   5.398   2.684   2.682
10645SOL     OW32833   1.788   2.994   4.641
10645SOL    HW132834   1.815   3.049   4.562
10645SOL    HW232835   1.870   2.962   4.688
10646SOL     OW32836   1.129   0.375   6.751
10646SOL    HW132837   1.111   0.290   6.701
10646SOL    HW232838   1.228   0.387   6.760
10647SOL     OW32839   2.806   5.659   4.822
10647SOL    HW132840   2.870   5.707   4.882
10647SOL    HW232841   2.712   5.676   4.852
10648SOL     OW32842   6.019   4.046   6.042
10648SOL    HW132843   5.946   3.990   6.082
10648SOL    HW232844   6.006   4.142   6.066
10649SOL     OW32845   0.136   4.587   2.546
10649SOL    HW132846   0.167   4.645   2.471
10649SOL    HW232847   0.169   4.625   2.633
10650SOL     OW32848   0.941   0.095   3.939
10650SOL    HW132849   0.898   0.084   3.849
10650SOL    HW232850   0.936   0.009   3.989
10651SOL     OW32851   5.602   6.811   0.258
10651SOL    HW132852   5.543   6.730   0.255
10651SOL    HW232853   5.688   6.788   0.303
10652SOL     OW32854   3.614   6.972   5.423
10652SOL    HW132855   3.655   0.035   5.403
10652SOL    HW232856   3.641   6.943   5.515
10653SOL     OW32857   4.057   5.086   3.317
10653SOL    HW132858   4.014   4.995   3.326
10653SOL    HW232859   4.050   5.134   3.405
10654SOL     OW32860   5.090   0.957   1.219
10654SOL    HW132861   5.165   0.987   1.160
10654SOL    HW232862   5.090   0.857   1.224
10655SOL     OW32863   2.224   5.490   0.783
10655SOL    HW132864   2.162   5.475   0.706
10655SOL    HW232865   2.319   5.479   0.752
10656SOL     OW32866   6.750   1.870   2.802
10656SOL    HW132867   6.654   1.840   2.797
10656SOL    HW232868   6.809   1.791   2.816
10657SOL     OW32869   6.163   0.380   5.378
10657SOL    HW132870   6.171   0.433   5.294
10657SOL    HW232871   6.082   0.410   5.429
10658SOL     OW32872   6.307   4.752   4.909
10658SOL    HW132873   6.279   4.739   5.004
10658SOL    HW232874   6.254   4.827   4.869
10659SOL     OW32875   0.458   5.344   1.186
10659SOL    HW132876   0.415   5.274   1.128
10659SOL    HW232877   0.478   5.304   1.276
10660SOL     OW32878   4.985   4.043   6.472
10660SOL    HW132879   4.923   4.012   6.544
10660SOL    HW232880   4.936   4.043   6.384
10661SOL     OW32881   0.850   6.492   1.649
10661SOL    HW132882   0.912   6.459   1.577
10661SOL    HW232883   0.904   6.533   1.723
10662SOL     OW32884   5.367   6.601   3.108
10662SOL    HW132885   5.299   6.674   3.102
10662SOL    HW232886   5.378   6.559   3.018
10663SOL     OW32887   0.446   1.997   2.074
10663SOL    HW132888   0.501   2.076   2.047
10663SOL    HW232889   0.433   1.998   2.174
10664SOL     OW32890   6.632   4.182   5.031
10664SOL    HW132891   6.624   4.191   4.932
10664SOL    HW232892   6.727   4.200   5.059
10665SOL     OW32893   0.877   1.500   0.737
10665SOL    HW132894   0.797   1.546   0.700
10665SOL    HW232895   0.869   1.494   0.837
10666SOL     OW32896   3.436   4.103   1.822
10666SOL    HW132897   3.496   4.024   1.811
10666SOL    HW232898   3.350   4.074   1.864
10667SOL     OW32899   4.306   3.155   5.664
10667SOL    HW132900   4.242   3.106   5.605
10667SOL    HW232901   4.332   3.241   5.620
10668SOL     OW32902   2.867   0.344   5.215
10668SOL    HW132903   2.826   0.303   5.134
10668SOL    HW232904   2.844   0.441   5.218
10669SOL     OW32905   5.324   7.026   1.148
10669SOL    HW132906   5.329   6.933   1.185
10669SOL    HW232907   5.240   0.009   1.094
10670SOL     OW32908   5.263   4.141   4.779
10670SOL    HW132909   5.212   4.201   4.841
10670SOL    HW232910   5.254   4.046   4.810
10671SOL     OW32911   2.890   2.258   3.011
10671SOL    HW132912   2.846   2.168   3.000
10671SOL    HW232913   2.824   2.330   2.988
10672SOL     OW32914   6.505   3.038   0.681
10672SOL    HW132915   6.562   2.956   0.683
10672SOL    HW232916   6.518   3.085   0.593
10673SOL     OW32917   1.153   1.274   6.233
10673SOL    HW132918   1.072   1.247   6.180
10673SOL    HW232919   1.157   1.220   6.317
10674SOL     OW32920   3.698   4.047   2.290
10674SOL    HW132921   3.796   4.062   2.300
10674SOL    HW232922   3.681   3.989   2.211
10675SOL     OW32923   1.731   6.993   6.253
10675SOL    HW132924   1.831   6.990   6.246
10675SOL    HW232925   1.692   6.911   6.211
10676SOL     OW32926   6.659   6.328   6.151
10676SOL    HW132927   6.635   6.292   6.061
10676SOL    HW232928   6.756   6.349   6.154
10677SOL     OW32929   1.329   0.613   2.472
10677SOL    HW132930   1.416   0.621   2.423
10677SOL    HW232931   1.274   0.540   2.430
10678SOL     OW32932   3.711   5.834   4.259
10678SOL    HW132933   3.711   5.886   4.173
10678SOL    HW232934   3.689   5.896   4.335
10679SOL     OW32935   4.792   6.178   5.961
10679SOL    HW132936   4.737   6.098   5.935
10679SOL    HW232937   4.853   6.154   6.037
10680SOL     OW32938   2.929   1.925   2.918
10680SOL    HW132939   2.956   1.964   2.830
10680SOL    HW232940   3.005   1.874   2.957
10681SOL     OW32941   0.809   3.255   0.205
10681SOL    HW132942   0.751   3.218   0.277
10681SOL    HW232943   0.904   3.259   0.238
10682SOL     OW32944   1.550   0.881   4.549
10682SOL    HW132945   1.624   0.815   4.532
10682SOL    HW232946   1.584   0.974   4.533
10683SOL     OW32947   3.438   1.846   3.384
10683SOL    HW132948   3.416   1.883   3.474
10683SOL    HW232949   3.441   1.746   3.388
10684SOL     OW32950   5.349   4.114   1.019
10684SOL    HW132951   5.321   4.075   1.107
10684SOL    HW232952   5.300   4.200   1.003
10685SOL     OW32953   0.801   5.491   2.450
10685SOL    HW132954   0.787   5.557   2.376
10685SOL    HW232955   0.760   5.526   2.534
10686SOL     OW32956   1.114   4.962   6.105
10686SOL    HW132957   1.042   4.896   6.085
10686SOL    HW232958   1.121   4.974   6.204
10687SOL     OW32959   6.886   5.407   1.670
10687SOL    HW132960   6.851   5.359   1.590
10687SOL    HW232961   6.830   5.385   1.750
10688SOL     OW32962   6.319   4.382   3.157
10688SOL    HW132963   6.300   4.289   3.190
10688SOL    HW232964   6.242   4.442   3.179
10689SOL     OW32965   0.524   6.015   3.450
10689SOL    HW132966   0.611   5.981   3.414
10689SOL    HW232967   0.539   6.101   3.498
10690SOL     OW32968   0.468   6.177   3.059
10690SOL    HW132969   0.441   6.172   3.155
10690SOL    HW232970   0.396   6.139   3.001
10691SOL     OW32971   0.459   2.248   2.276
10691SOL    HW132972   0.511   2.200   2.347
10691SOL    HW232973   0.507   2.241   2.189
10692SOL     OW32974   2.664   5.744   3.148
10692SOL    HW132975   2.701   5.788   3.230
10692SOL    HW232976   2.676   5.806   3.070
10693SOL     OW32977   2.547   0.059   6.980
10693SOL    HW132978   2.626   0.018   6.935
10693SOL    HW232979   2.578   0.125   0.021
10694SOL     OW32980   5.057   6.402   1.642
10694SOL    HW132981   5.077   6.460   1.721
10694SOL    HW232982   5.072   6.454   1.557
10695SOL     OW32983   5.217   2.087   3.040
10695SOL    HW132984   5.143   2.111   3.103
10695SOL    HW232985   5.180   2.040   2.960
10696SOL     OW32986   6.982   3.696   3.953
10696SOL    HW132987   6.938   3.706   4.042
10696SOL    HW232988   0.021   3.620   3.957
10697SOL     OW32989   0.230   6.360   4.260
10697SOL    HW132990   0.293   6.434   4.285
10697SOL    HW232991   0.225   6.293   4.334
10698SOL     OW32992   4.322   5.721   5.103
10698SOL    HW132993   4.397   5.776   5.139
10698SOL    HW232994   4.332   5.712   5.004
10699SOL     OW32995   4.174   3.147   1.896
10699SOL    HW132996   4.266   3.158   1.859
10699SOL    HW232997   4.115   3.105   1.827
10700SOL     OW32998   6.928   6.957   1.390
10700SOL    HW132999   6.952   6.931   1.296
10700SOL    HW233000   6.864   6.890   1.428
10701SOL     OW33001   3.377   6.059   7.025
10701SOL    HW133002   3.473   6.036   0.009
10701SOL    HW233003   3.353   6.062   6.928
10702SOL     OW33004   5.768   2.919   1.924
10702SOL    HW133005   5.689   2.980   1.926
10702SOL    HW233006   5.849   2.968   1.957
10703SOL     OW33007   3.402   4.093   5.177
10703SOL    HW133008   3.388   4.156   5.254
10703SOL    HW233009   3.433   4.145   5.098
10704SOL     OW33010   6.647   5.387   1.790
10704SOL    HW133011   6.634   5.351   1.883
10704SOL    HW233012   6.593   5.333   1.726
10705SOL     OW33013   6.211   4.575   1.974
10705SOL    HW133014   6.232   4.567   1.877
10705SOL    HW233015   6.192   4.485   2.012
10706SOL     OW33016   4.950   0.005   2.412
10706SOL    HW133017   4.994   6.942   2.411
10706SOL    HW233018   4.853   7.021   2.390
10707SOL     OW33019   0.262   6.417   3.715
10707SOL    HW133020   0.335   6.407   3.783
10707SOL    HW233021   0.204   6.336   3.717
10708SOL     OW33022   4.339   0.835   2.568
10708SOL    HW133023   4.429   0.815   2.530
10708SOL    HW233024   4.289   0.750   2.584
10709SOL     OW33025   6.141   6.562   5.089
10709SOL    HW133026   6.124   6.465   5.072
10709SOL    HW233027   6.093   6.617   5.020
10710SOL     OW33028   0.244   6.687   5.233
10710SOL    HW133029   0.306   6.614   5.205
10710SOL    HW233030   0.296   6.759   5.278
10711SOL     OW33031   1.686   5.697   3.842
10711SOL    HW133032   1.655   5.792   3.854
10711SOL    HW233033   1.612   5.634   3.866
10712SOL     OW33034   2.464   1.039   1.617
10712SOL    HW133035   2.422   0.958   1.658
10712SOL    HW233036   2.433   1.121   1.665
10713SOL     OW33037   0.794   3.768   1.721
10713SOL    HW133038   0.721   3.775   1.790
10713SOL    HW233039   0.754   3.774   1.630
10714SOL     OW33040   6.123   3.775   5.197
10714SOL    HW133041   6.049   3.799   5.133
10714SOL    HW233042   6.167   3.691   5.167
10715SOL     OW33043   4.786   6.867   3.144
10715SOL    HW133044   4.786   6.937   3.215
10715SOL    HW233045   4.794   6.910   3.054
10716SOL     OW33046   5.809   2.711   4.725
10716SOL    HW133047   5.804   2.726   4.626
10716SOL    HW233048   5.721   2.680   4.759
10717SOL     OW33049   1.070   2.767   1.023
10717SOL    HW133050   1.022   2.682   1.044
10717SOL    HW233051   1.145   2.779   1.088
10718SOL     OW33052   1.249   3.033   6.671
10718SOL    HW133053   1.248   2.983   6.585
10718SOL    HW233054   1.246   3.132   6.653
10719SOL     OW33055   5.011   5.569   0.056
10719SOL    HW133056   5.042   5.507   7.011
10719SOL    HW233057   4.942   5.523   0.113
10720SOL     OW33058   6.412   3.221   5.315
10720SOL    HW133059   6.453   3.310   5.335
10720SOL    HW233060   6.389   3.216   5.218
10721SOL     OW33061   6.247   4.410   5.458
10721SOL    HW133062   6.232   4.317   5.424
10721SOL    HW233063   6.172   4.436   5.518
10722SOL     OW33064   0.270   3.614   0.669
10722SOL    HW133065   0.185   3.580   0.627
10722SOL    HW233066   0.258   3.621   0.768
10723SOL     OW33067   0.428   4.124   6.016
10723SOL    HW133068   0.489   4.076   5.953
10723SOL    HW233069   0.454   4.103   6.110
10724SOL     OW33070   4.470   0.964   6.925
10724SOL    HW133071   4.385   0.926   6.890
10724SOL    HW233072   4.547   0.922   6.877
10725SOL     OW33073   0.001   4.697   4.216
10725SOL    HW133074   0.034   4.784   4.178
10725SOL    HW233075   7.011   4.707   4.314
10726SOL     OW33076   5.439   6.664   5.791
10726SOL    HW133077   5.376   6.617   5.853
10726SOL    HW233078   5.533   6.637   5.813
10727SOL     OW33079   0.431   5.290   4.475
10727SOL    HW133080   0.494   5.244   4.537
10727SOL    HW233081   0.413   5.383   4.509
10728SOL     OW33082   6.237   6.207   1.273
10728SOL    HW133083   6.246   6.303   1.298
10728SOL    HW233084   6.233   6.151   1.356
10729SOL     OW33085   5.832   0.925   2.457
10729SOL    HW133086   5.817   1.012   2.504
10729SOL    HW233087   5.850   0.943   2.360
10730SOL     OW33088   2.306   0.412   1.467
10730SOL    HW133089   2.229   0.349   1.463
10730SOL    HW233090   2.275   0.505   1.446
10731SOL     OW33091   2.661   5.596   0.458
10731SOL    HW133092   2.683   5.694   0.460
10731SOL    HW233093   2.676   5.560   0.367
10732SOL     OW33094   5.128   5.494   2.468
10732SOL    HW133095   5.150   5.522   2.375
10732SOL    HW233096   5.059   5.556   2.506
10733SOL     OW33097   5.040   1.917   6.885
10733SOL    HW133098   5.026   1.980   6.961
10733SOL    HW233099   5.031   1.823   6.916
10734SOL     OW33100   1.232   0.378   0.107
10734SOL    HW133101   1.145   0.378   0.057
10734SOL    HW233102   1.235   0.299   0.169
10735SOL     OW33103   1.733   4.511   3.207
10735SOL    HW133104   1.809   4.454   3.237
10735SOL    HW233105   1.757   4.557   3.122
10736SOL     OW33106   0.394   0.393   3.213
10736SOL    HW133107   0.491   0.398   3.187
10736SOL    HW233108   0.364   0.484   3.244
10737SOL     OW33109   1.421   1.705   0.465
10737SOL    HW133110   1.357   1.773   0.430
10737SOL    HW233111   1.448   1.644   0.391
10738SOL     OW33112   2.460   0.539   3.033
10738SOL    HW133113   2.476   0.443   3.054
10738SOL    HW233114   2.455   0.591   3.118
10739SOL     OW33115   0.089   1.379   1.648
10739SOL    HW133116   0.124   1.396   1.556
10739SOL    HW233117   0.161   1.336   1.703
10740SOL     OW33118   1.515   4.385   5.148
10740SOL    HW133119   1.535   4.372   5.245
10740SOL    HW233120   1.564   4.465   5.115
10741SOL     OW33121   0.413   0.326   2.880
10741SOL    HW133122   0.507   0.349   2.906
10741SOL    HW233123   0.362   0.297   2.961
10742SOL     OW33124   6.133   0.397   1.473
10742SOL    HW133125   6.045   0.435   1.444
10742SOL    HW233126   6.198   0.402   1.397
10743SOL     OW33127   2.269   1.701   4.181
10743SOL    HW133128   2.188   1.650   4.154
10743SOL    HW233129   2.261   1.796   4.149
10744SOL     OW33130   2.726   1.596   2.422
10744SOL    HW133131   2.798   1.627   2.360
10744SOL    HW233132   2.739   1.639   2.511
10745SOL     OW33133   0.865   5.008   0.975
10745SOL    HW133134   0.792   5.074   0.996
10745SOL    HW233135   0.953   5.056   0.972
10746SOL     OW33136   1.649   3.672   1.553
10746SOL    HW133137   1.737   3.633   1.526
10746SOL    HW233138   1.632   3.650   1.649
10747SOL     OW33139   4.449   0.905   3.190
10747SOL    HW133140   4.385   0.937   3.259
10747SOL    HW233141   4.399   0.883   3.106
10748SOL     OW33142   3.464   0.523   0.817
10748SOL    HW133143   3.415   0.556   0.897
10748SOL    HW233144   3.549   0.574   0.806
10749SOL     OW33145   0.114   4.778   3.869
10749SOL    HW133146   0.103   4.762   3.771
10749SOL    HW233147   0.118   4.690   3.916
10750SOL     OW33148   3.975   6.262   4.461
10750SOL    HW133149   3.996   6.233   4.368
10750SOL    HW233150   3.894   6.320   4.461
10751SOL     OW33151   0.929   3.743   5.220
10751SOL    HW133152   0.847   3.784   5.180
10751SOL    HW233153   0.986   3.814   5.261
10752SOL     OW33154   6.596   3.799   6.184
10752SOL    HW133155   6.602   3.899   6.188
10752SOL    HW233156   6.531   3.773   6.113
10753SOL     OW33157   5.298   0.747   4.069
10753SOL    HW133158   5.308   0.667   4.009
10753SOL    HW233159   5.325   0.829   4.020
10754SOL     OW33160   1.492   2.140   3.801
10754SOL    HW133161   1.470   2.113   3.707
10754SOL    HW233162   1.479   2.239   3.810
10755SOL     OW33163   0.692   2.240   0.493
10755SOL    HW133164   0.719   2.171   0.426
10755SOL    HW233165   0.769   2.257   0.555
10756SOL     OW33166   6.457   4.415   6.843
10756SOL    HW133167   6.369   4.458   6.865
10756SOL    HW233168   6.526   4.486   6.831
10757SOL     OW33169   1.191   3.370   0.571
10757SOL    HW133170   1.282   3.398   0.604
10757SOL    HW233171   1.197   3.277   0.535
10758SOL     OW33172   1.138   6.603   5.320
10758SOL    HW133173   1.061   6.643   5.270
10758SOL    HW233174   1.120   6.506   5.337
10759SOL     OW33175   1.738   3.263   6.848
10759SOL    HW133176   1.645   3.237   6.822
10759SOL    HW233177   1.734   3.344   6.908
10760SOL     OW33178   6.994   1.148   0.417
10760SOL    HW133179   6.948   1.102   0.341
10760SOL    HW233180   0.043   1.092   0.449
10761SOL     OW33181   0.927   2.019   6.397
10761SOL    HW133182   0.869   2.000   6.318
10761SOL    HW233183   0.976   1.936   6.423
10762SOL     OW33184   3.952   1.719   5.185
10762SOL    HW133185   4.035   1.767   5.157
10762SOL    HW233186   3.924   1.657   5.111
10763SOL     OW33187   4.384   6.082   0.982
10763SOL    HW133188   4.291   6.060   1.010
10763SOL    HW233189   4.449   6.035   1.041
10764SOL     OW33190   5.886   1.631   5.247
10764SOL    HW133191   5.895   1.579   5.162
10764SOL    HW233192   5.820   1.586   5.307
10765SOL     OW33193   5.698   3.037   1.201
10765SOL    HW133194   5.752   3.090   1.265
10765SOL    HW233195   5.680   3.092   1.119
10766SOL     OW33196   3.290   3.174   1.137
10766SOL    HW133197   3.270   3.254   1.193
10766SOL    HW233198   3.291   3.092   1.194
10767SOL     OW33199   1.548   0.541   6.749
10767SOL    HW133200   1.520   0.453   6.710
10767SOL    HW233201   1.506   0.615   6.697
10768SOL     OW33202   4.447   5.320   1.151
10768SOL    HW133203   4.414   5.374   1.074
10768SOL    HW233204   4.404   5.352   1.236
10769SOL     OW33205   2.014   5.091   4.872
10769SOL    HW133206   2.049   5.094   4.778
10769SOL    HW233207   2.003   5.185   4.907
10770SOL     OW33208   5.664   0.198   5.002
10770SOL    HW133209   5.762   0.184   5.017
10770SOL    HW233210   5.623   0.234   5.086
10771SOL     OW33211   4.707   1.140   4.715
10771SOL    HW133212   4.697   1.089   4.800
10771SOL    HW233213   4.753   1.227   4.733
10772SOL     OW33214   6.422   6.226   4.365
10772SOL    HW133215   6.417   6.279   4.450
10772SOL    HW233216   6.338   6.172   4.354
10773SOL     OW33217   6.322   5.610   6.226
10773SOL    HW133218   6.234   5.620   6.180
10773SOL    HW233219   6.311   5.629   6.324
10774SOL     OW33220   1.570   1.729   6.471
10774SOL    HW133221   1.535   1.818   6.440
10774SOL    HW233222   1.506   1.689   6.537
10775SOL     OW33223   0.607   3.193   0.373
10775SOL    HW133224   0.563   3.109   0.340
10775SOL    HW233225   0.538   3.250   0.418
10776SOL     OW33226   1.735   6.095   6.941
10776SOL    HW133227   1.722   6.000   6.912
10776SOL    HW233228   1.713   6.156   6.865
10777SOL     OW33229   4.237   6.536   4.454
10777SOL    HW133230   4.151   6.573   4.488
10777SOL    HW233231   4.310   6.557   4.520
10778SOL     OW33232   5.404   6.147   5.005
10778SOL    HW133233   5.391   6.048   5.010
10778SOL    HW233234   5.359   6.183   4.923
10779SOL     OW33235   6.451   4.883   3.476
10779SOL    HW133236   6.544   4.855   3.497
10779SOL    HW233237   6.393   4.870   3.557
10780SOL     OW33238   1.401   0.105   3.838
10780SOL    HW133239   1.319   0.062   3.802
10780SOL    HW233240   1.441   0.046   3.908
10781SOL     OW33241   3.791   1.732   3.089
10781SOL    HW133242   3.695   1.745   3.063
10781SOL    HW233243   3.850   1.755   3.011
10782SOL     OW33244   6.872   1.547   3.593
10782SOL    HW133245   6.940   1.618   3.612
10782SOL    HW233246   6.897   1.498   3.509
10783SOL     OW33247   1.278   3.556   3.384
10783SOL    HW133248   1.265   3.587   3.478
10783SOL    HW233249   1.368   3.512   3.375
10784SOL     OW33250   2.901   0.235   2.811
10784SOL    HW133251   2.867   0.146   2.781
10784SOL    HW233252   2.977   0.264   2.753
10785SOL     OW33253   0.792   4.757   0.812
10785SOL    HW133254   0.700   4.719   0.822
10785SOL    HW233255   0.795   4.848   0.855
10786SOL     OW33256   4.912   4.240   2.603
10786SOL    HW133257   4.951   4.307   2.666
10786SOL    HW233258   4.947   4.257   2.511
10787SOL     OW33259   2.946   1.815   4.287
10787SOL    HW133260   2.942   1.851   4.194
10787SOL    HW233261   3.039   1.782   4.306
10788SOL     OW33262   2.377   4.421   6.535
10788SOL    HW133263   2.415   4.380   6.618
10788SOL    HW233264   2.339   4.511   6.557
10789SOL     OW33265   5.822   2.948   0.466
10789SOL    HW133266   5.801   2.893   0.385
10789SOL    HW233267   5.899   3.009   0.446
10790SOL     OW33268   1.355   0.292   3.273
10790SOL    HW133269   1.262   0.255   3.273
10790SOL    HW233270   1.351   0.391   3.288
10791SOL     OW33271   6.936   0.430   0.948
10791SOL    HW133272   6.941   0.416   1.047
10791SOL    HW233273   6.855   0.384   0.913
10792SOL     OW33274   3.821   3.457   1.800
10792SOL    HW133275   3.861   3.434   1.711
10792SOL    HW233276   3.725   3.483   1.787
10793SOL     OW33277   5.514   2.638   4.339
10793SOL    HW133278   5.484   2.551   4.377
10793SOL    HW233279   5.500   2.638   4.240
10794SOL     OW33280   2.954   3.837   3.516
10794SOL    HW133281   2.857   3.845   3.540
10794SOL    HW233282   3.008   3.826   3.599
10795SOL     OW33283   6.721   3.460   3.608
10795SOL    HW133284   6.801   3.401   3.614
10795SOL    HW233285   6.694   3.469   3.512
10796SOL     OW33286   5.179   6.476   0.241
10796SOL    HW133287   5.147   6.553   0.187
10796SOL    HW233288   5.159   6.493   0.338
10797SOL     OW33289   3.638   1.983   0.998
10797SOL    HW133290   3.629   2.048   0.923
10797SOL    HW233291   3.588   2.016   1.078
10798SOL     OW33292   2.219   6.266   0.755
10798SOL    HW133293   2.141   6.328   0.748
10798SOL    HW233294   2.304   6.316   0.742
10799SOL     OW33295   3.844   0.831   2.364
10799SOL    HW133296   3.874   0.926   2.362
10799SOL    HW233297   3.794   0.814   2.450
10800SOL     OW33298   0.905   0.144   6.997
10800SOL    HW133299   0.818   0.120   0.012
10800SOL    HW233300   0.922   0.242   7.007
10801SOL     OW33301   0.789   6.569   5.524
10801SOL    HW133302   0.861   6.623   5.568
10801SOL    HW233303   0.762   6.494   5.584
10802SOL     OW33304   1.495   2.823   3.494
10802SOL    HW133305   1.490   2.923   3.486
10802SOL    HW233306   1.505   2.783   3.403
10803SOL     OW33307   4.257   4.382   5.538
10803SOL    HW133308   4.281   4.308   5.475
10803SOL    HW233309   4.233   4.343   5.627
10804SOL     OW33310   5.995   3.864   1.788
10804SOL    HW133311   6.008   3.783   1.732
10804SOL    HW233312   5.902   3.898   1.779
10805SOL     OW33313   3.917   0.093   6.753
10805SOL    HW133314   3.841   0.042   6.795
10805SOL    HW233315   3.980   0.029   6.710
10806SOL     OW33316   4.795   4.319   6.204
10806SOL    HW133317   4.801   4.300   6.302
10806SOL    HW233318   4.781   4.417   6.190
10807SOL     OW33319   1.309   6.486   3.522
10807SOL    HW133320   1.312   6.388   3.541
10807SOL    HW233321   1.255   6.501   3.439
10808SOL     OW33322   6.547   3.830   6.442
10808SOL    HW133323   6.581   3.761   6.506
10808SOL    HW233324   6.580   3.810   6.350
10809SOL     OW33325   3.051   5.824   3.573
10809SOL    HW133326   2.962   5.837   3.616
10809SOL    HW233327   3.098   5.912   3.565
10810SOL     OW33328   2.117   0.356   5.086
10810SOL    HW133329   2.023   0.330   5.106
10810SOL    HW233330   2.123   0.392   4.993
10811SOL     OW33331   4.316   4.853   5.682
10811SOL    HW133332   4.268   4.859   5.769
10811SOL    HW233333   4.301   4.937   5.630
10812SOL     OW33334   1.071   3.736   1.790
10812SOL    HW133335   1.119   3.821   1.768
10812SOL    HW233336   0.974   3.747   1.771
10813SOL     OW33337   2.179   5.634   0.097
10813SOL    HW133338   2.144   5.635   0.191
10813SOL    HW233339   2.248   5.705   0.088
10814SOL     OW33340   1.712   6.247   6.709
10814SOL    HW133341   1.800   6.275   6.748
10814SOL    HW233342   1.702   6.288   6.618
10815SOL     OW33343   4.682   4.645   2.941
10815SOL    HW133344   4.698   4.689   2.853
10815SOL    HW233345   4.644   4.554   2.926
10816SOL     OW33346   1.547   2.234   1.450
10816SOL    HW133347   1.620   2.299   1.431
10816SOL    HW233348   1.562   2.150   1.396
10817SOL     OW33349   5.503   6.714   2.309
10817SOL    HW133350   5.545   6.795   2.269
10817SOL    HW233351   5.492   6.727   2.408
10818SOL     OW33352   4.498   4.557   5.420
10818SOL    HW133353   4.457   4.466   5.431
10818SOL    HW233354   4.568   4.570   5.490
10819SOL     OW33355   6.716   4.358   0.095
10819SOL    HW133356   6.660   4.440   0.079
10819SOL    HW233357   6.664   4.277   0.069
10820SOL     OW33358   5.957   5.645   3.966
10820SOL    HW133359   6.024   5.719   3.957
10820SOL    HW233360   5.987   5.567   3.910
10821SOL     OW33361   5.781   6.409   2.216
10821SOL    HW133362   5.871   6.367   2.217
10821SOL    HW233363   5.730   6.376   2.136
10822SOL     OW33364   1.241   3.053   3.089
10822SOL    HW133365   1.158   3.006   3.119
10822SOL    HW233366   1.237   3.149   3.116
10823SOL     OW33367   1.717   5.492   1.776
10823SOL    HW133368   1.628   5.468   1.737
10823SOL    HW233369   1.740   5.586   1.750
10824SOL     OW33370   5.605   0.910   3.941
10824SOL    HW133371   5.623   0.857   4.024
10824SOL    HW233372   5.655   0.870   3.865
10825SOL     OW33373   3.411   6.916   6.489
10825SOL    HW133374   3.486   6.872   6.438
10825SOL    HW233375   3.378   6.853   6.559
10826SOL     OW33376   0.263   3.396   3.287
10826SOL    HW133377   0.241   3.491   3.265
10826SOL    HW233378   0.352   3.392   3.333
10827SOL     OW33379   6.171   3.960   4.182
10827SOL    HW133380   6.166   4.013   4.267
10827SOL    HW233381   6.257   3.909   4.180
10828SOL     OW33382   0.976   4.756   1.798
10828SOL    HW133383   0.973   4.657   1.787
10828SOL    HW233384   1.003   4.778   1.892
10829SOL     OW33385   3.504   2.414   0.845
10829SOL    HW133386   3.406   2.399   0.829
10829SOL    HW233387   3.516   2.471   0.926
10830SOL     OW33388   5.187   1.551   3.811
10830SOL    HW133389   5.253   1.599   3.869
10830SOL    HW233390   5.229   1.533   3.722
10831SOL     OW33391   4.019   5.889   1.954
10831SOL    HW133392   4.058   5.966   2.005
10831SOL    HW233393   4.092   5.828   1.924
10832SOL     OW33394   0.726   2.548   0.578
10832SOL    HW133395   0.647   2.505   0.621
10832SOL    HW233396   0.696   2.622   0.518
10833SOL     OW33397   1.335   1.505   2.216
10833SOL    HW133398   1.365   1.533   2.307
10833SOL    HW233399   1.355   1.407   2.203
10834SOL     OW33400   1.618   2.090   6.364
10834SOL    HW133401   1.522   2.063   6.361
10834SOL    HW233402   1.668   2.030   6.427
10835SOL     OW33403   6.564   2.262   0.257
10835SOL    HW133404   6.595   2.206   0.334
10835SOL    HW233405   6.548   2.356   0.287
10836SOL     OW33406   0.224   1.507   4.591
10836SOL    HW133407   0.204   1.577   4.521
10836SOL    HW233408   0.254   1.552   4.675
10837SOL     OW33409   6.751   4.720   0.553
10837SOL    HW133410   6.717   4.630   0.528
10837SOL    HW233411   6.675   4.786   0.554
10838SOL     OW33412   6.022   6.387   4.794
10838SOL    HW133413   6.031   6.412   4.698
10838SOL    HW233414   6.042   6.466   4.852
10839SOL     OW33415   3.517   2.939   0.799
10839SOL    HW133416   3.489   3.034   0.785
10839SOL    HW233417   3.491   2.911   0.892
10840SOL     OW33418   3.789   5.815   1.507
10840SOL    HW133419   3.735   5.897   1.522
10840SOL    HW233420   3.781   5.754   1.586
10841SOL     OW33421   4.417   6.058   0.362
10841SOL    HW133422   4.432   6.050   0.461
10841SOL    HW233423   4.384   6.150   0.341
10842SOL     OW33424   5.319   3.032   1.383
10842SOL    HW133425   5.253   3.105   1.363
10842SOL    HW233426   5.313   2.962   1.313
10843SOL     OW33427   0.540   2.237   1.608
10843SOL    HW133428   0.543   2.203   1.514
10843SOL    HW233429   0.466   2.303   1.617
10844SOL     OW33430   0.423   0.145   4.060
10844SOL    HW133431   0.354   0.100   4.117
10844SOL    HW233432   0.417   0.244   4.070
10845SOL     OW33433   3.461   0.518   6.107
10845SOL    HW133434   3.372   0.555   6.132
10845SOL    HW233435   3.527   0.592   6.096
10846SOL     OW33436   4.677   2.682   1.095
10846SOL    HW133437   4.683   2.719   1.187
10846SOL    HW233438   4.606   2.612   1.092
10847SOL     OW33439   3.735   3.603   6.479
10847SOL    HW133440   3.670   3.528   6.466
10847SOL    HW233441   3.735   3.661   6.397
10848SOL     OW33442   2.633   2.539   6.833
10848SOL    HW133443   2.664   2.618   6.886
10848SOL    HW233444   2.533   2.537   6.831
10849SOL     OW33445   2.576   4.906   2.990
10849SOL    HW133446   2.580   4.921   3.089
10849SOL    HW233447   2.593   4.810   2.969
10850SOL     OW33448   3.538   5.727   0.327
10850SOL    HW133449   3.505   5.817   0.300
10850SOL    HW233450   3.637   5.730   0.342
10851SOL     OW33451   2.946   3.056   6.700
10851SOL    HW133452   2.970   3.136   6.645
10851SOL    HW233453   2.934   2.976   6.641
10852SOL     OW33454   0.889   6.612   0.178
10852SOL    HW133455   0.976   6.640   0.138
10852SOL    HW233456   0.904   6.579   0.271
10853SOL     OW33457   3.466   2.149   5.682
10853SOL    HW133458   3.448   2.137   5.780
10853SOL    HW233459   3.432   2.238   5.652
10854SOL     OW33460   5.056   0.169   5.527
10854SOL    HW133461   5.036   0.086   5.580
10854SOL    HW233462   5.072   0.145   5.432
10855SOL     OW33463   2.843   6.537   1.831
10855SOL    HW133464   2.776   6.590   1.882
10855SOL    HW233465   2.930   6.536   1.881
10856SOL     OW33466   5.665   1.656   2.367
10856SOL    HW133467   5.600   1.626   2.297
10856SOL    HW233468   5.731   1.583   2.384
10857SOL     OW33469   5.937   2.783   3.135
10857SOL    HW133470   6.017   2.780   3.195
10857SOL    HW233471   5.955   2.731   3.052
10858SOL     OW33472   0.666   2.730   6.860
10858SOL    HW133473   0.660   2.744   6.761
10858SOL    HW233474   0.699   2.638   6.878
10859SOL     OW33475   2.012   3.549   3.851
10859SOL    HW133476   2.059   3.474   3.804
10859SOL    HW233477   2.018   3.632   3.796
10860SOL     OW33478   6.495   0.567   5.673
10860SOL    HW133479   6.550   0.597   5.751
10860SOL    HW233480   6.444   0.485   5.698
10861SOL     OW33481   3.903   3.047   3.094
10861SOL    HW133482   3.853   2.986   3.155
10861SOL    HW233483   3.973   3.096   3.147
10862SOL     OW33484   2.584   2.000   6.548
10862SOL    HW133485   2.635   2.076   6.589
10862SOL    HW233486   2.617   1.914   6.584
10863SOL     OW33487   4.004   0.382   2.803
10863SOL    HW133488   3.919   0.328   2.800
10863SOL    HW233489   3.982   0.479   2.791
10864SOL     OW33490   3.434   5.111   0.636
10864SOL    HW133491   3.516   5.169   0.638
10864SOL    HW233492   3.368   5.144   0.703
10865SOL     OW33493   5.943   1.502   3.089
10865SOL    HW133494   5.921   1.486   3.185
10865SOL    HW233495   5.916   1.594   3.063
10866SOL     OW33496   4.403   5.134   0.529
10866SOL    HW133497   4.398   5.157   0.431
10866SOL    HW233498   4.322   5.082   0.555
10867SOL     OW33499   3.255   3.748   0.320
10867SOL    HW133500   3.161   3.772   0.345
10867SOL    HW233501   3.275   3.655   0.350
10868SOL     OW33502   2.345   1.972   3.857
10868SOL    HW133503   2.425   1.924   3.821
10868SOL    HW233504   2.348   2.068   3.828
10869NA      NA33505   0.433   2.311   6.282
10870NA      NA33506   4.369   4.634   5.224
10871NA      NA33507   2.068   4.219   2.210
10872NA      NA33508   5.048   4.119   3.556
10873NA      NA33509   4.233   2.320   5.256
10874NA      NA33510   3.191   4.433   1.593
10875NA      NA33511   0.245   4.709   0.185
10876NA      NA33512   3.265   3.508   2.882
10877NA      NA33513   5.227   5.269   1.042
10878NA      NA33514   3.358   7.025   5.375
10879NA      NA33515   6.034   5.688   0.831
10880NA      NA33516   2.227   0.754   5.206
10881NA      NA33517   3.995   4.995   1.779
10882NA      NA33518   3.861   3.081   1.509
   7.02658   7.02658   7.02658
