Generated by trjconv : CNT in water t= 324.00000
33518
    1C        C    1   2.841   2.768   4.744
    1C        C    2   2.899   2.721   4.864
    1C        C    3   2.845   2.776   4.981
    1C        C    4   2.850   2.781   4.256
    1C        C    5   2.901   2.732   4.379
    1C        C    6   2.847   2.776   4.502
    1C        C    7   3.017   2.648   4.624
    1C        C    8   2.897   2.722   4.622
    1C        C    9   3.078   2.605   4.743
    1C        C   10   3.006   2.630   4.862
    1C        C   11   3.177   2.484   4.968
    1C        C   12   3.060   2.561   4.972
    1C        C   13   2.851   2.771   3.768
    1C        C   14   2.902   2.723   3.891
    1C        C   15   2.853   2.779   4.012
    1C        C   16   3.016   2.646   4.138
    1C        C   17   2.904   2.733   4.135
    1C        C   18   3.076   2.611   4.261
    1C        C   19   3.015   2.649   4.382
    1C        C   20   3.206   2.550   4.498
    1C        C   21   3.078   2.608   4.502
    1C        C   22   3.274   2.527   4.619
    1C        C   23   3.209   2.549   4.742
    1C        C   24   3.412   2.475   4.860
    1C        C   25   3.270   2.499   4.860
    1C        C   26   3.486   2.462   4.978
    1C        C   27   2.854   2.769   3.277
    1C        C   28   2.906   2.725   3.401
    1C        C   29   2.851   2.770   3.523
    1C        C   30   3.015   2.637   3.646
    1C        C   31   2.901   2.720   3.645
    1C        C   32   3.074   2.601   3.770
    1C        C   33   3.015   2.639   3.892
    1C        C   34   3.207   2.555   4.014
    1C        C   35   3.076   2.608   4.016
    1C        C   36   3.274   2.531   4.137
    1C        C   37   3.206   2.555   4.258
    1C        C   38   3.416   2.504   4.379
    1C        C   39   3.278   2.533   4.378
    1C        C   40   3.488   2.503   4.501
    1C        C   41   3.413   2.497   4.620
    1C        C   42   3.627   2.474   4.742
    1C        C   43   3.485   2.470   4.738
    1C        C   44   3.703   2.486   4.861
    1C        C   45   3.624   2.473   4.976
    1C        C   46   2.840   2.757   2.788
    1C        C   47   2.896   2.713   2.910
    1C        C   48   2.844   2.761   3.031
    1C        C   49   3.015   2.637   3.157
    1C        C   50   2.902   2.720   3.153
    1C        C   51   3.078   2.601   3.279
    1C        C   52   3.017   2.638   3.401
    1C        C   53   3.207   2.547   3.524
    1C        C   54   3.077   2.602   3.524
    1C        C   55   3.273   2.526   3.647
    1C        C   56   3.205   2.548   3.768
    1C        C   57   3.410   2.500   3.892
    1C        C   58   3.271   2.529   3.891
    1C        C   59   3.484   2.492   4.012
    1C        C   60   3.412   2.503   4.134
    1C        C   61   3.625   2.496   4.257
    1C        C   62   3.484   2.495   4.255
    1C        C   63   3.699   2.506   4.377
    1C        C   64   3.629   2.504   4.500
    1C        C   65   3.832   2.542   4.617
    1C        C   66   3.698   2.497   4.623
    1C        C   67   3.905   2.558   4.737
    1C        C   68   3.839   2.523   4.858
    1C        C   69   4.047   2.583   4.975
    1C        C   70   3.919   2.525   4.972
    1C        C   71   2.820   2.733   2.302
    1C        C   72   2.876   2.687   2.424
    1C        C   73   2.827   2.744   2.543
    1C        C   74   3.003   2.625   2.668
    1C        C   75   2.886   2.703   2.665
    1C        C   76   3.066   2.588   2.789
    1C        C   77   3.010   2.628   2.912
    1C        C   78   3.205   2.547   3.033
    1C        C   79   3.073   2.597   3.034
    1C        C   80   3.272   2.525   3.155
    1C        C   81   3.206   2.542   3.279
    1C        C   82   3.412   2.491   3.402
    1C        C   83   3.273   2.521   3.402
    1C        C   84   3.481   2.494   3.525
    1C        C   85   3.413   2.501   3.648
    1C        C   86   3.624   2.493   3.767
    1C        C   87   3.482   2.494   3.771
    1C        C   88   3.692   2.506   3.890
    1C        C   89   3.625   2.499   4.014
    1C        C   90   3.832   2.542   4.132
    1C        C   91   3.697   2.503   4.135
    1C        C   92   3.902   2.566   4.252
    1C        C   93   3.836   2.541   4.374
    1C        C   94   4.027   2.630   4.494
    1C        C   95   3.903   2.563   4.497
    1C        C   96   4.088   2.666   4.617
    1C        C   97   4.029   2.627   4.739
    1C        C   98   4.189   2.764   4.860
    1C        C   99   4.096   2.655   4.861
    1C        C  100   4.214   2.842   4.974
    1C        C  101   2.822   2.731   2.066
    1C        C  102   2.987   2.588   2.186
    1C        C  103   2.873   2.675   2.184
    1C        C  104   3.060   2.572   2.307
    1C        C  105   2.997   2.614   2.426
    1C        C  106   3.198   2.538   2.545
    1C        C  107   3.067   2.590   2.546
    1C        C  108   3.268   2.520   2.667
    1C        C  109   3.197   2.535   2.788
    1C        C  110   3.407   2.496   2.910
    1C        C  111   3.267   2.518   2.909
    1C        C  112   3.479   2.490   3.031
    1C        C  113   3.411   2.500   3.154
    1C        C  114   3.621   2.498   3.275
    1C        C  115   3.479   2.491   3.278
    1C        C  116   3.690   2.504   3.398
    1C        C  117   3.622   2.497   3.522
    1C        C  118   3.828   2.546   3.645
    1C        C  119   3.692   2.507   3.644
    1C        C  120   3.896   2.569   3.767
    1C        C  121   3.827   2.548   3.888
    1C        C  122   4.021   2.638   4.009
    1C        C  123   3.896   2.573   4.009
    1C        C  124   4.085   2.672   4.130
    1C        C  125   4.025   2.635   4.253
    1C        C  126   4.193   2.767   4.376
    1C        C  127   4.083   2.679   4.374
    1C        C  128   4.248   2.813   4.498
    1C        C  129   4.193   2.761   4.617
    1C        C  130   4.324   2.931   4.736
    1C        C  131   4.236   2.820   4.738
    1C        C  132   4.361   2.996   4.856
    1C        C  133   4.288   2.959   4.970
    1C        C  134   3.171   2.469   2.079
    1C        C  135   3.038   2.512   2.076
    1C        C  136   3.258   2.478   2.188
    1C        C  137   3.191   2.516   2.306
    1C        C  138   3.402   2.473   2.423
    1C        C  139   3.264   2.499   2.426
    1C        C  140   3.476   2.479   2.543
    1C        C  141   3.406   2.491   2.665
    1C        C  142   3.618   2.490   2.787
    1C        C  143   3.477   2.490   2.788
    1C        C  144   3.687   2.502   2.910
    1C        C  145   3.620   2.489   3.033
    1C        C  146   3.829   2.540   3.155
    1C        C  147   3.693   2.502   3.154
    1C        C  148   3.896   2.566   3.277
    1C        C  149   3.826   2.542   3.398
    1C        C  150   4.020   2.626   3.520
    1C        C  151   3.892   2.567   3.521
    1C        C  152   4.082   2.663   3.641
    1C        C  153   4.019   2.638   3.765
    1C        C  154   4.191   2.765   3.886
    1C        C  155   4.078   2.681   3.887
    1C        C  156   4.243   2.811   4.009
    1C        C  157   4.196   2.759   4.131
    1C        C  158   4.338   2.918   4.248
    1C        C  159   4.248   2.809   4.253
    1C        C  160   4.375   2.979   4.370
    1C        C  161   4.334   2.925   4.494
    1C        C  162   4.438   3.111   4.610
    1C        C  163   4.369   2.988   4.615
    1C        C  164   4.467   3.178   4.731
    1C        C  165   4.430   3.119   4.854
    1C        C  166   4.509   3.322   4.971
    1C        C  167   4.468   3.189   4.969
    1C        C  168   3.472   2.431   2.066
    1C        C  169   3.398   2.460   2.182
    1C        C  170   3.615   2.460   2.303
    1C        C  171   3.473   2.464   2.301
    1C        C  172   3.689   2.477   2.422
    1C        C  173   3.618   2.479   2.544
    1C        C  174   3.826   2.529   2.662
    1C        C  175   3.689   2.495   2.665
    1C        C  176   3.891   2.554   2.785
    1C        C  177   3.824   2.536   2.908
    1C        C  178   4.020   2.618   3.030
    1C        C  179   3.893   2.558   3.030
    1C        C  180   4.084   2.656   3.150
    1C        C  181   4.026   2.622   3.274
    1C        C  182   4.194   2.745   3.394
    1C        C  183   4.084   2.656   3.398
    1C        C  184   4.245   2.797   3.515
    1C        C  185   4.194   2.749   3.637
    1C        C  186   4.330   2.913   3.761
    1C        C  187   4.240   2.804   3.759
    1C        C  188   4.371   2.977   3.881
    1C        C  189   4.330   2.923   4.004
    1C        C  190   4.445   3.101   4.124
    1C        C  191   4.375   2.978   4.126
    1C        C  192   4.473   3.166   4.246
    1C        C  193   4.446   3.101   4.369
    1C        C  194   4.500   3.312   4.489
    1C        C  195   4.470   3.174   4.488
    1C        C  196   4.519   3.383   4.610
    1C        C  197   4.508   3.314   4.733
    1C        C  198   4.552   3.531   4.849
    1C        C  199   4.533   3.389   4.851
    1C        C  200   4.573   3.612   4.965
    1C        C  201   3.610   2.409   2.071
    1C        C  202   3.823   2.504   2.179
    1C        C  203   3.688   2.456   2.181
    1C        C  204   3.896   2.528   2.298
    1C        C  205   3.826   2.512   2.420
    1C        C  206   4.017   2.614   2.540
    1C        C  207   3.895   2.544   2.539
    1C        C  208   4.073   2.658   2.662
    1C        C  209   4.016   2.619   2.786
    1C        C  210   4.188   2.746   2.901
    1C        C  211   4.079   2.656   2.907
    1C        C  212   4.239   2.796   3.023
    1C        C  213   4.193   2.746   3.147
    1C        C  214   4.333   2.901   3.269
    1C        C  215   4.245   2.791   3.270
    1C        C  216   4.366   2.967   3.390
    1C        C  217   4.327   2.912   3.514
    1C        C  218   4.429   3.097   3.634
    1C        C  219   4.367   2.970   3.637
    1C        C  220   4.460   3.162   3.756
    1C        C  221   4.442   3.099   3.881
    1C        C  222   4.506   3.302   3.999
    1C        C  223   4.477   3.164   4.001
    1C        C  224   4.517   3.374   4.120
    1C        C  225   4.509   3.302   4.242
    1C        C  226   4.513   3.516   4.363
    1C        C  227   4.512   3.375   4.363
    1C        C  228   4.511   3.590   4.483
    1C        C  229   4.529   3.523   4.606
    1C        C  230   4.499   3.737   4.723
    1C        C  231   4.537   3.600   4.725
    1C        C  232   4.491   3.814   4.841
    1C        C  233   4.540   3.748   4.955
    1C        C  234   4.012   2.610   2.059
    1C        C  235   3.890   2.543   2.062
    1C        C  236   4.078   2.644   2.178
    1C        C  237   4.021   2.596   2.298
    1C        C  238   4.193   2.729   2.416
    1C        C  239   4.082   2.641   2.417
    1C        C  240   4.244   2.784   2.536
    1C        C  241   4.186   2.742   2.658
    1C        C  242   4.330   2.902   2.782
    1C        C  243   4.238   2.795   2.778
    1C        C  244   4.372   2.959   2.904
    1C        C  245   4.333   2.902   3.027
    1C        C  246   4.434   3.089   3.144
    1C        C  247   4.376   2.961   3.148
    1C        C  248   4.457   3.156   3.266
    1C        C  249   4.430   3.093   3.390
    1C        C  250   4.490   3.298   3.511
    1C        C  251   4.451   3.162   3.511
    1C        C  252   4.506   3.368   3.633
    1C        C  253   4.493   3.299   3.755
    1C        C  254   4.522   3.512   3.875
    1C        C  255   4.514   3.371   3.875
    1C        C  256   4.519   3.585   3.996
    1C        C  257   4.518   3.515   4.119
    1C        C  258   4.486   3.725   4.237
    1C        C  259   4.513   3.587   4.240
    1C        C  260   4.469   3.797   4.358
    1C        C  261   4.485   3.729   4.481
    1C        C  262   4.417   3.932   4.602
    1C        C  263   4.469   3.801   4.601
    1C        C  264   4.394   4.004   4.722
    1C        C  265   4.433   3.943   4.843
    1C        C  266   4.319   4.130   4.955
    1C        C  267   4.386   4.008   4.957
    1C        C  268   4.254   2.776   2.058
    1C        C  269   4.189   2.732   2.174
    1C        C  270   4.340   2.884   2.296
    1C        C  271   4.248   2.777   2.294
    1C        C  272   4.376   2.950   2.416
    1C        C  273   4.336   2.891   2.538
    1C        C  274   4.441   3.079   2.658
    1C        C  275   4.373   2.955   2.658
    1C        C  276   4.468   3.145   2.779
    1C        C  277   4.442   3.082   2.903
    1C        C  278   4.503   3.289   3.021
    1C        C  279   4.471   3.151   3.023
    1C        C  280   4.507   3.361   3.142
    1C        C  281   4.493   3.293   3.265
    1C        C  282   4.513   3.506   3.384
    1C        C  283   4.500   3.365   3.387
    1C        C  284   4.516   3.579   3.506
    1C        C  285   4.512   3.509   3.629
    1C        C  286   4.478   3.717   3.748
    1C        C  287   4.511   3.580   3.751
    1C        C  288   4.463   3.787   3.870
    1C        C  289   4.483   3.722   3.994
    1C        C  290   4.418   3.925   4.112
    1C        C  291   4.468   3.793   4.115
    1C        C  292   4.385   3.987   4.235
    1C        C  293   4.419   3.929   4.359
    1C        C  294   4.316   4.118   4.476
    1C        C  295   4.390   3.998   4.480
    1C        C  296   4.275   4.180   4.596
    1C        C  297   4.318   4.124   4.718
    1C        C  298   4.195   4.308   4.833
    1C        C  299   4.280   4.193   4.837
    1C        C  300   4.160   4.397   4.939
    1C        C  301   4.347   2.880   2.058
    1C        C  302   4.466   3.064   2.175
    1C        C  303   4.389   2.943   2.176
    1C        C  304   4.479   3.139   2.295
    1C        C  305   4.444   3.074   2.415
    1C        C  306   4.505   3.279   2.534
    1C        C  307   4.475   3.141   2.536
    1C        C  308   4.514   3.352   2.654
    1C        C  309   4.498   3.283   2.776
    1C        C  310   4.522   3.497   2.895
    1C        C  311   4.511   3.356   2.897
    1C        C  312   4.517   3.569   3.016
    1C        C  313   4.516   3.502   3.140
    1C        C  314   4.486   3.714   3.261
    1C        C  315   4.513   3.575   3.261
    1C        C  316   4.472   3.786   3.381
    1C        C  317   4.490   3.718   3.504
    1C        C  318   4.416   3.918   3.621
    1C        C  319   4.463   3.785   3.625
    1C        C  320   4.378   3.975   3.745
    1C        C  321   4.416   3.920   3.870
    1C        C  322   4.309   4.105   3.989
    1C        C  323   4.392   3.991   3.990
    1C        C  324   4.268   4.164   4.111
    1C        C  325   4.317   4.111   4.232
    1C        C  326   4.184   4.279   4.352
    1C        C  327   4.280   4.175   4.352
    1C        C  328   4.129   4.333   4.470
    1C        C  329   4.184   4.289   4.593
    1C        C  330   4.022   4.434   4.706
    1C        C  331   4.137   4.351   4.710
    1C        C  332   3.966   4.492   4.822
    1C        C  333   4.047   4.480   4.936
    1C        C  334   4.556   3.263   2.062
    1C        C  335   4.531   3.125   2.064
    1C        C  336   4.536   3.347   2.173
    1C        C  337   4.517   3.276   2.293
    1C        C  338   4.516   3.492   2.409
    1C        C  339   4.518   3.351   2.413
    1C        C  340   4.515   3.565   2.530
    1C        C  341   4.514   3.493   2.651
    1C        C  342   4.482   3.705   2.771
    1C        C  343   4.506   3.566   2.772
    1C        C  344   4.469   3.777   2.892
    1C        C  345   4.486   3.707   3.013
    1C        C  346   4.413   3.907   3.134
    1C        C  347   4.463   3.774   3.135
    1C        C  348   4.384   3.976   3.253
    1C        C  349   4.418   3.917   3.377
    1C        C  350   4.309   4.100   3.499
    1C        C  351   4.387   3.981   3.498
    1C        C  352   4.263   4.154   3.621
    1C        C  353   4.303   4.095   3.743
    1C        C  354   4.167   4.259   3.862
    1C        C  355   4.264   4.156   3.865
    1C        C  356   4.119   4.312   3.983
    1C        C  357   4.169   4.265   4.107
    1C        C  358   4.011   4.402   4.226
    1C        C  359   4.123   4.316   4.230
    1C        C  360   3.946   4.442   4.345
    1C        C  361   4.012   4.411   4.466
    1C        C  362   3.824   4.515   4.588
    1C        C  363   3.955   4.462   4.585
    1C        C  364   3.759   4.548   4.709
    1C        C  365   3.834   4.540   4.829
    1C        C  366   3.624   4.587   4.946
    1C        C  367   3.761   4.563   4.947
    1C        C  368   4.509   3.560   2.050
    1C        C  369   4.525   3.488   2.169
    1C        C  370   4.494   3.703   2.282
    1C        C  371   4.514   3.564   2.287
    1C        C  372   4.476   3.772   2.404
    1C        C  373   4.492   3.705   2.528
    1C        C  374   4.421   3.907   2.647
    1C        C  375   4.471   3.775   2.648
    1C        C  376   4.392   3.973   2.768
    1C        C  377   4.421   3.910   2.891
    1C        C  378   4.305   4.089   3.010
    1C        C  379   4.384   3.972   3.012
    1C        C  380   4.258   4.143   3.131
    1C        C  381   4.306   4.094   3.255
    1C        C  382   4.168   4.256   3.373
    1C        C  383   4.265   4.153   3.376
    1C        C  384   4.119   4.309   3.495
    1C        C  385   4.168   4.258   3.617
    1C        C  386   3.998   4.385   3.738
    1C        C  387   4.111   4.301   3.739
    1C        C  388   3.939   4.426   3.859
    1C        C  389   4.001   4.390   3.981
    1C        C  390   3.818   4.491   4.104
    1C        C  391   3.945   4.430   4.104
    1C        C  392   3.750   4.518   4.225
    1C        C  393   3.817   4.501   4.347
    1C        C  394   3.613   4.556   4.470
    1C        C  395   3.752   4.536   4.468
    1C        C  396   3.541   4.563   4.592
    1C        C  397   3.619   4.561   4.710
    1C        C  398   3.406   4.550   4.836
    1C        C  399   3.547   4.564   4.831
    1C        C  400   3.338   4.505   4.950
    1C        C  401   4.499   3.699   2.046
    1C        C  402   4.451   3.914   2.163
    1C        C  403   4.484   3.776   2.162
    1C        C  404   4.413   3.978   2.283
    1C        C  405   4.435   3.907   2.403
    1C        C  406   4.322   4.090   2.522
    1C        C  407   4.394   3.969   2.523
    1C        C  408   4.270   4.142   2.643
    1C        C  409   4.311   4.089   2.767
    1C        C  410   4.167   4.250   2.885
    1C        C  411   4.264   4.147   2.887
    1C        C  412   4.115   4.297   3.007
    1C        C  413   4.165   4.250   3.130
    1C        C  414   3.995   4.377   3.250
    1C        C  415   4.114   4.302   3.251
    1C        C  416   3.934   4.412   3.373
    1C        C  417   4.001   4.387   3.495
    1C        C  418   3.808   4.481   3.615
    1C        C  419   3.936   4.421   3.616
    1C        C  420   3.744   4.506   3.738
    1C        C  421   3.809   4.482   3.861
    1C        C  422   3.607   4.535   3.986
    1C        C  423   3.746   4.513   3.984
    1C        C  424   3.536   4.537   4.108
    1C        C  425   3.610   4.540   4.228
    1C        C  426   3.399   4.550   4.352
    1C        C  427   3.539   4.560   4.349
    1C        C  428   3.328   4.543   4.475
    1C        C  429   3.401   4.553   4.596
    1C        C  430   3.190   4.517   4.719
    1C        C  431   3.329   4.547   4.717
    1C        C  432   3.121   4.491   4.841
    1C        C  433   3.200   4.492   4.957
    1C        C  434   4.378   4.116   2.048
    1C        C  435   4.437   3.988   2.045
    1C        C  436   4.299   4.158   2.159
    1C        C  437   4.329   4.093   2.282
    1C        C  438   4.177   4.246   2.398
    1C        C  439   4.283   4.153   2.402
    1C        C  440   4.121   4.293   2.518
    1C        C  441   4.173   4.245   2.641
    1C        C  442   4.000   4.374   2.763
    1C        C  443   4.117   4.294   2.760
    1C        C  444   3.939   4.416   2.883
    1C        C  445   3.997   4.375   3.005
    1C        C  446   3.806   4.470   3.124
    1C        C  447   3.934   4.409   3.127
    1C        C  448   3.742   4.496   3.248
    1C        C  449   3.807   4.475   3.371
    1C        C  450   3.602   4.529   3.493
    1C        C  451   3.740   4.500   3.493
    1C        C  452   3.537   4.541   3.618
    1C        C  453   3.606   4.538   3.741
    1C        C  454   3.396   4.547   3.860
    1C        C  455   3.537   4.547   3.864
    1C        C  456   3.327   4.537   3.983
    1C        C  457   3.395   4.542   4.107
    1C        C  458   3.192   4.498   4.233
    1C        C  459   3.327   4.538   4.231
    1C        C  460   3.126   4.477   4.357
    1C        C  461   3.191   4.510   4.478
    1C        C  462   2.992   4.431   4.597
    1C        C  463   3.121   4.490   4.599
    1C        C  464   2.931   4.393   4.719
    1C        C  465   2.990   4.433   4.841
    1C        C  466   2.796   4.333   4.953
    1C        C  467   2.904   4.422   4.955
    1C        C  468   4.120   4.281   2.036
    1C        C  469   4.185   4.243   2.155
    1C        C  470   4.007   4.371   2.276
    1C        C  471   4.126   4.294   2.275
    1C        C  472   3.940   4.405   2.396
    1C        C  473   4.005   4.373   2.517
    1C        C  474   3.811   4.462   2.637
    1C        C  475   3.940   4.405   2.639
    1C        C  476   3.744   4.488   2.759
    1C        C  477   3.810   4.473   2.883
    1C        C  478   3.598   4.514   3.007
    1C        C  479   3.738   4.493   3.003
    1C        C  480   3.530   4.532   3.129
    1C        C  481   3.603   4.520   3.250
    1C        C  482   3.390   4.530   3.374
    1C        C  483   3.531   4.532   3.370
    1C        C  484   3.322   4.529   3.498
    1C        C  485   3.395   4.541   3.618
    1C        C  486   3.187   4.497   3.742
    1C        C  487   3.324   4.531   3.740
    1C        C  488   3.123   4.473   3.865
    1C        C  489   3.191   4.498   3.987
    1C        C  490   3.002   4.408   4.112
    1C        C  491   3.126   4.475   4.110
    1C        C  492   2.942   4.374   4.235
    1C        C  493   3.000   4.415   4.357
    1C        C  494   2.825   4.293   4.477
    1C        C  495   2.933   4.384   4.478
    1C        C  496   2.772   4.248   4.600
    1C        C  497   2.817   4.308   4.720
    1C        C  498   2.660   4.159   4.842
    1C        C  499   2.753   4.265   4.838
    1C        C  500   2.593   4.110   4.954
    1C        C  501   4.002   4.355   2.038
    1C        C  502   3.812   4.459   2.152
    1C        C  503   3.940   4.400   2.155
    1C        C  504   3.738   4.468   2.272
    1C        C  505   3.805   4.446   2.395
    1C        C  506   3.604   4.512   2.517
    1C        C  507   3.742   4.481   2.516
    1C        C  508   3.533   4.518   2.639
    1C        C  509   3.605   4.515   2.761
    1C        C  510   3.391   4.520   2.881
    1C        C  511   3.532   4.521   2.882
    1C        C  512   3.321   4.518   3.004
    1C        C  513   3.389   4.531   3.127
    1C        C  514   3.184   4.488   3.253
    1C        C  515   3.321   4.524   3.250
    1C        C  516   3.119   4.466   3.376
    1C        C  517   3.186   4.492   3.498
    1C        C  518   2.994   4.407   3.621
    1C        C  519   3.118   4.475   3.620
    1C        C  520   2.938   4.369   3.745
    1C        C  521   2.997   4.409   3.867
    1C        C  522   2.833   4.278   3.992
    1C        C  523   2.946   4.363   3.990
    1C        C  524   2.781   4.231   4.114
    1C        C  525   2.835   4.281   4.235
    1C        C  526   2.688   4.128   4.361
    1C        C  527   2.778   4.237   4.356
    1C        C  528   2.645   4.070   4.482
    1C        C  529   2.688   4.134   4.601
    1C        C  530   2.581   3.954   4.725
    1C        C  531   2.640   4.084   4.724
    1C        C  532   2.533   3.898   4.847
    1C        C  533   2.520   3.991   4.955
    1C        C  534   3.617   4.543   2.031
    1C        C  535   3.751   4.504   2.035
    1C        C  536   3.535   4.527   2.148
    1C        C  537   3.601   4.505   2.272
    1C        C  538   3.392   4.511   2.393
    1C        C  539   3.533   4.519   2.395
    1C        C  540   3.321   4.510   2.515
    1C        C  541   3.392   4.518   2.636
    1C        C  542   3.183   4.482   2.762
    1C        C  543   3.322   4.509   2.759
    1C        C  544   3.116   4.460   2.884
    1C        C  545   3.183   4.487   3.006
    1C        C  546   2.994   4.398   3.131
    1C        C  547   3.119   4.463   3.130
    1C        C  548   2.938   4.359   3.255
    1C        C  549   2.993   4.401   3.378
    1C        C  550   2.828   4.270   3.503
    1C        C  551   2.933   4.365   3.501
    1C        C  552   2.779   4.220   3.626
    1C        C  553   2.835   4.273   3.744
    1C        C  554   2.699   4.115   3.871
    1C        C  555   2.789   4.224   3.869
    1C        C  556   2.656   4.057   3.993
    1C        C  557   2.692   4.121   4.114
    1C        C  558   2.586   3.943   4.241
    1C        C  559   2.649   4.070   4.238
    1C        C  560   2.561   3.875   4.362
    1C        C  561   2.582   3.944   4.483
    1C        C  562   2.515   3.746   4.614
    1C        C  563   2.557   3.881   4.607
    1C        C  564   2.504   3.674   4.735
    1C        C  565   2.518   3.755   4.850
    1C        C  566   2.521   3.543   4.973
    1C        C  567   2.512   3.682   4.970
    1C        C  568   3.321   4.473   2.037
    1C        C  569   3.394   4.511   2.151
    1C        C  570   3.182   4.468   2.275
    1C        C  571   3.320   4.501   2.272
    1C        C  572   3.112   4.458   2.398
    1C        C  573   3.182   4.483   2.518
    1C        C  574   2.991   4.392   2.645
    1C        C  575   3.116   4.458   2.640
    1C        C  576   2.930   4.357   2.767
    1C        C  577   2.992   4.394   2.889
    1C        C  578   2.828   4.260   3.013
    1C        C  579   2.932   4.356   3.012
    1C        C  580   2.779   4.214   3.138
    1C        C  581   2.830   4.268   3.258
    1C        C  582   2.694   4.107   3.381
    1C        C  583   2.781   4.218   3.381
    1C        C  584   2.653   4.049   3.503
    1C        C  585   2.691   4.109   3.625
    1C        C  586   2.590   3.930   3.753
    1C        C  587   2.654   4.056   3.750
    1C        C  588   2.563   3.866   3.876
    1C        C  589   2.593   3.931   3.998
    1C        C  590   2.522   3.735   4.124
    1C        C  591   2.567   3.869   4.122
    1C        C  592   2.511   3.666   4.247
    1C        C  593   2.523   3.739   4.368
    1C        C  594   2.499   3.533   4.493
    1C        C  595   2.506   3.674   4.493
    1C        C  596   2.502   3.460   4.614
    1C        C  597   2.497   3.532   4.736
    1C        C  598   2.527   3.323   4.859
    1C        C  599   2.513   3.463   4.858
    1C        C  600   2.524   3.241   4.973
    1C        C  601   3.189   4.432   2.039
    1C        C  602   2.977   4.388   2.157
    1C        C  603   3.111   4.439   2.155
    1C        C  604   2.926   4.348   2.284
    1C        C  605   2.988   4.392   2.403
    1C        C  606   2.816   4.266   2.525
    1C        C  607   2.929   4.351   2.525
    1C        C  608   2.767   4.217   2.648
    1C        C  609   2.820   4.269   2.768
    1C        C  610   2.683   4.108   2.892
    1C        C  611   2.772   4.218   2.891
    1C        C  612   2.644   4.049   3.015
    1C        C  613   2.689   4.105   3.137
    1C        C  614   2.582   3.925   3.261
    1C        C  615   2.646   4.051   3.260
    1C        C  616   2.561   3.861   3.386
    1C        C  617   2.591   3.922   3.510
    1C        C  618   2.526   3.724   3.636
    1C        C  619   2.561   3.861   3.634
    1C        C  620   2.508   3.658   3.759
    1C        C  621   2.526   3.730   3.879
    1C        C  622   2.503   3.522   4.006
    1C        C  623   2.510   3.663   4.003
    1C        C  624   2.507   3.451   4.128
    1C        C  625   2.506   3.525   4.249
    1C        C  626   2.525   3.319   4.373
    1C        C  627   2.502   3.458   4.373
    1C        C  628   2.546   3.251   4.496
    1C        C  629   2.536   3.323   4.617
    1C        C  630   2.592   3.117   4.740
    1C        C  631   2.549   3.252   4.738
    1C        C  632   2.612   3.043   4.860
    1C        C  633   2.555   3.105   4.976
    1C        C  634   2.774   4.311   2.056
    1C        C  635   2.886   4.394   2.047
    1C        C  636   2.744   4.229   2.166
    1C        C  637   2.807   4.271   2.285
    1C        C  638   2.673   4.104   2.406
    1C        C  639   2.757   4.217   2.406
    1C        C  640   2.638   4.045   2.530
    1C        C  641   2.679   4.107   2.650
    1C        C  642   2.574   3.922   2.774
    1C        C  643   2.642   4.046   2.773
    1C        C  644   2.553   3.855   2.897
    1C        C  645   2.583   3.922   3.017
    1C        C  646   2.519   3.720   3.145
    1C        C  647   2.561   3.855   3.140
    1C        C  648   2.509   3.652   3.268
    1C        C  649   2.526   3.725   3.388
    1C        C  650   2.498   3.517   3.517
    1C        C  651   2.512   3.657   3.512
    1C        C  652   2.498   3.445   3.639
    1C        C  653   2.501   3.516   3.761
    1C        C  654   2.518   3.309   3.885
    1C        C  655   2.504   3.449   3.885
    1C        C  656   2.546   3.242   4.007
    1C        C  657   2.536   3.313   4.128
    1C        C  658   2.604   3.118   4.252
    1C        C  659   2.547   3.248   4.253
    1C        C  660   2.630   3.055   4.376
    1C        C  661   2.593   3.118   4.497
    1C        C  662   2.709   2.939   4.621
    1C        C  663   2.630   3.056   4.619
    1C        C  664   2.749   2.876   4.741
    1C        C  665   2.694   2.925   4.862
    1C        C  666   2.743   2.871   4.982
    1C        C  667   2.664   4.029   2.051
    1C        C  668   2.672   4.108   2.166
    1C        C  669   2.578   3.912   2.289
    1C        C  670   2.629   4.045   2.285
    1C        C  671   2.555   3.847   2.412
    1C        C  672   2.579   3.917   2.532
    1C        C  673   2.515   3.715   2.654
    1C        C  674   2.548   3.852   2.654
    1C        C  675   2.505   3.647   2.778
    1C        C  676   2.519   3.718   2.899
    1C        C  677   2.500   3.510   3.029
    1C        C  678   2.507   3.651   3.023
    1C        C  679   2.500   3.439   3.151
    1C        C  680   2.500   3.511   3.273
    1C        C  681   2.526   3.303   3.398
    1C        C  682   2.501   3.442   3.397
    1C        C  683   2.542   3.235   3.521
    1C        C  684   2.521   3.306   3.642
    1C        C  685   2.592   3.108   3.766
    1C        C  686   2.534   3.237   3.764
    1C        C  687   2.622   3.043   3.888
    1C        C  688   2.579   3.105   4.008
    1C        C  689   2.710   2.937   4.133
    1C        C  690   2.623   3.048   4.130
    1C        C  691   2.750   2.880   4.256
    1C        C  692   2.708   2.938   4.378
    1C        C  693   2.752   2.881   4.499
    1C        C  694   2.615   3.898   2.051
    1C        C  695   2.521   3.705   2.170
    1C        C  696   2.569   3.838   2.169
    1C        C  697   2.501   3.638   2.293
    1C        C  698   2.514   3.711   2.413
    1C        C  699   2.482   3.502   2.540
    1C        C  700   2.496   3.642   2.535
    1C        C  701   2.492   3.432   2.663
    1C        C  702   2.499   3.506   2.783
    1C        C  703   2.519   3.298   2.906
    1C        C  704   2.502   3.439   2.907
    1C        C  705   2.542   3.233   3.029
    1C        C  706   2.527   3.300   3.152
    1C        C  707   2.596   3.103   3.276
    1C        C  708   2.542   3.234   3.276
    1C        C  709   2.629   3.043   3.400
    1C        C  710   2.601   3.107   3.523
    1C        C  711   2.708   2.926   3.644
    1C        C  712   2.631   3.044   3.646
    1C        C  713   2.754   2.873   3.767
    1C        C  714   2.709   2.932   3.887
    1C        C  715   2.757   2.883   4.011
    1C        C  716   2.450   3.496   2.059
    1C        C  717   2.496   3.628   2.055
    1C        C  718   2.463   3.420   2.180
    1C        C  719   2.478   3.498   2.297
    1C        C  720   2.511   3.289   2.419
    1C        C  721   2.486   3.428   2.419
    1C        C  722   2.535   3.221   2.541
    1C        C  723   2.519   3.294   2.661
    1C        C  724   2.593   3.098   2.786
    1C        C  725   2.541   3.229   2.785
    1C        C  726   2.626   3.037   2.909
    1C        C  727   2.596   3.102   3.031
    1C        C  728   2.708   2.925   3.155
    1C        C  729   2.628   3.041   3.154
    1C        C  730   2.757   2.873   3.277
    1C        C  731   2.716   2.932   3.399
    1C        C  732   2.753   2.873   3.521
    1C        C  733   2.481   3.193   2.066
    1C        C  734   2.487   3.279   2.177
    1C        C  735   2.579   3.086   2.298
    1C        C  736   2.519   3.215   2.299
    1C        C  737   2.615   3.024   2.420
    1C        C  738   2.590   3.091   2.541
    1C        C  739   2.699   2.914   2.665
    1C        C  740   2.617   3.029   2.665
    1C        C  741   2.743   2.859   2.788
    1C        C  742   2.704   2.919   2.910
    1C        C  743   2.750   2.867   3.033
    1C        C  744   2.542   3.068   2.068
    1C        C  745   2.680   2.894   2.179
    1C        C  746   2.608   3.015   2.179
    1C        C  747   2.723   2.837   2.301
    1C        C  748   2.686   2.902   2.421
    1C        C  749   2.734   2.850   2.544
    1C        C  750   2.733   2.838   2.062
    1C        C  751   3.650   2.311   1.967
    1C        O  752   3.668   2.188   1.988
    1C        O  753   3.687   2.369   1.844
    1C        C  754   4.608   3.051   1.961
    1C        O  755   4.552   3.023   1.852
    1C        O  756   4.695   2.952   2.009
    1C        C  757   4.461   4.215   1.976
    1C        O  758   4.539   4.285   2.046
    1C        O  759   4.465   4.244   1.839
    1C        C  760   3.587   4.640   1.923
    1C        O  761   3.536   4.752   1.951
    1C        O  762   3.536   4.589   1.803
    1C        C  763   2.862   4.518   1.970
    1C        O  764   2.842   4.519   1.846
    1C        O  765   2.832   4.642   2.029
    1C        C  766   2.340   3.463   1.966
    1C        O  767   2.348   3.413   1.851
    1C        O  768   2.214   3.514   1.997
    1C        C  769   4.695   3.599   5.048
    1C        O  770   4.681   3.552   5.164
    1C        O  771   4.828   3.633   5.020
    1C        C  772   4.267   4.455   5.024
    1C        O  773   4.238   4.534   5.118
    1C        O  774   4.378   4.522   4.971
    1C        C  775   4.133   2.508   5.069
    1C        O  776   4.158   2.384   5.063
    1C        O  777   4.125   2.543   5.204
    1C        C  778   2.879   4.538   5.045
    1C        O  779   2.799   4.635   5.047
    1C        O  780   2.941   4.545   5.170
    1C        C  781   2.466   3.032   5.070
    1C        O  782   2.359   2.979   5.031
    1C        O  783   2.511   2.980   5.191
    1C        C  784   2.397   4.007   5.036
    1C        O  785   2.286   4.025   4.978
    1C        O  786   2.395   4.060   5.165
    1C        C  787   2.962   2.437   1.973
    1C        O  788   2.985   2.443   1.849
    1C        O  789   2.910   2.312   2.006
    1C        C  790   3.165   2.366   5.056
    1C        O  791   3.182   2.245   5.025
    1C        O  792   3.125   2.387   5.189
    1C        H  793   4.242   3.039   5.025
    1C        H  794   4.208   2.796   5.070
    1C        H  795   4.482   3.122   5.052
    1C        H  796   4.567   3.356   5.054
    1C        H  797   4.550   3.800   5.048
    1C        H  798   4.442   3.990   5.046
    1C        H  799   4.261   4.155   5.042
    1C        H  800   4.019   4.529   5.027
    1C        H  801   3.811   4.544   5.040
    1C        H  802   3.577   4.621   5.035
    1C        H  803   3.394   4.496   5.041
    1C        H  804   3.170   4.419   5.029
    1C        H  805   3.892   2.465   5.057
    1C        H  806   3.671   2.432   5.063
    1C        H  807   3.045   2.609   5.066
    1C        H  808   3.434   2.453   5.071
    1C        H  809   2.883   2.749   5.077
    1C        H  810   2.709   2.906   5.077
    1C        H  811   2.484   3.280   5.064
    1C        H  812   2.577   3.508   5.057
    1C        H  813   2.506   3.736   5.061
    1C        H  814   2.602   4.159   5.049
    1C        H  815   2.755   4.299   5.046
    1C        H  816   2.688   2.857   1.967
    1C        H  817   2.854   2.694   1.971
    1C        H  818   3.213   2.431   1.988
    1C        H  819   3.419   2.407   1.977
    1C        H  820   3.870   2.483   1.976
    1C        H  821   4.073   2.595   1.973
    1C        H  822   4.254   2.715   1.970
    1C        H  823   4.383   2.906   1.961
    1C        H  824   4.618   3.304   1.985
    1C        H  825   4.490   3.505   1.960
    1C        H  826   4.511   3.752   1.954
    1C        H  827   3.813   4.573   1.980
    1C        H  828   3.944   4.344   1.949
    1C        H  829   4.184   4.307   1.954
    1C        H  830   4.497   3.970   1.959
    1C        H  831   2.602   3.859   1.952
    1C        H  832   2.665   4.084   1.958
    1C        H  833   2.690   4.338   1.996
    1C        H  834   3.370   4.475   1.941
    1C        H  835   3.141   4.403   1.948
    1C        H  836   2.523   3.002   1.985
    1C        H  837   2.410   3.211   1.988
    1C        H  838   2.544   3.656   1.963
    2V3OU   H29  839   2.805   3.547   3.486
    2V3OU   C27  840   2.788   3.501   3.587
    2V3OU   H27  841   2.731   3.565   3.659
    2V3OU   H28  842   2.734   3.405   3.566
    2V3OU   O11  843   2.912   3.468   3.650
    2V3OU   C15  844   2.923   3.391   3.763
    2V3OU   C13  845   3.051   3.365   3.816
    2V3OU   C14  846   3.078   3.262   3.907
    2V3OU   C16  847   2.977   3.181   3.958
    2V3OU    H6  848   2.992   3.094   4.024
    2V3OU   C12  849   3.210   3.228   3.964
    2V3OU    O2  850   3.232   3.118   4.021
    2V3OU   C10  851   3.322   3.303   3.907
    2V3OU    C8  852   3.453   3.265   3.936
    2V3OU   O10  853   3.487   3.156   4.009
    2V3OU   H26  854   3.400   3.114   4.020
    2V3OU    C6  855   3.565   3.342   3.893
    2V3OU    C5  856   3.537   3.458   3.822
    2V3OU    C4  857   3.702   3.283   3.887
    2V3OU    H4  858   3.727   3.215   3.974
    2V3OU    H5  859   3.715   3.230   3.788
    2V3OU    C2  860   3.809   3.392   3.896
    2V3OU    O6  861   3.805   3.470   4.015
    2V3OU   H21  862   3.759   3.546   3.975
    2V3OU    C3  863   3.779   3.490   3.782
    2V3OU    H2  864   3.862   3.565   3.786
    2V3OU    H3  865   3.777   3.431   3.687
    2V3OU   C25  866   3.947   3.327   3.883
    2V3OU    O7  867   3.998   3.295   3.776
    2V3OU   C26  868   4.022   3.285   4.008
    2V3OU   H22  869   4.058   3.379   4.057
    2V3OU   H23  870   4.115   3.229   3.979
    2V3OU    O8  871   3.955   3.207   4.105
    2V3OU   H24  872   3.924   3.265   4.177
    2V3OU    C1  873   3.645   3.559   3.798
    2V3OU    H1  874   3.623   3.614   3.701
    2V3OU    O3  875   3.662   3.650   3.907
    2V3OU   C19  876   3.614   3.782   3.882
    2V3OU    H9  877   3.515   3.786   3.827
    2V3OU    O4  878   3.711   3.843   3.801
    2V3OU   C20  879   3.842   3.867   3.854
    2V3OU   H10  880   3.886   3.764   3.867
    2V3OU   C24  881   3.606   3.846   4.021
    2V3OU   H16  882   3.533   3.790   4.085
    2V3OU   H17  883   3.566   3.947   3.995
    2V3OU   C23  884   3.744   3.871   4.081
    2V3OU   H15  885   3.792   3.770   4.103
    2V3OU    N1  886   3.731   3.953   4.200
    2V3OU   H19  887   3.808   3.922   4.257
    2V3OU   H20  888   3.646   3.931   4.247
    2V3OU   C21  889   3.841   3.946   3.985
    2V3OU   H11  890   3.944   3.925   4.026
    2V3OU    O5  891   3.822   4.086   3.995
    2V3OU   H18  892   3.779   4.097   4.082
    2V3OU   C22  893   3.908   3.949   3.744
    2V3OU   H12  894   3.848   4.040   3.718
    2V3OU   H13  895   3.895   3.895   3.647
    2V3OU   H14  896   4.018   3.956   3.760
    2V3OU   C11  897   3.156   3.466   3.797
    2V3OU    O1  898   3.131   3.587   3.784
    2V3OU    C9  899   3.292   3.420   3.832
    2V3OU    C7  900   3.402   3.496   3.792
    2V3OU    O9  901   3.381   3.616   3.728
    2V3OU   H25  902   3.284   3.626   3.726
    2V3OU   C17  903   2.824   3.311   3.824
    2V3OU    H7  904   2.726   3.358   3.810
    2V3OU   C18  905   2.847   3.212   3.919
    2V3OU    H8  906   2.783   3.173   3.999
    3SOL     OW  907   2.899   4.455   6.000
    3SOL    HW1  908   2.861   4.514   5.930
    3SOL    HW2  909   2.990   4.425   5.973
    4SOL     OW  910   6.394   6.805   6.591
    4SOL    HW1  911   6.395   6.872   6.517
    4SOL    HW2  912   6.320   6.739   6.574
    5SOL     OW  913   4.641   2.102   2.533
    5SOL    HW1  914   4.704   2.046   2.586
    5SOL    HW2  915   4.554   2.053   2.520
    6SOL     OW  916   4.987   1.986   2.278
    6SOL    HW1  917   5.027   1.910   2.227
    6SOL    HW2  918   4.888   1.985   2.268
    7SOL     OW  919   0.835   3.940   4.214
    7SOL    HW1  920   0.854   3.845   4.191
    7SOL    HW2  921   0.860   3.957   4.309
    8SOL     OW  922   2.827   2.124   5.348
    8SOL    HW1  923   2.880   2.049   5.387
    8SOL    HW2  924   2.888   2.201   5.328
    9SOL     OW  925   5.814   2.607   6.141
    9SOL    HW1  926   5.781   2.672   6.072
    9SOL    HW2  927   5.914   2.611   6.145
   10SOL     OW  928   3.028   4.913   4.676
   10SOL    HW1  929   3.113   4.922   4.728
   10SOL    HW2  930   2.979   4.831   4.705
   11SOL     OW  931   1.919   1.386   6.265
   11SOL    HW1  932   1.934   1.309   6.327
   11SOL    HW2  933   1.882   1.463   6.317
   12SOL     OW  934   2.872   4.919   3.894
   12SOL    HW1  935   2.820   4.920   3.980
   12SOL    HW2  936   2.962   4.959   3.910
   13SOL     OW  937   4.218   6.286   3.390
   13SOL    HW1  938   4.176   6.359   3.445
   13SOL    HW2  939   4.316   6.303   3.380
   14SOL     OW  940   3.623   4.617   6.283
   14SOL    HW1  941   3.684   4.669   6.222
   14SOL    HW2  942   3.660   4.620   6.376
   15SOL     OW  943   0.804   6.668   0.093
   15SOL    HW1  944   0.833   6.709   0.006
   15SOL    HW2  945   0.801   6.739   0.164
   16SOL     OW  946   5.437   2.797   6.822
   16SOL    HW1  947   5.530   2.824   6.800
   16SOL    HW2  948   5.410   2.720   6.764
   17SOL     OW  949   4.736   0.056   6.360
   17SOL    HW1  950   4.654   0.049   6.418
   17SOL    HW2  951   4.738   6.995   6.297
   18SOL     OW  952   3.604   0.800   4.689
   18SOL    HW1  953   3.682   0.837   4.739
   18SOL    HW2  954   3.545   0.875   4.659
   19SOL     OW  955   0.534   2.396   2.135
   19SOL    HW1  956   0.494   2.487   2.146
   19SOL    HW2  957   0.597   2.397   2.057
   20SOL     OW  958   5.083   2.228   5.405
   20SOL    HW1  959   5.170   2.184   5.426
   20SOL    HW2  960   5.099   2.322   5.377
   21SOL     OW  961   2.649   0.787   3.104
   21SOL    HW1  962   2.627   0.820   3.012
   21SOL    HW2  963   2.741   0.816   3.130
   22SOL     OW  964   1.347   6.340   0.557
   22SOL    HW1  965   1.293   6.257   0.544
   22SOL    HW2  966   1.330   6.402   0.480
   23SOL     OW  967   3.859   5.303   2.312
   23SOL    HW1  968   3.849   5.292   2.411
   23SOL    HW2  969   3.789   5.248   2.265
   24SOL     OW  970   3.528   0.524   2.489
   24SOL    HW1  971   3.602   0.555   2.429
   24SOL    HW2  972   3.561   0.449   2.547
   25SOL     OW  973   2.096   0.265   3.725
   25SOL    HW1  974   1.999   0.263   3.704
   25SOL    HW2  975   2.142   0.330   3.665
   26SOL     OW  976   6.685   2.109   6.737
   26SOL    HW1  977   6.597   2.140   6.771
   26SOL    HW2  978   6.749   2.186   6.734
   27SOL     OW  979   1.826   1.286   2.161
   27SOL    HW1  980   1.875   1.315   2.243
   27SOL    HW2  981   1.742   1.339   2.153
   28SOL     OW  982   0.353   0.647   4.885
   28SOL    HW1  983   0.430   0.711   4.878
   28SOL    HW2  984   0.335   0.607   4.795
   29SOL     OW  985   6.696   1.036   1.146
   29SOL    HW1  986   6.690   0.980   1.063
   29SOL    HW2  987   6.787   1.027   1.186
   30SOL     OW  988   4.697   0.216   5.261
   30SOL    HW1  989   4.782   0.252   5.302
   30SOL    HW2  990   4.719   0.140   5.200
   31SOL     OW  991   0.788   2.112   5.630
   31SOL    HW1  992   0.843   2.179   5.580
   31SOL    HW2  993   0.835   2.025   5.633
   32SOL     OW  994   1.355   1.794   2.283
   32SOL    HW1  995   1.390   1.772   2.192
   32SOL    HW2  996   1.420   1.765   2.353
   33SOL     OW  997   0.836   4.834   5.122
   33SOL    HW1  998   0.926   4.875   5.136
   33SOL    HW2  999   0.799   4.866   5.035
   34SOL     OW 1000   2.788   5.474   5.093
   34SOL    HW1 1001   2.807   5.450   4.998
   34SOL    HW2 1002   2.792   5.391   5.150
   35SOL     OW 1003   4.113   2.299   5.485
   35SOL    HW1 1004   4.050   2.275   5.559
   35SOL    HW2 1005   4.175   2.372   5.516
   36SOL     OW 1006   5.097   1.450   3.652
   36SOL    HW1 1007   5.052   1.516   3.591
   36SOL    HW2 1008   5.130   1.372   3.598
   37SOL     OW 1009   1.739   1.937   4.956
   37SOL    HW1 1010   1.808   1.961   5.024
   37SOL    HW2 1011   1.669   2.009   4.953
   38SOL     OW 1012   1.731   4.349   1.730
   38SOL    HW1 1013   1.638   4.344   1.695
   38SOL    HW2 1014   1.736   4.306   1.820
   39SOL     OW 1015   5.997   4.978   6.180
   39SOL    HW1 1016   5.946   5.035   6.116
   39SOL    HW2 1017   5.988   4.882   6.154
   40SOL     OW 1018   3.523   1.991   0.286
   40SOL    HW1 1019   3.579   1.952   0.358
   40SOL    HW2 1020   3.582   2.034   0.218
   41SOL     OW 1021   6.024   3.593   2.910
   41SOL    HW1 1022   5.974   3.544   2.981
   41SOL    HW2 1023   6.036   3.533   2.831
   42SOL     OW 1024   3.316   6.271   4.638
   42SOL    HW1 1025   3.267   6.209   4.700
   42SOL    HW2 1026   3.331   6.359   4.683
   43SOL     OW 1027   4.429   0.704   5.709
   43SOL    HW1 1028   4.528   0.706   5.693
   43SOL    HW2 1029   4.407   0.632   5.775
   44SOL     OW 1030   5.767   2.051   5.158
   44SOL    HW1 1031   5.822   2.135   5.151
   44SOL    HW2 1032   5.827   1.974   5.181
   45SOL     OW 1033   4.220   5.407   1.763
   45SOL    HW1 1034   4.269   5.321   1.750
   45SOL    HW2 1035   4.286   5.482   1.768
   46SOL     OW 1036   1.242   2.213   3.944
   46SOL    HW1 1037   1.221   2.133   3.887
   46SOL    HW2 1038   1.341   2.220   3.957
   47SOL     OW 1039   3.890   4.339   1.409
   47SOL    HW1 1040   3.930   4.266   1.354
   47SOL    HW2 1041   3.895   4.425   1.360
   48SOL     OW 1042   6.513   2.404   6.828
   48SOL    HW1 1043   6.569   2.368   6.904
   48SOL    HW2 1044   6.569   2.407   6.745
   49SOL     OW 1045   5.672   2.455   1.592
   49SOL    HW1 1046   5.727   2.465   1.509
   49SOL    HW2 1047   5.629   2.542   1.616
   50SOL     OW 1048   6.281   1.276   5.611
   50SOL    HW1 1049   6.355   1.302   5.550
   50SOL    HW2 1050   6.274   1.176   5.613
   51SOL     OW 1051   2.176   6.452   2.700
   51SOL    HW1 1052   2.242   6.513   2.744
   51SOL    HW2 1053   2.148   6.382   2.764
   52SOL     OW 1054   5.336   3.231   1.827
   52SOL    HW1 1055   5.254   3.189   1.863
   52SOL    HW2 1056   5.356   3.195   1.736
   53SOL     OW 1057   5.344   0.586   3.516
   53SOL    HW1 1058   5.287   0.537   3.451
   53SOL    HW2 1059   5.433   0.541   3.522
   54SOL     OW 1060   5.318   6.759   0.822
   54SOL    HW1 1061   5.413   6.742   0.796
   54SOL    HW2 1062   5.309   6.757   0.921
   55SOL     OW 1063   2.281   2.428   4.979
   55SOL    HW1 1064   2.183   2.435   4.962
   55SOL    HW2 1065   2.325   2.516   4.960
   56SOL     OW 1066   1.163   1.394   1.247
   56SOL    HW1 1067   1.242   1.428   1.297
   56SOL    HW2 1068   1.147   1.298   1.272
   57SOL     OW 1069   3.777   1.338   0.744
   57SOL    HW1 1070   3.727   1.252   0.760
   57SOL    HW2 1071   3.781   1.355   0.646
   58SOL     OW 1072   0.674   6.395   5.756
   58SOL    HW1 1073   0.727   6.386   5.672
   58SOL    HW2 1074   0.649   6.304   5.790
   59SOL     OW 1075   6.992   3.679   5.976
   59SOL    HW1 1076   0.030   3.759   6.005
   59SOL    HW2 1077   6.949   3.638   6.056
   60SOL     OW 1078   4.786   2.584   3.894
   60SOL    HW1 1079   4.750   2.673   3.865
   60SOL    HW2 1080   4.736   2.511   3.848
   61SOL     OW 1081   6.591   1.180   4.508
   61SOL    HW1 1082   6.662   1.149   4.445
   61SOL    HW2 1083   6.597   1.130   4.593
   62SOL     OW 1084   2.008   1.101   2.086
   62SOL    HW1 1085   2.082   1.118   2.021
   62SOL    HW2 1086   1.953   1.184   2.097
   63SOL     OW 1087   4.252   0.402   3.514
   63SOL    HW1 1088   4.170   0.439   3.558
   63SOL    HW2 1089   4.227   0.325   3.455
   64SOL     OW 1090   0.530   3.155   6.606
   64SOL    HW1 1091   0.501   3.063   6.580
   64SOL    HW2 1092   0.601   3.150   6.676
   65SOL     OW 1093   1.266   6.159   5.965
   65SOL    HW1 1094   1.225   6.233   5.911
   65SOL    HW2 1095   1.225   6.158   6.056
   66SOL     OW 1096   3.182   0.488   3.483
   66SOL    HW1 1097   3.196   0.581   3.519
   66SOL    HW2 1098   3.168   0.492   3.384
   67SOL     OW 1099   0.673   3.361   6.368
   67SOL    HW1 1100   0.690   3.443   6.314
   67SOL    HW2 1101   0.758   3.331   6.410
   68SOL     OW 1102   0.060   1.799   6.314
   68SOL    HW1 1103   0.083   1.892   6.284
   68SOL    HW2 1104   6.983   1.776   6.284
   69SOL     OW 1105   1.896   3.242   4.880
   69SOL    HW1 1106   1.991   3.220   4.904
   69SOL    HW2 1107   1.880   3.340   4.893
   70SOL     OW 1108   5.452   5.034   4.898
   70SOL    HW1 1109   5.495   5.099   4.836
   70SOL    HW2 1110   5.375   5.078   4.945
   71SOL     OW 1111   4.734   1.648   3.339
   71SOL    HW1 1112   4.733   1.586   3.260
   71SOL    HW2 1113   4.647   1.641   3.388
   72SOL     OW 1114   0.620   1.462   2.994
   72SOL    HW1 1115   0.532   1.460   2.947
   72SOL    HW2 1116   0.656   1.555   2.997
   73SOL     OW 1117   3.048   0.551   1.209
   73SOL    HW1 1118   3.081   0.630   1.259
   73SOL    HW2 1119   3.052   0.569   1.111
   74SOL     OW 1120   3.054   1.379   6.510
   74SOL    HW1 1121   3.086   1.404   6.419
   74SOL    HW2 1122   3.131   1.347   6.565
   75SOL     OW 1123   3.918   1.299   1.554
   75SOL    HW1 1124   3.865   1.383   1.541
   75SOL    HW2 1125   3.883   1.249   1.633
   76SOL     OW 1126   2.671   3.517   6.255
   76SOL    HW1 1127   2.635   3.608   6.238
   76SOL    HW2 1128   2.686   3.469   6.169
   77SOL     OW 1129   1.767   5.974   3.206
   77SOL    HW1 1130   1.700   5.902   3.222
   77SOL    HW2 1131   1.858   5.934   3.195
   78SOL     OW 1132   4.218   1.683   1.201
   78SOL    HW1 1133   4.252   1.600   1.157
   78SOL    HW2 1134   4.272   1.702   1.283
   79SOL     OW 1135   2.903   5.767   1.254
   79SOL    HW1 1136   2.899   5.758   1.155
   79SOL    HW2 1137   2.812   5.793   1.288
   80SOL     OW 1138   4.517   1.620   4.386
   80SOL    HW1 1139   4.479   1.708   4.412
   80SOL    HW2 1140   4.515   1.611   4.286
   81SOL     OW 1141   1.756   6.612   1.628
   81SOL    HW1 1142   1.814   6.692   1.612
   81SOL    HW2 1143   1.738   6.603   1.726
   82SOL     OW 1144   6.654   5.673   0.995
   82SOL    HW1 1145   6.605   5.587   1.011
   82SOL    HW2 1146   6.753   5.657   0.999
   83SOL     OW 1147   1.067   1.088   6.610
   83SOL    HW1 1148   1.035   1.140   6.531
   83SOL    HW2 1149   1.027   0.996   6.608
   84SOL     OW 1150   5.748   4.116   3.195
   84SOL    HW1 1151   5.812   4.079   3.128
   84SOL    HW2 1152   5.771   4.079   3.286
   85SOL     OW 1153   1.323   0.904   3.502
   85SOL    HW1 1154   1.256   0.880   3.431
   85SOL    HW2 1155   1.290   0.984   3.552
   86SOL     OW 1156   0.112   1.267   6.603
   86SOL    HW1 1157   0.058   1.242   6.683
   86SOL    HW2 1158   0.207   1.239   6.615
   87SOL     OW 1159   3.789   4.119   0.734
   87SOL    HW1 1160   3.750   4.036   0.774
   87SOL    HW2 1161   3.886   4.103   0.712
   88SOL     OW 1162   3.185   2.368   6.358
   88SOL    HW1 1163   3.089   2.384   6.380
   88SOL    HW2 1164   3.196   2.361   6.259
   89SOL     OW 1165   3.400   3.675   0.388
   89SOL    HW1 1166   3.333   3.608   0.421
   89SOL    HW2 1167   3.379   3.698   0.293
   90SOL     OW 1168   4.112   4.784   2.347
   90SOL    HW1 1169   4.193   4.748   2.393
   90SOL    HW2 1170   4.039   4.798   2.414
   91SOL     OW 1171   5.658   4.870   6.298
   91SOL    HW1 1172   5.664   4.781   6.253
   91SOL    HW2 1173   5.575   4.872   6.355
   92SOL     OW 1174   4.883   4.131   0.244
   92SOL    HW1 1175   4.958   4.190   0.213
   92SOL    HW2 1176   4.798   4.183   0.247
   93SOL     OW 1177   3.001   3.605   0.189
   93SOL    HW1 1178   2.992   3.544   0.111
   93SOL    HW2 1179   3.051   3.559   0.262
   94SOL     OW 1180   1.700   6.000   0.026
   94SOL    HW1 1181   1.703   6.000   0.126
   94SOL    HW2 1182   1.674   6.092   7.010
   95SOL     OW 1183   1.636   0.560   3.122
   95SOL    HW1 1184   1.550   0.573   3.171
   95SOL    HW2 1185   1.713   0.579   3.182
   96SOL     OW 1186   4.900   5.572   6.041
   96SOL    HW1 1187   4.841   5.574   6.122
   96SOL    HW2 1188   4.852   5.612   5.963
   97SOL     OW 1189   2.161   3.893   5.251
   97SOL    HW1 1190   2.222   3.956   5.204
   97SOL    HW2 1191   2.093   3.944   5.303
   98SOL     OW 1192   1.249   1.255   0.961
   98SOL    HW1 1193   1.279   1.319   0.891
   98SOL    HW2 1194   1.224   1.304   1.044
   99SOL     OW 1195   3.915   3.562   2.860
   99SOL    HW1 1196   3.951   3.581   2.768
   99SOL    HW2 1197   3.815   3.561   2.857
  100SOL     OW 1198   6.905   6.768   4.268
  100SOL    HW1 1199   6.855   6.849   4.237
  100SOL    HW2 1200   6.949   6.724   4.190
  101SOL     OW 1201   0.341   5.539   2.431
  101SOL    HW1 1202   0.350   5.616   2.494
  101SOL    HW2 1203   0.264   5.482   2.459
  102SOL     OW 1204   3.554   6.049   2.147
  102SOL    HW1 1205   3.477   6.101   2.185
  102SOL    HW2 1206   3.593   6.098   2.069
  103SOL     OW 1207   1.661   2.076   2.668
  103SOL    HW1 1208   1.601   2.155   2.655
  103SOL    HW2 1209   1.753   2.097   2.634
  104SOL     OW 1210   1.586   4.895   1.768
  104SOL    HW1 1211   1.603   4.859   1.859
  104SOL    HW2 1212   1.488   4.912   1.756
  105SOL     OW 1213   5.646   1.407   5.899
  105SOL    HW1 1214   5.654   1.474   5.973
  105SOL    HW2 1215   5.734   1.400   5.852
  106SOL     OW 1216   4.053   6.013   2.926
  106SOL    HW1 1217   4.026   6.065   3.007
  106SOL    HW2 1218   3.982   5.946   2.904
  107SOL     OW 1219   0.219   1.008   6.759
  107SOL    HW1 1220   0.176   0.985   6.846
  107SOL    HW2 1221   0.153   0.995   6.685
  108SOL     OW 1222   3.732   0.071   5.710
  108SOL    HW1 1223   3.671   0.126   5.653
  108SOL    HW2 1224   3.683   0.044   5.793
  109SOL     OW 1225   2.881   0.755   2.566
  109SOL    HW1 1226   2.865   0.746   2.664
  109SOL    HW2 1227   2.884   0.664   2.523
  110SOL     OW 1228   2.536   4.977   4.390
  110SOL    HW1 1229   2.624   4.934   4.412
  110SOL    HW2 1230   2.540   5.014   4.297
  111SOL     OW 1231   1.739   1.432   3.019
  111SOL    HW1 1232   1.674   1.478   3.080
  111SOL    HW2 1233   1.825   1.417   3.068
  112SOL     OW 1234   5.222   6.345   0.280
  112SOL    HW1 1235   5.133   6.373   0.244
  112SOL    HW2 1236   5.294   6.368   0.214
  113SOL     OW 1237   0.711   6.015   2.694
  113SOL    HW1 1238   0.750   5.923   2.702
  113SOL    HW2 1239   0.656   6.020   2.611
  114SOL     OW 1240   1.521   5.941   1.865
  114SOL    HW1 1241   1.534   5.879   1.788
  114SOL    HW2 1242   1.425   5.969   1.870
  115SOL     OW 1243   5.427   0.732   3.106
  115SOL    HW1 1244   5.521   0.711   3.080
  115SOL    HW2 1245   5.419   0.733   3.206
  116SOL     OW 1246   0.058   5.530   1.244
  116SOL    HW1 1247   0.118   5.469   1.193
  116SOL    HW2 1248   0.113   5.591   1.301
  117SOL     OW 1249   1.797   1.019   0.679
  117SOL    HW1 1250   1.875   0.986   0.731
  117SOL    HW2 1251   1.736   0.943   0.659
  118SOL     OW 1252   1.978   2.377   2.827
  118SOL    HW1 1253   1.912   2.421   2.887
  118SOL    HW2 1254   1.970   2.277   2.835
  119SOL     OW 1255   0.173   0.311   6.624
  119SOL    HW1 1256   0.171   0.301   6.723
  119SOL    HW2 1257   0.221   0.234   6.583
  120SOL     OW 1258   5.286   0.154   4.009
  120SOL    HW1 1259   5.306   0.070   3.958
  120SOL    HW2 1260   5.204   0.198   3.971
  121SOL     OW 1261   1.374   3.973   0.269
  121SOL    HW1 1262   1.316   3.998   0.347
  121SOL    HW2 1263   1.336   3.891   0.225
  122SOL     OW 1264   1.569   3.535   0.157
  122SOL    HW1 1265   1.610   3.476   0.088
  122SOL    HW2 1266   1.565   3.629   0.122
  123SOL     OW 1267   1.010   0.973   2.384
  123SOL    HW1 1268   1.105   0.991   2.358
  123SOL    HW2 1269   0.950   0.993   2.306
  124SOL     OW 1270   3.065   2.192   0.584
  124SOL    HW1 1271   3.156   2.207   0.547
  124SOL    HW2 1272   3.003   2.263   0.550
  125SOL     OW 1273   3.238   2.550   0.556
  125SOL    HW1 1274   3.251   2.455   0.527
  125SOL    HW2 1275   3.280   2.562   0.646
  126SOL     OW 1276   3.839   2.972   3.000
  126SOL    HW1 1277   3.823   2.952   2.903
  126SOL    HW2 1278   3.909   3.043   3.007
  127SOL     OW 1279   6.767   6.426   6.219
  127SOL    HW1 1280   6.829   6.413   6.141
  127SOL    HW2 1281   6.728   6.518   6.217
  128SOL     OW 1282   5.195   3.384   1.514
  128SOL    HW1 1283   5.240   3.455   1.566
  128SOL    HW2 1284   5.162   3.422   1.427
  129SOL     OW 1285   3.025   4.220   0.604
  129SOL    HW1 1286   3.047   4.291   0.672
  129SOL    HW2 1287   3.059   4.132   0.637
  130SOL     OW 1288   6.304   0.494   4.929
  130SOL    HW1 1289   6.248   0.532   5.003
  130SOL    HW2 1290   6.389   0.545   4.921
  131SOL     OW 1291   5.723   0.907   3.946
  131SOL    HW1 1292   5.687   0.982   3.890
  131SOL    HW2 1293   5.786   0.944   4.014
  132SOL     OW 1294   3.259   2.998   1.394
  132SOL    HW1 1295   3.284   2.903   1.414
  132SOL    HW2 1296   3.299   3.025   1.307
  133SOL     OW 1297   5.276   1.575   4.146
  133SOL    HW1 1298   5.189   1.622   4.161
  133SOL    HW2 1299   5.289   1.506   4.218
  134SOL     OW 1300   0.563   6.966   2.721
  134SOL    HW1 1301   0.538   6.883   2.671
  134SOL    HW2 1302   0.495   6.984   2.792
  135SOL     OW 1303   5.085   3.386   4.019
  135SOL    HW1 1304   5.129   3.299   4.041
  135SOL    HW2 1305   5.037   3.420   4.100
  136SOL     OW 1306   2.124   6.276   4.684
  136SOL    HW1 1307   2.066   6.295   4.605
  136SOL    HW2 1308   2.190   6.350   4.696
  137SOL     OW 1309   4.511   0.979   4.365
  137SOL    HW1 1310   4.545   1.007   4.275
  137SOL    HW2 1311   4.571   0.909   4.403
  138SOL     OW 1312   0.717   4.524   3.167
  138SOL    HW1 1313   0.688   4.606   3.218
  138SOL    HW2 1314   0.756   4.458   3.231
  139SOL     OW 1315   2.405   5.825   5.782
  139SOL    HW1 1316   2.357   5.860   5.862
  139SOL    HW2 1317   2.449   5.738   5.806
  140SOL     OW 1318   1.567   6.682   3.117
  140SOL    HW1 1319   1.575   6.644   3.025
  140SOL    HW2 1320   1.638   6.751   3.131
  141SOL     OW 1321   6.797   2.500   6.241
  141SOL    HW1 1322   6.873   2.564   6.227
  141SOL    HW2 1323   6.816   2.441   6.319
  142SOL     OW 1324   2.090   3.758   1.948
  142SOL    HW1 1325   2.130   3.666   1.952
  142SOL    HW2 1326   2.161   3.824   1.922
  143SOL     OW 1327   5.803   5.818   1.098
  143SOL    HW1 1328   5.861   5.832   1.179
  143SOL    HW2 1329   5.708   5.810   1.127
  144SOL     OW 1330   2.513   4.851   4.878
  144SOL    HW1 1331   2.548   4.838   4.971
  144SOL    HW2 1332   2.418   4.882   4.882
  145SOL     OW 1333   1.502   5.247   1.707
  145SOL    HW1 1334   1.598   5.242   1.683
  145SOL    HW2 1335   1.493   5.256   1.806
  146SOL     OW 1336   5.001   1.218   6.048
  146SOL    HW1 1337   5.040   1.186   5.961
  146SOL    HW2 1338   4.957   1.307   6.034
  147SOL     OW 1339   4.904   1.690   5.499
  147SOL    HW1 1340   4.859   1.644   5.576
  147SOL    HW2 1341   4.891   1.789   5.508
  148SOL     OW 1342   0.752   5.537   1.760
  148SOL    HW1 1343   0.670   5.552   1.705
  148SOL    HW2 1344   0.822   5.491   1.705
  149SOL     OW 1345   3.347   1.757   4.700
  149SOL    HW1 1346   3.326   1.854   4.687
  149SOL    HW2 1347   3.384   1.720   4.614
  150SOL     OW 1348   4.461   0.040   6.131
  150SOL    HW1 1349   4.532   6.991   6.157
  150SOL    HW2 1350   4.453   0.112   6.201
  151SOL     OW 1351   3.825   0.936   1.684
  151SOL    HW1 1352   3.751   0.934   1.750
  151SOL    HW2 1353   3.908   0.897   1.726
  152SOL     OW 1354   6.722   1.341   0.252
  152SOL    HW1 1355   6.692   1.369   0.343
  152SOL    HW2 1356   6.802   1.281   0.259
  153SOL     OW 1357   2.934   0.449   3.284
  153SOL    HW1 1358   2.979   0.432   3.196
  153SOL    HW2 1359   2.980   0.524   3.331
  154SOL     OW 1360   6.942   2.946   0.470
  154SOL    HW1 1361   6.860   2.934   0.415
  154SOL    HW2 1362   6.919   2.993   0.555
  155SOL     OW 1363   1.082   0.001   2.931
  155SOL    HW1 1364   1.129   0.074   2.982
  155SOL    HW2 1365   0.983   0.016   2.937
  156SOL     OW 1366   6.056   1.206   0.209
  156SOL    HW1 1367   6.150   1.186   0.185
  156SOL    HW2 1368   5.998   1.198   0.128
  157SOL     OW 1369   5.284   3.349   0.698
  157SOL    HW1 1370   5.186   3.355   0.716
  157SOL    HW2 1371   5.309   3.414   0.626
  158SOL     OW 1372   1.732   1.989   1.114
  158SOL    HW1 1373   1.644   1.963   1.073
  158SOL    HW2 1374   1.789   2.035   1.046
  159SOL     OW 1375   4.418   4.895   1.079
  159SOL    HW1 1376   4.462   4.962   1.139
  159SOL    HW2 1377   4.403   4.810   1.129
  160SOL     OW 1378   6.303   0.035   1.152
  160SOL    HW1 1379   6.350   6.974   1.109
  160SOL    HW2 1380   6.334   0.043   1.247
  161SOL     OW 1381   2.068   0.092   2.316
  161SOL    HW1 1382   2.026   0.176   2.350
  161SOL    HW2 1383   2.022   0.013   2.355
  162SOL     OW 1384   2.997   7.014   0.178
  162SOL    HW1 1385   3.061   6.974   0.243
  162SOL    HW2 1386   3.000   6.962   0.092
  163SOL     OW 1387   0.264   4.978   3.033
  163SOL    HW1 1388   0.251   5.067   3.076
  163SOL    HW2 1389   0.360   4.965   3.010
  164SOL     OW 1390   0.844   2.996   2.679
  164SOL    HW1 1391   0.900   3.011   2.760
  164SOL    HW2 1392   0.891   3.033   2.598
  165SOL     OW 1393   5.949   5.247   0.428
  165SOL    HW1 1394   5.862   5.199   0.414
  165SOL    HW2 1395   6.019   5.180   0.456
  166SOL     OW 1396   6.467   3.561   2.137
  166SOL    HW1 1397   6.415   3.475   2.135
  166SOL    HW2 1398   6.409   3.633   2.175
  167SOL     OW 1399   6.311   1.484   6.189
  167SOL    HW1 1400   6.368   1.403   6.180
  167SOL    HW2 1401   6.266   1.504   6.102
  168SOL     OW 1402   3.979   1.909   1.731
  168SOL    HW1 1403   3.966   1.828   1.673
  168SOL    HW2 1404   3.899   1.968   1.724
  169SOL     OW 1405   5.758   2.801   6.951
  169SOL    HW1 1406   5.738   2.777   0.031
  169SOL    HW2 1407   5.813   2.728   6.910
  170SOL     OW 1408   6.856   6.036   2.610
  170SOL    HW1 1409   6.939   6.052   2.557
  170SOL    HW2 1410   6.868   5.956   2.669
  171SOL     OW 1411   2.019   3.431   0.170
  171SOL    HW1 1412   1.963   3.378   0.106
  171SOL    HW2 1413   1.961   3.461   0.246
  172SOL     OW 1414   6.250   2.533   2.465
  172SOL    HW1 1415   6.211   2.442   2.480
  172SOL    HW2 1416   6.333   2.543   2.519
  173SOL     OW 1417   5.727   0.813   4.768
  173SOL    HW1 1418   5.719   0.865   4.683
  173SOL    HW2 1419   5.715   0.876   4.846
  174SOL     OW 1420   4.624   5.245   4.529
  174SOL    HW1 1421   4.626   5.176   4.456
  174SOL    HW2 1422   4.718   5.270   4.553
  175SOL     OW 1423   3.617   1.247   1.330
  175SOL    HW1 1424   3.695   1.287   1.282
  175SOL    HW2 1425   3.640   1.155   1.362
  176SOL     OW 1426   4.972   4.569   2.718
  176SOL    HW1 1427   4.960   4.473   2.742
  176SOL    HW2 1428   4.892   4.621   2.747
  177SOL     OW 1429   4.955   2.601   5.095
  177SOL    HW1 1430   4.965   2.574   5.191
  177SOL    HW2 1431   4.968   2.521   5.036
  178SOL     OW 1432   3.286   4.940   4.793
  178SOL    HW1 1433   3.317   4.888   4.872
  178SOL    HW2 1434   3.245   5.026   4.824
  179SOL     OW 1435   4.319   6.776   6.984
  179SOL    HW1 1436   4.300   6.856   6.928
  179SOL    HW2 1437   4.257   6.775   0.047
  180SOL     OW 1438   2.620   7.007   0.835
  180SOL    HW1 1439   2.576   0.059   0.894
  180SOL    HW2 1440   2.716   0.017   0.820
  181SOL     OW 1441   3.496   3.135   6.005
  181SOL    HW1 1442   3.550   3.061   5.965
  181SOL    HW2 1443   3.405   3.137   5.964
  182SOL     OW 1444   4.674   2.854   6.974
  182SOL    HW1 1445   4.705   2.875   0.051
  182SOL    HW2 1446   4.576   2.874   6.966
  183SOL     OW 1447   3.952   2.202   3.507
  183SOL    HW1 1448   4.022   2.244   3.566
  183SOL    HW2 1449   3.994   2.174   3.421
  184SOL     OW 1450   0.530   6.572   3.998
  184SOL    HW1 1451   0.461   6.615   4.055
  184SOL    HW2 1452   0.554   6.633   3.922
  185SOL     OW 1453   1.021   1.066   3.884
  185SOL    HW1 1454   0.940   1.102   3.930
  185SOL    HW2 1455   1.101   1.078   3.943
  186SOL     OW 1456   5.415   7.005   4.365
  186SOL    HW1 1457   5.348   0.056   4.397
  186SOL    HW2 1458   5.471   0.030   4.293
  187SOL     OW 1459   5.548   6.647   2.137
  187SOL    HW1 1460   5.491   6.660   2.218
  187SOL    HW2 1461   5.628   6.592   2.161
  188SOL     OW 1462   0.841   2.818   3.690
  188SOL    HW1 1463   0.820   2.909   3.654
  188SOL    HW2 1464   0.783   2.799   3.769
  189SOL     OW 1465   1.254   4.815   6.846
  189SOL    HW1 1466   1.159   4.784   6.851
  189SOL    HW2 1467   1.315   4.743   6.878
  190SOL     OW 1468   6.042   4.623   6.818
  190SOL    HW1 1469   6.001   4.561   6.750
  190SOL    HW2 1470   6.137   4.597   6.834
  191SOL     OW 1471   6.506   1.160   5.759
  191SOL    HW1 1472   6.528   1.182   5.854
  191SOL    HW2 1473   6.439   1.225   5.724
  192SOL     OW 1474   6.864   4.983   1.594
  192SOL    HW1 1475   6.782   4.934   1.565
  192SOL    HW2 1476   6.945   4.940   1.554
  193SOL     OW 1477   5.186   3.717   5.058
  193SOL    HW1 1478   5.188   3.816   5.069
  193SOL    HW2 1479   5.119   3.677   5.121
  194SOL     OW 1480   3.832   6.338   3.062
  194SOL    HW1 1481   3.752   6.363   3.116
  194SOL    HW2 1482   3.881   6.263   3.106
  195SOL     OW 1483   1.643   1.095   3.174
  195SOL    HW1 1484   1.618   1.035   3.250
  195SOL    HW2 1485   1.704   1.046   3.112
  196SOL     OW 1486   3.448   6.916   0.246
  196SOL    HW1 1487   3.518   6.875   0.306
  196SOL    HW2 1488   3.484   7.000   0.206
  197SOL     OW 1489   2.921   6.567   0.100
  197SOL    HW1 1490   2.843   6.561   0.162
  197SOL    HW2 1491   3.001   6.525   0.141
  198SOL     OW 1492   4.829   6.712   1.062
  198SOL    HW1 1493   4.898   6.748   1.125
  198SOL    HW2 1494   4.743   6.761   1.076
  199SOL     OW 1495   6.408   1.208   2.713
  199SOL    HW1 1496   6.377   1.199   2.808
  199SOL    HW2 1497   6.507   1.195   2.709
  200SOL     OW 1498   1.073   4.286   2.670
  200SOL    HW1 1499   1.137   4.361   2.688
  200SOL    HW2 1500   1.051   4.239   2.755
  201SOL     OW 1501   3.661   6.459   5.660
  201SOL    HW1 1502   3.649   6.528   5.588
  201SOL    HW2 1503   3.759   6.439   5.670
  202SOL     OW 1504   5.236   0.504   5.137
  202SOL    HW1 1505   5.223   0.405   5.130
  202SOL    HW2 1506   5.147   0.549   5.125
  203SOL     OW 1507   4.928   2.329   4.828
  203SOL    HW1 1508   4.928   2.250   4.888
  203SOL    HW2 1509   4.918   2.300   4.733
  204SOL     OW 1510   0.694   0.527   6.645
  204SOL    HW1 1511   0.656   0.498   6.732
  204SOL    HW2 1512   0.648   0.480   6.570
  205SOL     OW 1513   0.635   1.214   2.142
  205SOL    HW1 1514   0.536   1.219   2.129
  205SOL    HW2 1515   0.680   1.209   2.053
  206SOL     OW 1516   0.231   4.758   2.627
  206SOL    HW1 1517   0.237   4.662   2.600
  206SOL    HW2 1518   0.268   4.815   2.554
  207SOL     OW 1519   4.097   0.454   5.031
  207SOL    HW1 1520   4.078   0.451   5.129
  207SOL    HW2 1521   4.057   0.373   4.987
  208SOL     OW 1522   4.887   3.538   6.214
  208SOL    HW1 1523   4.892   3.521   6.116
  208SOL    HW2 1524   4.919   3.630   6.234
  209SOL     OW 1525   1.096   5.639   5.871
  209SOL    HW1 1526   1.177   5.628   5.813
  209SOL    HW2 1527   1.024   5.576   5.840
  210SOL     OW 1528   3.845   2.034   2.085
  210SOL    HW1 1529   3.760   2.073   2.047
  210SOL    HW2 1530   3.909   2.016   2.011
  211SOL     OW 1531   0.879   6.446   4.035
  211SOL    HW1 1532   0.789   6.461   4.076
  211SOL    HW2 1533   0.870   6.382   3.958
  212SOL     OW 1534   2.227   4.331   2.294
  212SOL    HW1 1535   2.162   4.303   2.364
  212SOL    HW2 1536   2.314   4.354   2.337
  213SOL     OW 1537   4.021   0.640   6.615
  213SOL    HW1 1538   4.093   0.707   6.601
  213SOL    HW2 1539   3.966   0.667   6.695
  214SOL     OW 1540   3.330   6.318   2.524
  214SOL    HW1 1541   3.306   6.222   2.511
  214SOL    HW2 1542   3.328   6.365   2.436
  215SOL     OW 1543   3.021   3.754   1.787
  215SOL    HW1 1544   2.925   3.725   1.793
  215SOL    HW2 1545   3.080   3.673   1.779
  216SOL     OW 1546   1.522   6.810   4.887
  216SOL    HW1 1547   1.554   6.856   4.969
  216SOL    HW2 1548   1.459   6.870   4.837
  217SOL     OW 1549   2.185   2.672   4.732
  217SOL    HW1 1550   2.189   2.731   4.652
  217SOL    HW2 1551   2.244   2.710   4.804
  218SOL     OW 1552   1.070   3.032   4.793
  218SOL    HW1 1553   1.029   3.119   4.821
  218SOL    HW2 1554   1.169   3.036   4.805
  219SOL     OW 1555   3.184   6.175   6.280
  219SOL    HW1 1556   3.093   6.177   6.238
  219SOL    HW2 1557   3.248   6.226   6.223
  220SOL     OW 1558   2.970   5.969   6.597
  220SOL    HW1 1559   2.914   6.052   6.595
  220SOL    HW2 1560   2.953   5.919   6.682
  221SOL     OW 1561   6.271   4.067   2.519
  221SOL    HW1 1562   6.189   4.013   2.502
  221SOL    HW2 1563   6.352   4.009   2.510
  222SOL     OW 1564   2.329   4.756   5.632
  222SOL    HW1 1565   2.325   4.691   5.708
  222SOL    HW2 1566   2.347   4.848   5.668
  223SOL     OW 1567   6.790   3.956   0.657
  223SOL    HW1 1568   6.726   3.901   0.711
  223SOL    HW2 1569   6.876   3.907   0.647
  224SOL     OW 1570   2.558   2.146   3.636
  224SOL    HW1 1571   2.559   2.148   3.736
  224SOL    HW2 1572   2.466   2.165   3.604
  225SOL     OW 1573   4.761   1.344   6.396
  225SOL    HW1 1574   4.820   1.422   6.375
  225SOL    HW2 1575   4.793   1.300   6.480
  226SOL     OW 1576   0.397   6.444   0.085
  226SOL    HW1 1577   0.347   6.358   0.090
  226SOL    HW2 1578   0.467   6.437   0.014
  227SOL     OW 1579   1.369   4.347   2.455
  227SOL    HW1 1580   1.334   4.338   2.361
  227SOL    HW2 1581   1.341   4.435   2.493
  228SOL     OW 1582   3.148   6.238   3.834
  228SOL    HW1 1583   3.063   6.286   3.809
  228SOL    HW2 1584   3.225   6.282   3.788
  229SOL     OW 1585   6.080   5.725   0.391
  229SOL    HW1 1586   6.147   5.777   0.338
  229SOL    HW2 1587   5.997   5.714   0.336
  230SOL     OW 1588   3.236   5.116   3.595
  230SOL    HW1 1589   3.275   5.091   3.683
  230SOL    HW2 1590   3.247   5.214   3.581
  231SOL     OW 1591   5.979   2.141   5.554
  231SOL    HW1 1592   5.974   2.228   5.602
  231SOL    HW2 1593   5.891   2.094   5.560
  232SOL     OW 1594   0.968   4.403   6.330
  232SOL    HW1 1595   1.032   4.348   6.277
  232SOL    HW2 1596   0.990   4.500   6.320
  233SOL     OW 1597   1.794   1.092   4.511
  233SOL    HW1 1598   1.790   1.000   4.549
  233SOL    HW2 1599   1.703   1.119   4.478
  234SOL     OW 1600   2.628   6.188   5.489
  234SOL    HW1 1601   2.667   6.102   5.521
  234SOL    HW2 1602   2.697   6.237   5.435
  235SOL     OW 1603   2.898   3.578   2.783
  235SOL    HW1 1604   2.861   3.566   2.691
  235SOL    HW2 1605   2.906   3.490   2.829
  236SOL     OW 1606   6.024   2.710   6.528
  236SOL    HW1 1607   6.059   2.793   6.570
  236SOL    HW2 1608   5.939   2.730   6.478
  237SOL     OW 1609   0.150   0.146   0.815
  237SOL    HW1 1610   0.151   0.083   0.738
  237SOL    HW2 1611   0.079   0.215   0.801
  238SOL     OW 1612   6.466   2.581   0.047
  238SOL    HW1 1613   6.546   2.556   7.008
  238SOL    HW2 1614   6.398   2.508   0.043
  239SOL     OW 1615   0.068   4.940   6.996
  239SOL    HW1 1616   0.019   5.004   6.936
  239SOL    HW2 1617   0.160   4.924   6.959
  240SOL     OW 1618   0.306   3.200   5.173
  240SOL    HW1 1619   0.219   3.214   5.127
  240SOL    HW2 1620   0.329   3.103   5.172
  241SOL     OW 1621   0.592   0.626   4.046
  241SOL    HW1 1622   0.623   0.576   3.966
  241SOL    HW2 1623   0.497   0.602   4.066
  242SOL     OW 1624   2.083   2.454   5.696
  242SOL    HW1 1625   2.158   2.518   5.682
  242SOL    HW2 1626   1.999   2.504   5.717
  243SOL     OW 1627   4.738   0.048   5.734
  243SOL    HW1 1628   4.655   0.088   5.773
  243SOL    HW2 1629   4.806   0.121   5.721
  244SOL     OW 1630   4.905   3.178   4.688
  244SOL    HW1 1631   4.874   3.243   4.759
  244SOL    HW2 1632   4.876   3.086   4.714
  245SOL     OW 1633   6.801   2.516   4.326
  245SOL    HW1 1634   6.773   2.610   4.348
  245SOL    HW2 1635   6.786   2.458   4.406
  246SOL     OW 1636   5.654   3.302   3.123
  246SOL    HW1 1637   5.697   3.216   3.096
  246SOL    HW2 1638   5.564   3.283   3.163
  247SOL     OW 1639   1.971   2.083   2.943
  247SOL    HW1 1640   2.007   2.060   3.033
  247SOL    HW2 1641   1.965   2.000   2.887
  248SOL     OW 1642   4.784   2.758   4.629
  248SOL    HW1 1643   4.816   2.817   4.703
  248SOL    HW2 1644   4.728   2.684   4.666
  249SOL     OW 1645   4.488   0.370   5.343
  249SOL    HW1 1646   4.451   0.438   5.280
  249SOL    HW2 1647   4.562   0.319   5.298
  250SOL     OW 1648   4.721   2.062   5.422
  250SOL    HW1 1649   4.699   1.977   5.470
  250SOL    HW2 1650   4.730   2.136   5.488
  251SOL     OW 1651   4.071   4.942   5.986
  251SOL    HW1 1652   4.000   5.009   6.008
  251SOL    HW2 1653   4.116   4.968   5.901
  252SOL     OW 1654   6.575   1.534   6.052
  252SOL    HW1 1655   6.552   1.544   6.149
  252SOL    HW2 1656   6.562   1.439   6.024
  253SOL     OW 1657   2.881   4.345   0.424
  253SOL    HW1 1658   2.935   4.301   0.496
  253SOL    HW2 1659   2.797   4.383   0.463
  254SOL     OW 1660   6.702   2.698   3.797
  254SOL    HW1 1661   6.746   2.692   3.887
  254SOL    HW2 1662   6.711   2.791   3.762
  255SOL     OW 1663   2.319   2.510   3.767
  255SOL    HW1 1664   2.271   2.438   3.717
  255SOL    HW2 1665   2.373   2.565   3.704
  256SOL     OW 1666   6.511   4.552   0.013
  256SOL    HW1 1667   6.524   4.483   0.085
  256SOL    HW2 1668   6.583   4.541   6.960
  257SOL     OW 1669   3.527   5.367   5.640
  257SOL    HW1 1670   3.487   5.318   5.717
  257SOL    HW2 1671   3.529   5.465   5.660
  258SOL     OW 1672   5.219   3.335   4.989
  258SOL    HW1 1673   5.188   3.424   4.955
  258SOL    HW2 1674   5.308   3.314   4.950
  259SOL     OW 1675   2.126   3.051   2.322
  259SOL    HW1 1676   2.209   3.108   2.323
  259SOL    HW2 1677   2.126   2.994   2.240
  260SOL     OW 1678   4.398   0.833   0.876
  260SOL    HW1 1679   4.475   0.890   0.904
  260SOL    HW2 1680   4.322   0.845   0.940
  261SOL     OW 1681   6.979   3.830   1.041
  261SOL    HW1 1682   6.984   3.856   1.138
  261SOL    HW2 1683   0.007   3.900   0.985
  262SOL     OW 1684   0.521   3.755   2.127
  262SOL    HW1 1685   0.444   3.692   2.135
  262SOL    HW2 1686   0.549   3.785   2.218
  263SOL     OW 1687   0.205   1.726   4.111
  263SOL    HW1 1688   0.136   1.658   4.138
  263SOL    HW2 1689   0.291   1.706   4.157
  264SOL     OW 1690   6.291   4.135   5.712
  264SOL    HW1 1691   6.373   4.152   5.658
  264SOL    HW2 1692   6.318   4.120   5.808
  265SOL     OW 1693   4.812   3.930   3.125
  265SOL    HW1 1694   4.872   3.915   3.203
  265SOL    HW2 1695   4.803   3.845   3.072
  266SOL     OW 1696   3.307   2.891   6.146
  266SOL    HW1 1697   3.294   2.846   6.058
  266SOL    HW2 1698   3.318   2.822   6.218
  267SOL     OW 1699   0.072   2.826   6.745
  267SOL    HW1 1700   0.055   2.884   6.665
  267SOL    HW2 1701   0.111   2.882   6.818
  268SOL     OW 1702   4.982   5.193   5.112
  268SOL    HW1 1703   4.921   5.264   5.077
  268SOL    HW2 1704   4.986   5.198   5.212
  269SOL     OW 1705   1.622   1.835   0.263
  269SOL    HW1 1706   1.600   1.905   0.330
  269SOL    HW2 1707   1.537   1.789   0.234
  270SOL     OW 1708   6.464   1.003   1.872
  270SOL    HW1 1709   6.402   1.063   1.822
  270SOL    HW2 1710   6.492   0.927   1.814
  271SOL     OW 1711   2.922   1.527   0.289
  271SOL    HW1 1712   2.949   1.617   0.323
  271SOL    HW2 1713   2.867   1.480   0.358
  272SOL     OW 1714   3.398   4.945   4.224
  272SOL    HW1 1715   3.423   4.849   4.215
  272SOL    HW2 1716   3.478   5.002   4.211
  273SOL     OW 1717   1.572   5.631   6.047
  273SOL    HW1 1718   1.528   5.715   6.014
  273SOL    HW2 1719   1.570   5.562   5.975
  274SOL     OW 1720   4.859   2.254   4.369
  274SOL    HW1 1721   4.867   2.354   4.370
  274SOL    HW2 1722   4.856   2.220   4.463
  275SOL     OW 1723   0.857   5.843   6.287
  275SOL    HW1 1724   0.853   5.746   6.262
  275SOL    HW2 1725   0.811   5.857   6.374
  276SOL     OW 1726   6.596   5.394   4.109
  276SOL    HW1 1727   6.552   5.366   4.023
  276SOL    HW2 1728   6.672   5.333   4.129
  277SOL     OW 1729   3.448   1.188   6.392
  277SOL    HW1 1730   3.538   1.178   6.434
  277SOL    HW2 1731   3.430   1.110   6.332
  278SOL     OW 1732   6.088   3.523   1.944
  278SOL    HW1 1733   6.178   3.553   1.978
  278SOL    HW2 1734   6.017   3.579   1.986
  279SOL     OW 1735   6.401   2.986   4.468
  279SOL    HW1 1736   6.405   3.078   4.429
  279SOL    HW2 1737   6.435   2.919   4.402
  280SOL     OW 1738   4.566   0.210   3.270
  280SOL    HW1 1739   4.519   0.122   3.271
  280SOL    HW2 1740   4.559   0.253   3.360
  281SOL     OW 1741   2.974   5.129   3.533
  281SOL    HW1 1742   2.938   5.065   3.601
  281SOL    HW2 1743   3.074   5.130   3.538
  282SOL     OW 1744   3.743   2.619   5.400
  282SOL    HW1 1745   3.842   2.637   5.400
  282SOL    HW2 1746   3.714   2.594   5.308
  283SOL     OW 1747   5.579   0.479   5.627
  283SOL    HW1 1748   5.513   0.466   5.701
  283SOL    HW2 1749   5.608   0.390   5.592
  284SOL     OW 1750   1.191   4.453   4.368
  284SOL    HW1 1751   1.104   4.460   4.418
  284SOL    HW2 1752   1.238   4.369   4.394
  285SOL     OW 1753   5.207   5.972   0.241
  285SOL    HW1 1754   5.215   5.997   0.144
  285SOL    HW2 1755   5.240   6.048   0.297
  286SOL     OW 1756   4.317   5.002   5.295
  286SOL    HW1 1757   4.253   4.925   5.284
  286SOL    HW2 1758   4.392   4.974   5.355
  287SOL     OW 1759   1.497   5.506   6.796
  287SOL    HW1 1760   1.477   5.445   6.719
  287SOL    HW2 1761   1.540   5.590   6.762
  288SOL     OW 1762   3.914   1.112   0.378
  288SOL    HW1 1763   3.975   1.097   0.456
  288SOL    HW2 1764   3.876   1.025   0.348
  289SOL     OW 1765   1.192   4.851   5.694
  289SOL    HW1 1766   1.291   4.849   5.706
  289SOL    HW2 1767   1.147   4.839   5.782
  290SOL     OW 1768   4.893   0.664   3.356
  290SOL    HW1 1769   4.919   0.714   3.439
  290SOL    HW2 1770   4.963   0.676   3.286
  291SOL     OW 1771   4.580   1.036   3.816
  291SOL    HW1 1772   4.549   1.078   3.902
  291SOL    HW2 1773   4.612   0.943   3.835
  292SOL     OW 1774   5.140   1.132   3.786
  292SOL    HW1 1775   5.215   1.089   3.736
  292SOL    HW2 1776   5.053   1.092   3.757
  293SOL     OW 1777   4.295   6.113   1.108
  293SOL    HW1 1778   4.309   6.046   1.035
  293SOL    HW2 1779   4.208   6.160   1.094
  294SOL     OW 1780   6.511   5.845   6.606
  294SOL    HW1 1781   6.525   5.929   6.554
  294SOL    HW2 1782   6.481   5.867   6.699
  295SOL     OW 1783   2.095   2.022   5.378
  295SOL    HW1 1784   2.155   2.051   5.453
  295SOL    HW2 1785   2.016   2.082   5.373
  296SOL     OW 1786   0.019   2.732   1.345
  296SOL    HW1 1787   7.016   2.815   1.292
  296SOL    HW2 1788   6.994   2.654   1.299
  297SOL     OW 1789   3.577   5.259   3.554
  297SOL    HW1 1790   3.637   5.255   3.474
  297SOL    HW2 1791   3.486   5.291   3.526
  298SOL     OW 1792   4.346   6.954   0.263
  298SOL    HW1 1793   4.346   7.005   0.349
  298SOL    HW2 1794   4.408   6.997   0.198
  299SOL     OW 1795   4.282   1.862   6.930
  299SOL    HW1 1796   4.191   1.894   6.904
  299SOL    HW2 1797   4.326   1.929   6.989
  300SOL     OW 1798   3.724   0.336   2.306
  300SOL    HW1 1799   3.783   0.360   2.383
  300SOL    HW2 1800   3.736   0.239   2.284
  301SOL     OW 1801   5.086   0.851   1.153
  301SOL    HW1 1802   5.009   0.826   1.211
  301SOL    HW2 1803   5.161   0.885   1.211
  302SOL     OW 1804   0.263   0.728   2.249
  302SOL    HW1 1805   0.184   0.677   2.283
  302SOL    HW2 1806   0.317   0.670   2.188
  303SOL     OW 1807   6.717   5.832   1.712
  303SOL    HW1 1808   6.813   5.861   1.721
  303SOL    HW2 1809   6.709   5.737   1.742
  304SOL     OW 1810   2.090   6.282   6.309
  304SOL    HW1 1811   2.062   6.252   6.218
  304SOL    HW2 1812   2.137   6.370   6.302
  305SOL     OW 1813   1.500   2.634   0.635
  305SOL    HW1 1814   1.490   2.534   0.641
  305SOL    HW2 1815   1.470   2.675   0.721
  306SOL     OW 1816   6.931   1.305   2.742
  306SOL    HW1 1817   6.981   1.390   2.757
  306SOL    HW2 1818   6.995   1.228   2.743
  307SOL     OW 1819   3.926   4.579   0.249
  307SOL    HW1 1820   3.892   4.493   0.211
  307SOL    HW2 1821   3.911   4.653   0.184
  308SOL     OW 1822   5.859   2.536   3.811
  308SOL    HW1 1823   5.828   2.468   3.744
  308SOL    HW2 1824   5.920   2.601   3.767
  309SOL     OW 1825   1.601   6.072   0.511
  309SOL    HW1 1826   1.505   6.043   0.507
  309SOL    HW2 1827   1.605   6.168   0.538
  310SOL     OW 1828   4.926   6.551   4.158
  310SOL    HW1 1829   4.893   6.622   4.220
  310SOL    HW2 1830   4.989   6.592   4.092
  311SOL     OW 1831   2.847   5.072   2.920
  311SOL    HW1 1832   2.865   4.983   2.962
  311SOL    HW2 1833   2.913   5.088   2.846
  312SOL     OW 1834   3.636   2.089   3.845
  312SOL    HW1 1835   3.696   2.060   3.920
  312SOL    HW2 1836   3.541   2.067   3.867
  313SOL     OW 1837   3.413   4.068   2.608
  313SOL    HW1 1838   3.338   4.043   2.669
  313SOL    HW2 1839   3.485   4.113   2.661
  314SOL     OW 1840   2.197   4.848   4.860
  314SOL    HW1 1841   2.212   4.796   4.775
  314SOL    HW2 1842   2.104   4.884   4.861
  315SOL     OW 1843   0.768   2.091   3.922
  315SOL    HW1 1844   0.709   2.030   3.869
  315SOL    HW2 1845   0.863   2.064   3.912
  316SOL     OW 1846   3.751   0.605   4.198
  316SOL    HW1 1847   3.653   0.598   4.182
  316SOL    HW2 1848   3.771   0.586   4.294
  317SOL     OW 1849   0.306   1.784   1.870
  317SOL    HW1 1850   0.399   1.792   1.835
  317SOL    HW2 1851   0.257   1.870   1.854
  318SOL     OW 1852   6.240   0.141   6.653
  318SOL    HW1 1853   6.150   0.135   6.611
  318SOL    HW2 1854   6.258   0.235   6.681
  319SOL     OW 1855   6.794   1.973   3.593
  319SOL    HW1 1856   6.774   1.875   3.593
  319SOL    HW2 1857   6.710   2.024   3.573
  320SOL     OW 1858   5.945   3.147   0.015
  320SOL    HW1 1859   5.973   3.122   6.938
  320SOL    HW2 1860   5.981   3.081   0.080
  321SOL     OW 1861   4.569   2.225   0.382
  321SOL    HW1 1862   4.666   2.246   0.366
  321SOL    HW2 1863   4.512   2.285   0.325
  322SOL     OW 1864   3.429   2.866   4.653
  322SOL    HW1 1865   3.427   2.841   4.556
  322SOL    HW2 1866   3.365   2.941   4.668
  323SOL     OW 1867   1.269   2.835   5.166
  323SOL    HW1 1868   1.305   2.786   5.087
  323SOL    HW2 1869   1.200   2.780   5.211
  324SOL     OW 1870   2.666   0.532   3.207
  324SOL    HW1 1871   2.754   0.509   3.249
  324SOL    HW2 1872   2.665   0.630   3.185
  325SOL     OW 1873   0.782   3.525   2.505
  325SOL    HW1 1874   0.738   3.614   2.491
  325SOL    HW2 1875   0.773   3.499   2.601
  326SOL     OW 1876   0.796   4.185   6.267
  326SOL    HW1 1877   0.839   4.268   6.302
  326SOL    HW2 1878   0.862   4.133   6.213
  327SOL     OW 1879   2.616   4.725   3.072
  327SOL    HW1 1880   2.555   4.647   3.060
  327SOL    HW2 1881   2.600   4.768   3.160
  328SOL     OW 1882   2.166   5.022   1.709
  328SOL    HW1 1883   2.249   5.056   1.754
  328SOL    HW2 1884   2.100   5.096   1.700
  329SOL     OW 1885   2.335   3.559   5.742
  329SOL    HW1 1886   2.325   3.608   5.829
  329SOL    HW2 1887   2.258   3.497   5.730
  330SOL     OW 1888   3.316   6.498   0.580
  330SOL    HW1 1889   3.225   6.470   0.610
  330SOL    HW2 1890   3.371   6.417   0.560
  331SOL     OW 1891   5.432   5.664   0.519
  331SOL    HW1 1892   5.374   5.705   0.590
  331SOL    HW2 1893   5.383   5.664   0.432
  332SOL     OW 1894   5.968   2.498   4.794
  332SOL    HW1 1895   5.975   2.472   4.890
  332SOL    HW2 1896   6.054   2.538   4.764
  333SOL     OW 1897   4.242   0.780   4.802
  333SOL    HW1 1898   4.235   0.811   4.896
  333SOL    HW2 1899   4.277   0.686   4.800
  334SOL     OW 1900   3.093   2.407   0.073
  334SOL    HW1 1901   3.120   2.350   0.151
  334SOL    HW2 1902   2.998   2.387   0.049
  335SOL     OW 1903   3.355   0.184   6.541
  335SOL    HW1 1904   3.360   0.284   6.551
  335SOL    HW2 1905   3.263   0.153   6.562
  336SOL     OW 1906   3.243   0.771   3.475
  336SOL    HW1 1907   3.247   0.851   3.534
  336SOL    HW2 1908   3.328   0.763   3.423
  337SOL     OW 1909   0.050   3.263   5.743
  337SOL    HW1 1910   0.116   3.221   5.679
  337SOL    HW2 1911   0.028   3.355   5.712
  338SOL     OW 1912   3.127   2.508   1.448
  338SOL    HW1 1913   3.115   2.505   1.348
  338SOL    HW2 1914   3.123   2.415   1.484
  339SOL     OW 1915   4.841   5.367   4.909
  339SOL    HW1 1916   4.745   5.340   4.911
  339SOL    HW2 1917   4.851   5.463   4.935
  340SOL     OW 1918   5.247   3.660   4.808
  340SOL    HW1 1919   5.169   3.646   4.746
  340SOL    HW2 1920   5.212   3.680   4.900
  341SOL     OW 1921   5.727   6.592   4.674
  341SOL    HW1 1922   5.664   6.557   4.605
  341SOL    HW2 1923   5.795   6.652   4.630
  342SOL     OW 1924   5.020   3.196   0.232
  342SOL    HW1 1925   5.058   3.222   0.320
  342SOL    HW2 1926   5.062   3.112   0.200
  343SOL     OW 1927   0.309   6.189   2.168
  343SOL    HW1 1928   0.220   6.143   2.169
  343SOL    HW2 1929   0.349   6.187   2.260
  344SOL     OW 1930   0.955   3.450   1.853
  344SOL    HW1 1931   0.909   3.362   1.848
  344SOL    HW2 1932   1.034   3.443   1.913
  345SOL     OW 1933   5.592   2.290   3.680
  345SOL    HW1 1934   5.547   2.307   3.767
  345SOL    HW2 1935   5.524   2.284   3.607
  346SOL     OW 1936   2.058   1.237   2.789
  346SOL    HW1 1937   2.006   1.321   2.804
  346SOL    HW2 1938   2.028   1.167   2.854
  347SOL     OW 1939   3.141   6.008   0.255
  347SOL    HW1 1940   3.198   6.076   0.208
  347SOL    HW2 1941   3.074   5.971   0.191
  348SOL     OW 1942   4.964   3.993   2.779
  348SOL    HW1 1943   4.926   3.994   2.687
  348SOL    HW2 1944   5.060   4.020   2.776
  349SOL     OW 1945   6.700   4.768   1.836
  349SOL    HW1 1946   6.679   4.865   1.824
  349SOL    HW2 1947   6.774   4.759   1.903
  350SOL     OW 1948   2.685   2.158   1.342
  350SOL    HW1 1949   2.765   2.109   1.377
  350SOL    HW2 1950   2.644   2.212   1.416
  351SOL     OW 1951   2.258   3.127   0.697
  351SOL    HW1 1952   2.341   3.081   0.668
  351SOL    HW2 1953   2.249   3.214   0.648
  352SOL     OW 1954   3.352   6.964   3.834
  352SOL    HW1 1955   3.405   6.984   3.916
  352SOL    HW2 1956   3.306   6.875   3.846
  353SOL     OW 1957   2.951   0.259   0.116
  353SOL    HW1 1958   2.975   0.164   0.137
  353SOL    HW2 1959   3.032   0.317   0.125
  354SOL     OW 1960   4.384   2.090   1.834
  354SOL    HW1 1961   4.414   2.147   1.911
  354SOL    HW2 1962   4.287   2.107   1.816
  355SOL     OW 1963   1.768   4.529   3.189
  355SOL    HW1 1964   1.856   4.483   3.196
  355SOL    HW2 1965   1.759   4.596   3.262
  356SOL     OW 1966   2.364   0.802   5.542
  356SOL    HW1 1967   2.342   0.721   5.596
  356SOL    HW2 1968   2.447   0.784   5.488
  357SOL     OW 1969   6.924   6.303   5.217
  357SOL    HW1 1970   6.934   6.259   5.128
  357SOL    HW2 1971   7.012   6.340   5.246
  358SOL     OW 1972   4.906   6.246   0.721
  358SOL    HW1 1973   4.899   6.165   0.663
  358SOL    HW2 1974   4.839   6.240   0.795
  359SOL     OW 1975   2.955   1.675   2.125
  359SOL    HW1 1976   3.039   1.661   2.073
  359SOL    HW2 1977   2.964   1.632   2.215
  360SOL     OW 1978   1.289   4.513   5.402
  360SOL    HW1 1979   1.248   4.447   5.465
  360SOL    HW2 1980   1.235   4.597   5.402
  361SOL     OW 1981   6.813   6.245   3.372
  361SOL    HW1 1982   6.881   6.177   3.343
  361SOL    HW2 1983   6.791   6.304   3.295
  362SOL     OW 1984   3.419   2.581   1.731
  362SOL    HW1 1985   3.400   2.488   1.702
  362SOL    HW2 1986   3.514   2.588   1.762
  363SOL     OW 1987   5.747   4.302   2.900
  363SOL    HW1 1988   5.813   4.358   2.849
  363SOL    HW2 1989   5.772   4.300   2.996
  364SOL     OW 1990   0.161   5.139   6.271
  364SOL    HW1 1991   0.069   5.113   6.240
  364SOL    HW2 1992   0.173   5.111   6.366
  365SOL     OW 1993   5.305   0.302   1.738
  365SOL    HW1 1994   5.384   0.240   1.734
  365SOL    HW2 1995   5.325   0.376   1.803
  366SOL     OW 1996   5.905   1.807   6.704
  366SOL    HW1 1997   5.854   1.891   6.724
  366SOL    HW2 1998   5.855   1.729   6.740
  367SOL     OW 1999   5.964   2.663   0.834
  367SOL    HW1 2000   5.909   2.585   0.863
  367SOL    HW2 2001   6.046   2.631   0.787
  368SOL     OW 2002   0.722   2.633   5.125
  368SOL    HW1 2003   0.772   2.696   5.066
  368SOL    HW2 2004   0.742   2.538   5.098
  369SOL     OW 2005   5.716   5.410   2.115
  369SOL    HW1 2006   5.650   5.336   2.131
  369SOL    HW2 2007   5.683   5.494   2.159
  370SOL     OW 2008   1.359   1.747   4.416
  370SOL    HW1 2009   1.262   1.735   4.395
  370SOL    HW2 2010   1.371   1.822   4.480
  371SOL     OW 2011   1.854   4.531   6.774
  371SOL    HW1 2012   1.806   4.539   6.686
  371SOL    HW2 2013   1.920   4.606   6.783
  372SOL     OW 2014   1.855   6.865   5.882
  372SOL    HW1 2015   1.908   6.945   5.911
  372SOL    HW2 2016   1.896   6.782   5.919
  373SOL     OW 2017   5.592   5.960   4.965
  373SOL    HW1 2018   5.600   5.861   4.958
  373SOL    HW2 2019   5.681   5.999   4.990
  374SOL     OW 2020   2.741   2.316   3.543
  374SOL    HW1 2021   2.677   2.246   3.575
  374SOL    HW2 2022   2.820   2.319   3.606
  375SOL     OW 2023   0.752   4.562   4.063
  375SOL    HW1 2024   0.811   4.552   3.982
  375SOL    HW2 2025   0.658   4.577   4.034
  376SOL     OW 2026   1.062   1.236   5.172
  376SOL    HW1 2027   1.032   1.228   5.077
  376SOL    HW2 2028   1.125   1.312   5.181
  377SOL     OW 2029   1.236   1.867   0.617
  377SOL    HW1 2030   1.326   1.894   0.652
  377SOL    HW2 2031   1.227   1.896   0.522
  378SOL     OW 2032   4.524   1.975   0.308
  378SOL    HW1 2033   4.547   2.065   0.344
  378SOL    HW2 2034   4.602   1.938   0.258
  379SOL     OW 2035   5.837   2.041   0.860
  379SOL    HW1 2036   5.847   1.955   0.810
  379SOL    HW2 2037   5.751   2.085   0.833
  380SOL     OW 2038   3.286   1.305   0.903
  380SOL    HW1 2039   3.298   1.347   0.993
  380SOL    HW2 2040   3.217   1.233   0.909
  381SOL     OW 2041   1.676   3.927   3.767
  381SOL    HW1 2042   1.741   3.938   3.842
  381SOL    HW2 2043   1.725   3.903   3.683
  382SOL     OW 2044   5.850   0.760   0.424
  382SOL    HW1 2045   5.913   0.716   0.489
  382SOL    HW2 2046   5.900   0.786   0.342
  383SOL     OW 2047   3.572   3.378   6.611
  383SOL    HW1 2048   3.570   3.315   6.689
  383SOL    HW2 2049   3.641   3.347   6.546
  384SOL     OW 2050   6.533   5.325   4.536
  384SOL    HW1 2051   6.467   5.276   4.479
  384SOL    HW2 2052   6.502   5.419   4.549
  385SOL     OW 2053   3.006   4.818   4.997
  385SOL    HW1 2054   2.988   4.729   5.037
  385SOL    HW2 2055   2.936   4.838   4.928
  386SOL     OW 2056   2.897   6.109   4.169
  386SOL    HW1 2057   2.995   6.089   4.175
  386SOL    HW2 2058   2.850   6.071   4.249
  387SOL     OW 2059   0.899   6.277   3.118
  387SOL    HW1 2060   0.997   6.276   3.135
  387SOL    HW2 2061   0.874   6.200   3.060
  388SOL     OW 2062   1.330   2.082   5.704
  388SOL    HW1 2063   1.234   2.101   5.723
  388SOL    HW2 2064   1.368   2.154   5.646
  389SOL     OW 2065   3.864   3.901   1.979
  389SOL    HW1 2066   3.849   3.988   1.932
  389SOL    HW2 2067   3.872   3.917   2.077
  390SOL     OW 2068   2.715   1.689   2.455
  390SOL    HW1 2069   2.809   1.657   2.449
  390SOL    HW2 2070   2.653   1.611   2.465
  391SOL     OW 2071   2.325   1.925   6.380
  391SOL    HW1 2072   2.386   2.002   6.366
  391SOL    HW2 2073   2.286   1.928   6.472
  392SOL     OW 2074   1.628   4.817   0.629
  392SOL    HW1 2075   1.679   4.840   0.546
  392SOL    HW2 2076   1.631   4.718   0.643
  393SOL     OW 2077   1.317   4.200   6.304
  393SOL    HW1 2078   1.328   4.295   6.333
  393SOL    HW2 2079   1.299   4.142   6.384
  394SOL     OW 2080   6.986   1.408   6.929
  394SOL    HW1 2081   6.907   1.448   6.977
  394SOL    HW2 2082   6.971   1.310   6.916
  395SOL     OW 2083   4.946   3.721   2.966
  395SOL    HW1 2084   4.940   3.676   2.877
  395SOL    HW2 2085   4.978   3.815   2.954
  396SOL     OW 2086   3.619   4.218   1.362
  396SOL    HW1 2087   3.549   4.287   1.341
  396SOL    HW2 2088   3.706   4.262   1.381
  397SOL     OW 2089   4.885   1.794   6.154
  397SOL    HW1 2090   4.927   1.870   6.104
  397SOL    HW2 2091   4.791   1.817   6.178
  398SOL     OW 2092   0.333   6.451   2.538
  398SOL    HW1 2093   0.317   6.516   2.463
  398SOL    HW2 2094   0.291   6.485   2.622
  399SOL     OW 2095   6.120   6.303   2.292
  399SOL    HW1 2096   6.181   6.254   2.229
  399SOL    HW2 2097   6.141   6.401   2.289
  400SOL     OW 2098   6.311   6.869   5.782
  400SOL    HW1 2099   6.246   6.878   5.858
  400SOL    HW2 2100   6.264   6.833   5.702
  401SOL     OW 2101   4.958   0.600   5.668
  401SOL    HW1 2102   5.036   0.660   5.647
  401SOL    HW2 2103   4.892   0.650   5.725
  402SOL     OW 2104   5.519   6.941   3.090
  402SOL    HW1 2105   5.445   6.940   3.023
  402SOL    HW2 2106   5.500   7.010   3.160
  403SOL     OW 2107   3.775   2.151   4.354
  403SOL    HW1 2108   3.774   2.147   4.454
  403SOL    HW2 2109   3.690   2.112   4.319
  404SOL     OW 2110   1.317   5.420   4.954
  404SOL    HW1 2111   1.305   5.497   5.017
  404SOL    HW2 2112   1.335   5.455   4.862
  405SOL     OW 2113   1.794   3.495   1.946
  405SOL    HW1 2114   1.871   3.448   1.989
  405SOL    HW2 2115   1.799   3.483   1.847
  406SOL     OW 2116   0.972   4.723   4.723
  406SOL    HW1 2117   0.947   4.796   4.659
  406SOL    HW2 2118   0.989   4.763   4.813
  407SOL     OW 2119   1.201   0.800   3.882
  407SOL    HW1 2120   1.160   0.880   3.838
  407SOL    HW2 2121   1.284   0.774   3.832
  408SOL     OW 2122   0.856   2.653   2.846
  408SOL    HW1 2123   0.845   2.752   2.855
  408SOL    HW2 2124   0.841   2.626   2.750
  409SOL     OW 2125   7.008   2.991   1.249
  409SOL    HW1 2126   6.913   2.969   1.228
  409SOL    HW2 2127   0.020   3.071   1.196
  410SOL     OW 2128   1.565   1.698   1.584
  410SOL    HW1 2129   1.509   1.708   1.502
  410SOL    HW2 2130   1.649   1.752   1.574
  411SOL     OW 2131   5.269   0.189   1.449
  411SOL    HW1 2132   5.353   0.213   1.497
  411SOL    HW2 2133   5.213   0.271   1.435
  412SOL     OW 2134   4.443   5.992   3.781
  412SOL    HW1 2135   4.378   5.948   3.843
  412SOL    HW2 2136   4.535   5.986   3.820
  413SOL     OW 2137   5.179   4.144   1.518
  413SOL    HW1 2138   5.082   4.167   1.521
  413SOL    HW2 2139   5.190   4.051   1.482
  414SOL     OW 2140   3.606   5.522   3.694
  414SOL    HW1 2141   3.560   5.578   3.763
  414SOL    HW2 2142   3.558   5.435   3.684
  415SOL     OW 2143   0.816   5.875   6.906
  415SOL    HW1 2144   0.731   5.922   6.883
  415SOL    HW2 2145   0.803   5.819   6.987
  416SOL     OW 2146   5.080   6.118   3.950
  416SOL    HW1 2147   5.141   6.055   3.998
  416SOL    HW2 2148   5.040   6.181   4.015
  417SOL     OW 2149   3.037   5.492   0.056
  417SOL    HW1 2150   3.068   5.460   0.145
  417SOL    HW2 2151   2.957   5.438   0.028
  418SOL     OW 2152   3.898   6.489   0.647
  418SOL    HW1 2153   3.883   6.409   0.705
  418SOL    HW2 2154   3.966   6.467   0.577
  419SOL     OW 2155   1.726   0.607   2.002
  419SOL    HW1 2156   1.725   0.523   1.948
  419SOL    HW2 2157   1.807   0.661   1.979
  420SOL     OW 2158   4.912   0.972   6.659
  420SOL    HW1 2159   4.929   0.884   6.704
  420SOL    HW2 2160   4.982   0.988   6.589
  421SOL     OW 2161   6.822   4.078   5.713
  421SOL    HW1 2162   6.800   4.010   5.782
  421SOL    HW2 2163   6.908   4.123   5.736
  422SOL     OW 2164   5.886   3.310   1.076
  422SOL    HW1 2165   5.849   3.227   1.035
  422SOL    HW2 2166   5.960   3.286   1.139
  423SOL     OW 2167   1.152   2.068   6.743
  423SOL    HW1 2168   1.209   2.025   6.673
  423SOL    HW2 2169   1.068   2.104   6.701
  424SOL     OW 2170   1.784   4.606   1.012
  424SOL    HW1 2171   1.802   4.663   1.092
  424SOL    HW2 2172   1.806   4.511   1.034
  425SOL     OW 2173   5.873   1.758   3.424
  425SOL    HW1 2174   5.829   1.776   3.337
  425SOL    HW2 2175   5.928   1.675   3.418
  426SOL     OW 2176   3.979   1.806   4.626
  426SOL    HW1 2177   3.965   1.899   4.590
  426SOL    HW2 2178   4.038   1.809   4.706
  427SOL     OW 2179   4.590   5.873   3.225
  427SOL    HW1 2180   4.597   5.775   3.240
  427SOL    HW2 2181   4.676   5.917   3.251
  428SOL     OW 2182   4.263   0.350   4.607
  428SOL    HW1 2183   4.193   0.300   4.556
  428SOL    HW2 2184   4.331   0.386   4.544
  429SOL     OW 2185   1.349   3.366   1.542
  429SOL    HW1 2186   1.384   3.297   1.606
  429SOL    HW2 2187   1.422   3.430   1.519
  430SOL     OW 2188   0.299   0.494   5.528
  430SOL    HW1 2189   0.270   0.495   5.432
  430SOL    HW2 2190   0.219   0.502   5.587
  431SOL     OW 2191   3.259   6.974   0.733
  431SOL    HW1 2192   3.312   6.892   0.710
  431SOL    HW2 2193   3.162   6.951   0.733
  432SOL     OW 2194   6.572   1.742   0.412
  432SOL    HW1 2195   6.611   1.833   0.401
  432SOL    HW2 2196   6.481   1.740   0.370
  433SOL     OW 2197   2.542   6.424   4.835
  433SOL    HW1 2198   2.560   6.523   4.831
  433SOL    HW2 2199   2.450   6.408   4.868
  434SOL     OW 2200   3.289   5.953   3.188
  434SOL    HW1 2201   3.308   5.858   3.212
  434SOL    HW2 2202   3.207   5.984   3.237
  435SOL     OW 2203   5.185   2.791   6.587
  435SOL    HW1 2204   5.205   2.756   6.679
  435SOL    HW2 2205   5.229   2.734   6.519
  436SOL     OW 2206   2.604   6.036   1.186
  436SOL    HW1 2207   2.547   6.113   1.217
  436SOL    HW2 2208   2.699   6.066   1.180
  437SOL     OW 2209   1.429   1.079   0.610
  437SOL    HW1 2210   1.428   1.088   0.710
  437SOL    HW2 2211   1.475   1.158   0.570
  438SOL     OW 2212   1.719   4.068   3.372
  438SOL    HW1 2213   1.631   4.115   3.382
  438SOL    HW2 2214   1.712   3.976   3.408
  439SOL     OW 2215   5.727   5.094   2.363
  439SOL    HW1 2216   5.766   5.076   2.273
  439SOL    HW2 2217   5.627   5.082   2.359
  440SOL     OW 2218   1.771   1.287   5.013
  440SOL    HW1 2219   1.778   1.294   4.914
  440SOL    HW2 2220   1.835   1.351   5.055
  441SOL     OW 2221   1.097   2.585   4.173
  441SOL    HW1 2222   1.155   2.665   4.162
  441SOL    HW2 2223   1.083   2.541   4.084
  442SOL     OW 2224   3.732   5.450   5.828
  442SOL    HW1 2225   3.782   5.430   5.744
  442SOL    HW2 2226   3.680   5.369   5.855
  443SOL     OW 2227   6.134   4.290   4.366
  443SOL    HW1 2228   6.128   4.285   4.466
  443SOL    HW2 2229   6.056   4.341   4.330
  444SOL     OW 2230   4.886   1.472   5.724
  444SOL    HW1 2231   4.985   1.472   5.741
  444SOL    HW2 2232   4.837   1.478   5.811
  445SOL     OW 2233   0.673   5.891   3.070
  445SOL    HW1 2234   0.598   5.955   3.086
  445SOL    HW2 2235   0.696   5.889   2.973
  446SOL     OW 2236   3.480   5.592   3.926
  446SOL    HW1 2237   3.468   5.690   3.939
  446SOL    HW2 2238   3.391   5.547   3.926
  447SOL     OW 2239   0.395   2.678   6.139
  447SOL    HW1 2240   0.462   2.630   6.085
  447SOL    HW2 2241   0.439   2.754   6.187
  448SOL     OW 2242   1.938   0.534   3.249
  448SOL    HW1 2243   1.939   0.628   3.214
  448SOL    HW2 2244   2.031   0.497   3.243
  449SOL     OW 2245   4.124   1.360   3.933
  449SOL    HW1 2246   4.151   1.420   4.008
  449SOL    HW2 2247   4.206   1.333   3.881
  450SOL     OW 2248   1.638   5.536   3.229
  450SOL    HW1 2249   1.700   5.498   3.160
  450SOL    HW2 2250   1.649   5.488   3.315
  451SOL     OW 2251   1.125   2.211   3.573
  451SOL    HW1 2252   1.097   2.231   3.667
  451SOL    HW2 2253   1.143   2.297   3.525
  452SOL     OW 2254   5.956   6.524   1.007
  452SOL    HW1 2255   5.973   6.622   1.001
  452SOL    HW2 2256   5.866   6.503   0.967
  453SOL     OW 2257   3.720   1.174   5.871
  453SOL    HW1 2258   3.664   1.218   5.801
  453SOL    HW2 2259   3.748   1.084   5.840
  454SOL     OW 2260   6.824   4.510   6.132
  454SOL    HW1 2261   6.724   4.500   6.129
  454SOL    HW2 2262   6.866   4.420   6.145
  455SOL     OW 2263   6.233   2.155   3.533
  455SOL    HW1 2264   6.300   2.113   3.471
  455SOL    HW2 2265   6.249   2.122   3.626
  456SOL     OW 2266   6.370   6.409   4.039
  456SOL    HW1 2267   6.413   6.318   4.037
  456SOL    HW2 2268   6.275   6.401   4.010
  457SOL     OW 2269   1.652   2.017   3.855
  457SOL    HW1 2270   1.569   1.974   3.890
  457SOL    HW2 2271   1.675   1.977   3.766
  458SOL     OW 2272   3.998   5.871   3.197
  458SOL    HW1 2273   3.899   5.874   3.204
  458SOL    HW2 2274   4.034   5.812   3.270
  459SOL     OW 2275   1.802   6.147   5.316
  459SOL    HW1 2276   1.712   6.189   5.331
  459SOL    HW2 2277   1.870   6.193   5.373
  460SOL     OW 2278   1.891   6.714   4.041
  460SOL    HW1 2279   1.863   6.783   3.974
  460SOL    HW2 2280   1.909   6.627   3.995
  461SOL     OW 2281   6.431   6.478   6.377
  461SOL    HW1 2282   6.517   6.459   6.425
  461SOL    HW2 2283   6.445   6.554   6.313
  462SOL     OW 2284   3.965   3.333   6.533
  462SOL    HW1 2285   4.048   3.278   6.533
  462SOL    HW2 2286   3.927   3.338   6.626
  463SOL     OW 2287   5.592   5.990   3.457
  463SOL    HW1 2288   5.542   5.905   3.439
  463SOL    HW2 2289   5.548   6.040   3.531
  464SOL     OW 2290   2.805   1.387   4.991
  464SOL    HW1 2291   2.789   1.453   4.918
  464SOL    HW2 2292   2.754   1.303   4.972
  465SOL     OW 2293   0.875   3.310   6.730
  465SOL    HW1 2294   0.863   3.293   6.632
  465SOL    HW2 2295   0.947   3.250   6.766
  466SOL     OW 2296   0.603   6.545   3.180
  466SOL    HW1 2297   0.679   6.568   3.120
  466SOL    HW2 2298   0.533   6.497   3.128
  467SOL     OW 2299   2.156   1.178   0.935
  467SOL    HW1 2300   2.198   1.269   0.928
  467SOL    HW2 2301   2.068   1.185   0.982
  468SOL     OW 2302   3.705   0.246   6.314
  468SOL    HW1 2303   3.667   0.338   6.299
  468SOL    HW2 2304   3.737   0.209   6.227
  469SOL     OW 2305   2.984   3.247   6.703
  469SOL    HW1 2306   3.013   3.320   6.642
  469SOL    HW2 2307   2.919   3.187   6.655
  470SOL     OW 2308   4.586   6.613   1.378
  470SOL    HW1 2309   4.610   6.663   1.295
  470SOL    HW2 2310   4.562   6.677   1.451
  471SOL     OW 2311   2.418   2.355   3.963
  471SOL    HW1 2312   2.377   2.370   3.873
  471SOL    HW2 2313   2.426   2.442   4.011
  472SOL     OW 2314   4.406   3.385   6.590
  472SOL    HW1 2315   4.468   3.313   6.619
  472SOL    HW2 2316   4.398   3.384   6.490
  473SOL     OW 2317   1.165   2.880   2.837
  473SOL    HW1 2318   1.077   2.883   2.884
  473SOL    HW2 2319   1.176   2.792   2.792
  474SOL     OW 2320   5.205   5.047   4.235
  474SOL    HW1 2321   5.182   5.131   4.284
  474SOL    HW2 2322   5.180   4.968   4.291
  475SOL     OW 2323   5.458   1.294   6.397
  475SOL    HW1 2324   5.366   1.263   6.418
  475SOL    HW2 2325   5.493   1.245   6.317
  476SOL     OW 2326   0.481   3.337   3.463
  476SOL    HW1 2327   0.548   3.394   3.510
  476SOL    HW2 2328   0.425   3.289   3.531
  477SOL     OW 2329   2.196   6.099   3.901
  477SOL    HW1 2330   2.224   6.048   3.982
  477SOL    HW2 2331   2.189   6.196   3.923
  478SOL     OW 2332   3.171   6.150   2.251
  478SOL    HW1 2333   3.201   6.234   2.205
  478SOL    HW2 2334   3.087   6.118   2.208
  479SOL     OW 2335   4.184   1.633   5.788
  479SOL    HW1 2336   4.196   1.536   5.809
  479SOL    HW2 2337   4.179   1.646   5.689
  480SOL     OW 2338   2.811   0.817   6.866
  480SOL    HW1 2339   2.730   0.861   6.906
  480SOL    HW2 2340   2.799   0.809   6.767
  481SOL     OW 2341   2.241   6.723   1.053
  481SOL    HW1 2342   2.326   6.717   1.001
  481SOL    HW2 2343   2.165   6.739   0.990
  482SOL     OW 2344   3.883   4.869   2.077
  482SOL    HW1 2345   3.805   4.931   2.083
  482SOL    HW2 2346   3.927   4.862   2.167
  483SOL     OW 2347   6.338   2.096   2.406
  483SOL    HW1 2348   6.302   2.085   2.499
  483SOL    HW2 2349   6.406   2.026   2.388
  484SOL     OW 2350   2.024   3.572   4.768
  484SOL    HW1 2351   2.066   3.646   4.822
  484SOL    HW2 2352   1.959   3.522   4.824
  485SOL     OW 2353   4.118   5.436   3.170
  485SOL    HW1 2354   4.071   5.378   3.236
  485SOL    HW2 2355   4.051   5.476   3.107
  486SOL     OW 2356   6.942   1.170   6.782
  486SOL    HW1 2357   6.943   1.107   6.860
  486SOL    HW2 2358   6.849   1.202   6.766
  487SOL     OW 2359   0.656   0.658   2.738
  487SOL    HW1 2360   0.655   0.616   2.828
  487SOL    HW2 2361   0.611   0.747   2.742
  488SOL     OW 2362   0.891   1.397   1.778
  488SOL    HW1 2363   0.802   1.442   1.768
  488SOL    HW2 2364   0.949   1.452   1.839
  489SOL     OW 2365   4.013   6.244   6.080
  489SOL    HW1 2366   3.957   6.323   6.053
  489SOL    HW2 2367   3.969   6.160   6.049
  490SOL     OW 2368   0.069   5.963   2.813
  490SOL    HW1 2369   0.169   5.958   2.814
  490SOL    HW2 2370   0.040   6.059   2.816
  491SOL     OW 2371   1.252   3.300   2.533
  491SOL    HW1 2372   1.343   3.301   2.493
  491SOL    HW2 2373   1.191   3.356   2.477
  492SOL     OW 2374   1.453   0.384   4.904
  492SOL    HW1 2375   1.387   0.459   4.914
  492SOL    HW2 2376   1.470   0.343   4.994
  493SOL     OW 2377   4.819   6.227   5.655
  493SOL    HW1 2378   4.862   6.206   5.743
  493SOL    HW2 2379   4.729   6.266   5.671
  494SOL     OW 2380   0.501   6.757   0.129
  494SOL    HW1 2381   0.507   6.720   0.036
  494SOL    HW2 2382   0.573   6.716   0.185
  495SOL     OW 2383   4.704   5.801   4.117
  495SOL    HW1 2384   4.647   5.720   4.110
  495SOL    HW2 2385   4.798   5.778   4.089
  496SOL     OW 2386   4.902   2.981   1.854
  496SOL    HW1 2387   4.972   2.916   1.885
  496SOL    HW2 2388   4.819   2.970   1.908
  497SOL     OW 2389   3.029   1.537   4.315
  497SOL    HW1 2390   2.957   1.598   4.285
  497SOL    HW2 2391   3.061   1.564   4.406
  498SOL     OW 2392   1.033   4.213   1.819
  498SOL    HW1 2393   0.977   4.271   1.879
  498SOL    HW2 2394   1.129   4.219   1.847
  499SOL     OW 2395   1.756   6.135   4.443
  499SOL    HW1 2396   1.685   6.178   4.499
  499SOL    HW2 2397   1.719   6.053   4.401
  500SOL     OW 2398   0.409   2.758   5.514
  500SOL    HW1 2399   0.399   2.739   5.416
  500SOL    HW2 2400   0.503   2.790   5.532
  501SOL     OW 2401   3.025   6.171   0.910
  501SOL    HW1 2402   2.994   6.120   0.829
  501SOL    HW2 2403   3.064   6.107   0.976
  502SOL     OW 2404   0.936   3.846   6.618
  502SOL    HW1 2405   0.961   3.813   6.709
  502SOL    HW2 2406   0.855   3.796   6.586
  503SOL     OW 2407   0.370   5.754   6.649
  503SOL    HW1 2408   0.452   5.704   6.677
  503SOL    HW2 2409   0.394   5.848   6.626
  504SOL     OW 2410   1.378   5.035   2.763
  504SOL    HW1 2411   1.320   4.962   2.799
  504SOL    HW2 2412   1.465   5.036   2.812
  505SOL     OW 2413   2.816   6.129   5.163
  505SOL    HW1 2414   2.806   6.035   5.132
  505SOL    HW2 2415   2.883   6.134   5.237
  506SOL     OW 2416   2.885   5.011   4.210
  506SOL    HW1 2417   2.864   4.948   4.285
  506SOL    HW2 2418   2.978   5.047   4.223
  507SOL     OW 2419   3.397   6.879   3.251
  507SOL    HW1 2420   3.374   6.795   3.203
  507SOL    HW2 2421   3.360   6.875   3.344
  508SOL     OW 2422   6.809   3.400   2.483
  508SOL    HW1 2423   6.775   3.487   2.448
  508SOL    HW2 2424   6.751   3.326   2.447
  509SOL     OW 2425   3.136   1.093   0.900
  509SOL    HW1 2426   3.173   1.014   0.849
  509SOL    HW2 2427   3.038   1.098   0.887
  510SOL     OW 2428   6.544   4.648   6.477
  510SOL    HW1 2429   6.560   4.613   6.385
  510SOL    HW2 2430   6.582   4.741   6.484
  511SOL     OW 2431   1.053   2.155   6.046
  511SOL    HW1 2432   1.096   2.084   5.991
  511SOL    HW2 2433   1.077   2.143   6.142
  512SOL     OW 2434   6.591   2.895   0.084
  512SOL    HW1 2435   6.688   2.875   0.099
  512SOL    HW2 2436   6.537   2.814   0.107
  513SOL     OW 2437   5.813   6.970   3.217
  513SOL    HW1 2438   5.823   6.889   3.160
  513SOL    HW2 2439   5.840   0.035   3.165
  514SOL     OW 2440   6.159   1.726   4.185
  514SOL    HW1 2441   6.097   1.653   4.157
  514SOL    HW2 2442   6.203   1.701   4.272
  515SOL     OW 2443   0.771   0.350   6.342
  515SOL    HW1 2444   0.688   0.367   6.394
  515SOL    HW2 2445   0.830   0.287   6.392
  516SOL     OW 2446   2.627   4.598   2.191
  516SOL    HW1 2447   2.618   4.678   2.251
  516SOL    HW2 2448   2.715   4.601   2.144
  517SOL     OW 2449   4.587   5.638   1.384
  517SOL    HW1 2450   4.529   5.654   1.304
  517SOL    HW2 2451   4.682   5.663   1.362
  518SOL     OW 2452   3.100   2.050   3.509
  518SOL    HW1 2453   3.195   2.080   3.507
  518SOL    HW2 2454   3.046   2.107   3.447
  519SOL     OW 2455   0.235   6.621   4.488
  519SOL    HW1 2456   0.296   6.601   4.565
  519SOL    HW2 2457   0.187   6.707   4.505
  520SOL     OW 2458   5.896   3.842   7.015
  520SOL    HW1 2459   5.808   3.808   0.032
  520SOL    HW2 2460   5.970   3.796   0.049
  521SOL     OW 2461   6.443   5.680   5.248
  521SOL    HW1 2462   6.355   5.634   5.262
  521SOL    HW2 2463   6.483   5.651   5.160
  522SOL     OW 2464   3.384   3.350   4.751
  522SOL    HW1 2465   3.440   3.402   4.687
  522SOL    HW2 2466   3.289   3.382   4.746
  523SOL     OW 2467   0.535   5.987   1.657
  523SOL    HW1 2468   0.488   5.937   1.584
  523SOL    HW2 2469   0.482   5.978   1.742
  524SOL     OW 2470   0.347   2.119   2.383
  524SOL    HW1 2471   0.324   2.060   2.461
  524SOL    HW2 2472   0.311   2.211   2.399
  525SOL     OW 2473   1.841   3.498   5.762
  525SOL    HW1 2474   1.785   3.499   5.680
  525SOL    HW2 2475   1.842   3.589   5.804
  526SOL     OW 2476   4.045   6.242   3.699
  526SOL    HW1 2477   4.063   6.338   3.680
  526SOL    HW2 2478   4.114   6.186   3.654
  527SOL     OW 2479   5.906   2.488   0.256
  527SOL    HW1 2480   5.938   2.497   0.351
  527SOL    HW2 2481   5.985   2.484   0.195
  528SOL     OW 2482   0.609   2.730   3.823
  528SOL    HW1 2483   0.545   2.720   3.747
  528SOL    HW2 2484   0.648   2.640   3.846
  529SOL     OW 2485   1.385   6.642   5.065
  529SOL    HW1 2486   1.354   6.570   5.003
  529SOL    HW2 2487   1.427   6.716   5.012
  530SOL     OW 2488   3.469   3.281   4.441
  530SOL    HW1 2489   3.523   3.262   4.523
  530SOL    HW2 2490   3.381   3.235   4.447
  531SOL     OW 2491   0.338   1.756   3.325
  531SOL    HW1 2492   0.434   1.781   3.307
  531SOL    HW2 2493   0.280   1.836   3.312
  532SOL     OW 2494   0.688   3.032   6.823
  532SOL    HW1 2495   0.713   3.069   6.913
  532SOL    HW2 2496   0.748   2.954   6.802
  533SOL     OW 2497   4.073   6.486   4.141
  533SOL    HW1 2498   4.008   6.554   4.107
  533SOL    HW2 2499   4.160   6.497   4.094
  534SOL     OW 2500   5.264   6.692   2.035
  534SOL    HW1 2501   5.363   6.675   2.036
  534SOL    HW2 2502   5.218   6.627   2.095
  535SOL     OW 2503   0.081   3.386   5.119
  535SOL    HW1 2504   0.081   3.390   5.219
  535SOL    HW2 2505   0.164   3.429   5.083
  536SOL     OW 2506   6.197   5.369   1.951
  536SOL    HW1 2507   6.121   5.340   2.009
  536SOL    HW2 2508   6.280   5.378   2.007
  537SOL     OW 2509   2.665   6.785   4.442
  537SOL    HW1 2510   2.620   6.842   4.511
  537SOL    HW2 2511   2.759   6.814   4.431
  538SOL     OW 2512   0.881   4.695   2.989
  538SOL    HW1 2513   0.968   4.701   3.037
  538SOL    HW2 2514   0.814   4.649   3.047
  539SOL     OW 2515   1.286   5.666   1.388
  539SOL    HW1 2516   1.365   5.722   1.411
  539SOL    HW2 2517   1.250   5.693   1.299
  540SOL     OW 2518   1.463   0.865   3.060
  540SOL    HW1 2519   1.529   0.877   2.986
  540SOL    HW2 2520   1.455   0.767   3.082
  541SOL     OW 2521   4.970   5.733   4.020
  541SOL    HW1 2522   5.043   5.784   4.066
  541SOL    HW2 2523   4.955   5.646   4.067
  542SOL     OW 2524   5.868   6.063   6.400
  542SOL    HW1 2525   5.905   6.081   6.491
  542SOL    HW2 2526   5.777   6.101   6.392
  543SOL     OW 2527   1.184   3.482   5.069
  543SOL    HW1 2528   1.274   3.524   5.082
  543SOL    HW2 2529   1.168   3.468   4.971
  544SOL     OW 2530   2.158   4.113   0.299
  544SOL    HW1 2531   2.125   4.108   0.205
  544SOL    HW2 2532   2.246   4.065   0.307
  545SOL     OW 2533   2.751   1.408   1.558
  545SOL    HW1 2534   2.655   1.407   1.584
  545SOL    HW2 2535   2.797   1.328   1.596
  546SOL     OW 2536   2.096   2.734   0.714
  546SOL    HW1 2537   2.062   2.644   0.741
  546SOL    HW2 2538   2.179   2.723   0.660
  547SOL     OW 2539   3.284   0.877   0.360
  547SOL    HW1 2540   3.288   0.906   0.264
  547SOL    HW2 2541   3.377   0.858   0.392
  548SOL     OW 2542   3.567   3.894   2.469
  548SOL    HW1 2543   3.523   3.971   2.516
  548SOL    HW2 2544   3.569   3.815   2.531
  549SOL     OW 2545   5.002   2.786   1.413
  549SOL    HW1 2546   4.955   2.698   1.403
  549SOL    HW2 2547   4.968   2.833   1.494
  550SOL     OW 2548   0.100   5.766   4.016
  550SOL    HW1 2549   0.027   5.805   4.072
  550SOL    HW2 2550   0.176   5.831   4.009
  551SOL     OW 2551   0.516   0.465   2.573
  551SOL    HW1 2552   0.579   0.440   2.500
  551SOL    HW2 2553   0.566   0.514   2.645
  552SOL     OW 2554   5.387   4.677   0.080
  552SOL    HW1 2555   5.333   4.724   0.150
  552SOL    HW2 2556   5.342   4.687   7.007
  553SOL     OW 2557   2.711   6.465   2.309
  553SOL    HW1 2558   2.796   6.458   2.360
  553SOL    HW2 2559   2.672   6.556   2.323
  554SOL     OW 2560   5.261   0.128   6.571
  554SOL    HW1 2561   5.298   0.070   6.498
  554SOL    HW2 2562   5.166   0.104   6.587
  555SOL     OW 2563   1.942   5.541   3.724
  555SOL    HW1 2564   1.888   5.592   3.791
  555SOL    HW2 2565   2.023   5.594   3.700
  556SOL     OW 2566   4.392   2.364   3.536
  556SOL    HW1 2567   4.343   2.378   3.450
  556SOL    HW2 2568   4.443   2.447   3.560
  557SOL     OW 2569   0.354   5.135   0.631
  557SOL    HW1 2570   0.424   5.140   0.559
  557SOL    HW2 2571   0.279   5.078   0.598
  558SOL     OW 2572   2.917   3.304   4.616
  558SOL    HW1 2573   2.930   3.261   4.526
  558SOL    HW2 2574   3.002   3.301   4.668
  559SOL     OW 2575   6.707   5.829   6.986
  559SOL    HW1 2576   6.796   5.800   0.004
  559SOL    HW2 2577   6.638   5.762   7.014
  560SOL     OW 2578   4.693   4.857   6.975
  560SOL    HW1 2579   4.652   4.948   6.968
  560SOL    HW2 2580   4.725   4.829   6.884
  561SOL     OW 2581   0.277   1.539   0.921
  561SOL    HW1 2582   0.245   1.586   1.003
  561SOL    HW2 2583   0.377   1.548   0.914
  562SOL     OW 2584   5.161   0.609   5.946
  562SOL    HW1 2585   5.154   0.653   5.857
  562SOL    HW2 2586   5.098   0.531   5.951
  563SOL     OW 2587   2.077   0.784   3.840
  563SOL    HW1 2588   2.114   0.705   3.888
  563SOL    HW2 2589   2.003   0.756   3.779
  564SOL     OW 2590   1.403   2.110   0.134
  564SOL    HW1 2591   1.435   2.203   0.147
  564SOL    HW2 2592   1.317   2.111   0.082
  565SOL     OW 2593   3.869   2.899   5.248
  565SOL    HW1 2594   3.888   2.977   5.187
  565SOL    HW2 2595   3.775   2.906   5.282
  566SOL     OW 2596   6.692   5.133   3.816
  566SOL    HW1 2597   6.682   5.043   3.860
  566SOL    HW2 2598   6.610   5.187   3.833
  567SOL     OW 2599   3.037   2.963   1.545
  567SOL    HW1 2600   3.125   2.955   1.498
  567SOL    HW2 2601   3.028   2.889   1.612
  568SOL     OW 2602   4.889   1.457   0.083
  568SOL    HW1 2603   4.851   1.528   0.142
  568SOL    HW2 2604   4.828   1.378   0.082
  569SOL     OW 2605   1.738   2.937   6.544
  569SOL    HW1 2606   1.779   2.889   6.467
  569SOL    HW2 2607   1.750   2.884   6.628
  570SOL     OW 2608   3.034   6.464   6.838
  570SOL    HW1 2609   3.012   6.431   6.746
  570SOL    HW2 2610   3.131   6.488   6.842
  571SOL     OW 2611   3.050   0.461   2.108
  571SOL    HW1 2612   3.138   0.422   2.136
  571SOL    HW2 2613   2.976   0.409   2.151
  572SOL     OW 2614   3.244   4.769   5.533
  572SOL    HW1 2615   3.147   4.791   5.524
  572SOL    HW2 2616   3.270   4.701   5.465
  573SOL     OW 2617   5.459   2.017   5.756
  573SOL    HW1 2618   5.467   1.977   5.664
  573SOL    HW2 2619   5.547   2.009   5.803
  574SOL     OW 2620   3.052   1.881   4.118
  574SOL    HW1 2621   3.128   1.917   4.173
  574SOL    HW2 2622   3.089   1.825   4.044
  575SOL     OW 2623   5.268   3.824   0.556
  575SOL    HW1 2624   5.267   3.729   0.525
  575SOL    HW2 2625   5.188   3.871   0.521
  576SOL     OW 2626   1.046   2.145   2.970
  576SOL    HW1 2627   1.070   2.049   2.984
  576SOL    HW2 2628   1.129   2.200   2.964
  577SOL     OW 2629   1.014   1.245   2.228
  577SOL    HW1 2630   1.047   1.241   2.134
  577SOL    HW2 2631   1.083   1.209   2.290
  578SOL     OW 2632   5.901   5.593   3.377
  578SOL    HW1 2633   5.918   5.509   3.430
  578SOL    HW2 2634   5.804   5.615   3.380
  579SOL     OW 2635   1.919   2.798   2.514
  579SOL    HW1 2636   2.008   2.752   2.506
  579SOL    HW2 2637   1.858   2.766   2.442
  580SOL     OW 2638   6.626   5.241   6.896
  580SOL    HW1 2639   6.698   5.176   6.921
  580SOL    HW2 2640   6.657   5.334   6.918
  581SOL     OW 2641   2.940   3.203   2.074
  581SOL    HW1 2642   2.968   3.198   1.979
  581SOL    HW2 2643   2.841   3.216   2.079
  582SOL     OW 2644   4.690   7.003   1.968
  582SOL    HW1 2645   4.755   6.972   2.038
  582SOL    HW2 2646   4.631   0.058   2.007
  583SOL     OW 2647   3.367   5.078   5.751
  583SOL    HW1 2648   3.378   5.038   5.660
  583SOL    HW2 2649   3.281   5.047   5.791
  584SOL     OW 2650   3.078   4.024   6.282
  584SOL    HW1 2651   3.101   3.936   6.242
  584SOL    HW2 2652   3.140   4.094   6.246
  585SOL     OW 2653   5.327   3.127   6.114
  585SOL    HW1 2654   5.256   3.196   6.099
  585SOL    HW2 2655   5.324   3.097   6.209
  586SOL     OW 2656   3.619   1.797   5.929
  586SOL    HW1 2657   3.646   1.888   5.896
  586SOL    HW2 2658   3.677   1.728   5.886
  587SOL     OW 2659   3.982   1.264   5.833
  587SOL    HW1 2660   4.022   1.173   5.839
  587SOL    HW2 2661   3.885   1.260   5.857
  588SOL     OW 2662   2.255   4.881   1.267
  588SOL    HW1 2663   2.251   4.827   1.352
  588SOL    HW2 2664   2.164   4.915   1.245
  589SOL     OW 2665   2.979   4.997   1.667
  589SOL    HW1 2666   2.911   4.933   1.631
  589SOL    HW2 2667   2.959   5.089   1.635
  590SOL     OW 2668   4.951   3.384   2.947
  590SOL    HW1 2669   4.862   3.339   2.952
  590SOL    HW2 2670   4.941   3.474   2.905
  591SOL     OW 2671   3.748   5.555   4.326
  591SOL    HW1 2672   3.832   5.513   4.289
  591SOL    HW2 2673   3.669   5.501   4.297
  592SOL     OW 2674   3.315   0.916   1.513
  592SOL    HW1 2675   3.403   0.895   1.555
  592SOL    HW2 2676   3.326   0.926   1.415
  593SOL     OW 2677   4.590   2.394   3.104
  593SOL    HW1 2678   4.493   2.381   3.125
  593SOL    HW2 2679   4.602   2.478   3.052
  594SOL     OW 2680   5.549   2.366   6.655
  594SOL    HW1 2681   5.603   2.339   6.575
  594SOL    HW2 2682   5.535   2.286   6.714
  595SOL     OW 2683   5.829   6.681   3.823
  595SOL    HW1 2684   5.779   6.621   3.760
  595SOL    HW2 2685   5.793   6.668   3.916
  596SOL     OW 2686   2.003   4.380   3.228
  596SOL    HW1 2687   1.999   4.280   3.231
  596SOL    HW2 2688   2.025   4.415   3.319
  597SOL     OW 2689   3.562   6.872   6.775
  597SOL    HW1 2690   3.640   6.879   6.839
  597SOL    HW2 2691   3.481   6.842   6.825
  598SOL     OW 2692   3.639   4.372   5.673
  598SOL    HW1 2693   3.649   4.381   5.574
  598SOL    HW2 2694   3.599   4.455   5.710
  599SOL     OW 2695   2.185   6.442   2.285
  599SOL    HW1 2696   2.142   6.368   2.232
  599SOL    HW2 2697   2.277   6.413   2.313
  600SOL     OW 2698   0.985   1.100   0.292
  600SOL    HW1 2699   0.966   1.198   0.304
  600SOL    HW2 2700   0.941   1.049   0.366
  601SOL     OW 2701   2.977   6.996   4.615
  601SOL    HW1 2702   2.986   7.005   4.516
  601SOL    HW2 2703   3.059   0.016   4.659
  602SOL     OW 2704   2.462   2.581   6.384
  602SOL    HW1 2705   2.404   2.591   6.303
  602SOL    HW2 2706   2.508   2.668   6.403
  603SOL     OW 2707   3.483   1.656   3.878
  603SOL    HW1 2708   3.546   1.722   3.838
  603SOL    HW2 2709   3.535   1.579   3.915
  604SOL     OW 2710   0.652   3.698   1.651
  604SOL    HW1 2711   0.637   3.685   1.749
  604SOL    HW2 2712   0.611   3.621   1.600
  605SOL     OW 2713   6.831   6.327   2.235
  605SOL    HW1 2714   6.865   6.359   2.324
  605SOL    HW2 2715   6.734   6.351   2.226
  606SOL     OW 2716   5.071   0.638   6.258
  606SOL    HW1 2717   5.171   0.644   6.261
  606SOL    HW2 2718   5.044   0.557   6.207
  607SOL     OW 2719   6.025   0.318   5.835
  607SOL    HW1 2720   6.112   0.270   5.844
  607SOL    HW2 2721   5.957   0.278   5.896
  608SOL     OW 2722   2.726   6.529   6.460
  608SOL    HW1 2723   2.768   6.620   6.461
  608SOL    HW2 2724   2.633   6.535   6.494
  609SOL     OW 2725   4.000   3.373   3.513
  609SOL    HW1 2726   3.908   3.368   3.473
  609SOL    HW2 2727   3.997   3.334   3.606
  610SOL     OW 2728   4.927   3.242   1.888
  610SOL    HW1 2729   4.916   3.305   1.811
  610SOL    HW2 2730   4.900   3.150   1.859
  611SOL     OW 2731   3.478   0.166   0.193
  611SOL    HW1 2732   3.573   0.197   0.190
  611SOL    HW2 2733   3.428   0.219   0.261
  612SOL     OW 2734   3.584   6.223   5.533
  612SOL    HW1 2735   3.567   6.160   5.608
  612SOL    HW2 2736   3.610   6.313   5.570
  613SOL     OW 2737   4.132   6.961   5.881
  613SOL    HW1 2738   4.224   6.937   5.913
  613SOL    HW2 2739   4.071   6.882   5.894
  614SOL     OW 2740   4.624   4.498   1.091
  614SOL    HW1 2741   4.607   4.421   1.152
  614SOL    HW2 2742   4.539   4.522   1.044
  615SOL     OW 2743   0.222   2.388   1.539
  615SOL    HW1 2744   0.141   2.438   1.571
  615SOL    HW2 2745   0.282   2.370   1.617
  616SOL     OW 2746   0.308   2.326   3.723
  616SOL    HW1 2747   0.263   2.348   3.810
  616SOL    HW2 2748   0.285   2.232   3.697
  617SOL     OW 2749   6.279   3.399   6.229
  617SOL    HW1 2750   6.348   3.419   6.299
  617SOL    HW2 2751   6.198   3.456   6.244
  618SOL     OW 2752   6.617   2.476   6.562
  618SOL    HW1 2753   6.699   2.531   6.544
  618SOL    HW2 2754   6.606   2.409   6.488
  619SOL     OW 2755   4.808   0.673   6.335
  619SOL    HW1 2756   4.762   0.586   6.355
  619SOL    HW2 2757   4.899   0.653   6.296
  620SOL     OW 2758   4.792   2.563   1.427
  620SOL    HW1 2759   4.842   2.478   1.448
  620SOL    HW2 2760   4.694   2.547   1.437
  621SOL     OW 2761   2.063   6.654   5.900
  621SOL    HW1 2762   2.145   6.627   5.951
  621SOL    HW2 2763   2.049   6.592   5.823
  622SOL     OW 2764   1.089   0.972   4.213
  622SOL    HW1 2765   1.140   1.019   4.141
  622SOL    HW2 2766   1.011   1.027   4.241
  623SOL     OW 2767   1.537   6.196   5.958
  623SOL    HW1 2768   1.447   6.153   5.963
  623SOL    HW2 2769   1.605   6.128   5.929
  624SOL     OW 2770   0.693   1.862   1.456
  624SOL    HW1 2771   0.775   1.901   1.414
  624SOL    HW2 2772   0.696   1.762   1.451
  625SOL     OW 2773   1.754   2.093   1.526
  625SOL    HW1 2774   1.787   2.004   1.496
  625SOL    HW2 2775   1.740   2.091   1.625
  626SOL     OW 2776   1.001   5.934   2.973
  626SOL    HW1 2777   1.057   6.002   3.022
  626SOL    HW2 2778   0.982   5.857   3.033
  627SOL     OW 2779   6.781   6.471   0.868
  627SOL    HW1 2780   6.878   6.460   0.846
  627SOL    HW2 2781   6.734   6.383   0.855
  628SOL     OW 2782   5.752   5.859   5.713
  628SOL    HW1 2783   5.772   5.955   5.693
  628SOL    HW2 2784   5.759   5.845   5.812
  629SOL     OW 2785   0.632   0.809   6.678
  629SOL    HW1 2786   0.689   0.736   6.640
  629SOL    HW2 2787   0.667   0.898   6.650
  630SOL     OW 2788   0.244   1.604   0.555
  630SOL    HW1 2789   0.256   1.541   0.478
  630SOL    HW2 2790   0.314   1.586   0.624
  631SOL     OW 2791   3.846   1.428   5.457
  631SOL    HW1 2792   3.846   1.497   5.529
  631SOL    HW2 2793   3.923   1.443   5.396
  632SOL     OW 2794   4.402   1.778   1.411
  632SOL    HW1 2795   4.492   1.763   1.452
  632SOL    HW2 2796   4.331   1.743   1.472
  633SOL     OW 2797   3.322   3.592   6.748
  633SOL    HW1 2798   3.324   3.565   6.845
  633SOL    HW2 2799   3.327   3.510   6.691
  634SOL     OW 2800   4.073   3.684   2.617
  634SOL    HW1 2801   4.117   3.594   2.610
  634SOL    HW2 2802   4.044   3.714   2.526
  635SOL     OW 2803   4.550   5.569   0.916
  635SOL    HW1 2804   4.608   5.526   0.847
  635SOL    HW2 2805   4.485   5.632   0.872
  636SOL     OW 2806   3.354   6.571   0.282
  636SOL    HW1 2807   3.410   6.517   0.344
  636SOL    HW2 2808   3.394   6.662   0.270
  637SOL     OW 2809   7.014   2.974   3.259
  637SOL    HW1 2810   6.922   3.012   3.247
  637SOL    HW2 2811   0.043   2.967   3.170
  638SOL     OW 2812   5.798   3.052   3.146
  638SOL    HW1 2813   5.867   3.076   3.078
  638SOL    HW2 2814   5.806   2.955   3.169
  639SOL     OW 2815   4.898   3.563   2.735
  639SOL    HW1 2816   4.857   3.475   2.710
  639SOL    HW2 2817   4.895   3.625   2.657
  640SOL     OW 2818   0.477   5.168   4.116
  640SOL    HW1 2819   0.538   5.105   4.164
  640SOL    HW2 2820   0.515   5.261   4.120
  641SOL     OW 2821   0.551   4.423   5.300
  641SOL    HW1 2822   0.596   4.404   5.213
  641SOL    HW2 2823   0.613   4.403   5.376
  642SOL     OW 2824   0.152   3.228   4.016
  642SOL    HW1 2825   0.201   3.260   4.098
  642SOL    HW2 2826   0.154   3.299   3.946
  643SOL     OW 2827   6.241   6.696   6.083
  643SOL    HW1 2828   6.189   6.782   6.087
  643SOL    HW2 2829   6.178   6.619   6.084
  644SOL     OW 2830   1.568   6.632   4.277
  644SOL    HW1 2831   1.519   6.624   4.190
  644SOL    HW2 2832   1.631   6.711   4.273
  645SOL     OW 2833   3.980   0.077   5.064
  645SOL    HW1 2834   4.073   0.040   5.059
  645SOL    HW2 2835   3.975   0.145   5.137
  646SOL     OW 2836   3.393   0.750   4.410
  646SOL    HW1 2837   3.437   0.693   4.479
  646SOL    HW2 2838   3.315   0.798   4.451
  647SOL     OW 2839   5.312   2.320   5.088
  647SOL    HW1 2840   5.238   2.285   5.030
  647SOL    HW2 2841   5.399   2.312   5.040
  648SOL     OW 2842   0.759   3.607   3.911
  648SOL    HW1 2843   0.672   3.643   3.945
  648SOL    HW2 2844   0.789   3.661   3.832
  649SOL     OW 2845   2.073   4.323   1.532
  649SOL    HW1 2846   1.995   4.386   1.536
  649SOL    HW2 2847   2.093   4.289   1.624
  650SOL     OW 2848   6.174   4.847   0.392
  650SOL    HW1 2849   6.113   4.857   0.314
  650SOL    HW2 2850   6.146   4.768   0.447
  651SOL     OW 2851   1.291   6.714   6.301
  651SOL    HW1 2852   1.252   6.707   6.393
  651SOL    HW2 2853   1.233   6.663   6.237
  652SOL     OW 2854   5.009   6.799   3.729
  652SOL    HW1 2855   4.978   6.747   3.650
  652SOL    HW2 2856   4.990   6.896   3.716
  653SOL     OW 2857   1.367   5.937   6.915
  653SOL    HW1 2858   1.408   5.980   6.834
  653SOL    HW2 2859   1.342   5.842   6.894
  654SOL     OW 2860   0.625   5.847   0.362
  654SOL    HW1 2861   0.683   5.849   0.444
  654SOL    HW2 2862   0.588   5.938   0.346
  655SOL     OW 2863   6.923   5.697   1.086
  655SOL    HW1 2864   6.984   5.771   1.060
  655SOL    HW2 2865   6.974   5.627   1.136
  656SOL     OW 2866   2.117   5.839   1.067
  656SOL    HW1 2867   2.140   5.914   1.129
  656SOL    HW2 2868   2.143   5.752   1.109
  657SOL     OW 2869   2.511   3.614   1.311
  657SOL    HW1 2870   2.466   3.650   1.229
  657SOL    HW2 2871   2.443   3.568   1.369
  658SOL     OW 2872   1.607   3.338   6.609
  658SOL    HW1 2873   1.553   3.289   6.541
  658SOL    HW2 2874   1.686   3.282   6.635
  659SOL     OW 2875   1.639   6.021   4.860
  659SOL    HW1 2876   1.661   5.925   4.877
  659SOL    HW2 2877   1.686   6.079   4.926
  660SOL     OW 2878   6.055   3.880   2.499
  660SOL    HW1 2879   6.106   3.800   2.466
  660SOL    HW2 2880   5.980   3.901   2.435
  661SOL     OW 2881   5.005   3.843   3.288
  661SOL    HW1 2882   5.098   3.880   3.291
  661SOL    HW2 2883   5.008   3.744   3.300
  662SOL     OW 2884   4.275   0.507   4.855
  662SOL    HW1 2885   4.250   0.456   4.773
  662SOL    HW2 2886   4.218   0.477   4.932
  663SOL     OW 2887   1.170   3.442   6.785
  663SOL    HW1 2888   1.126   3.359   6.819
  663SOL    HW2 2889   1.264   3.421   6.759
  664SOL     OW 2890   0.365   5.386   6.603
  664SOL    HW1 2891   0.287   5.437   6.568
  664SOL    HW2 2892   0.418   5.349   6.526
  665SOL     OW 2893   4.563   5.094   0.626
  665SOL    HW1 2894   4.490   5.131   0.683
  665SOL    HW2 2895   4.552   4.995   0.616
  666SOL     OW 2896   4.812   1.768   2.908
  666SOL    HW1 2897   4.781   1.793   3.000
  666SOL    HW2 2898   4.909   1.742   2.911
  667SOL     OW 2899   6.132   4.190   3.115
  667SOL    HW1 2900   6.176   4.113   3.161
  667SOL    HW2 2901   6.100   4.161   3.025
  668SOL     OW 2902   5.022   6.343   6.916
  668SOL    HW1 2903   5.053   6.420   6.972
  668SOL    HW2 2904   5.024   6.369   6.820
  669SOL     OW 2905   4.045   5.927   3.609
  669SOL    HW1 2906   3.955   5.962   3.581
  669SOL    HW2 2907   4.110   6.003   3.615
  670SOL     OW 2908   2.766   3.178   1.373
  670SOL    HW1 2909   2.848   3.226   1.404
  670SOL    HW2 2910   2.792   3.093   1.327
  671SOL     OW 2911   2.667   5.510   6.899
  671SOL    HW1 2912   2.627   5.517   6.990
  671SOL    HW2 2913   2.598   5.481   6.834
  672SOL     OW 2914   0.672   4.717   2.110
  672SOL    HW1 2915   0.764   4.700   2.075
  672SOL    HW2 2916   0.610   4.646   2.077
  673SOL     OW 2917   6.650   0.504   1.548
  673SOL    HW1 2918   6.672   0.557   1.466
  673SOL    HW2 2919   6.589   0.429   1.523
  674SOL     OW 2920   0.144   3.277   4.746
  674SOL    HW1 2921   0.063   3.290   4.804
  674SOL    HW2 2922   0.153   3.180   4.722
  675SOL     OW 2923   0.551   0.860   4.818
  675SOL    HW1 2924   0.636   0.871   4.868
  675SOL    HW2 2925   0.494   0.941   4.830
  676SOL     OW 2926   3.924   5.552   3.016
  676SOL    HW1 2927   3.842   5.561   3.073
  676SOL    HW2 2928   3.896   5.541   2.920
  677SOL     OW 2929   5.901   1.471   0.040
  677SOL    HW1 2930   5.821   1.524   0.065
  677SOL    HW2 2931   5.879   1.373   0.046
  678SOL     OW 2932   0.949   1.262   4.937
  678SOL    HW1 2933   0.929   1.222   4.848
  678SOL    HW2 2934   0.887   1.337   4.956
  679SOL     OW 2935   4.802   1.824   4.473
  679SOL    HW1 2936   4.865   1.901   4.463
  679SOL    HW2 2937   4.852   1.738   4.464
  680SOL     OW 2938   5.851   5.220   6.085
  680SOL    HW1 2939   5.875   5.305   6.038
  680SOL    HW2 2940   5.751   5.210   6.085
  681SOL     OW 2941   5.530   6.063   1.360
  681SOL    HW1 2942   5.621   6.104   1.357
  681SOL    HW2 2943   5.539   5.966   1.383
  682SOL     OW 2944   1.815   6.732   0.524
  682SOL    HW1 2945   1.784   6.786   0.446
  682SOL    HW2 2946   1.913   6.749   0.539
  683SOL     OW 2947   3.692   2.815   6.760
  683SOL    HW1 2948   3.726   2.877   6.690
  683SOL    HW2 2949   3.767   2.757   6.793
  684SOL     OW 2950   6.022   0.878   6.973
  684SOL    HW1 2951   6.091   0.940   6.937
  684SOL    HW2 2952   5.974   0.834   6.897
  685SOL     OW 2953   4.458   1.250   4.021
  685SOL    HW1 2954   4.376   1.206   3.985
  685SOL    HW2 2955   4.441   1.348   4.032
  686SOL     OW 2956   5.730   3.041   3.400
  686SOL    HW1 2957   5.639   3.004   3.380
  686SOL    HW2 2958   5.781   3.052   3.315
  687SOL     OW 2959   0.152   2.959   4.945
  687SOL    HW1 2960   0.233   2.905   4.966
  687SOL    HW2 2961   0.099   2.913   4.873
  688SOL     OW 2962   1.598   2.555   6.538
  688SOL    HW1 2963   1.635   2.472   6.579
  688SOL    HW2 2964   1.672   2.620   6.522
  689SOL     OW 2965   0.206   4.396   6.260
  689SOL    HW1 2966   0.269   4.334   6.307
  689SOL    HW2 2967   0.244   4.420   6.170
  690SOL     OW 2968   0.866   3.937   3.727
  690SOL    HW1 2969   0.847   4.002   3.801
  690SOL    HW2 2970   0.911   3.985   3.651
  691SOL     OW 2971   2.635   0.391   6.342
  691SOL    HW1 2972   2.636   0.341   6.255
  691SOL    HW2 2973   2.727   0.424   6.363
  692SOL     OW 2974   3.702   6.480   3.462
  692SOL    HW1 2975   3.786   6.527   3.435
  692SOL    HW2 2976   3.697   6.473   3.562
  693SOL     OW 2977   6.371   0.595   3.376
  693SOL    HW1 2978   6.307   0.542   3.320
  693SOL    HW2 2979   6.414   0.665   3.319
  694SOL     OW 2980   3.889   6.229   2.563
  694SOL    HW1 2981   3.884   6.146   2.507
  694SOL    HW2 2982   3.835   6.217   2.646
  695SOL     OW 2983   4.430   5.779   5.402
  695SOL    HW1 2984   4.338   5.742   5.417
  695SOL    HW2 2985   4.469   5.807   5.490
  696SOL     OW 2986   3.167   5.683   2.479
  696SOL    HW1 2987   3.172   5.639   2.568
  696SOL    HW2 2988   3.072   5.682   2.447
  697SOL     OW 2989   2.220   2.982   4.392
  697SOL    HW1 2990   2.288   2.914   4.368
  697SOL    HW2 2991   2.211   3.049   4.318
  698SOL     OW 2992   5.639   0.048   6.678
  698SOL    HW1 2993   5.605   0.062   6.585
  698SOL    HW2 2994   5.707   0.117   6.700
  699SOL     OW 2995   1.400   4.156   6.610
  699SOL    HW1 2996   1.480   4.109   6.647
  699SOL    HW2 2997   1.327   4.090   6.593
  700SOL     OW 2998   2.576   1.640   3.495
  700SOL    HW1 2999   2.655   1.680   3.449
  700SOL    HW2 3000   2.492   1.673   3.453
  701SOL     OW 3001   5.956   3.685   5.044
  701SOL    HW1 3002   5.947   3.637   5.131
  701SOL    HW2 3003   6.040   3.740   5.044
  702SOL     OW 3004   0.129   6.544   6.121
  702SOL    HW1 3005   0.085   6.593   6.046
  702SOL    HW2 3006   0.090   6.452   6.129
  703SOL     OW 3007   3.615   4.114   6.483
  703SOL    HW1 3008   3.687   4.174   6.449
  703SOL    HW2 3009   3.644   4.068   6.566
  704SOL     OW 3010   1.374   1.591   6.466
  704SOL    HW1 3011   1.406   1.603   6.560
  704SOL    HW2 3012   1.274   1.595   6.463
  705SOL     OW 3013   6.328   6.737   3.157
  705SOL    HW1 3014   6.414   6.696   3.126
  705SOL    HW2 3015   6.254   6.671   3.146
  706SOL     OW 3016   4.239   2.299   4.055
  706SOL    HW1 3017   4.158   2.243   4.038
  706SOL    HW2 3018   4.311   2.242   4.095
  707SOL     OW 3019   4.455   6.598   2.176
  707SOL    HW1 3020   4.393   6.565   2.105
  707SOL    HW2 3021   4.515   6.523   2.204
  708SOL     OW 3022   4.145   0.851   1.032
  708SOL    HW1 3023   4.076   0.790   0.993
  708SOL    HW2 3024   4.101   0.919   1.090
  709SOL     OW 3025   0.916   5.042   0.969
  709SOL    HW1 3026   0.937   5.102   1.047
  709SOL    HW2 3027   0.928   4.947   0.997
  710SOL     OW 3028   3.629   2.871   2.510
  710SOL    HW1 3029   3.635   2.831   2.419
  710SOL    HW2 3030   3.539   2.852   2.549
  711SOL     OW 3031   0.141   2.394   5.972
  711SOL    HW1 3032   0.182   2.337   5.901
  711SOL    HW2 3033   0.182   2.370   6.061
  712SOL     OW 3034   3.781   3.813   1.117
  712SOL    HW1 3035   3.783   3.839   1.020
  712SOL    HW2 3036   3.723   3.878   1.167
  713SOL     OW 3037   3.671   2.713   6.289
  713SOL    HW1 3038   3.719   2.758   6.213
  713SOL    HW2 3039   3.656   2.617   6.266
  714SOL     OW 3040   6.397   4.687   3.726
  714SOL    HW1 3041   6.318   4.746   3.709
  714SOL    HW2 3042   6.389   4.646   3.817
  715SOL     OW 3043   5.697   5.993   6.931
  715SOL    HW1 3044   5.712   5.961   6.838
  715SOL    HW2 3045   5.780   5.980   6.985
  716SOL     OW 3046   1.232   0.342   0.665
  716SOL    HW1 3047   1.184   0.292   0.738
  716SOL    HW2 3048   1.166   0.379   0.600
  717SOL     OW 3049   5.946   4.497   6.602
  717SOL    HW1 3050   5.956   4.594   6.576
  717SOL    HW2 3051   5.987   4.440   6.530
  718SOL     OW 3052   4.501   2.468   6.489
  718SOL    HW1 3053   4.579   2.521   6.522
  718SOL    HW2 3054   4.449   2.432   6.566
  719SOL     OW 3055   6.649   1.366   1.897
  719SOL    HW1 3056   6.676   1.367   1.993
  719SOL    HW2 3057   6.674   1.278   1.856
  720SOL     OW 3058   3.693   0.463   6.764
  720SOL    HW1 3059   3.782   0.501   6.790
  720SOL    HW2 3060   3.707   0.377   6.715
  721SOL     OW 3061   2.484   1.082   4.170
  721SOL    HW1 3062   2.411   1.128   4.120
  721SOL    HW2 3063   2.531   1.148   4.228
  722SOL     OW 3064   2.928   0.388   4.518
  722SOL    HW1 3065   2.980   0.367   4.601
  722SOL    HW2 3066   2.843   0.336   4.517
  723SOL     OW 3067   2.003   3.640   3.115
  723SOL    HW1 3068   2.064   3.628   3.036
  723SOL    HW2 3069   1.912   3.665   3.082
  724SOL     OW 3070   1.555   2.615   4.815
  724SOL    HW1 3071   1.577   2.700   4.768
  724SOL    HW2 3072   1.638   2.560   4.827
  725SOL     OW 3073   4.070   6.100   0.842
  725SOL    HW1 3074   4.132   6.170   0.807
  725SOL    HW2 3075   4.071   6.021   0.780
  726SOL     OW 3076   4.362   5.199   0.460
  726SOL    HW1 3077   4.445   5.152   0.491
  726SOL    HW2 3078   4.282   5.145   0.485
  727SOL     OW 3079   5.955   5.520   6.005
  727SOL    HW1 3080   5.879   5.535   5.942
  727SOL    HW2 3081   6.027   5.588   5.987
  728SOL     OW 3082   6.248   3.616   4.889
  728SOL    HW1 3083   6.208   3.694   4.841
  728SOL    HW2 3084   6.256   3.538   4.827
  729SOL     OW 3085   0.974   1.940   0.709
  729SOL    HW1 3086   1.074   1.943   0.713
  729SOL    HW2 3087   0.946   1.893   0.625
  730SOL     OW 3088   5.534   1.648   2.766
  730SOL    HW1 3089   5.589   1.611   2.691
  730SOL    HW2 3090   5.568   1.739   2.790
  731SOL     OW 3091   5.209   4.343   6.032
  731SOL    HW1 3092   5.223   4.274   6.103
  731SOL    HW2 3093   5.132   4.402   6.058
  732SOL     OW 3094   0.170   2.515   0.929
  732SOL    HW1 3095   0.147   2.418   0.940
  732SOL    HW2 3096   0.243   2.540   0.992
  733SOL     OW 3097   6.137   5.951   5.574
  733SOL    HW1 3098   6.201   5.934   5.649
  733SOL    HW2 3099   6.095   6.041   5.587
  734SOL     OW 3100   6.864   4.572   2.257
  734SOL    HW1 3101   6.886   4.578   2.354
  734SOL    HW2 3102   6.850   4.664   2.221
  735SOL     OW 3103   3.941   2.364   0.516
  735SOL    HW1 3104   3.847   2.349   0.483
  735SOL    HW2 3105   3.939   2.377   0.615
  736SOL     OW 3106   0.628   0.482   2.936
  736SOL    HW1 3107   0.584   0.411   2.881
  736SOL    HW2 3108   0.600   0.472   3.032
  737SOL     OW 3109   4.942   2.513   5.925
  737SOL    HW1 3110   4.906   2.580   5.989
  737SOL    HW2 3111   4.956   2.555   5.835
  738SOL     OW 3112   1.950   4.441   2.489
  738SOL    HW1 3113   2.040   4.456   2.530
  738SOL    HW2 3114   1.949   4.479   2.397
  739SOL     OW 3115   4.142   0.352   3.888
  739SOL    HW1 3116   4.094   0.318   3.808
  739SOL    HW2 3117   4.084   0.419   3.936
  740SOL     OW 3118   5.518   0.423   0.844
  740SOL    HW1 3119   5.433   0.371   0.853
  740SOL    HW2 3120   5.548   0.455   0.933
  741SOL     OW 3121   2.004   6.537   3.316
  741SOL    HW1 3122   2.062   6.618   3.306
  741SOL    HW2 3123   2.039   6.480   3.390
  742SOL     OW 3124   2.049   6.596   1.853
  742SOL    HW1 3125   2.012   6.545   1.931
  742SOL    HW2 3126   2.017   6.691   1.857
  743SOL     OW 3127   0.099   3.846   4.003
  743SOL    HW1 3128   0.121   3.938   3.971
  743SOL    HW2 3129   0.176   3.784   3.983
  744SOL     OW 3130   5.398   0.225   6.790
  744SOL    HW1 3131   5.366   0.207   6.697
  744SOL    HW2 3132   5.466   0.157   6.816
  745SOL     OW 3133   0.785   5.269   4.860
  745SOL    HW1 3134   0.870   5.270   4.914
  745SOL    HW2 3135   0.729   5.348   4.885
  746SOL     OW 3136   6.926   5.034   6.218
  746SOL    HW1 3137   6.901   4.978   6.139
  746SOL    HW2 3138   6.914   4.981   6.302
  747SOL     OW 3139   3.915   6.543   4.726
  747SOL    HW1 3140   4.010   6.565   4.749
  747SOL    HW2 3141   3.889   6.591   4.642
  748SOL     OW 3142   3.277   5.173   2.488
  748SOL    HW1 3143   3.193   5.211   2.448
  748SOL    HW2 3144   3.260   5.148   2.583
  749SOL     OW 3145   6.425   4.291   5.112
  749SOL    HW1 3146   6.514   4.335   5.103
  749SOL    HW2 3147   6.353   4.355   5.082
  750SOL     OW 3148   2.128   2.078   0.721
  750SOL    HW1 3149   2.150   2.118   0.631
  750SOL    HW2 3150   2.213   2.054   0.768
  751SOL     OW 3151   3.741   2.374   6.551
  751SOL    HW1 3152   3.666   2.405   6.493
  751SOL    HW2 3153   3.772   2.284   6.520
  752SOL     OW 3154   3.552   1.453   2.282
  752SOL    HW1 3155   3.542   1.521   2.209
  752SOL    HW2 3156   3.468   1.399   2.288
  753SOL     OW 3157   1.796   3.535   4.940
  753SOL    HW1 3158   1.725   3.537   4.870
  753SOL    HW2 3159   1.805   3.626   4.982
  754SOL     OW 3160   5.439   2.748   5.720
  754SOL    HW1 3161   5.443   2.835   5.672
  754SOL    HW2 3162   5.386   2.682   5.667
  755SOL     OW 3163   1.892   4.526   5.515
  755SOL    HW1 3164   1.935   4.556   5.599
  755SOL    HW2 3165   1.855   4.606   5.466
  756SOL     OW 3166   3.603   0.202   0.689
  756SOL    HW1 3167   3.661   0.167   0.763
  756SOL    HW2 3168   3.553   0.125   0.648
  757SOL     OW 3169   0.670   0.175   4.014
  757SOL    HW1 3170   0.649   0.078   4.031
  757SOL    HW2 3171   0.754   0.199   4.062
  758SOL     OW 3172   3.881   6.795   1.851
  758SOL    HW1 3173   3.909   6.790   1.755
  758SOL    HW2 3174   3.813   6.868   1.862
  759SOL     OW 3175   0.974   1.188   1.293
  759SOL    HW1 3176   0.923   1.245   1.229
  759SOL    HW2 3177   0.958   1.221   1.386
  760SOL     OW 3178   5.002   0.412   5.445
  760SOL    HW1 3179   4.980   0.456   5.532
  760SOL    HW2 3180   4.981   0.474   5.370
  761SOL     OW 3181   5.843   3.065   5.669
  761SOL    HW1 3182   5.941   3.081   5.678
  761SOL    HW2 3183   5.820   2.976   5.709
  762SOL     OW 3184   2.797   0.754   4.963
  762SOL    HW1 3185   2.788   0.827   4.895
  762SOL    HW2 3186   2.867   0.779   5.030
  763SOL     OW 3187   4.257   5.049   6.304
  763SOL    HW1 3188   4.307   4.977   6.256
  763SOL    HW2 3189   4.314   5.086   6.377
  764SOL     OW 3190   5.033   1.704   4.892
  764SOL    HW1 3191   5.016   1.706   4.991
  764SOL    HW2 3192   5.115   1.650   4.873
  765SOL     OW 3193   1.194   6.278   1.295
  765SOL    HW1 3194   1.274   6.301   1.241
  765SOL    HW2 3195   1.179   6.179   1.292
  766SOL     OW 3196   2.324   3.534   6.838
  766SOL    HW1 3197   2.370   3.580   6.915
  766SOL    HW2 3198   2.303   3.600   6.767
  767SOL     OW 3199   6.515   6.011   1.765
  767SOL    HW1 3200   6.434   5.959   1.737
  767SOL    HW2 3201   6.596   5.953   1.760
  768SOL     OW 3202   1.862   6.283   1.831
  768SOL    HW1 3203   1.960   6.274   1.813
  768SOL    HW2 3204   1.842   6.377   1.856
  769SOL     OW 3205   3.231   0.796   4.992
  769SOL    HW1 3206   3.235   0.894   5.011
  769SOL    HW2 3207   3.181   0.781   4.906
  770SOL     OW 3208   2.160   4.092   3.008
  770SOL    HW1 3209   2.153   4.050   3.099
  770SOL    HW2 3210   2.229   4.164   3.010
  771SOL     OW 3211   2.646   5.379   2.544
  771SOL    HW1 3212   2.589   5.357   2.622
  771SOL    HW2 3213   2.610   5.334   2.462
  772SOL     OW 3214   5.368   5.017   0.790
  772SOL    HW1 3215   5.316   5.019   0.704
  772SOL    HW2 3216   5.460   4.984   0.771
  773SOL     OW 3217   0.363   3.425   4.790
  773SOL    HW1 3218   0.437   3.363   4.816
  773SOL    HW2 3219   0.277   3.374   4.784
  774SOL     OW 3220   1.429   1.755   1.341
  774SOL    HW1 3221   1.510   1.716   1.298
  774SOL    HW2 3222   1.356   1.763   1.274
  775SOL     OW 3223   0.492   2.628   2.608
  775SOL    HW1 3224   0.450   2.554   2.556
  775SOL    HW2 3225   0.447   2.636   2.697
  776SOL     OW 3226   0.731   6.647   6.391
  776SOL    HW1 3227   0.753   6.741   6.415
  776SOL    HW2 3228   0.809   6.605   6.346
  777SOL     OW 3229   2.517   4.971   1.195
  777SOL    HW1 3230   2.424   4.938   1.210
  777SOL    HW2 3231   2.581   4.894   1.201
  778SOL     OW 3232   2.939   1.518   2.350
  778SOL    HW1 3233   3.027   1.512   2.397
  778SOL    HW2 3234   2.901   1.426   2.337
  779SOL     OW 3235   0.031   2.554   2.380
  779SOL    HW1 3236   0.103   2.622   2.366
  779SOL    HW2 3237   7.003   2.533   2.293
  780SOL     OW 3238   6.430   4.185   3.621
  780SOL    HW1 3239   6.420   4.283   3.605
  780SOL    HW2 3240   6.519   4.154   3.590
  781SOL     OW 3241   5.589   0.798   7.001
  781SOL    HW1 3242   5.493   0.777   0.005
  781SOL    HW2 3243   5.646   0.720   0.013
  782SOL     OW 3244   1.646   4.086   6.704
  782SOL    HW1 3245   1.705   4.059   6.629
  782SOL    HW2 3246   1.692   4.155   6.760
  783SOL     OW 3247   3.921   5.295   1.024
  783SOL    HW1 3248   3.979   5.375   1.009
  783SOL    HW2 3249   3.849   5.292   0.955
  784SOL     OW 3250   5.541   6.485   0.578
  784SOL    HW1 3251   5.444   6.466   0.592
  784SOL    HW2 3252   5.552   6.545   0.499
  785SOL     OW 3253   0.416   2.607   2.876
  785SOL    HW1 3254   0.317   2.598   2.882
  785SOL    HW2 3255   0.458   2.564   2.956
  786SOL     OW 3256   1.422   0.748   1.226
  786SOL    HW1 3257   1.380   0.755   1.316
  786SOL    HW2 3258   1.402   0.831   1.174
  787SOL     OW 3259   3.593   0.134   6.682
  787SOL    HW1 3260   3.503   0.150   6.642
  787SOL    HW2 3261   3.590   0.051   6.738
  788SOL     OW 3262   4.026   3.029   5.454
  788SOL    HW1 3263   3.977   2.976   5.385
  788SOL    HW2 3264   3.982   3.017   5.543
  789SOL     OW 3265   5.105   4.232   0.511
  789SOL    HW1 3266   5.082   4.288   0.431
  789SOL    HW2 3267   5.091   4.135   0.488
  790SOL     OW 3268   1.514   1.470   4.045
  790SOL    HW1 3269   1.543   1.511   4.131
  790SOL    HW2 3270   1.417   1.444   4.051
  791SOL     OW 3271   3.569   5.443   4.161
  791SOL    HW1 3272   3.526   5.482   4.080
  791SOL    HW2 3273   3.546   5.346   4.167
  792SOL     OW 3274   0.678   6.960   1.256
  792SOL    HW1 3275   0.676   6.860   1.267
  792SOL    HW2 3276   0.584   6.994   1.249
  793SOL     OW 3277   4.808   5.164   3.722
  793SOL    HW1 3278   4.862   5.195   3.644
  793SOL    HW2 3279   4.729   5.224   3.734
  794SOL     OW 3280   3.407   3.767   5.457
  794SOL    HW1 3281   3.381   3.808   5.544
  794SOL    HW2 3282   3.408   3.668   5.466
  795SOL     OW 3283   3.735   6.867   4.079
  795SOL    HW1 3284   3.741   6.769   4.095
  795SOL    HW2 3285   3.826   6.908   4.086
  796SOL     OW 3286   0.808   1.702   6.537
  796SOL    HW1 3287   0.887   1.673   6.484
  796SOL    HW2 3288   0.725   1.667   6.494
  797SOL     OW 3289   5.254   3.025   1.330
  797SOL    HW1 3290   5.291   3.044   1.239
  797SOL    HW2 3291   5.233   2.928   1.338
  798SOL     OW 3292   4.558   0.174   2.100
  798SOL    HW1 3293   4.506   0.163   2.185
  798SOL    HW2 3294   4.637   0.232   2.117
  799SOL     OW 3295   6.264   0.711   5.866
  799SOL    HW1 3296   6.340   0.770   5.841
  799SOL    HW2 3297   6.297   0.619   5.884
  800SOL     OW 3298   5.249   2.048   2.642
  800SOL    HW1 3299   5.265   2.113   2.569
  800SOL    HW2 3300   5.157   2.060   2.679
  801SOL     OW 3301   1.265   3.513   4.454
  801SOL    HW1 3302   1.362   3.488   4.460
  801SOL    HW2 3303   1.256   3.603   4.411
  802SOL     OW 3304   4.485   1.375   0.544
  802SOL    HW1 3305   4.496   1.422   0.457
  802SOL    HW2 3306   4.470   1.277   0.527
  803SOL     OW 3307   0.342   6.821   5.031
  803SOL    HW1 3308   0.252   6.803   4.991
  803SOL    HW2 3309   0.336   6.808   5.131
  804SOL     OW 3310   5.404   5.402   6.399
  804SOL    HW1 3311   5.376   5.492   6.364
  804SOL    HW2 3312   5.399   5.335   6.325
  805SOL     OW 3313   3.711   0.541   5.508
  805SOL    HW1 3314   3.655   0.535   5.425
  805SOL    HW2 3315   3.771   0.461   5.515
  806SOL     OW 3316   4.901   1.449   4.315
  806SOL    HW1 3317   4.948   1.534   4.294
  806SOL    HW2 3318   4.873   1.449   4.411
  807SOL     OW 3319   1.054   1.977   3.794
  807SOL    HW1 3320   0.994   1.900   3.817
  807SOL    HW2 3321   1.123   1.946   3.728
  808SOL     OW 3322   4.345   3.612   6.678
  808SOL    HW1 3323   4.427   3.669   6.692
  808SOL    HW2 3324   4.373   3.519   6.655
  809SOL     OW 3325   6.874   5.396   1.957
  809SOL    HW1 3326   6.874   5.360   1.863
  809SOL    HW2 3327   6.880   5.496   1.954
  810SOL     OW 3328   3.279   2.753   1.130
  810SOL    HW1 3329   3.351   2.792   1.187
  810SOL    HW2 3330   3.307   2.755   1.034
  811SOL     OW 3331   3.907   5.936   5.014
  811SOL    HW1 3332   3.871   5.901   4.927
  811SOL    HW2 3333   3.860   6.021   5.038
  812SOL     OW 3334   0.296   1.519   1.892
  812SOL    HW1 3335   0.387   1.496   1.858
  812SOL    HW2 3336   0.280   1.617   1.881
  813SOL     OW 3337   3.394   6.389   5.427
  813SOL    HW1 3338   3.306   6.344   5.410
  813SOL    HW2 3339   3.463   6.319   5.447
  814SOL     OW 3340   6.515   6.436   2.574
  814SOL    HW1 3341   6.441   6.400   2.630
  814SOL    HW2 3342   6.507   6.536   2.568
  815SOL     OW 3343   0.410   3.938   3.317
  815SOL    HW1 3344   0.385   3.918   3.222
  815SOL    HW2 3345   0.442   3.855   3.361
  816SOL     OW 3346   6.339   6.520   0.497
  816SOL    HW1 3347   6.283   6.445   0.462
  816SOL    HW2 3348   6.433   6.510   0.463
  817SOL     OW 3349   1.973   3.609   1.006
  817SOL    HW1 3350   1.948   3.705   0.990
  817SOL    HW2 3351   2.063   3.605   1.049
  818SOL     OW 3352   6.415   2.924   2.033
  818SOL    HW1 3353   6.319   2.927   2.008
  818SOL    HW2 3354   6.435   2.837   2.079
  819SOL     OW 3355   5.661   2.837   2.787
  819SOL    HW1 3356   5.733   2.885   2.737
  819SOL    HW2 3357   5.700   2.760   2.837
  820SOL     OW 3358   2.856   2.908   5.847
  820SOL    HW1 3359   2.821   2.826   5.803
  820SOL    HW2 3360   2.896   2.968   5.779
  821SOL     OW 3361   1.234   4.145   0.786
  821SOL    HW1 3362   1.206   4.096   0.868
  821SOL    HW2 3363   1.293   4.087   0.730
  822SOL     OW 3364   1.566   4.588   4.763
  822SOL    HW1 3365   1.539   4.678   4.729
  822SOL    HW2 3366   1.616   4.539   4.691
  823SOL     OW 3367   5.476   3.890   6.723
  823SOL    HW1 3368   5.535   3.960   6.683
  823SOL    HW2 3369   5.529   3.806   6.739
  824SOL     OW 3370   5.256   1.370   5.655
  824SOL    HW1 3371   5.304   1.378   5.743
  824SOL    HW2 3372   5.261   1.458   5.607
  825SOL     OW 3373   0.502   4.286   1.205
  825SOL    HW1 3374   0.472   4.308   1.113
  825SOL    HW2 3375   0.431   4.311   1.271
  826SOL     OW 3376   5.374   2.947   5.451
  826SOL    HW1 3377   5.445   2.880   5.425
  826SOL    HW2 3378   5.418   3.030   5.484
  827SOL     OW 3379   3.617   4.833   5.633
  827SOL    HW1 3380   3.538   4.887   5.603
  827SOL    HW2 3381   3.618   4.746   5.584
  828SOL     OW 3382   4.797   6.739   6.558
  828SOL    HW1 3383   4.697   6.736   6.558
  828SOL    HW2 3384   4.829   6.798   6.484
  829SOL     OW 3385   3.034   3.845   3.209
  829SOL    HW1 3386   3.054   3.922   3.148
  829SOL    HW2 3387   3.040   3.875   3.304
  830SOL     OW 3388   4.246   4.511   6.336
  830SOL    HW1 3389   4.256   4.457   6.252
  830SOL    HW2 3390   4.239   4.608   6.313
  831SOL     OW 3391   5.698   1.002   6.416
  831SOL    HW1 3392   5.623   1.051   6.371
  831SOL    HW2 3393   5.662   0.920   6.460
  832SOL     OW 3394   3.268   0.770   2.113
  832SOL    HW1 3395   3.206   0.693   2.132
  832SOL    HW2 3396   3.327   0.785   2.192
  833SOL     OW 3397   0.401   3.793   5.336
  833SOL    HW1 3398   0.383   3.711   5.282
  833SOL    HW2 3399   0.437   3.766   5.426
  834SOL     OW 3400   3.438   3.804   0.856
  834SOL    HW1 3401   3.419   3.706   0.847
  834SOL    HW2 3402   3.408   3.852   0.773
  835SOL     OW 3403   3.314   0.351   5.127
  835SOL    HW1 3404   3.275   0.443   5.133
  835SOL    HW2 3405   3.241   0.284   5.136
  836SOL     OW 3406   3.882   6.276   0.040
  836SOL    HW1 3407   3.839   6.289   6.967
  836SOL    HW2 3408   3.981   6.284   0.030
  837SOL     OW 3409   5.759   6.679   0.402
  837SOL    HW1 3410   5.675   6.732   0.387
  837SOL    HW2 3411   5.835   6.720   0.352
  838SOL     OW 3412   2.051   0.634   4.570
  838SOL    HW1 3413   2.054   0.536   4.549
  838SOL    HW2 3414   2.144   0.671   4.569
  839SOL     OW 3415   2.615   2.478   2.009
  839SOL    HW1 3416   2.664   2.482   1.921
  839SOL    HW2 3417   2.641   2.395   2.057
  840SOL     OW 3418   5.879   6.705   6.811
  840SOL    HW1 3419   5.907   6.703   6.907
  840SOL    HW2 3420   5.828   6.622   6.788
  841SOL     OW 3421   4.189   4.947   6.882
  841SOL    HW1 3422   4.156   5.032   6.923
  841SOL    HW2 3423   4.116   4.907   6.826
  842SOL     OW 3424   4.114   6.994   4.738
  842SOL    HW1 3425   4.149   6.962   4.825
  842SOL    HW2 3426   4.136   0.075   4.726
  843SOL     OW 3427   1.757   1.280   1.055
  843SOL    HW1 3428   1.780   1.258   0.960
  843SOL    HW2 3429   1.837   1.263   1.113
  844SOL     OW 3430   6.160   0.600   0.851
  844SOL    HW1 3431   6.255   0.618   0.826
  844SOL    HW2 3432   6.145   0.501   0.856
  845SOL     OW 3433   5.780   4.189   5.171
  845SOL    HW1 3434   5.699   4.187   5.230
  845SOL    HW2 3435   5.782   4.106   5.115
  846SOL     OW 3436   2.263   2.044   0.089
  846SOL    HW1 3437   2.181   2.083   0.132
  846SOL    HW2 3438   2.237   1.972   0.025
  847SOL     OW 3439   1.451   3.052   1.104
  847SOL    HW1 3440   1.427   3.106   1.184
  847SOL    HW2 3441   1.535   3.001   1.122
  848SOL     OW 3442   5.454   0.818   6.073
  848SOL    HW1 3443   5.521   0.888   6.098
  848SOL    HW2 3444   5.443   0.754   6.149
  849SOL     OW 3445   0.532   4.255   6.147
  849SOL    HW1 3446   0.627   4.240   6.176
  849SOL    HW2 3447   0.475   4.272   6.227
  850SOL     OW 3448   5.178   0.903   3.334
  850SOL    HW1 3449   5.177   0.831   3.265
  850SOL    HW2 3450   5.098   0.962   3.322
  851SOL     OW 3451   0.577   1.985   2.267
  851SOL    HW1 3452   0.490   2.017   2.304
  851SOL    HW2 3453   0.644   2.059   2.269
  852SOL     OW 3454   1.546   2.712   0.210
  852SOL    HW1 3455   1.569   2.755   0.297
  852SOL    HW2 3456   1.463   2.657   0.220
  853SOL     OW 3457   1.755   4.399   2.793
  853SOL    HW1 3458   1.850   4.391   2.822
  853SOL    HW2 3459   1.706   4.315   2.818
  854SOL     OW 3460   4.596   5.738   1.658
  854SOL    HW1 3461   4.539   5.820   1.664
  854SOL    HW2 3462   4.582   5.694   1.570
  855SOL     OW 3463   0.156   0.229   1.819
  855SOL    HW1 3464   0.179   0.324   1.838
  855SOL    HW2 3465   0.164   0.211   1.720
  856SOL     OW 3466   1.316   1.532   5.449
  856SOL    HW1 3467   1.247   1.510   5.519
  856SOL    HW2 3468   1.399   1.479   5.467
  857SOL     OW 3469   6.076   5.016   1.671
  857SOL    HW1 3470   6.103   4.941   1.731
  857SOL    HW2 3471   6.152   5.038   1.609
  858SOL     OW 3472   2.973   3.740   1.298
  858SOL    HW1 3473   3.024   3.712   1.379
  858SOL    HW2 3474   2.877   3.713   1.308
  859SOL     OW 3475   4.591   5.444   5.602
  859SOL    HW1 3476   4.500   5.487   5.601
  859SOL    HW2 3477   4.599   5.381   5.525
  860SOL     OW 3478   4.530   3.854   0.963
  860SOL    HW1 3479   4.527   3.803   1.049
  860SOL    HW2 3480   4.531   3.790   0.886
  861SOL     OW 3481   2.429   0.442   3.637
  861SOL    HW1 3482   2.330   0.457   3.628
  861SOL    HW2 3483   2.466   0.510   3.700
  862SOL     OW 3484   0.382   3.540   5.227
  862SOL    HW1 3485   0.477   3.507   5.224
  862SOL    HW2 3486   0.322   3.465   5.255
  863SOL     OW 3487   6.986   0.284   0.686
  863SOL    HW1 3488   6.960   0.273   0.590
  863SOL    HW2 3489   6.915   0.244   0.744
  864SOL     OW 3490   4.082   4.843   3.587
  864SOL    HW1 3491   4.027   4.853   3.670
  864SOL    HW2 3492   4.168   4.798   3.610
  865SOL     OW 3493   1.239   5.884   6.172
  865SOL    HW1 3494   1.163   5.949   6.167
  865SOL    HW2 3495   1.204   5.791   6.167
  866SOL     OW 3496   1.560   2.153   2.323
  866SOL    HW1 3497   1.469   2.135   2.360
  866SOL    HW2 3498   1.553   2.176   2.226
  867SOL     OW 3499   3.763   3.861   0.866
  867SOL    HW1 3500   3.671   3.823   0.865
  867SOL    HW2 3501   3.823   3.805   0.809
  868SOL     OW 3502   5.565   0.147   1.239
  868SOL    HW1 3503   5.485   0.089   1.254
  868SOL    HW2 3504   5.554   0.233   1.290
  869SOL     OW 3505   6.345   5.160   2.841
  869SOL    HW1 3506   6.281   5.105   2.894
  869SOL    HW2 3507   6.430   5.172   2.893
  870SOL     OW 3508   4.219   3.105   0.920
  870SOL    HW1 3509   4.217   3.078   1.017
  870SOL    HW2 3510   4.148   3.174   0.903
  871SOL     OW 3511   4.805   3.042   3.102
  871SOL    HW1 3512   4.827   3.102   3.180
  871SOL    HW2 3513   4.757   2.961   3.135
  872SOL     OW 3514   5.456   4.026   3.806
  872SOL    HW1 3515   5.527   3.969   3.847
  872SOL    HW2 3516   5.495   4.113   3.776
  873SOL     OW 3517   5.549   6.655   4.324
  873SOL    HW1 3518   5.645   6.664   4.351
  873SOL    HW2 3519   5.491   6.657   4.406
  874SOL     OW 3520   0.905   4.646   5.731
  874SOL    HW1 3521   0.816   4.601   5.735
  874SOL    HW2 3522   0.928   4.683   5.821
  875SOL     OW 3523   3.614   2.793   0.744
  875SOL    HW1 3524   3.671   2.864   0.701
  875SOL    HW2 3525   3.619   2.709   0.690
  876SOL     OW 3526   0.682   5.436   3.217
  876SOL    HW1 3527   0.647   5.398   3.131
  876SOL    HW2 3528   0.774   5.400   3.234
  877SOL     OW 3529   4.024   3.623   6.831
  877SOL    HW1 3530   4.117   3.587   6.819
  877SOL    HW2 3531   3.965   3.585   6.760
  878SOL     OW 3532   4.281   5.529   5.325
  878SOL    HW1 3533   4.283   5.430   5.341
  878SOL    HW2 3534   4.357   5.555   5.265
  879SOL     OW 3535   2.733   2.106   1.952
  879SOL    HW1 3536   2.670   2.084   2.027
  879SOL    HW2 3537   2.783   2.190   1.974
  880SOL     OW 3538   3.307   3.882   5.689
  880SOL    HW1 3539   3.364   3.916   5.763
  880SOL    HW2 3540   3.254   3.958   5.650
  881SOL     OW 3541   4.624   4.044   5.215
  881SOL    HW1 3542   4.711   3.998   5.203
  881SOL    HW2 3543   4.617   4.120   5.150
  882SOL     OW 3544   1.606   1.657   3.870
  882SOL    HW1 3545   1.574   1.574   3.917
  882SOL    HW2 3546   1.553   1.735   3.901
  883SOL     OW 3547   4.630   5.430   5.878
  883SOL    HW1 3548   4.623   5.407   5.781
  883SOL    HW2 3549   4.629   5.529   5.889
  884SOL     OW 3550   0.286   3.945   0.161
  884SOL    HW1 3551   0.362   3.887   0.189
  884SOL    HW2 3552   0.294   3.966   0.063
  885SOL     OW 3553   5.130   5.461   6.087
  885SOL    HW1 3554   5.194   5.532   6.057
  885SOL    HW2 3555   5.037   5.498   6.086
  886SOL     OW 3556   3.745   0.556   0.774
  886SOL    HW1 3557   3.664   0.501   0.752
  886SOL    HW2 3558   3.804   0.505   0.837
  887SOL     OW 3559   4.011   6.924   4.099
  887SOL    HW1 3560   4.014   0.007   4.087
  887SOL    HW2 3561   4.103   6.889   4.116
  888SOL     OW 3562   5.792   6.269   2.758
  888SOL    HW1 3563   5.706   6.320   2.753
  888SOL    HW2 3564   5.854   6.300   2.686
  889SOL     OW 3565   1.894   6.419   5.454
  889SOL    HW1 3566   1.887   6.496   5.518
  889SOL    HW2 3567   1.957   6.351   5.492
  890SOL     OW 3568   2.280   4.732   2.025
  890SOL    HW1 3569   2.266   4.802   2.095
  890SOL    HW2 3570   2.203   4.731   1.962
  891SOL     OW 3571   6.239   4.209   1.136
  891SOL    HW1 3572   6.166   4.202   1.069
  891SOL    HW2 3573   6.327   4.193   1.092
  892SOL     OW 3574   3.993   4.193   5.916
  892SOL    HW1 3575   3.965   4.097   5.912
  892SOL    HW2 3576   4.025   4.223   5.826
  893SOL     OW 3577   2.002   1.118   2.541
  893SOL    HW1 3578   2.010   1.167   2.628
  893SOL    HW2 3579   2.084   1.064   2.526
  894SOL     OW 3580   1.485   2.260   3.874
  894SOL    HW1 3581   1.451   2.292   3.786
  894SOL    HW2 3582   1.563   2.199   3.859
  895SOL     OW 3583   1.245   6.008   4.971
  895SOL    HW1 3584   1.269   6.004   4.874
  895SOL    HW2 3585   1.301   5.943   5.022
  896SOL     OW 3586   5.663   7.008   2.206
  896SOL    HW1 3587   5.566   7.006   2.185
  896SOL    HW2 3588   5.714   0.031   2.129
  897SOL     OW 3589   5.025   1.179   0.277
  897SOL    HW1 3590   4.932   1.144   0.280
  897SOL    HW2 3591   5.028   1.270   0.319
  898SOL     OW 3592   4.146   5.631   2.818
  898SOL    HW1 3593   4.135   5.659   2.913
  898SOL    HW2 3594   4.056   5.629   2.773
  899SOL     OW 3595   0.159   5.243   0.214
  899SOL    HW1 3596   0.084   5.304   0.238
  899SOL    HW2 3597   0.139   5.151   0.248
  900SOL     OW 3598   4.871   5.935   1.659
  900SOL    HW1 3599   4.941   5.865   1.648
  900SOL    HW2 3600   4.798   5.920   1.592
  901SOL     OW 3601   1.168   0.981   5.816
  901SOL    HW1 3602   1.167   1.073   5.776
  901SOL    HW2 3603   1.140   0.986   5.912
  902SOL     OW 3604   6.967   2.042   6.940
  902SOL    HW1 3605   6.890   1.978   6.936
  902SOL    HW2 3606   0.014   2.023   6.865
  903SOL     OW 3607   6.708   3.874   6.403
  903SOL    HW1 3608   6.650   3.942   6.447
  903SOL    HW2 3609   6.682   3.783   6.435
  904SOL     OW 3610   1.880   2.597   3.605
  904SOL    HW1 3611   1.831   2.647   3.533
  904SOL    HW2 3612   1.823   2.522   3.638
  905SOL     OW 3613   4.619   3.858   6.425
  905SOL    HW1 3614   4.588   3.766   6.401
  905SOL    HW2 3615   4.558   3.926   6.383
  906SOL     OW 3616   0.863   3.610   5.862
  906SOL    HW1 3617   0.843   3.630   5.766
  906SOL    HW2 3618   0.833   3.687   5.919
  907SOL     OW 3619   5.845   3.161   2.890
  907SOL    HW1 3620   5.899   3.095   2.838
  907SOL    HW2 3621   5.749   3.133   2.890
  908SOL     OW 3622   1.699   6.178   3.379
  908SOL    HW1 3623   1.742   6.159   3.468
  908SOL    HW2 3624   1.733   6.113   3.311
  909SOL     OW 3625   2.522   6.363   1.923
  909SOL    HW1 3626   2.566   6.354   1.833
  909SOL    HW2 3627   2.424   6.373   1.911
  910SOL     OW 3628   2.573   0.473   1.233
  910SOL    HW1 3629   2.485   0.519   1.227
  910SOL    HW2 3630   2.615   0.469   1.142
  911SOL     OW 3631   0.091   5.291   1.028
  911SOL    HW1 3632   0.108   5.271   1.125
  911SOL    HW2 3633   0.175   5.274   0.976
  912SOL     OW 3634   6.216   0.737   4.770
  912SOL    HW1 3635   6.190   0.671   4.699
  912SOL    HW2 3636   6.316   0.748   4.770
  913SOL     OW 3637   1.860   0.474   3.521
  913SOL    HW1 3638   1.804   0.391   3.521
  913SOL    HW2 3639   1.860   0.514   3.429
  914SOL     OW 3640   2.967   6.162   4.917
  914SOL    HW1 3641   2.924   6.249   4.945
  914SOL    HW2 3642   2.995   6.168   4.822
  915SOL     OW 3643   1.381   3.131   0.113
  915SOL    HW1 3644   1.416   3.180   0.034
  915SOL    HW2 3645   1.423   3.167   0.196
  916SOL     OW 3646   1.628   2.581   1.939
  916SOL    HW1 3647   1.656   2.486   1.938
  916SOL    HW2 3648   1.619   2.615   1.845
  917SOL     OW 3649   5.369   0.492   1.911
  917SOL    HW1 3650   5.281   0.534   1.932
  917SOL    HW2 3651   5.421   0.480   1.995
  918SOL     OW 3652   2.635   6.792   6.687
  918SOL    HW1 3653   2.537   6.814   6.689
  918SOL    HW2 3654   2.653   6.714   6.747
  919SOL     OW 3655   6.738   5.737   2.405
  919SOL    HW1 3656   6.771   5.645   2.384
  919SOL    HW2 3657   6.796   5.805   2.359
  920SOL     OW 3658   1.877   5.911   3.594
  920SOL    HW1 3659   1.870   6.010   3.582
  920SOL    HW2 3660   1.938   5.891   3.671
  921SOL     OW 3661   4.668   4.195   3.915
  921SOL    HW1 3662   4.692   4.183   3.818
  921SOL    HW2 3663   4.697   4.114   3.966
  922SOL     OW 3664   3.308   2.798   5.879
  922SOL    HW1 3665   3.366   2.751   5.813
  922SOL    HW2 3666   3.218   2.754   5.882
  923SOL     OW 3667   2.851   4.583   6.452
  923SOL    HW1 3668   2.809   4.551   6.537
  923SOL    HW2 3669   2.890   4.505   6.403
  924SOL     OW 3670   6.565   2.704   2.746
  924SOL    HW1 3671   6.500   2.750   2.806
  924SOL    HW2 3672   6.582   2.611   2.779
  925SOL     OW 3673   0.121   1.920   5.991
  925SOL    HW1 3674   0.027   1.915   6.025
  925SOL    HW2 3675   0.140   1.843   5.931
  926SOL     OW 3676   6.706   0.762   0.272
  926SOL    HW1 3677   6.701   0.841   0.212
  926SOL    HW2 3678   6.683   0.789   0.365
  927SOL     OW 3679   5.524   4.246   3.232
  927SOL    HW1 3680   5.461   4.219   3.160
  927SOL    HW2 3681   5.617   4.221   3.207
  928SOL     OW 3682   1.682   6.677   0.789
  928SOL    HW1 3683   1.715   6.678   0.695
  928SOL    HW2 3684   1.640   6.766   0.811
  929SOL     OW 3685   0.845   0.874   1.269
  929SOL    HW1 3686   0.768   0.939   1.269
  929SOL    HW2 3687   0.929   0.922   1.245
  930SOL     OW 3688   5.510   5.929   4.643
  930SOL    HW1 3689   5.573   5.881   4.704
  930SOL    HW2 3690   5.422   5.939   4.688
  931SOL     OW 3691   5.554   3.608   2.400
  931SOL    HW1 3692   5.584   3.555   2.321
  931SOL    HW2 3693   5.616   3.686   2.412
  932SOL     OW 3694   2.865   6.593   2.616
  932SOL    HW1 3695   2.931   6.593   2.691
  932SOL    HW2 3696   2.884   6.516   2.555
  933SOL     OW 3697   0.749   5.692   3.268
  933SOL    HW1 3698   0.728   5.598   3.239
  933SOL    HW2 3699   0.729   5.755   3.194
  934SOL     OW 3700   1.468   1.008   4.813
  934SOL    HW1 3701   1.392   1.057   4.856
  934SOL    HW2 3702   1.434   0.924   4.771
  935SOL     OW 3703   5.137   3.753   5.409
  935SOL    HW1 3704   5.098   3.752   5.502
  935SOL    HW2 3705   5.131   3.661   5.371
  936SOL     OW 3706   1.499   1.335   6.306
  936SOL    HW1 3707   1.441   1.391   6.364
  936SOL    HW2 3708   1.579   1.305   6.357
  937SOL     OW 3709   4.674   1.412   4.489
  937SOL    HW1 3710   4.691   1.431   4.585
  937SOL    HW2 3711   4.619   1.486   4.449
  938SOL     OW 3712   0.394   5.305   6.351
  938SOL    HW1 3713   0.324   5.251   6.305
  938SOL    HW2 3714   0.438   5.367   6.286
  939SOL     OW 3715   4.555   0.959   5.439
  939SOL    HW1 3716   4.649   0.954   5.472
  939SOL    HW2 3717   4.508   1.036   5.482
  940SOL     OW 3718   0.622   3.193   2.829
  940SOL    HW1 3719   0.715   3.206   2.795
  940SOL    HW2 3720   0.557   3.228   2.761
  941SOL     OW 3721   6.365   0.535   4.635
  941SOL    HW1 3722   6.395   0.458   4.579
  941SOL    HW2 3723   6.342   0.502   4.727
  942SOL     OW 3724   4.991   0.044   3.722
  942SOL    HW1 3725   5.062   0.105   3.758
  942SOL    HW2 3726   4.965   0.074   3.630
  943SOL     OW 3727   1.223   3.714   4.129
  943SOL    HW1 3728   1.269   3.740   4.044
  943SOL    HW2 3729   1.124   3.715   4.116
  944SOL     OW 3730   6.475   3.961   5.399
  944SOL    HW1 3731   6.567   3.996   5.381
  944SOL    HW2 3732   6.408   4.034   5.381
  945SOL     OW 3733   6.652   4.346   5.755
  945SOL    HW1 3734   6.678   4.443   5.755
  945SOL    HW2 3735   6.723   4.293   5.800
  946SOL     OW 3736   4.608   3.551   5.908
  946SOL    HW1 3737   4.607   3.570   5.810
  946SOL    HW2 3738   4.519   3.514   5.936
  947SOL     OW 3739   3.209   3.156   4.464
  947SOL    HW1 3740   3.219   3.092   4.540
  947SOL    HW2 3741   3.160   3.112   4.389
  948SOL     OW 3742   4.053   0.498   0.736
  948SOL    HW1 3743   4.015   0.584   0.702
  948SOL    HW2 3744   4.148   0.489   0.706
  949SOL     OW 3745   0.678   6.455   6.592
  949SOL    HW1 3746   0.688   6.520   6.517
  949SOL    HW2 3747   0.758   6.460   6.652
  950SOL     OW 3748   4.088   5.024   1.585
  950SOL    HW1 3749   4.183   5.029   1.615
  950SOL    HW2 3750   4.070   5.098   1.520
  951SOL     OW 3751   1.585   0.844   2.781
  951SOL    HW1 3752   1.645   0.772   2.814
  951SOL    HW2 3753   1.520   0.806   2.714
  952SOL     OW 3754   5.880   1.965   2.364
  952SOL    HW1 3755   5.822   1.894   2.405
  952SOL    HW2 3756   5.917   1.931   2.278
  953SOL     OW 3757   5.156   5.923   5.019
  953SOL    HW1 3758   5.071   5.941   4.969
  953SOL    HW2 3759   5.157   5.975   5.105
  954SOL     OW 3760   5.000   5.698   0.546
  954SOL    HW1 3761   5.008   5.763   0.471
  954SOL    HW2 3762   4.924   5.636   0.528
  955SOL     OW 3763   0.177   5.205   3.487
  955SOL    HW1 3764   0.175   5.236   3.583
  955SOL    HW2 3765   0.208   5.110   3.483
  956SOL     OW 3766   0.307   2.099   2.739
  956SOL    HW1 3767   0.402   2.077   2.758
  956SOL    HW2 3768   0.248   2.052   2.804
  957SOL     OW 3769   1.064   5.388   4.515
  957SOL    HW1 3770   1.034   5.295   4.532
  957SOL    HW2 3771   1.132   5.414   4.584
  958SOL     OW 3772   4.637   2.578   2.139
  958SOL    HW1 3773   4.565   2.523   2.181
  958SOL    HW2 3774   4.673   2.530   2.059
  959SOL     OW 3775   3.321   5.386   3.554
  959SOL    HW1 3776   3.299   5.481   3.576
  959SOL    HW2 3777   3.294   5.365   3.460
  960SOL     OW 3778   0.054   5.785   3.510
  960SOL    HW1 3779   0.150   5.756   3.517
  960SOL    HW2 3780   0.032   5.802   3.414
  961SOL     OW 3781   4.856   0.116   3.492
  961SOL    HW1 3782   4.862   0.212   3.463
  961SOL    HW2 3783   4.764   0.081   3.473
  962SOL     OW 3784   1.370   0.796   4.085
  962SOL    HW1 3785   1.384   0.895   4.097
  962SOL    HW2 3786   1.300   0.780   4.016
  963SOL     OW 3787   6.548   2.123   5.951
  963SOL    HW1 3788   6.590   2.136   6.041
  963SOL    HW2 3789   6.541   2.212   5.905
  964SOL     OW 3790   6.118   4.283   0.388
  964SOL    HW1 3791   6.070   4.195   0.378
  964SOL    HW2 3792   6.139   4.320   0.298
  965SOL     OW 3793   5.529   1.424   0.810
  965SOL    HW1 3794   5.455   1.473   0.766
  965SOL    HW2 3795   5.540   1.334   0.766
  966SOL     OW 3796   5.260   2.644   2.166
  966SOL    HW1 3797   5.165   2.671   2.186
  966SOL    HW2 3798   5.264   2.545   2.153
  967SOL     OW 3799   2.585   4.877   1.529
  967SOL    HW1 3800   2.579   4.970   1.563
  967SOL    HW2 3801   2.552   4.813   1.599
  968SOL     OW 3802   3.902   1.850   2.528
  968SOL    HW1 3803   3.877   1.943   2.554
  968SOL    HW2 3804   3.853   1.824   2.445
  969SOL     OW 3805   3.676   5.587   6.997
  969SOL    HW1 3806   3.766   5.566   6.958
  969SOL    HW2 3807   3.624   5.502   7.006
  970SOL     OW 3808   4.807   1.281   5.068
  970SOL    HW1 3809   4.852   1.370   5.077
  970SOL    HW2 3810   4.724   1.290   5.013
  971SOL     OW 3811   6.905   1.931   2.556
  971SOL    HW1 3812   6.861   2.021   2.554
  971SOL    HW2 3813   6.877   1.883   2.639
  972SOL     OW 3814   5.507   4.115   1.182
  972SOL    HW1 3815   5.589   4.136   1.236
  972SOL    HW2 3816   5.521   4.029   1.132
  973SOL     OW 3817   6.679   4.527   6.822
  973SOL    HW1 3818   6.601   4.489   6.771
  973SOL    HW2 3819   6.756   4.541   6.760
  974SOL     OW 3820   5.429   0.252   2.212
  974SOL    HW1 3821   5.329   0.258   2.205
  974SOL    HW2 3822   5.463   0.189   2.141
  975SOL     OW 3823   1.622   6.036   6.494
  975SOL    HW1 3824   1.654   6.128   6.470
  975SOL    HW2 3825   1.694   5.987   6.543
  976SOL     OW 3826   6.567   3.269   2.949
  976SOL    HW1 3827   6.645   3.292   2.892
  976SOL    HW2 3828   6.585   3.184   2.998
  977SOL     OW 3829   1.380   0.627   3.248
  977SOL    HW1 3830   1.392   0.572   3.331
  977SOL    HW2 3831   1.296   0.680   3.255
  978SOL     OW 3832   4.652   4.226   5.459
  978SOL    HW1 3833   4.628   4.174   5.541
  978SOL    HW2 3834   4.611   4.182   5.379
  979SOL     OW 3835   0.184   2.040   1.159
  979SOL    HW1 3836   0.176   2.090   1.246
  979SOL    HW2 3837   0.197   1.943   1.178
  980SOL     OW 3838   3.866   2.158   4.098
  980SOL    HW1 3839   3.816   2.072   4.108
  980SOL    HW2 3840   3.841   2.220   4.172
  981SOL     OW 3841   1.145   1.763   5.449
  981SOL    HW1 3842   1.214   1.690   5.443
  981SOL    HW2 3843   1.078   1.751   5.375
  982SOL     OW 3844   2.722   2.320   3.285
  982SOL    HW1 3845   2.638   2.267   3.284
  982SOL    HW2 3846   2.755   2.328   3.380
  983SOL     OW 3847   5.781   2.052   4.510
  983SOL    HW1 3848   5.792   2.099   4.598
  983SOL    HW2 3849   5.778   1.953   4.526
  984SOL     OW 3850   3.133   1.459   4.072
  984SOL    HW1 3851   3.076   1.386   4.033
  984SOL    HW2 3852   3.098   1.484   4.162
  985SOL     OW 3853   5.107   4.987   6.510
  985SOL    HW1 3854   5.036   5.056   6.517
  985SOL    HW2 3855   5.190   5.019   6.555
  986SOL     OW 3856   5.520   4.117   0.426
  986SOL    HW1 3857   5.499   4.215   0.422
  986SOL    HW2 3858   5.454   4.071   0.486
  987SOL     OW 3859   4.248   6.834   1.792
  987SOL    HW1 3860   4.205   6.819   1.881
  987SOL    HW2 3861   4.209   6.915   1.750
  988SOL     OW 3862   3.420   3.255   3.147
  988SOL    HW1 3863   3.381   3.231   3.236
  988SOL    HW2 3864   3.480   3.181   3.116
  989SOL     OW 3865   6.405   0.972   5.290
  989SOL    HW1 3866   6.499   1.006   5.294
  989SOL    HW2 3867   6.404   0.877   5.261
  990SOL     OW 3868   4.140   0.731   2.023
  990SOL    HW1 3869   4.162   0.633   2.031
  990SOL    HW2 3870   4.225   0.783   2.014
  991SOL     OW 3871   1.715   2.597   5.150
  991SOL    HW1 3872   1.705   2.570   5.054
  991SOL    HW2 3873   1.812   2.598   5.174
  992SOL     OW 3874   0.093   2.767   2.068
  992SOL    HW1 3875   0.141   2.831   2.008
  992SOL    HW2 3876   0.038   2.705   2.013
  993SOL     OW 3877   1.502   4.248   2.044
  993SOL    HW1 3878   1.485   4.346   2.055
  993SOL    HW2 3879   1.599   4.233   2.023
  994SOL     OW 3880   3.182   4.038   2.172
  994SOL    HW1 3881   3.158   4.055   2.077
  994SOL    HW2 3882   3.183   4.125   2.222
  995SOL     OW 3883   3.399   3.150   5.674
  995SOL    HW1 3884   3.448   3.185   5.754
  995SOL    HW2 3885   3.466   3.117   5.606
  996SOL     OW 3886   1.612   4.534   4.340
  996SOL    HW1 3887   1.667   4.498   4.416
  996SOL    HW2 3888   1.673   4.578   4.274
  997SOL     OW 3889   0.841   0.730   3.141
  997SOL    HW1 3890   0.827   0.797   3.213
  997SOL    HW2 3891   0.895   0.653   3.177
  998SOL     OW 3892   3.858   6.722   4.481
  998SOL    HW1 3893   3.800   6.654   4.437
  998SOL    HW2 3894   3.802   6.786   4.533
  999SOL     OW 3895   5.158   4.512   2.101
  999SOL    HW1 3896   5.221   4.480   2.030
  999SOL    HW2 3897   5.141   4.610   2.088
 1000SOL     OW 3898   1.296   0.740   1.527
 1000SOL    HW1 3899   1.301   0.736   1.627
 1000SOL    HW2 3900   1.240   0.664   1.494
 1001SOL     OW 3901   6.044   6.890   1.006
 1001SOL    HW1 3902   6.113   6.822   1.029
 1001SOL    HW2 3903   6.085   6.961   0.949
 1002SOL     OW 3904   6.030   1.834   0.069
 1002SOL    HW1 3905   6.107   1.771   0.055
 1002SOL    HW2 3906   6.064   1.926   0.088
 1003SOL     OW 3907   2.111   5.999   1.777
 1003SOL    HW1 3908   2.131   5.906   1.807
 1003SOL    HW2 3909   2.186   6.060   1.805
 1004SOL     OW 3910   0.147   0.110   1.583
 1004SOL    HW1 3911   0.164   0.041   1.512
 1004SOL    HW2 3912   0.052   0.105   1.612
 1005SOL     OW 3913   0.859   2.392   3.187
 1005SOL    HW1 3914   0.901   2.320   3.241
 1005SOL    HW2 3915   0.851   2.363   3.091
 1006SOL     OW 3916   1.210   4.662   1.062
 1006SOL    HW1 3917   1.242   4.733   1.124
 1006SOL    HW2 3918   1.244   4.682   0.969
 1007SOL     OW 3919   5.286   6.866   4.123
 1007SOL    HW1 3920   5.205   6.921   4.141
 1007SOL    HW2 3921   5.358   6.892   4.188
 1008SOL     OW 3922   2.208   3.120   4.662
 1008SOL    HW1 3923   2.234   3.065   4.582
 1008SOL    HW2 3924   2.277   3.190   4.678
 1009SOL     OW 3925   0.410   5.265   4.924
 1009SOL    HW1 3926   0.400   5.188   4.988
 1009SOL    HW2 3927   0.500   5.306   4.935
 1010SOL     OW 3928   3.770   2.684   5.928
 1010SOL    HW1 3929   3.783   2.626   5.848
 1010SOL    HW2 3930   3.828   2.651   6.003
 1011SOL     OW 3931   2.671   5.430   2.269
 1011SOL    HW1 3932   2.678   5.510   2.328
 1011SOL    HW2 3933   2.694   5.347   2.321
 1012SOL     OW 3934   6.784   0.206   0.847
 1012SOL    HW1 3935   6.710   0.145   0.818
 1012SOL    HW2 3936   6.781   0.217   0.946
 1013SOL     OW 3937   0.969   1.043   6.065
 1013SOL    HW1 3938   1.033   1.116   6.040
 1013SOL    HW2 3939   1.020   0.965   6.102
 1014SOL     OW 3940   4.751   5.875   6.557
 1014SOL    HW1 3941   4.798   5.864   6.645
 1014SOL    HW2 3942   4.676   5.940   6.568
 1015SOL     OW 3943   2.125   6.643   5.465
 1015SOL    HW1 3944   2.055   6.631   5.535
 1015SOL    HW2 3945   2.168   6.554   5.446
 1016SOL     OW 3946   3.761   3.469   0.245
 1016SOL    HW1 3947   3.693   3.468   0.172
 1016SOL    HW2 3948   3.853   3.468   0.206
 1017SOL     OW 3949   3.937   2.686   1.008
 1017SOL    HW1 3950   4.020   2.646   1.048
 1017SOL    HW2 3951   3.872   2.614   0.987
 1018SOL     OW 3952   0.881   3.432   4.288
 1018SOL    HW1 3953   0.883   3.391   4.379
 1018SOL    HW2 3954   0.961   3.402   4.236
 1019SOL     OW 3955   0.184   0.472   0.694
 1019SOL    HW1 3956   0.248   0.490   0.620
 1019SOL    HW2 3957   0.115   0.406   0.664
 1020SOL     OW 3958   0.848   6.748   1.349
 1020SOL    HW1 3959   0.829   6.776   1.443
 1020SOL    HW2 3960   0.786   6.674   1.323
 1021SOL     OW 3961   5.584   0.283   1.517
 1021SOL    HW1 3962   5.525   0.305   1.440
 1021SOL    HW2 3963   5.611   0.367   1.564
 1022SOL     OW 3964   3.438   4.931   6.391
 1022SOL    HW1 3965   3.512   4.919   6.457
 1022SOL    HW2 3966   3.410   5.027   6.389
 1023SOL     OW 3967   0.795   6.633   2.200
 1023SOL    HW1 3968   0.782   6.687   2.283
 1023SOL    HW2 3969   0.756   6.683   2.122
 1024SOL     OW 3970   0.063   2.974   4.352
 1024SOL    HW1 3971   0.075   2.962   4.254
 1024SOL    HW2 3972   0.038   3.069   4.371
 1025SOL     OW 3973   3.045   3.091   0.764
 1025SOL    HW1 3974   3.020   3.157   0.694
 1025SOL    HW2 3975   2.976   3.018   0.767
 1026SOL     OW 3976   2.507   2.636   1.247
 1026SOL    HW1 3977   2.433   2.568   1.248
 1026SOL    HW2 3978   2.469   2.725   1.222
 1027SOL     OW 3979   3.072   6.663   0.937
 1027SOL    HW1 3980   3.170   6.646   0.931
 1027SOL    HW2 3981   3.045   6.729   0.867
 1028SOL     OW 3982   2.989   6.270   0.070
 1028SOL    HW1 3983   3.050   6.328   0.124
 1028SOL    HW2 3984   2.954   6.322   7.008
 1029SOL     OW 3985   2.057   0.492   0.106
 1029SOL    HW1 3986   2.111   0.522   0.184
 1029SOL    HW2 3987   2.080   0.398   0.083
 1030SOL     OW 3988   3.387   3.807   1.647
 1030SOL    HW1 3989   3.318   3.856   1.701
 1030SOL    HW2 3990   3.450   3.759   1.709
 1031SOL     OW 3991   4.779   5.192   0.816
 1031SOL    HW1 3992   4.707   5.146   0.765
 1031SOL    HW2 3993   4.854   5.217   0.753
 1032SOL     OW 3994   2.014   1.631   4.859
 1032SOL    HW1 3995   2.024   1.558   4.928
 1032SOL    HW2 3996   2.098   1.685   4.856
 1033SOL     OW 3997   1.448   6.112   0.806
 1033SOL    HW1 3998   1.498   6.180   0.860
 1033SOL    HW2 3999   1.481   6.020   0.829
 1034SOL     OW 4000   0.525   5.399   5.337
 1034SOL    HW1 4001   0.559   5.340   5.264
 1034SOL    HW2 4002   0.459   5.464   5.300
 1035SOL     OW 4003   1.229   1.431   4.033
 1035SOL    HW1 4004   1.159   1.415   3.964
 1035SOL    HW2 4005   1.261   1.525   4.026
 1036SOL     OW 4006   2.716   1.147   1.975
 1036SOL    HW1 4007   2.738   1.097   2.059
 1036SOL    HW2 4008   2.760   1.236   1.976
 1037SOL     OW 4009   1.740   0.755   1.515
 1037SOL    HW1 4010   1.804   0.678   1.527
 1037SOL    HW2 4011   1.687   0.768   1.598
 1038SOL     OW 4012   1.734   0.240   5.759
 1038SOL    HW1 4013   1.648   0.217   5.806
 1038SOL    HW2 4014   1.801   0.271   5.827
 1039SOL     OW 4015   3.179   2.887   5.615
 1039SOL    HW1 4016   3.188   2.924   5.522
 1039SOL    HW2 4017   3.198   2.958   5.682
 1040SOL     OW 4018   4.791   2.803   2.486
 1040SOL    HW1 4019   4.810   2.885   2.540
 1040SOL    HW2 4020   4.765   2.829   2.393
 1041SOL     OW 4021   5.973   0.289   4.448
 1041SOL    HW1 4022   6.016   0.218   4.503
 1041SOL    HW2 4023   6.035   0.318   4.375
 1042SOL     OW 4024   3.556   5.335   2.717
 1042SOL    HW1 4025   3.583   5.323   2.621
 1042SOL    HW2 4026   3.637   5.325   2.776
 1043SOL     OW 4027   4.048   1.173   4.380
 1043SOL    HW1 4028   4.111   1.227   4.435
 1043SOL    HW2 4029   3.959   1.169   4.427
 1044SOL     OW 4030   4.987   4.303   2.080
 1044SOL    HW1 4031   5.052   4.377   2.062
 1044SOL    HW2 4032   4.915   4.335   2.141
 1045SOL     OW 4033   3.846   6.156   2.151
 1045SOL    HW1 4034   3.869   6.253   2.157
 1045SOL    HW2 4035   3.758   6.140   2.196
 1046SOL     OW 4036   1.250   6.997   0.555
 1046SOL    HW1 4037   1.297   0.042   0.491
 1046SOL    HW2 4038   1.184   6.940   0.506
 1047SOL     OW 4039   1.446   0.056   2.901
 1047SOL    HW1 4040   1.496   0.119   2.842
 1047SOL    HW2 4041   1.480   0.064   2.995
 1048SOL     OW 4042   5.547   6.488   5.093
 1048SOL    HW1 4043   5.564   6.565   5.031
 1048SOL    HW2 4044   5.545   6.403   5.040
 1049SOL     OW 4045   6.073   5.353   3.737
 1049SOL    HW1 4046   6.012   5.276   3.722
 1049SOL    HW2 4047   6.135   5.362   3.658
 1050SOL     OW 4048   4.322   5.382   1.006
 1050SOL    HW1 4049   4.345   5.302   1.061
 1050SOL    HW2 4050   4.406   5.420   0.965
 1051SOL     OW 4051   2.355   5.506   0.589
 1051SOL    HW1 4052   2.293   5.498   0.511
 1051SOL    HW2 4053   2.446   5.475   0.562
 1052SOL     OW 4054   3.709   0.644   4.488
 1052SOL    HW1 4055   3.681   0.721   4.545
 1052SOL    HW2 4056   3.675   0.558   4.528
 1053SOL     OW 4057   5.231   5.349   3.122
 1053SOL    HW1 4058   5.268   5.435   3.086
 1053SOL    HW2 4059   5.214   5.286   3.046
 1054SOL     OW 4060   2.177   3.661   5.430
 1054SOL    HW1 4061   2.236   3.581   5.434
 1054SOL    HW2 4062   2.215   3.727   5.365
 1055SOL     OW 4063   5.487   6.340   3.789
 1055SOL    HW1 4064   5.521   6.433   3.774
 1055SOL    HW2 4065   5.392   6.344   3.823
 1056SOL     OW 4066   1.855   4.902   5.955
 1056SOL    HW1 4067   1.798   4.859   6.025
 1056SOL    HW2 4068   1.843   4.855   5.868
 1057SOL     OW 4069   3.574   3.156   2.695
 1057SOL    HW1 4070   3.622   3.185   2.612
 1057SOL    HW2 4071   3.507   3.086   2.671
 1058SOL     OW 4072   5.081   1.740   2.883
 1058SOL    HW1 4073   5.106   1.774   2.792
 1058SOL    HW2 4074   5.135   1.658   2.904
 1059SOL     OW 4075   2.484   0.297   1.591
 1059SOL    HW1 4076   2.438   0.209   1.580
 1059SOL    HW2 4077   2.554   0.307   1.522
 1060SOL     OW 4078   6.896   4.350   4.567
 1060SOL    HW1 4079   6.935   4.384   4.481
 1060SOL    HW2 4080   6.960   4.286   4.610
 1061SOL     OW 4081   5.343   3.660   1.287
 1061SOL    HW1 4082   5.252   3.620   1.301
 1061SOL    HW2 4083   5.408   3.586   1.269
 1062SOL     OW 4084   5.839   4.465   5.557
 1062SOL    HW1 4085   5.752   4.415   5.555
 1062SOL    HW2 4086   5.914   4.400   5.564
 1063SOL     OW 4087   1.317   4.728   1.559
 1063SOL    HW1 4088   1.319   4.788   1.639
 1063SOL    HW2 4089   1.378   4.650   1.574
 1064SOL     OW 4090   1.797   4.469   2.218
 1064SOL    HW1 4091   1.870   4.500   2.157
 1064SOL    HW2 4092   1.740   4.547   2.244
 1065SOL     OW 4093   4.359   6.937   3.896
 1065SOL    HW1 4094   4.280   6.930   3.835
 1065SOL    HW2 4095   4.340   6.890   3.982
 1066SOL     OW 4096   4.727   0.194   3.878
 1066SOL    HW1 4097   4.724   0.272   3.940
 1066SOL    HW2 4098   4.781   0.217   3.797
 1067SOL     OW 4099   1.090   3.314   0.443
 1067SOL    HW1 4100   0.996   3.298   0.413
 1067SOL    HW2 4101   1.109   3.412   0.447
 1068SOL     OW 4102   4.863   4.929   2.536
 1068SOL    HW1 4103   4.827   5.021   2.522
 1068SOL    HW2 4104   4.788   4.863   2.532
 1069SOL     OW 4105   4.809   4.964   0.483
 1069SOL    HW1 4106   4.820   4.951   0.582
 1069SOL    HW2 4107   4.715   4.993   0.464
 1070SOL     OW 4108   0.739   0.640   1.980
 1070SOL    HW1 4109   0.708   0.691   2.060
 1070SOL    HW2 4110   0.687   0.669   1.899
 1071SOL     OW 4111   2.200   0.562   3.917
 1071SOL    HW1 4112   2.172   0.521   3.830
 1071SOL    HW2 4113   2.283   0.518   3.950
 1072SOL     OW 4114   1.823   6.452   1.395
 1072SOL    HW1 4115   1.829   6.520   1.468
 1072SOL    HW2 4116   1.774   6.372   1.428
 1073SOL     OW 4117   4.327   6.429   2.015
 1073SOL    HW1 4118   4.275   6.349   2.047
 1073SOL    HW2 4119   4.296   6.455   1.924
 1074SOL     OW 4120   2.621   5.451   0.510
 1074SOL    HW1 4121   2.658   5.542   0.523
 1074SOL    HW2 4122   2.658   5.390   0.581
 1075SOL     OW 4123   3.959   6.791   3.846
 1075SOL    HW1 4124   3.965   6.815   3.943
 1075SOL    HW2 4125   4.051   6.786   3.807
 1076SOL     OW 4126   6.505   4.226   5.579
 1076SOL    HW1 4127   6.556   4.287   5.639
 1076SOL    HW2 4128   6.568   4.169   5.527
 1077SOL     OW 4129   6.074   0.357   0.822
 1077SOL    HW1 4130   6.013   0.343   0.745
 1077SOL    HW2 4131   6.027   0.335   0.907
 1078SOL     OW 4132   0.581   1.318   2.379
 1078SOL    HW1 4133   0.600   1.254   2.305
 1078SOL    HW2 4134   0.634   1.402   2.365
 1079SOL     OW 4135   1.895   6.223   2.318
 1079SOL    HW1 4136   1.811   6.272   2.296
 1079SOL    HW2 4137   1.937   6.263   2.400
 1080SOL     OW 4138   2.026   4.725   3.715
 1080SOL    HW1 4139   1.946   4.705   3.658
 1080SOL    HW2 4140   2.079   4.641   3.729
 1081SOL     OW 4141   0.059   6.277   6.187
 1081SOL    HW1 4142   0.114   6.216   6.131
 1081SOL    HW2 4143   6.978   6.260   6.169
 1082SOL     OW 4144   3.683   1.934   6.402
 1082SOL    HW1 4145   3.777   1.967   6.395
 1082SOL    HW2 4146   3.657   1.890   6.316
 1083SOL     OW 4147   4.254   4.115   1.152
 1083SOL    HW1 4148   4.172   4.106   1.209
 1083SOL    HW2 4149   4.333   4.081   1.203
 1084SOL     OW 4150   6.324   5.569   1.203
 1084SOL    HW1 4151   6.234   5.542   1.169
 1084SOL    HW2 4152   6.384   5.489   1.206
 1085SOL     OW 4153   1.091   4.283   3.817
 1085SOL    HW1 4154   1.140   4.311   3.899
 1085SOL    HW2 4155   1.156   4.274   3.741
 1086SOL     OW 4156   6.603   6.111   2.009
 1086SOL    HW1 4157   6.536   6.098   2.081
 1086SOL    HW2 4158   6.572   6.064   1.926
 1087SOL     OW 4159   6.171   3.194   5.429
 1087SOL    HW1 4160   6.268   3.171   5.432
 1087SOL    HW2 4161   6.147   3.224   5.336
 1088SOL     OW 4162   5.858   4.552   3.292
 1088SOL    HW1 4163   5.894   4.476   3.239
 1088SOL    HW2 4164   5.759   4.556   3.282
 1089SOL     OW 4165   1.470   6.770   4.547
 1089SOL    HW1 4166   1.492   6.707   4.472
 1089SOL    HW2 4167   1.514   6.738   4.631
 1090SOL     OW 4168   2.348   1.317   3.752
 1090SOL    HW1 4169   2.445   1.298   3.735
 1090SOL    HW2 4170   2.305   1.236   3.792
 1091SOL     OW 4171   2.670   3.068   5.384
 1091SOL    HW1 4172   2.741   3.000   5.402
 1091SOL    HW2 4173   2.612   3.037   5.309
 1092SOL     OW 4174   1.654   3.466   0.611
 1092SOL    HW1 4175   1.569   3.516   0.596
 1092SOL    HW2 4176   1.689   3.487   0.703
 1093SOL     OW 4177   1.701   1.861   1.968
 1093SOL    HW1 4178   1.658   1.771   1.957
 1093SOL    HW2 4179   1.770   1.857   2.040
 1094SOL     OW 4180   0.838   6.292   3.779
 1094SOL    HW1 4181   0.745   6.264   3.804
 1094SOL    HW2 4182   0.855   6.269   3.683
 1095SOL     OW 4183   0.585   2.434   5.762
 1095SOL    HW1 4184   0.506   2.403   5.709
 1095SOL    HW2 4185   0.560   2.516   5.814
 1096SOL     OW 4186   3.281   4.580   1.687
 1096SOL    HW1 4187   3.371   4.594   1.727
 1096SOL    HW2 4188   3.273   4.485   1.655
 1097SOL     OW 4189   1.935   4.229   4.154
 1097SOL    HW1 4190   1.912   4.297   4.224
 1097SOL    HW2 4191   2.033   4.209   4.159
 1098SOL     OW 4192   4.744   3.262   1.003
 1098SOL    HW1 4193   4.841   3.254   0.980
 1098SOL    HW2 4194   4.708   3.172   1.026
 1099SOL     OW 4195   4.249   1.632   5.230
 1099SOL    HW1 4196   4.281   1.698   5.299
 1099SOL    HW2 4197   4.183   1.677   5.170
 1100SOL     OW 4198   3.378   1.944   6.265
 1100SOL    HW1 4199   3.281   1.951   6.285
 1100SOL    HW2 4200   3.391   1.889   6.182
 1101SOL     OW 4201   6.533   2.087   0.157
 1101SOL    HW1 4202   6.594   2.062   0.233
 1101SOL    HW2 4203   6.503   2.004   0.110
 1102SOL     OW 4204   0.560   5.693   4.057
 1102SOL    HW1 4205   0.501   5.751   4.114
 1102SOL    HW2 4206   0.650   5.737   4.048
 1103SOL     OW 4207   3.645   1.592   0.768
 1103SOL    HW1 4208   3.608   1.611   0.677
 1103SOL    HW2 4209   3.656   1.494   0.780
 1104SOL     OW 4210   2.203   3.267   5.301
 1104SOL    HW1 4211   2.221   3.175   5.334
 1104SOL    HW2 4212   2.284   3.324   5.315
 1105SOL     OW 4213   6.122   3.826   4.777
 1105SOL    HW1 4214   6.072   3.884   4.841
 1105SOL    HW2 4215   6.194   3.879   4.732
 1106SOL     OW 4216   0.672   1.900   0.871
 1106SOL    HW1 4217   0.683   1.807   0.835
 1106SOL    HW2 4218   0.677   1.965   0.795
 1107SOL     OW 4219   2.214   0.234   6.449
 1107SOL    HW1 4220   2.172   0.144   6.458
 1107SOL    HW2 4221   2.276   0.250   6.526
 1108SOL     OW 4222   3.205   0.960   6.074
 1108SOL    HW1 4223   3.119   0.995   6.113
 1108SOL    HW2 4224   3.220   1.003   5.984
 1109SOL     OW 4225   4.499   0.030   4.420
 1109SOL    HW1 4226   4.535   0.081   4.342
 1109SOL    HW2 4227   4.522   0.078   4.504
 1110SOL     OW 4228   2.897   2.247   2.946
 1110SOL    HW1 4229   2.817   2.190   2.927
 1110SOL    HW2 4230   2.867   2.342   2.959
 1111SOL     OW 4231   4.836   5.174   6.825
 1111SOL    HW1 4232   4.804   5.248   6.884
 1111SOL    HW2 4233   4.923   5.199   6.784
 1112SOL     OW 4234   5.977   1.603   2.314
 1112SOL    HW1 4235   5.916   1.582   2.237
 1112SOL    HW2 4236   6.067   1.563   2.298
 1113SOL     OW 4237   0.108   3.964   3.358
 1113SOL    HW1 4238   0.197   3.926   3.382
 1113SOL    HW2 4239   0.113   4.064   3.358
 1114SOL     OW 4240   4.409   1.409   6.566
 1114SOL    HW1 4241   4.364   1.392   6.478
 1114SOL    HW2 4242   4.347   1.460   6.625
 1115SOL     OW 4243   4.128   2.911   0.374
 1115SOL    HW1 4244   4.097   2.967   0.451
 1115SOL    HW2 4245   4.222   2.935   0.351
 1116SOL     OW 4246   5.311   5.707   5.600
 1116SOL    HW1 4247   5.362   5.785   5.638
 1116SOL    HW2 4248   5.371   5.627   5.595
 1117SOL     OW 4249   1.722   2.306   1.370
 1117SOL    HW1 4250   1.635   2.277   1.331
 1117SOL    HW2 4251   1.768   2.227   1.410
 1118SOL     OW 4252   2.451   4.270   1.769
 1118SOL    HW1 4253   2.463   4.249   1.672
 1118SOL    HW2 4254   2.475   4.365   1.786
 1119SOL     OW 4255   4.774   4.490   0.449
 1119SOL    HW1 4256   4.843   4.560   0.433
 1119SOL    HW2 4257   4.683   4.528   0.432
 1120SOL     OW 4258   5.710   0.123   4.961
 1120SOL    HW1 4259   5.666   0.187   4.898
 1120SOL    HW2 4260   5.796   0.163   4.993
 1121SOL     OW 4261   5.268   4.956   2.601
 1121SOL    HW1 4262   5.244   4.875   2.655
 1121SOL    HW2 4263   5.343   5.004   2.646
 1122SOL     OW 4264   4.347   3.073   0.308
 1122SOL    HW1 4265   4.402   3.066   0.391
 1122SOL    HW2 4266   4.270   3.135   0.325
 1123SOL     OW 4267   5.389   1.929   3.241
 1123SOL    HW1 4268   5.301   1.937   3.195
 1123SOL    HW2 4269   5.381   1.866   3.318
 1124SOL     OW 4270   6.096   4.128   5.178
 1124SOL    HW1 4271   6.038   4.208   5.161
 1124SOL    HW2 4272   6.174   4.155   5.235
 1125SOL     OW 4273   3.198   1.370   4.756
 1125SOL    HW1 4274   3.207   1.450   4.815
 1125SOL    HW2 4275   3.103   1.338   4.757
 1126SOL     OW 4276   5.288   5.989   6.928
 1126SOL    HW1 4277   5.325   5.898   6.905
 1126SOL    HW2 4278   5.346   6.031   6.998
 1127SOL     OW 4279   5.014   4.975   4.907
 1127SOL    HW1 4280   5.039   5.063   4.948
 1127SOL    HW2 4281   5.010   4.905   4.977
 1128SOL     OW 4282   5.312   2.093   5.417
 1128SOL    HW1 4283   5.304   2.003   5.461
 1128SOL    HW2 4284   5.406   2.108   5.389
 1129SOL     OW 4285   3.320   0.556   6.475
 1129SOL    HW1 4286   3.240   0.614   6.491
 1129SOL    HW2 4287   3.402   0.602   6.508
 1130SOL     OW 4288   1.799   4.337   1.116
 1130SOL    HW1 4289   1.753   4.344   1.205
 1130SOL    HW2 4290   1.855   4.254   1.114
 1131SOL     OW 4291   0.297   6.142   5.952
 1131SOL    HW1 4292   0.236   6.066   5.976
 1131SOL    HW2 4293   0.367   6.152   6.023
 1132SOL     OW 4294   5.009   6.878   1.206
 1132SOL    HW1 4295   4.991   6.973   1.182
 1132SOL    HW2 4296   4.978   6.861   1.299
 1133SOL     OW 4297   0.929   1.047   0.876
 1133SOL    HW1 4298   1.010   1.022   0.823
 1133SOL    HW2 4299   0.949   1.038   0.974
 1134SOL     OW 4300   4.683   1.267   1.513
 1134SOL    HW1 4301   4.734   1.197   1.462
 1134SOL    HW2 4302   4.710   1.358   1.480
 1135SOL     OW 4303   1.910   1.479   2.731
 1135SOL    HW1 4304   1.882   1.539   2.806
 1135SOL    HW2 4305   1.953   1.533   2.659
 1136SOL     OW 4306   3.370   5.462   4.878
 1136SOL    HW1 4307   3.417   5.527   4.818
 1136SOL    HW2 4308   3.434   5.427   4.947
 1137SOL     OW 4309   1.295   1.765   5.707
 1137SOL    HW1 4310   1.248   1.747   5.621
 1137SOL    HW2 4311   1.386   1.724   5.704
 1138SOL     OW 4312   0.755   1.322   6.463
 1138SOL    HW1 4313   0.813   1.249   6.426
 1138SOL    HW2 4314   0.742   1.307   6.561
 1139SOL     OW 4315   3.008   5.640   1.502
 1139SOL    HW1 4316   2.959   5.667   1.420
 1139SOL    HW2 4317   2.946   5.591   1.564
 1140SOL     OW 4318   3.353   1.138   1.905
 1140SOL    HW1 4319   3.303   1.214   1.946
 1140SOL    HW2 4320   3.288   1.064   1.884
 1141SOL     OW 4321   0.125   6.484   6.603
 1141SOL    HW1 4322   0.176   6.543   6.540
 1141SOL    HW2 4323   0.056   6.537   6.650
 1142SOL     OW 4324   3.151   0.279   4.413
 1142SOL    HW1 4325   3.197   0.323   4.336
 1142SOL    HW2 4326   3.066   0.327   4.434
 1143SOL     OW 4327   2.028   3.497   1.591
 1143SOL    HW1 4328   2.056   3.511   1.686
 1143SOL    HW2 4329   1.933   3.464   1.589
 1144SOL     OW 4330   6.216   4.737   5.561
 1144SOL    HW1 4331   6.304   4.730   5.609
 1144SOL    HW2 4332   6.155   4.798   5.612
 1145SOL     OW 4333   0.008   4.272   2.442
 1145SOL    HW1 4334   0.038   4.179   2.420
 1145SOL    HW2 4335   6.924   4.276   2.440
 1146SOL     OW 4336   6.217   0.775   1.681
 1146SOL    HW1 4337   6.154   0.699   1.660
 1146SOL    HW2 4338   6.288   0.779   1.612
 1147SOL     OW 4339   1.509   4.494   1.110
 1147SOL    HW1 4340   1.431   4.528   1.057
 1147SOL    HW2 4341   1.580   4.564   1.116
 1148SOL     OW 4342   4.539   6.769   6.490
 1148SOL    HW1 4343   4.526   6.748   6.587
 1148SOL    HW2 4344   4.459   6.817   6.454
 1149SOL     OW 4345   6.698   4.282   2.664
 1149SOL    HW1 4346   6.607   4.298   2.703
 1149SOL    HW2 4347   6.691   4.215   2.590
 1150SOL     OW 4348   2.425   3.914   0.823
 1150SOL    HW1 4349   2.498   3.980   0.802
 1150SOL    HW2 4350   2.463   3.838   0.876
 1151SOL     OW 4351   5.151   5.041   6.226
 1151SOL    HW1 4352   5.070   4.984   6.211
 1151SOL    HW2 4353   5.209   4.998   6.296
 1152SOL     OW 4354   0.128   5.923   5.767
 1152SOL    HW1 4355   0.201   5.901   5.831
 1152SOL    HW2 4356   0.126   5.855   5.694
 1153SOL     OW 4357   2.357   0.437   2.170
 1153SOL    HW1 4358   2.445   0.449   2.123
 1153SOL    HW2 4359   2.373   0.436   2.269
 1154SOL     OW 4360   0.516   3.939   1.894
 1154SOL    HW1 4361   0.549   3.888   1.973
 1154SOL    HW2 4362   0.568   3.912   1.813
 1155SOL     OW 4363   2.381   5.276   6.730
 1155SOL    HW1 4364   2.413   5.370   6.718
 1155SOL    HW2 4365   2.307   5.257   6.666
 1156SOL     OW 4366   2.667   1.203   4.866
 1156SOL    HW1 4367   2.633   1.113   4.894
 1156SOL    HW2 4368   2.595   1.252   4.816
 1157SOL     OW 4369   6.276   0.482   5.346
 1157SOL    HW1 4370   6.183   0.515   5.357
 1157SOL    HW2 4371   6.281   0.423   5.265
 1158SOL     OW 4372   0.066   5.731   5.581
 1158SOL    HW1 4373   0.136   5.707   5.514
 1158SOL    HW2 4374   0.016   5.648   5.609
 1159SOL     OW 4375   5.472   0.065   3.335
 1159SOL    HW1 4376   5.478   0.021   3.425
 1159SOL    HW2 4377   5.558   0.112   3.315
 1160SOL     OW 4378   3.774   3.178   1.484
 1160SOL    HW1 4379   3.718   3.095   1.489
 1160SOL    HW2 4380   3.794   3.211   1.576
 1161SOL     OW 4381   5.024   0.377   6.192
 1161SOL    HW1 4382   4.984   0.342   6.108
 1161SOL    HW2 4383   4.993   0.321   6.269
 1162SOL     OW 4384   2.927   2.010   6.832
 1162SOL    HW1 4385   2.943   1.954   6.751
 1162SOL    HW2 4386   2.966   2.101   6.818
 1163SOL     OW 4387   6.920   3.104   1.868
 1163SOL    HW1 4388   6.940   3.016   1.911
 1163SOL    HW2 4389   6.845   3.148   1.917
 1164SOL     OW 4390   5.233   2.330   4.447
 1164SOL    HW1 4391   5.203   2.365   4.358
 1164SOL    HW2 4392   5.184   2.378   4.520
 1165SOL     OW 4393   1.982   4.727   4.617
 1165SOL    HW1 4394   2.016   4.748   4.525
 1165SOL    HW2 4395   2.010   4.635   4.642
 1166SOL     OW 4396   3.906   0.112   0.619
 1166SOL    HW1 4397   3.834   0.174   0.650
 1166SOL    HW2 4398   3.905   0.107   0.519
 1167SOL     OW 4399   3.366   6.506   6.263
 1167SOL    HW1 4400   3.394   6.586   6.210
 1167SOL    HW2 4401   3.383   6.523   6.360
 1168SOL     OW 4402   6.157   1.819   3.563
 1168SOL    HW1 4403   6.189   1.727   3.538
 1168SOL    HW2 4404   6.087   1.848   3.498
 1169SOL     OW 4405   5.635   2.757   6.610
 1169SOL    HW1 4406   5.550   2.734   6.561
 1169SOL    HW2 4407   5.706   2.780   6.544
 1170SOL     OW 4408   5.542   1.001   2.178
 1170SOL    HW1 4409   5.476   1.033   2.110
 1170SOL    HW2 4410   5.580   1.080   2.227
 1171SOL     OW 4411   3.068   6.791   0.006
 1171SOL    HW1 4412   3.013   6.708   0.006
 1171SOL    HW2 4413   3.165   6.767   0.007
 1172SOL     OW 4414   3.491   3.841   1.888
 1172SOL    HW1 4415   3.508   3.790   1.972
 1172SOL    HW2 4416   3.571   3.898   1.867
 1173SOL     OW 4417   3.279   6.728   5.739
 1173SOL    HW1 4418   3.363   6.766   5.777
 1173SOL    HW2 4419   3.249   6.783   5.662
 1174SOL     OW 4420   3.223   4.295   0.431
 1174SOL    HW1 4421   3.151   4.263   0.491
 1174SOL    HW2 4422   3.259   4.382   0.466
 1175SOL     OW 4423   4.047   2.931   6.552
 1175SOL    HW1 4424   4.108   3.011   6.557
 1175SOL    HW2 4425   3.952   2.962   6.549
 1176SOL     OW 4426   6.136   4.580   0.575
 1176SOL    HW1 4427   6.184   4.515   0.516
 1176SOL    HW2 4428   6.067   4.532   0.629
 1177SOL     OW 4429   0.109   1.643   6.055
 1177SOL    HW1 4430   0.014   1.612   6.059
 1177SOL    HW2 4431   0.116   1.735   6.093
 1178SOL     OW 4432   4.083   3.877   1.049
 1178SOL    HW1 4433   3.984   3.886   1.037
 1178SOL    HW2 4434   4.127   3.964   1.026
 1179SOL     OW 4435   3.221   5.777   0.483
 1179SOL    HW1 4436   3.226   5.815   0.576
 1179SOL    HW2 4437   3.282   5.698   0.476
 1180SOL     OW 4438   2.531   6.756   3.831
 1180SOL    HW1 4439   2.551   6.839   3.779
 1180SOL    HW2 4440   2.590   6.681   3.799
 1181SOL     OW 4441   6.640   2.731   4.932
 1181SOL    HW1 4442   6.589   2.763   5.012
 1181SOL    HW2 4443   6.599   2.767   4.849
 1182SOL     OW 4444   2.915   5.388   3.789
 1182SOL    HW1 4445   2.985   5.370   3.859
 1182SOL    HW2 4446   2.867   5.304   3.767
 1183SOL     OW 4447   4.027   6.334   1.583
 1183SOL    HW1 4448   4.116   6.342   1.538
 1183SOL    HW2 4449   4.041   6.309   1.679
 1184SOL     OW 4450   4.130   0.120   6.190
 1184SOL    HW1 4451   4.081   0.083   6.269
 1184SOL    HW2 4452   4.224   0.085   6.190
 1185SOL     OW 4453   1.556   6.923   0.847
 1185SOL    HW1 4454   1.549   6.928   0.747
 1185SOL    HW2 4455   1.486   6.981   0.887
 1186SOL     OW 4456   5.893   5.603   6.264
 1186SOL    HW1 4457   5.936   5.580   6.176
 1186SOL    HW2 4458   5.882   5.702   6.271
 1187SOL     OW 4459   5.412   0.143   5.297
 1187SOL    HW1 4460   5.479   0.131   5.369
 1187SOL    HW2 4461   5.383   0.054   5.263
 1188SOL     OW 4462   3.192   6.129   6.576
 1188SOL    HW1 4463   3.185   6.168   6.484
 1188SOL    HW2 4464   3.116   6.066   6.590
 1189SOL     OW 4465   6.169   1.067   2.065
 1189SOL    HW1 4466   6.155   1.054   1.967
 1189SOL    HW2 4467   6.267   1.073   2.084
 1190SOL     OW 4468   3.786   4.953   4.014
 1190SOL    HW1 4469   3.838   5.039   4.008
 1190SOL    HW2 4470   3.809   4.907   4.099
 1191SOL     OW 4471   3.074   6.671   4.553
 1191SOL    HW1 4472   3.173   6.671   4.538
 1191SOL    HW2 4473   3.030   6.720   4.478
 1192SOL     OW 4474   5.390   5.944   2.775
 1192SOL    HW1 4475   5.302   5.980   2.808
 1192SOL    HW2 4476   5.373   5.873   2.708
 1193SOL     OW 4477   0.125   0.467   5.772
 1193SOL    HW1 4478   0.034   0.452   5.810
 1193SOL    HW2 4479   0.187   0.396   5.805
 1194SOL     OW 4480   6.942   1.687   1.274
 1194SOL    HW1 4481   6.915   1.668   1.180
 1194SOL    HW2 4482   6.872   1.654   1.337
 1195SOL     OW 4483   6.810   3.284   1.395
 1195SOL    HW1 4484   6.761   3.226   1.331
 1195SOL    HW2 4485   6.838   3.230   1.475
 1196SOL     OW 4486   6.389   5.177   1.812
 1196SOL    HW1 4487   6.323   5.247   1.841
 1196SOL    HW2 4488   6.376   5.158   1.715
 1197SOL     OW 4489   4.567   6.492   4.442
 1197SOL    HW1 4490   4.643   6.428   4.433
 1197SOL    HW2 4491   4.532   6.489   4.536
 1198SOL     OW 4492   1.452   3.566   2.562
 1198SOL    HW1 4493   1.510   3.533   2.637
 1198SOL    HW2 4494   1.504   3.632   2.507
 1199SOL     OW 4495   3.810   3.327   3.166
 1199SOL    HW1 4496   3.908   3.312   3.179
 1199SOL    HW2 4497   3.784   3.300   3.073
 1200SOL     OW 4498   3.929   3.847   4.730
 1200SOL    HW1 4499   3.966   3.785   4.800
 1200SOL    HW2 4500   3.970   3.826   4.641
 1201SOL     OW 4501   6.624   0.822   4.514
 1201SOL    HW1 4502   6.539   0.808   4.464
 1201SOL    HW2 4503   6.688   0.873   4.457
 1202SOL     OW 4504   6.137   1.003   5.803
 1202SOL    HW1 4505   6.202   0.997   5.727
 1202SOL    HW2 4506   6.184   0.984   5.889
 1203SOL     OW 4507   0.113   6.701   1.244
 1203SOL    HW1 4508   0.033   6.704   1.304
 1203SOL    HW2 4509   0.083   6.686   1.150
 1204SOL     OW 4510   4.364   1.723   1.848
 1204SOL    HW1 4511   4.435   1.788   1.822
 1204SOL    HW2 4512   4.302   1.766   1.914
 1205SOL     OW 4513   3.996   3.452   0.141
 1205SOL    HW1 4514   4.026   3.362   0.110
 1205SOL    HW2 4515   4.003   3.517   0.066
 1206SOL     OW 4516   1.566   2.231   4.523
 1206SOL    HW1 4517   1.542   2.223   4.426
 1206SOL    HW2 4518   1.525   2.314   4.560
 1207SOL     OW 4519   0.051   0.224   6.968
 1207SOL    HW1 4520   0.130   0.201   6.911
 1207SOL    HW2 4521   6.996   0.154   6.956
 1208SOL     OW 4522   3.321   3.688   1.369
 1208SOL    HW1 4523   3.229   3.657   1.395
 1208SOL    HW2 4524   3.366   3.729   1.449
 1209SOL     OW 4525   5.563   0.925   4.220
 1209SOL    HW1 4526   5.659   0.942   4.200
 1209SOL    HW2 4527   5.521   0.875   4.144
 1210SOL     OW 4528   4.622   6.903   3.582
 1210SOL    HW1 4529   4.644   6.993   3.619
 1210SOL    HW2 4530   4.651   6.832   3.646
 1211SOL     OW 4531   1.095   3.586   3.745
 1211SOL    HW1 4532   1.175   3.529   3.764
 1211SOL    HW2 4533   1.099   3.669   3.801
 1212SOL     OW 4534   6.573   0.879   5.974
 1212SOL    HW1 4535   6.521   0.873   5.888
 1212SOL    HW2 4536   6.624   0.965   5.975
 1213SOL     OW 4537   5.764   2.564   2.903
 1213SOL    HW1 4538   5.821   2.513   2.839
 1213SOL    HW2 4539   5.800   2.554   2.995
 1214SOL     OW 4540   0.724   2.289   6.076
 1214SOL    HW1 4541   0.803   2.273   6.135
 1214SOL    HW2 4542   0.646   2.236   6.109
 1215SOL     OW 4543   2.480   5.318   2.774
 1215SOL    HW1 4544   2.485   5.272   2.862
 1215SOL    HW2 4545   2.419   5.398   2.781
 1216SOL     OW 4546   0.331   0.949   0.011
 1216SOL    HW1 4547   0.310   0.854   7.003
 1216SOL    HW2 4548   0.422   0.972   6.994
 1217SOL     OW 4549   2.969   4.971   0.749
 1217SOL    HW1 4550   2.919   5.057   0.761
 1217SOL    HW2 4551   2.919   4.912   0.685
 1218SOL     OW 4552   0.894   3.956   5.732
 1218SOL    HW1 4553   0.932   3.976   5.641
 1218SOL    HW2 4554   0.967   3.960   5.800
 1219SOL     OW 4555   5.097   5.448   1.706
 1219SOL    HW1 4556   5.026   5.515   1.688
 1219SOL    HW2 4557   5.126   5.406   1.620
 1220SOL     OW 4558   6.328   4.008   2.837
 1220SOL    HW1 4559   6.305   4.073   2.765
 1220SOL    HW2 4560   6.387   4.053   2.905
 1221SOL     OW 4561   5.495   3.794   6.190
 1221SOL    HW1 4562   5.562   3.743   6.136
 1221SOL    HW2 4563   5.537   3.878   6.224
 1222SOL     OW 4564   0.768   0.438   0.458
 1222SOL    HW1 4565   0.696   0.380   0.495
 1222SOL    HW2 4566   0.729   0.505   0.395
 1223SOL     OW 4567   3.916   1.516   0.074
 1223SOL    HW1 4568   4.003   1.564   0.077
 1223SOL    HW2 4569   3.929   1.426   0.032
 1224SOL     OW 4570   2.552   5.841   0.145
 1224SOL    HW1 4571   2.648   5.833   0.172
 1224SOL    HW2 4572   2.518   5.751   0.116
 1225SOL     OW 4573   4.065   2.330   0.291
 1225SOL    HW1 4574   4.080   2.418   0.246
 1225SOL    HW2 4575   4.014   2.344   0.376
 1226SOL     OW 4576   4.554   6.206   0.653
 1226SOL    HW1 4577   4.501   6.257   0.584
 1226SOL    HW2 4578   4.600   6.271   0.713
 1227SOL     OW 4579   5.008   5.265   6.591
 1227SOL    HW1 4580   5.096   5.301   6.622
 1227SOL    HW2 4581   5.002   5.271   6.491
 1228SOL     OW 4582   3.253   2.971   0.459
 1228SOL    HW1 4583   3.219   3.046   0.403
 1228SOL    HW2 4584   3.306   3.008   0.536
 1229SOL     OW 4585   2.146   5.409   0.344
 1229SOL    HW1 4586   2.093   5.492   0.328
 1229SOL    HW2 4587   2.092   5.345   0.399
 1230SOL     OW 4588   5.687   5.833   2.423
 1230SOL    HW1 4589   5.676   5.807   2.519
 1230SOL    HW2 4590   5.777   5.875   2.411
 1231SOL     OW 4591   1.637   1.468   5.463
 1231SOL    HW1 4592   1.636   1.488   5.365
 1231SOL    HW2 4593   1.723   1.423   5.487
 1232SOL     OW 4594   5.669   1.473   5.103
 1232SOL    HW1 4595   5.718   1.483   5.189
 1232SOL    HW2 4596   5.717   1.525   5.032
 1233SOL     OW 4597   0.543   5.795   4.879
 1233SOL    HW1 4598   0.444   5.806   4.867
 1233SOL    HW2 4599   0.572   5.842   4.962
 1234SOL     OW 4600   6.175   2.089   5.293
 1234SOL    HW1 4601   6.162   2.187   5.308
 1234SOL    HW2 4602   6.142   2.038   5.373
 1235SOL     OW 4603   6.151   4.886   0.882
 1235SOL    HW1 4604   6.070   4.875   0.824
 1235SOL    HW2 4605   6.213   4.953   0.840
 1236SOL     OW 4606   3.625   1.096   1.976
 1236SOL    HW1 4607   3.638   1.012   1.924
 1236SOL    HW2 4608   3.527   1.116   1.983
 1237SOL     OW 4609   0.983   5.188   5.017
 1237SOL    HW1 4610   1.071   5.164   4.976
 1237SOL    HW2 4611   0.974   5.143   5.106
 1238SOL     OW 4612   0.902   0.348   5.512
 1238SOL    HW1 4613   0.850   0.282   5.459
 1238SOL    HW2 4614   0.865   0.353   5.605
 1239SOL     OW 4615   0.360   0.083   5.750
 1239SOL    HW1 4616   0.349   0.021   5.673
 1239SOL    HW2 4617   0.401   0.034   5.827
 1240SOL     OW 4618   5.947   5.204   1.251
 1240SOL    HW1 4619   5.984   5.130   1.195
 1240SOL    HW2 4620   5.847   5.200   1.250
 1241SOL     OW 4621   5.911   4.735   5.103
 1241SOL    HW1 4622   5.879   4.823   5.137
 1241SOL    HW2 4623   5.891   4.664   5.171
 1242SOL     OW 4624   2.155   4.034   0.558
 1242SOL    HW1 4625   2.132   4.104   0.625
 1242SOL    HW2 4626   2.144   4.072   0.466
 1243SOL     OW 4627   0.392   1.085   4.874
 1243SOL    HW1 4628   0.296   1.100   4.851
 1243SOL    HW2 4629   0.447   1.161   4.840
 1244SOL     OW 4630   5.476   6.076   5.221
 1244SOL    HW1 4631   5.530   6.039   5.297
 1244SOL    HW2 4632   5.528   6.066   5.136
 1245SOL     OW 4633   5.627   4.902   6.779
 1245SOL    HW1 4634   5.552   4.907   6.845
 1245SOL    HW2 4635   5.680   4.819   6.795
 1246SOL     OW 4636   3.057   1.786   2.582
 1246SOL    HW1 4637   3.007   1.825   2.505
 1246SOL    HW2 4638   3.010   1.704   2.615
 1247SOL     OW 4639   5.559   0.111   6.415
 1247SOL    HW1 4640   5.540   0.208   6.399
 1247SOL    HW2 4641   5.539   0.060   6.331
 1248SOL     OW 4642   1.639   5.953   4.213
 1248SOL    HW1 4643   1.666   6.037   4.164
 1248SOL    HW2 4644   1.588   5.894   4.151
 1249SOL     OW 4645   0.448   3.300   1.297
 1249SOL    HW1 4646   0.355   3.332   1.278
 1249SOL    HW2 4647   0.510   3.336   1.228
 1250SOL     OW 4648   5.936   4.379   3.096
 1250SOL    HW1 4649   5.968   4.428   3.015
 1250SOL    HW2 4650   6.002   4.309   3.121
 1251SOL     OW 4651   1.825   1.008   2.969
 1251SOL    HW1 4652   1.788   1.051   2.887
 1251SOL    HW2 4653   1.925   1.014   2.969
 1252SOL     OW 4654   3.365   4.725   6.250
 1252SOL    HW1 4655   3.381   4.816   6.287
 1252SOL    HW2 4656   3.449   4.671   6.256
 1253SOL     OW 4657   2.562   0.556   2.564
 1253SOL    HW1 4658   2.509   0.533   2.646
 1253SOL    HW2 4659   2.658   0.534   2.579
 1254SOL     OW 4660   0.036   2.764   3.857
 1254SOL    HW1 4661   0.135   2.759   3.842
 1254SOL    HW2 4662   7.009   2.679   3.826
 1255SOL     OW 4663   5.264   2.106   6.214
 1255SOL    HW1 4664   5.309   2.119   6.125
 1255SOL    HW2 4665   5.331   2.121   6.287
 1256SOL     OW 4666   0.592   6.326   3.929
 1256SOL    HW1 4667   0.584   6.271   4.012
 1256SOL    HW2 4668   0.564   6.420   3.949
 1257SOL     OW 4669   0.179   4.464   3.944
 1257SOL    HW1 4670   0.152   4.391   4.007
 1257SOL    HW2 4671   0.097   4.511   3.910
 1258SOL     OW 4672   2.324   4.942   3.386
 1258SOL    HW1 4673   2.343   5.017   3.323
 1258SOL    HW2 4674   2.290   4.979   3.472
 1259SOL     OW 4675   3.833   6.702   4.932
 1259SOL    HW1 4676   3.854   6.662   4.842
 1259SOL    HW2 4677   3.836   6.802   4.926
 1260SOL     OW 4678   2.737   1.383   0.419
 1260SOL    HW1 4679   2.669   1.389   0.345
 1260SOL    HW2 4680   2.696   1.338   0.498
 1261SOL     OW 4681   0.174   5.160   6.552
 1261SOL    HW1 4682   0.191   5.154   6.650
 1261SOL    HW2 4683   0.187   5.254   6.521
 1262SOL     OW 4684   5.181   5.254   1.454
 1262SOL    HW1 4685   5.097   5.199   1.454
 1262SOL    HW2 4686   5.211   5.270   1.360
 1263SOL     OW 4687   0.069   1.804   1.651
 1263SOL    HW1 4688   7.003   1.861   1.651
 1263SOL    HW2 4689   0.044   1.709   1.665
 1264SOL     OW 4690   0.086   3.580   1.496
 1264SOL    HW1 4691   0.056   3.553   1.404
 1264SOL    HW2 4692   0.092   3.498   1.553
 1265SOL     OW 4693   5.838   5.367   3.517
 1265SOL    HW1 4694   5.824   5.344   3.614
 1265SOL    HW2 4695   5.769   5.320   3.462
 1266SOL     OW 4696   0.827   1.212   4.027
 1266SOL    HW1 4697   0.747   1.272   4.023
 1266SOL    HW2 4698   0.838   1.178   4.121
 1267SOL     OW 4699   5.485   6.561   1.229
 1267SOL    HW1 4700   5.495   6.532   1.134
 1267SOL    HW2 4701   5.559   6.522   1.284
 1268SOL     OW 4702   4.720   2.640   0.271
 1268SOL    HW1 4703   4.630   2.683   0.279
 1268SOL    HW2 4704   4.712   2.560   0.210
 1269SOL     OW 4705   5.606   6.875   5.836
 1269SOL    HW1 4706   5.620   6.939   5.912
 1269SOL    HW2 4707   5.630   6.783   5.866
 1270SOL     OW 4708   1.994   3.842   4.181
 1270SOL    HW1 4709   2.047   3.805   4.105
 1270SOL    HW2 4710   1.896   3.836   4.161
 1271SOL     OW 4711   3.167   1.481   3.526
 1271SOL    HW1 4712   3.260   1.497   3.558
 1271SOL    HW2 4713   3.155   1.521   3.435
 1272SOL     OW 4714   5.930   5.594   0.121
 1272SOL    HW1 4715   5.911   5.578   0.024
 1272SOL    HW2 4716   5.996   5.526   0.154
 1273SOL     OW 4717   1.079   4.601   6.909
 1273SOL    HW1 4718   1.107   4.604   7.005
 1273SOL    HW2 4719   1.106   4.513   6.869
 1274SOL     OW 4720   6.421   2.814   1.605
 1274SOL    HW1 4721   6.521   2.821   1.604
 1274SOL    HW2 4722   6.382   2.900   1.571
 1275SOL     OW 4723   3.177   1.155   3.888
 1275SOL    HW1 4724   3.215   1.064   3.902
 1275SOL    HW2 4725   3.249   1.224   3.901
 1276SOL     OW 4726   6.986   0.427   4.773
 1276SOL    HW1 4727   0.069   0.417   4.757
 1276SOL    HW2 4728   6.968   0.515   4.816
 1277SOL     OW 4729   1.205   6.614   6.033
 1277SOL    HW1 4730   1.196   6.693   5.973
 1277SOL    HW2 4731   1.281   6.557   6.003
 1278SOL     OW 4732   0.967   0.628   5.427
 1278SOL    HW1 4733   0.954   0.529   5.429
 1278SOL    HW2 4734   0.952   0.665   5.519
 1279SOL     OW 4735   3.668   5.877   0.988
 1279SOL    HW1 4736   3.751   5.931   0.975
 1279SOL    HW2 4737   3.693   5.783   1.013
 1280SOL     OW 4738   3.374   6.801   4.222
 1280SOL    HW1 4739   3.343   6.880   4.170
 1280SOL    HW2 4740   3.378   6.721   4.162
 1281SOL     OW 4741   1.547   5.998   2.852
 1281SOL    HW1 4742   1.629   6.053   2.867
 1281SOL    HW2 4743   1.475   6.056   2.812
 1282SOL     OW 4744   0.714   1.014   6.119
 1282SOL    HW1 4745   0.704   0.997   6.217
 1282SOL    HW2 4746   0.811   1.027   6.097
 1283SOL     OW 4747   5.870   2.945   5.340
 1283SOL    HW1 4748   5.951   2.920   5.286
 1283SOL    HW2 4749   5.898   2.999   5.419
 1284SOL     OW 4750   4.726   1.209   2.383
 1284SOL    HW1 4751   4.807   1.186   2.438
 1284SOL    HW2 4752   4.703   1.305   2.396
 1285SOL     OW 4753   4.755   3.039   6.811
 1285SOL    HW1 4754   4.724   2.957   6.859
 1285SOL    HW2 4755   4.706   3.119   6.848
 1286SOL     OW 4756   4.963   3.508   1.956
 1286SOL    HW1 4757   4.892   3.536   1.891
 1286SOL    HW2 4758   4.971   3.408   1.956
 1287SOL     OW 4759   5.328   4.454   5.648
 1287SOL    HW1 4760   5.246   4.397   5.652
 1287SOL    HW2 4761   5.328   4.519   5.724
 1288SOL     OW 4762   4.848   3.663   0.640
 1288SOL    HW1 4763   4.840   3.762   0.634
 1288SOL    HW2 4764   4.798   3.621   0.564
 1289SOL     OW 4765   0.791   5.958   2.236
 1289SOL    HW1 4766   0.804   6.015   2.155
 1289SOL    HW2 4767   0.734   5.879   2.213
 1290SOL     OW 4768   1.260   0.286   6.891
 1290SOL    HW1 4769   1.274   0.283   6.792
 1290SOL    HW2 4770   1.349   0.289   6.937
 1291SOL     OW 4771   0.143   3.844   5.262
 1291SOL    HW1 4772   0.125   3.771   5.195
 1291SOL    HW2 4773   0.240   3.843   5.285
 1292SOL     OW 4774   0.080   6.073   2.518
 1292SOL    HW1 4775   0.164   6.054   2.567
 1292SOL    HW2 4776   0.097   6.067   2.419
 1293SOL     OW 4777   1.239   1.419   0.013
 1293SOL    HW1 4778   1.310   1.391   6.965
 1293SOL    HW2 4779   1.265   1.392   0.106
 1294SOL     OW 4780   1.482   3.966   6.915
 1294SOL    HW1 4781   1.535   3.999   6.837
 1294SOL    HW2 4782   1.384   3.976   6.896
 1295SOL     OW 4783   0.060   3.378   2.595
 1295SOL    HW1 4784   6.990   3.396   2.546
 1295SOL    HW2 4785   0.103   3.466   2.619
 1296SOL     OW 4786   3.374   0.372   5.461
 1296SOL    HW1 4787   3.418   0.422   5.387
 1296SOL    HW2 4788   3.328   0.436   5.522
 1297SOL     OW 4789   5.727   0.694   1.068
 1297SOL    HW1 4790   5.774   0.696   0.980
 1297SOL    HW2 4791   5.746   0.778   1.119
 1298SOL     OW 4792   6.275   4.916   2.643
 1298SOL    HW1 4793   6.197   4.855   2.626
 1298SOL    HW2 4794   6.246   5.011   2.630
 1299SOL     OW 4795   0.824   3.995   3.457
 1299SOL    HW1 4796   0.810   3.907   3.410
 1299SOL    HW2 4797   0.747   4.055   3.437
 1300SOL     OW 4798   3.477   3.454   1.724
 1300SOL    HW1 4799   3.479   3.438   1.626
 1300SOL    HW2 4800   3.429   3.379   1.770
 1301SOL     OW 4801   0.164   5.394   1.533
 1301SOL    HW1 4802   0.140   5.490   1.545
 1301SOL    HW2 4803   0.255   5.377   1.570
 1302SOL     OW 4804   4.292   0.318   5.549
 1302SOL    HW1 4805   4.255   0.253   5.482
 1302SOL    HW2 4806   4.305   0.407   5.506
 1303SOL     OW 4807   4.352   1.333   2.309
 1303SOL    HW1 4808   4.262   1.330   2.351
 1303SOL    HW2 4809   4.420   1.295   2.372
 1304SOL     OW 4810   1.348   0.850   6.837
 1304SOL    HW1 4811   1.319   0.842   6.742
 1304SOL    HW2 4812   1.311   0.934   6.877
 1305SOL     OW 4813   4.300   3.113   0.032
 1305SOL    HW1 4814   4.365   3.174   7.002
 1305SOL    HW2 4815   4.325   3.105   0.129
 1306SOL     OW 4816   0.591   4.165   5.095
 1306SOL    HW1 4817   0.508   4.111   5.113
 1306SOL    HW2 4818   0.588   4.199   5.001
 1307SOL     OW 4819   1.074   3.719   5.043
 1307SOL    HW1 4820   1.133   3.645   5.075
 1307SOL    HW2 4821   0.983   3.684   5.025
 1308SOL     OW 4822   5.251   6.419   4.748
 1308SOL    HW1 4823   5.159   6.409   4.712
 1308SOL    HW2 4824   5.259   6.369   4.835
 1309SOL     OW 4825   4.751   3.027   5.233
 1309SOL    HW1 4826   4.755   3.126   5.244
 1309SOL    HW2 4827   4.717   2.986   5.317
 1310SOL     OW 4828   0.377   3.860   4.934
 1310SOL    HW1 4829   0.377   3.784   4.999
 1310SOL    HW2 4830   0.363   3.946   4.982
 1311SOL     OW 4831   0.138   0.721   4.614
 1311SOL    HW1 4832   0.212   0.785   4.597
 1311SOL    HW2 4833   0.073   0.723   4.537
 1312SOL     OW 4834   1.451   0.537   6.569
 1312SOL    HW1 4835   1.353   0.553   6.581
 1312SOL    HW2 4836   1.486   0.486   6.648
 1313SOL     OW 4837   1.300   4.339   4.017
 1313SOL    HW1 4838   1.341   4.381   4.098
 1313SOL    HW2 4839   1.363   4.348   3.940
 1314SOL     OW 4840   3.961   1.087   5.385
 1314SOL    HW1 4841   4.009   1.160   5.435
 1314SOL    HW2 4842   4.026   1.016   5.359
 1315SOL     OW 4843   0.297   0.984   0.794
 1315SOL    HW1 4844   0.221   0.928   0.760
 1315SOL    HW2 4845   0.262   1.050   0.860
 1316SOL     OW 4846   1.956   6.340   4.478
 1316SOL    HW1 4847   1.922   6.254   4.440
 1316SOL    HW2 4848   1.886   6.411   4.468
 1317SOL     OW 4849   1.955   4.061   5.382
 1317SOL    HW1 4850   2.036   4.114   5.358
 1317SOL    HW2 4851   1.888   4.066   5.308
 1318SOL     OW 4852   1.169   0.924   0.782
 1318SOL    HW1 4853   1.251   0.868   0.778
 1318SOL    HW2 4854   1.185   1.009   0.732
 1319SOL     OW 4855   0.093   0.942   6.505
 1319SOL    HW1 4856   0.138   1.017   6.456
 1319SOL    HW2 4857   0.154   0.864   6.510
 1320SOL     OW 4858   5.324   3.528   0.518
 1320SOL    HW1 4859   5.417   3.515   0.482
 1320SOL    HW2 4860   5.263   3.554   0.443
 1321SOL     OW 4861   5.019   2.094   6.024
 1321SOL    HW1 4862   4.951   2.167   6.015
 1321SOL    HW2 4863   5.065   2.103   6.113
 1322SOL     OW 4864   3.945   0.723   3.774
 1322SOL    HW1 4865   3.852   0.714   3.810
 1322SOL    HW2 4866   3.991   0.798   3.820
 1323SOL     OW 4867   4.694   1.739   5.305
 1323SOL    HW1 4868   4.790   1.718   5.285
 1323SOL    HW2 4869   4.650   1.776   5.224
 1324SOL     OW 4870   1.201   2.982   6.987
 1324SOL    HW1 4871   1.272   3.029   0.023
 1324SOL    HW2 4872   1.174   2.898   0.018
 1325SOL     OW 4873   1.802   6.616   2.304
 1325SOL    HW1 4874   1.901   6.600   2.295
 1325SOL    HW2 4875   1.775   6.689   2.241
 1326SOL     OW 4876   4.961   3.430   4.921
 1326SOL    HW1 4877   4.971   3.355   4.985
 1326SOL    HW2 4878   4.899   3.499   4.958
 1327SOL     OW 4879   1.869   4.496   1.558
 1327SOL    HW1 4880   1.836   4.439   1.634
 1327SOL    HW2 4881   1.830   4.588   1.566
 1328SOL     OW 4882   1.844   2.694   0.842
 1328SOL    HW1 4883   1.902   2.758   0.790
 1328SOL    HW2 4884   1.871   2.695   0.938
 1329SOL     OW 4885   1.154   2.520   1.056
 1329SOL    HW1 4886   1.148   2.556   0.963
 1329SOL    HW2 4887   1.122   2.588   1.121
 1330SOL     OW 4888   6.866   1.107   1.474
 1330SOL    HW1 4889   6.889   1.071   1.383
 1330SOL    HW2 4890   6.948   1.108   1.531
 1331SOL     OW 4891   4.977   2.573   3.355
 1331SOL    HW1 4892   5.062   2.522   3.341
 1331SOL    HW2 4893   4.900   2.523   3.316
 1332SOL     OW 4894   2.725   0.004   0.189
 1332SOL    HW1 4895   2.823   0.012   0.168
 1332SOL    HW2 4896   2.691   6.931   0.157
 1333SOL     OW 4897   3.661   3.502   5.600
 1333SOL    HW1 4898   3.639   3.471   5.693
 1333SOL    HW2 4899   3.701   3.594   5.604
 1334SOL     OW 4900   6.267   2.426   4.484
 1334SOL    HW1 4901   6.215   2.366   4.546
 1334SOL    HW2 4902   6.356   2.385   4.464
 1335SOL     OW 4903   2.716   1.386   3.220
 1335SOL    HW1 4904   2.811   1.355   3.213
 1335SOL    HW2 4905   2.699   1.419   3.312
 1336SOL     OW 4906   1.790   1.889   5.647
 1336SOL    HW1 4907   1.801   1.824   5.572
 1336SOL    HW2 4908   1.841   1.857   5.726
 1337SOL     OW 4909   1.578   1.515   5.143
 1337SOL    HW1 4910   1.657   1.522   5.083
 1337SOL    HW2 4911   1.563   1.603   5.188
 1338SOL     OW 4912   5.647   1.937   6.429
 1338SOL    HW1 4913   5.733   1.961   6.386
 1338SOL    HW2 4914   5.663   1.913   6.525
 1339SOL     OW 4915   0.952   1.159   6.386
 1339SOL    HW1 4916   0.905   1.072   6.369
 1339SOL    HW2 4917   0.939   1.219   6.307
 1340SOL     OW 4918   0.851   2.277   2.041
 1340SOL    HW1 4919   0.814   2.260   2.133
 1340SOL    HW2 4920   0.875   2.190   1.999
 1341SOL     OW 4921   5.319   0.452   5.760
 1341SOL    HW1 4922   5.273   0.422   5.676
 1341SOL    HW2 4923   5.278   0.537   5.792
 1342SOL     OW 4924   1.643   4.783   6.093
 1342SOL    HW1 4925   1.693   4.724   6.156
 1342SOL    HW2 4926   1.612   4.730   6.014
 1343SOL     OW 4927   4.331   5.907   2.528
 1343SOL    HW1 4928   4.307   5.921   2.624
 1343SOL    HW2 4929   4.414   5.850   2.522
 1344SOL     OW 4930   0.022   4.838   3.835
 1344SOL    HW1 4931   0.061   4.905   3.772
 1344SOL    HW2 4932   0.024   4.747   3.792
 1345SOL     OW 4933   1.587   1.367   2.798
 1345SOL    HW1 4934   1.575   1.350   2.896
 1345SOL    HW2 4935   1.664   1.314   2.764
 1346SOL     OW 4936   0.854   6.578   4.339
 1346SOL    HW1 4937   0.766   6.605   4.376
 1346SOL    HW2 4938   0.925   6.642   4.370
 1347SOL     OW 4939   6.574   5.632   4.284
 1347SOL    HW1 4940   6.486   5.655   4.325
 1347SOL    HW2 4941   6.562   5.556   4.220
 1348SOL     OW 4942   5.000   4.789   2.341
 1348SOL    HW1 4943   5.091   4.777   2.379
 1348SOL    HW2 4944   4.942   4.837   2.407
 1349SOL     OW 4945   4.616   1.886   6.189
 1349SOL    HW1 4946   4.559   1.841   6.258
 1349SOL    HW2 4947   4.610   1.986   6.201
 1350SOL     OW 4948   5.052   4.295   6.735
 1350SOL    HW1 4949   5.118   4.247   6.793
 1350SOL    HW2 4950   5.094   4.377   6.697
 1351SOL     OW 4951   6.514   1.775   3.540
 1351SOL    HW1 4952   6.456   1.694   3.537
 1351SOL    HW2 4953   6.494   1.834   3.462
 1352SOL     OW 4954   6.551   0.107   2.917
 1352SOL    HW1 4955   6.619   0.102   2.843
 1352SOL    HW2 4956   6.511   0.016   2.930
 1353SOL     OW 4957   6.847   3.929   6.033
 1353SOL    HW1 4958   6.822   3.922   6.129
 1353SOL    HW2 4959   6.768   3.907   5.976
 1354SOL     OW 4960   0.602   2.257   0.249
 1354SOL    HW1 4961   0.526   2.323   0.246
 1354SOL    HW2 4962   0.645   2.261   0.339
 1355SOL     OW 4963   0.196   2.503   5.346
 1355SOL    HW1 4964   0.114   2.506   5.404
 1355SOL    HW2 4965   0.182   2.435   5.273
 1356SOL     OW 4966   2.899   3.633   3.060
 1356SOL    HW1 4967   2.862   3.658   2.971
 1356SOL    HW2 4968   2.922   3.716   3.111
 1357SOL     OW 4969   1.419   4.180   5.635
 1357SOL    HW1 4970   1.509   4.187   5.678
 1357SOL    HW2 4971   1.364   4.260   5.659
 1358SOL     OW 4972   4.110   1.014   5.836
 1358SOL    HW1 4973   4.186   0.974   5.786
 1358SOL    HW2 4974   4.107   0.976   5.929
 1359SOL     OW 4975   6.466   4.894   1.679
 1359SOL    HW1 4976   6.404   4.847   1.741
 1359SOL    HW2 4977   6.417   4.967   1.632
 1360SOL     OW 4978   4.204   3.062   1.184
 1360SOL    HW1 4979   4.270   3.055   1.259
 1360SOL    HW2 4980   4.112   3.070   1.222
 1361SOL     OW 4981   0.281   5.937   5.488
 1361SOL    HW1 4982   0.227   6.018   5.466
 1361SOL    HW2 4983   0.376   5.952   5.459
 1362SOL     OW 4984   2.994   3.868   4.413
 1362SOL    HW1 4985   2.994   3.968   4.405
 1362SOL    HW2 4986   2.950   3.841   4.498
 1363SOL     OW 4987   6.727   5.715   3.597
 1363SOL    HW1 4988   6.765   5.699   3.688
 1363SOL    HW2 4989   6.778   5.662   3.530
 1364SOL     OW 4990   6.681   2.319   0.617
 1364SOL    HW1 4991   6.704   2.333   0.521
 1364SOL    HW2 4992   6.688   2.405   0.667
 1365SOL     OW 4993   1.082   2.725   5.512
 1365SOL    HW1 4994   1.121   2.768   5.593
 1365SOL    HW2 4995   1.047   2.634   5.536
 1366SOL     OW 4996   0.289   4.211   0.272
 1366SOL    HW1 4997   0.329   4.119   0.269
 1366SOL    HW2 4998   0.362   4.279   0.277
 1367SOL     OW 4999   1.674   5.900   2.547
 1367SOL    HW1 5000   1.702   5.805   2.561
 1367SOL    HW2 5001   1.722   5.959   2.612
 1368SOL     OW 5002   6.811   0.517   3.996
 1368SOL    HW1 5003   6.772   0.427   4.019
 1368SOL    HW2 5004   6.859   0.510   3.908
 1369SOL     OW 5005   2.318   6.878   2.316
 1369SOL    HW1 5006   2.283   6.871   2.409
 1369SOL    HW2 5007   2.264   6.945   2.266
 1370SOL     OW 5008   4.515   1.574   2.629
 1370SOL    HW1 5009   4.538   1.512   2.554
 1370SOL    HW2 5010   4.416   1.588   2.632
 1371SOL     OW 5011   6.002   1.432   4.724
 1371SOL    HW1 5012   6.084   1.376   4.741
 1371SOL    HW2 5013   5.947   1.388   4.653
 1372SOL     OW 5014   1.268   2.491   0.493
 1372SOL    HW1 5015   1.357   2.451   0.518
 1372SOL    HW2 5016   1.199   2.419   0.488
 1373SOL     OW 5017   4.425   2.706   0.300
 1373SOL    HW1 5018   4.353   2.739   0.240
 1373SOL    HW2 5019   4.427   2.761   0.384
 1374SOL     OW 5020   4.385   2.176   1.020
 1374SOL    HW1 5021   4.364   2.122   0.938
 1374SOL    HW2 5022   4.341   2.135   1.099
 1375SOL     OW 5023   0.349   6.011   6.262
 1375SOL    HW1 5024   0.410   6.071   6.211
 1375SOL    HW2 5025   0.324   6.054   6.349
 1376SOL     OW 5026   4.635   4.721   5.188
 1376SOL    HW1 5027   4.700   4.646   5.192
 1376SOL    HW2 5028   4.678   4.805   5.220
 1377SOL     OW 5029   0.884   3.410   5.263
 1377SOL    HW1 5030   0.838   3.352   5.331
 1377SOL    HW2 5031   0.938   3.353   5.202
 1378SOL     OW 5032   5.663   1.692   4.579
 1378SOL    HW1 5033   5.663   1.731   4.486
 1378SOL    HW2 5034   5.626   1.599   4.576
 1379SOL     OW 5035   4.010   6.143   3.162
 1379SOL    HW1 5036   4.064   6.208   3.215
 1379SOL    HW2 5037   4.029   6.050   3.194
 1380SOL     OW 5038   0.249   6.903   3.885
 1380SOL    HW1 5039   0.233   6.821   3.830
 1380SOL    HW2 5040   0.187   6.976   3.855
 1381SOL     OW 5041   5.979   1.828   0.712
 1381SOL    HW1 5042   6.038   1.865   0.641
 1381SOL    HW2 5043   5.906   1.774   0.670
 1382SOL     OW 5044   5.179   2.892   1.030
 1382SOL    HW1 5045   5.099   2.920   1.083
 1382SOL    HW2 5046   5.248   2.964   1.034
 1383SOL     OW 5047   0.958   0.696   2.277
 1383SOL    HW1 5048   0.880   0.732   2.329
 1383SOL    HW2 5049   0.932   0.608   2.236
 1384SOL     OW 5050   4.642   0.600   1.842
 1384SOL    HW1 5051   4.657   0.641   1.752
 1384SOL    HW2 5052   4.676   0.662   1.913
 1385SOL     OW 5053   2.930   4.843   3.409
 1385SOL    HW1 5054   3.020   4.884   3.427
 1385SOL    HW2 5055   2.892   4.809   3.495
 1386SOL     OW 5056   2.965   0.925   3.814
 1386SOL    HW1 5057   2.913   0.892   3.735
 1386SOL    HW2 5058   3.016   1.007   3.788
 1387SOL     OW 5059   3.345   5.983   2.912
 1387SOL    HW1 5060   3.346   5.983   3.012
 1387SOL    HW2 5061   3.405   5.911   2.878
 1388SOL     OW 5062   0.487   0.860   2.810
 1388SOL    HW1 5063   0.488   0.960   2.800
 1388SOL    HW2 5064   0.519   0.836   2.901
 1389SOL     OW 5065   6.839   1.326   3.763
 1389SOL    HW1 5066   6.803   1.360   3.850
 1389SOL    HW2 5067   6.800   1.235   3.745
 1390SOL     OW 5068   6.293   2.850   6.345
 1390SOL    HW1 5069   6.207   2.890   6.312
 1390SOL    HW2 5070   6.370   2.907   6.316
 1391SOL     OW 5071   6.238   0.294   5.183
 1391SOL    HW1 5072   6.252   0.279   5.085
 1391SOL    HW2 5073   6.141   0.286   5.205
 1392SOL     OW 5074   5.725   6.645   5.929
 1392SOL    HW1 5075   5.775   6.615   5.848
 1392SOL    HW2 5076   5.790   6.664   6.003
 1393SOL     OW 5077   6.686   4.215   6.103
 1393SOL    HW1 5078   6.688   4.218   6.203
 1393SOL    HW2 5079   6.768   4.168   6.069
 1394SOL     OW 5080   3.622   5.875   5.702
 1394SOL    HW1 5081   3.720   5.858   5.715
 1394SOL    HW2 5082   3.599   5.965   5.737
 1395SOL     OW 5083   1.535   4.839   4.894
 1395SOL    HW1 5084   1.574   4.930   4.886
 1395SOL    HW2 5085   1.599   4.778   4.941
 1396SOL     OW 5086   6.804   1.337   5.155
 1396SOL    HW1 5087   6.726   1.274   5.152
 1396SOL    HW2 5088   6.807   1.390   5.070
 1397SOL     OW 5089   0.843   6.224   4.736
 1397SOL    HW1 5090   0.814   6.140   4.691
 1397SOL    HW2 5091   0.942   6.222   4.751
 1398SOL     OW 5092   2.774   0.744   6.583
 1398SOL    HW1 5093   2.769   0.840   6.555
 1398SOL    HW2 5094   2.841   0.696   6.526
 1399SOL     OW 5095   4.017   5.354   0.751
 1399SOL    HW1 5096   4.024   5.399   0.662
 1399SOL    HW2 5097   4.030   5.421   0.824
 1400SOL     OW 5098   0.420   1.656   4.249
 1400SOL    HW1 5099   0.508   1.694   4.220
 1400SOL    HW2 5100   0.430   1.615   4.340
 1401SOL     OW 5101   6.151   0.313   4.219
 1401SOL    HW1 5102   6.238   0.265   4.229
 1401SOL    HW2 5103   6.083   0.250   4.181
 1402SOL     OW 5104   5.121   3.759   6.348
 1402SOL    HW1 5105   5.143   3.670   6.308
 1402SOL    HW2 5106   5.183   3.777   6.425
 1403SOL     OW 5107   2.651   1.718   0.397
 1403SOL    HW1 5108   2.702   1.684   0.476
 1403SOL    HW2 5109   2.693   1.803   0.365
 1404SOL     OW 5110   6.649   0.009   6.784
 1404SOL    HW1 5111   6.676   0.069   6.708
 1404SOL    HW2 5112   6.555   0.030   6.811
 1405SOL     OW 5113   2.835   2.936   0.764
 1405SOL    HW1 5114   2.758   2.964   0.821
 1405SOL    HW2 5115   2.809   2.856   0.710
 1406SOL     OW 5116   0.799   5.776   0.844
 1406SOL    HW1 5117   0.845   5.690   0.865
 1406SOL    HW2 5118   0.702   5.768   0.866
 1407SOL     OW 5119   0.703   3.332   3.990
 1407SOL    HW1 5120   0.713   3.426   3.957
 1407SOL    HW2 5121   0.742   3.324   4.081
 1408SOL     OW 5122   4.857   1.477   6.014
 1408SOL    HW1 5123   4.800   1.504   6.091
 1408SOL    HW2 5124   4.943   1.527   6.017
 1409SOL     OW 5125   0.205   0.213   5.565
 1409SOL    HW1 5126   0.251   0.299   5.541
 1409SOL    HW2 5127   0.259   0.165   5.635
 1410SOL     OW 5128   1.638   4.144   6.240
 1410SOL    HW1 5129   1.542   4.171   6.236
 1410SOL    HW2 5130   1.695   4.218   6.205
 1411SOL     OW 5131   3.037   6.739   0.502
 1411SOL    HW1 5132   3.068   6.831   0.477
 1411SOL    HW2 5133   3.101   6.671   0.467
 1412SOL     OW 5134   1.345   3.173   1.327
 1412SOL    HW1 5135   1.339   3.252   1.388
 1412SOL    HW2 5136   1.256   3.128   1.323
 1413SOL     OW 5137   2.030   1.205   4.430
 1413SOL    HW1 5138   2.013   1.302   4.411
 1413SOL    HW2 5139   1.945   1.161   4.460
 1414SOL     OW 5140   1.867   1.595   2.025
 1414SOL    HW1 5141   1.870   1.585   1.925
 1414SOL    HW2 5142   1.836   1.509   2.066
 1415SOL     OW 5143   1.776   1.361   4.726
 1415SOL    HW1 5144   1.806   1.441   4.674
 1415SOL    HW2 5145   1.788   1.279   4.670
 1416SOL     OW 5146   4.281   6.056   4.588
 1416SOL    HW1 5147   4.265   5.965   4.550
 1416SOL    HW2 5148   4.275   6.124   4.514
 1417SOL     OW 5149   3.087   2.775   0.510
 1417SOL    HW1 5150   3.149   2.698   0.494
 1417SOL    HW2 5151   3.132   2.860   0.485
 1418SOL     OW 5152   3.365   3.549   2.237
 1418SOL    HW1 5153   3.449   3.603   2.243
 1418SOL    HW2 5154   3.344   3.510   2.326
 1419SOL     OW 5155   3.320   6.251   4.293
 1419SOL    HW1 5156   3.350   6.276   4.201
 1419SOL    HW2 5157   3.278   6.331   4.337
 1420SOL     OW 5158   2.958   6.422   2.411
 1420SOL    HW1 5159   2.969   6.342   2.471
 1420SOL    HW2 5160   3.047   6.447   2.373
 1421SOL     OW 5161   1.962   4.851   4.009
 1421SOL    HW1 5162   2.051   4.818   3.980
 1421SOL    HW2 5163   1.972   4.910   4.089
 1422SOL     OW 5164   1.667   4.429   6.420
 1422SOL    HW1 5165   1.706   4.516   6.390
 1422SOL    HW2 5166   1.741   4.364   6.439
 1423SOL     OW 5167   4.685   6.799   4.488
 1423SOL    HW1 5168   4.647   6.708   4.473
 1423SOL    HW2 5169   4.616   6.868   4.465
 1424SOL     OW 5170   6.322   3.678   6.268
 1424SOL    HW1 5171   6.343   3.769   6.304
 1424SOL    HW2 5172   6.368   3.666   6.180
 1425SOL     OW 5173   1.779   5.241   5.799
 1425SOL    HW1 5174   1.681   5.234   5.814
 1425SOL    HW2 5175   1.828   5.222   5.884
 1426SOL     OW 5176   2.649   2.919   6.847
 1426SOL    HW1 5177   2.564   2.877   6.879
 1426SOL    HW2 5178   2.645   3.018   6.863
 1427SOL     OW 5179   6.694   0.305   4.118
 1427SOL    HW1 5180   6.719   0.351   4.204
 1427SOL    HW2 5181   6.595   0.289   4.117
 1428SOL     OW 5182   0.605   1.853   0.047
 1428SOL    HW1 5183   0.526   1.846   7.002
 1428SOL    HW2 5184   0.640   1.947   0.046
 1429SOL     OW 5185   4.696   1.252   0.039
 1429SOL    HW1 5186   4.716   1.272   6.958
 1429SOL    HW2 5187   4.655   1.162   0.046
 1430SOL     OW 5188   2.089   5.078   4.128
 1430SOL    HW1 5189   2.081   5.137   4.048
 1430SOL    HW2 5190   2.000   5.070   4.173
 1431SOL     OW 5191   2.533   2.016   6.640
 1431SOL    HW1 5192   2.436   2.004   6.664
 1431SOL    HW2 5193   2.540   2.078   6.562
 1432SOL     OW 5194   2.995   1.509   1.066
 1432SOL    HW1 5195   2.924   1.478   1.129
 1432SOL    HW2 5196   3.085   1.500   1.109
 1433SOL     OW 5197   4.851   0.563   5.282
 1433SOL    HW1 5198   4.807   0.488   5.232
 1433SOL    HW2 5199   4.815   0.650   5.249
 1434SOL     OW 5200   0.929   0.066   5.991
 1434SOL    HW1 5201   0.960   0.148   5.943
 1434SOL    HW2 5202   0.829   0.070   6.004
 1435SOL     OW 5203   6.780   6.858   3.627
 1435SOL    HW1 5204   6.765   6.841   3.724
 1435SOL    HW2 5205   6.839   6.787   3.589
 1436SOL     OW 5206   4.795   3.990   6.936
 1436SOL    HW1 5207   4.701   3.979   6.904
 1436SOL    HW2 5208   4.857   3.993   6.857
 1437SOL     OW 5209   3.427   1.897   5.636
 1437SOL    HW1 5210   3.335   1.909   5.673
 1437SOL    HW2 5211   3.453   1.801   5.643
 1438SOL     OW 5212   2.980   6.806   1.993
 1438SOL    HW1 5213   2.918   6.767   1.925
 1438SOL    HW2 5214   2.963   6.905   2.001
 1439SOL     OW 5215   6.771   4.744   0.647
 1439SOL    HW1 5216   6.845   4.723   0.711
 1439SOL    HW2 5217   6.810   4.765   0.557
 1440SOL     OW 5218   3.261   3.161   6.258
 1440SOL    HW1 5219   3.273   3.239   6.196
 1440SOL    HW2 5220   3.294   3.078   6.214
 1441SOL     OW 5221   6.051   1.856   3.962
 1441SOL    HW1 5222   5.953   1.836   3.963
 1441SOL    HW2 5223   6.098   1.794   4.024
 1442SOL     OW 5224   6.807   5.522   6.549
 1442SOL    HW1 5225   6.806   5.579   6.631
 1442SOL    HW2 5226   6.902   5.503   6.523
 1443SOL     OW 5227   0.825   2.911   4.287
 1443SOL    HW1 5228   0.786   2.921   4.195
 1443SOL    HW2 5229   0.752   2.904   4.354
 1444SOL     OW 5230   4.111   5.767   1.055
 1444SOL    HW1 5231   4.182   5.835   1.037
 1444SOL    HW2 5232   4.021   5.811   1.052
 1445SOL     OW 5233   0.448   3.405   2.731
 1445SOL    HW1 5234   0.400   3.433   2.815
 1445SOL    HW2 5235   0.381   3.376   2.663
 1446SOL     OW 5236   5.131   2.490   0.300
 1446SOL    HW1 5237   5.104   2.483   0.396
 1446SOL    HW2 5238   5.227   2.517   0.294
 1447SOL     OW 5239   5.929   6.867   5.421
 1447SOL    HW1 5240   5.990   6.803   5.375
 1447SOL    HW2 5241   5.835   6.848   5.395
 1448SOL     OW 5242   6.731   2.230   6.169
 1448SOL    HW1 5243   6.700   2.172   6.244
 1448SOL    HW2 5244   6.712   2.326   6.191
 1449SOL     OW 5245   0.854   0.970   0.525
 1449SOL    HW1 5246   0.883   1.034   0.596
 1449SOL    HW2 5247   0.877   0.877   0.552
 1450SOL     OW 5248   0.911   2.366   1.227
 1450SOL    HW1 5249   0.835   2.341   1.285
 1450SOL    HW2 5250   0.983   2.296   1.232
 1451SOL     OW 5251   1.937   0.310   2.410
 1451SOL    HW1 5252   1.854   0.263   2.439
 1451SOL    HW2 5253   1.913   0.384   2.348
 1452SOL     OW 5254   4.594   0.828   4.667
 1452SOL    HW1 5255   4.582   0.729   4.677
 1452SOL    HW2 5256   4.518   0.875   4.712
 1453SOL     OW 5257   0.116   3.718   5.558
 1453SOL    HW1 5258   0.208   3.751   5.578
 1453SOL    HW2 5259   0.083   3.758   5.473
 1454SOL     OW 5260   0.227   3.446   2.178
 1454SOL    HW1 5261   0.135   3.457   2.215
 1454SOL    HW2 5262   0.226   3.375   2.107
 1455SOL     OW 5263   0.789   1.007   2.154
 1455SOL    HW1 5264   0.734   1.090   2.167
 1455SOL    HW2 5265   0.857   1.023   2.082
 1456SOL     OW 5266   6.729   6.480   5.083
 1456SOL    HW1 5267   6.730   6.420   5.163
 1456SOL    HW2 5268   6.759   6.429   5.003
 1457SOL     OW 5269   1.229   6.681   1.724
 1457SOL    HW1 5270   1.298   6.609   1.727
 1457SOL    HW2 5271   1.156   6.656   1.661
 1458SOL     OW 5272   5.924   5.597   3.093
 1458SOL    HW1 5273   5.951   5.693   3.089
 1458SOL    HW2 5274   5.936   5.563   3.187
 1459SOL     OW 5275   2.834   5.640   5.849
 1459SOL    HW1 5276   2.864   5.601   5.762
 1459SOL    HW2 5277   2.839   5.740   5.844
 1460SOL     OW 5278   0.728   5.590   5.406
 1460SOL    HW1 5279   0.674   5.519   5.362
 1460SOL    HW2 5280   0.669   5.647   5.463
 1461SOL     OW 5281   6.504   5.219   3.465
 1461SOL    HW1 5282   6.479   5.316   3.467
 1461SOL    HW2 5283   6.431   5.165   3.508
 1462SOL     OW 5284   1.187   0.513   6.631
 1462SOL    HW1 5285   1.093   0.521   6.596
 1462SOL    HW2 5286   1.208   0.416   6.646
 1463SOL     OW 5287   6.985   6.068   6.776
 1463SOL    HW1 5288   6.924   6.112   6.842
 1463SOL    HW2 5289   0.020   5.995   6.822
 1464SOL     OW 5290   6.783   0.256   1.115
 1464SOL    HW1 5291   6.852   0.288   1.181
 1464SOL    HW2 5292   6.712   0.325   1.105
 1465SOL     OW 5293   1.731   1.293   3.352
 1465SOL    HW1 5294   1.681   1.261   3.271
 1465SOL    HW2 5295   1.806   1.231   3.371
 1466SOL     OW 5296   1.418   1.740   2.016
 1466SOL    HW1 5297   1.482   1.692   1.957
 1466SOL    HW2 5298   1.339   1.769   1.963
 1467SOL     OW 5299   1.634   1.923   2.913
 1467SOL    HW1 5300   1.637   1.824   2.899
 1467SOL    HW2 5301   1.688   1.968   2.842
 1468SOL     OW 5302   4.565   5.711   2.523
 1468SOL    HW1 5303   4.635   5.681   2.588
 1468SOL    HW2 5304   4.603   5.708   2.430
 1469SOL     OW 5305   0.733   1.193   1.881
 1469SOL    HW1 5306   0.784   1.272   1.848
 1469SOL    HW2 5307   0.794   1.114   1.887
 1470SOL     OW 5308   1.648   1.616   2.531
 1470SOL    HW1 5309   1.617   1.711   2.533
 1470SOL    HW2 5310   1.571   1.556   2.513
 1471SOL     OW 5311   0.813   0.164   1.282
 1471SOL    HW1 5312   0.844   0.201   1.195
 1471SOL    HW2 5313   0.761   0.080   1.266
 1472SOL     OW 5314   3.825   6.243   5.840
 1472SOL    HW1 5315   3.924   6.229   5.837
 1472SOL    HW2 5316   3.781   6.158   5.871
 1473SOL     OW 5317   5.067   6.112   4.770
 1473SOL    HW1 5318   5.054   6.149   4.678
 1473SOL    HW2 5319   5.009   6.031   4.782
 1474SOL     OW 5320   5.432   5.558   2.510
 1474SOL    HW1 5321   5.479   5.519   2.589
 1474SOL    HW2 5322   5.370   5.490   2.471
 1475SOL     OW 5323   6.650   0.180   1.993
 1475SOL    HW1 5324   6.570   0.143   1.945
 1475SOL    HW2 5325   6.634   0.276   2.013
 1476SOL     OW 5326   2.759   1.058   1.343
 1476SOL    HW1 5327   2.795   0.967   1.321
 1476SOL    HW2 5328   2.712   1.054   1.431
 1477SOL     OW 5329   3.805   6.928   6.518
 1477SOL    HW1 5330   3.820   6.832   6.544
 1477SOL    HW2 5331   3.762   6.976   6.594
 1478SOL     OW 5332   6.379   5.503   6.871
 1478SOL    HW1 5333   6.333   5.416   6.889
 1478SOL    HW2 5334   6.401   5.509   6.774
 1479SOL     OW 5335   1.785   2.756   6.740
 1479SOL    HW1 5336   1.822   2.663   6.741
 1479SOL    HW2 5337   1.738   2.775   6.826
 1480SOL     OW 5338   3.257   0.508   5.675
 1480SOL    HW1 5339   3.206   0.578   5.626
 1480SOL    HW2 5340   3.278   0.541   5.767
 1481SOL     OW 5341   6.779   2.822   5.824
 1481SOL    HW1 5342   6.784   2.738   5.770
 1481SOL    HW2 5343   6.765   2.900   5.763
 1482SOL     OW 5344   4.772   2.281   1.504
 1482SOL    HW1 5345   4.691   2.272   1.562
 1482SOL    HW2 5346   4.854   2.289   1.560
 1483SOL     OW 5347   4.831   2.172   7.004
 1483SOL    HW1 5348   4.884   2.139   6.926
 1483SOL    HW2 5349   4.744   2.123   7.008
 1484SOL     OW 5350   6.034   4.766   3.969
 1484SOL    HW1 5351   6.115   4.796   4.020
 1484SOL    HW2 5352   5.979   4.846   3.944
 1485SOL     OW 5353   3.679   1.429   3.133
 1485SOL    HW1 5354   3.581   1.406   3.140
 1485SOL    HW2 5355   3.714   1.455   3.223
 1486SOL     OW 5356   5.243   1.782   2.653
 1486SOL    HW1 5357   5.304   1.716   2.608
 1486SOL    HW2 5358   5.273   1.875   2.630
 1487SOL     OW 5359   6.656   2.029   6.348
 1487SOL    HW1 5360   6.616   1.938   6.365
 1487SOL    HW2 5361   6.715   2.054   6.425
 1488SOL     OW 5362   4.929   1.338   3.830
 1488SOL    HW1 5363   5.019   1.295   3.825
 1488SOL    HW2 5364   4.928   1.421   3.773
 1489SOL     OW 5365   4.219   5.408   4.589
 1489SOL    HW1 5366   4.121   5.419   4.602
 1489SOL    HW2 5367   4.237   5.329   4.531
 1490SOL     OW 5368   1.248   2.871   2.251
 1490SOL    HW1 5369   1.150   2.881   2.269
 1490SOL    HW2 5370   1.267   2.776   2.226
 1491SOL     OW 5371   6.197   3.954   3.272
 1491SOL    HW1 5372   6.144   3.956   3.357
 1491SOL    HW2 5373   6.162   3.882   3.212
 1492SOL     OW 5374   5.598   0.758   2.258
 1492SOL    HW1 5375   5.616   0.840   2.204
 1492SOL    HW2 5376   5.659   0.757   2.337
 1493SOL     OW 5377   4.152   6.599   4.860
 1493SOL    HW1 5378   4.231   6.541   4.840
 1493SOL    HW2 5379   4.104   6.564   4.940
 1494SOL     OW 5380   5.396   1.828   6.269
 1494SOL    HW1 5381   5.339   1.908   6.289
 1494SOL    HW2 5382   5.423   1.785   6.355
 1495SOL     OW 5383   6.655   2.758   4.396
 1495SOL    HW1 5384   6.641   2.729   4.490
 1495SOL    HW2 5385   6.702   2.847   4.394
 1496SOL     OW 5386   0.651   1.540   1.438
 1496SOL    HW1 5387   0.597   1.458   1.457
 1496SOL    HW2 5388   0.747   1.524   1.462
 1497SOL     OW 5389   6.100   3.236   3.289
 1497SOL    HW1 5390   6.086   3.252   3.192
 1497SOL    HW2 5391   6.021   3.267   3.341
 1498SOL     OW 5392   1.988   5.210   6.577
 1498SOL    HW1 5393   2.000   5.127   6.633
 1498SOL    HW2 5394   1.970   5.288   6.637
 1499SOL     OW 5395   0.982   2.676   6.359
 1499SOL    HW1 5396   1.061   2.705   6.412
 1499SOL    HW2 5397   0.925   2.616   6.415
 1500SOL     OW 5398   6.818   6.801   6.872
 1500SOL    HW1 5399   6.737   6.790   6.929
 1500SOL    HW2 5400   6.793   6.850   6.788
 1501SOL     OW 5401   5.415   2.667   6.470
 1501SOL    HW1 5402   5.439   2.571   6.456
 1501SOL    HW2 5403   5.407   2.713   6.381
 1502SOL     OW 5404   4.655   0.280   0.570
 1502SOL    HW1 5405   4.578   0.281   0.508
 1502SOL    HW2 5406   4.633   0.224   0.650
 1503SOL     OW 5407   0.548   3.807   1.344
 1503SOL    HW1 5408   0.483   3.881   1.327
 1503SOL    HW2 5409   0.623   3.842   1.400
 1504SOL     OW 5410   0.928   0.509   5.813
 1504SOL    HW1 5411   0.914   0.490   5.910
 1504SOL    HW2 5412   0.975   0.597   5.802
 1505SOL     OW 5413   5.561   1.109   5.785
 1505SOL    HW1 5414   5.511   1.177   5.837
 1505SOL    HW2 5415   5.603   1.153   5.705
 1506SOL     OW 5416   0.892   5.922   1.053
 1506SOL    HW1 5417   0.899   6.019   1.030
 1506SOL    HW2 5418   0.863   5.870   0.973
 1507SOL     OW 5419   0.954   1.677   5.277
 1507SOL    HW1 5420   0.948   1.737   5.197
 1507SOL    HW2 5421   0.911   1.589   5.255
 1508SOL     OW 5422   6.701   0.859   2.041
 1508SOL    HW1 5423   6.602   0.870   2.042
 1508SOL    HW2 5424   6.726   0.774   2.086
 1509SOL     OW 5425   4.122   1.609   6.064
 1509SOL    HW1 5426   4.136   1.631   5.967
 1509SOL    HW2 5427   4.140   1.512   6.079
 1510SOL     OW 5428   4.377   2.077   4.871
 1510SOL    HW1 5429   4.377   2.161   4.925
 1510SOL    HW2 5430   4.456   2.021   4.896
 1511SOL     OW 5431   3.591   3.230   2.093
 1511SOL    HW1 5432   3.522   3.240   2.021
 1511SOL    HW2 5433   3.671   3.183   2.057
 1512SOL     OW 5434   0.133   5.230   1.302
 1512SOL    HW1 5435   0.219   5.178   1.298
 1512SOL    HW2 5436   0.129   5.281   1.388
 1513SOL     OW 5437   3.727   0.996   3.868
 1513SOL    HW1 5438   3.749   0.907   3.909
 1513SOL    HW2 5439   3.774   1.005   3.780
 1514SOL     OW 5440   3.993   1.904   6.014
 1514SOL    HW1 5441   3.976   1.809   6.039
 1514SOL    HW2 5442   3.945   1.964   6.077
 1515SOL     OW 5443   5.791   2.026   3.458
 1515SOL    HW1 5444   5.798   2.043   3.556
 1515SOL    HW2 5445   5.813   1.930   3.439
 1516SOL     OW 5446   6.629   6.910   0.419
 1516SOL    HW1 5447   6.685   6.860   0.352
 1516SOL    HW2 5448   6.543   6.937   0.376
 1517SOL     OW 5449   4.722   6.211   3.588
 1517SOL    HW1 5450   4.723   6.232   3.686
 1517SOL    HW2 5451   4.658   6.137   3.570
 1518SOL     OW 5452   1.115   2.938   0.260
 1518SOL    HW1 5453   1.095   3.026   0.216
 1518SOL    HW2 5454   1.200   2.946   0.312
 1519SOL     OW 5455   6.303   5.065   1.517
 1519SOL    HW1 5456   6.291   4.978   1.468
 1519SOL    HW2 5457   6.285   5.141   1.455
 1520SOL     OW 5458   0.153   3.692   2.036
 1520SOL    HW1 5459   0.206   3.630   2.094
 1520SOL    HW2 5460   0.171   3.670   1.940
 1521SOL     OW 5461   2.072   3.774   6.330
 1521SOL    HW1 5462   2.076   3.873   6.316
 1521SOL    HW2 5463   2.137   3.728   6.269
 1522SOL     OW 5464   6.380   6.965   5.342
 1522SOL    HW1 5465   6.288   6.953   5.305
 1522SOL    HW2 5466   6.430   6.878   5.335
 1523SOL     OW 5467   5.180   5.397   0.795
 1523SOL    HW1 5468   5.216   5.382   0.702
 1523SOL    HW2 5469   5.244   5.360   0.862
 1524SOL     OW 5470   1.763   2.096   1.793
 1524SOL    HW1 5471   1.749   2.024   1.860
 1524SOL    HW2 5472   1.853   2.137   1.806
 1525SOL     OW 5473   6.664   2.281   0.026
 1525SOL    HW1 5474   6.762   2.285   0.046
 1525SOL    HW2 5475   6.623   2.203   0.074
 1526SOL     OW 5476   6.412   6.938   6.319
 1526SOL    HW1 5477   6.314   6.951   6.308
 1526SOL    HW2 5478   6.448   6.891   6.239
 1527SOL     OW 5479   3.226   1.348   5.282
 1527SOL    HW1 5480   3.190   1.255   5.282
 1527SOL    HW2 5481   3.171   1.406   5.221
 1528SOL     OW 5482   4.858   6.311   2.793
 1528SOL    HW1 5483   4.894   6.234   2.741
 1528SOL    HW2 5484   4.886   6.302   2.889
 1529SOL     OW 5485   3.989   0.663   0.341
 1529SOL    HW1 5486   4.021   0.674   0.435
 1529SOL    HW2 5487   3.962   0.752   0.304
 1530SOL     OW 5488   3.361   1.782   2.189
 1530SOL    HW1 5489   3.302   1.862   2.173
 1530SOL    HW2 5490   3.337   1.741   2.277
 1531SOL     OW 5491   4.218   1.295   4.602
 1531SOL    HW1 5492   4.172   1.218   4.645
 1531SOL    HW2 5493   4.301   1.318   4.653
 1532SOL     OW 5494   2.650   3.592   5.712
 1532SOL    HW1 5495   2.564   3.553   5.742
 1532SOL    HW2 5496   2.651   3.690   5.730
 1533SOL     OW 5497   6.398   3.493   6.856
 1533SOL    HW1 5498   6.311   3.442   6.860
 1533SOL    HW2 5499   6.384   3.577   6.805
 1534SOL     OW 5500   2.080   4.690   6.639
 1534SOL    HW1 5501   2.117   4.782   6.654
 1534SOL    HW2 5502   2.122   4.650   6.558
 1535SOL     OW 5503   5.488   6.106   3.670
 1535SOL    HW1 5504   5.390   6.089   3.675
 1535SOL    HW2 5505   5.510   6.191   3.718
 1536SOL     OW 5506   4.031   4.505   5.280
 1536SOL    HW1 5507   4.115   4.488   5.229
 1536SOL    HW2 5508   3.975   4.422   5.282
 1537SOL     OW 5509   4.499   6.612   2.971
 1537SOL    HW1 5510   4.500   6.517   2.939
 1537SOL    HW2 5511   4.562   6.622   3.048
 1538SOL     OW 5512   3.847   6.001   5.996
 1538SOL    HW1 5513   3.913   5.926   6.007
 1538SOL    HW2 5514   3.771   5.988   6.059
 1539SOL     OW 5515   4.046   3.695   2.025
 1539SOL    HW1 5516   4.132   3.728   1.987
 1539SOL    HW2 5517   3.974   3.763   2.009
 1540SOL     OW 5518   1.936   5.759   5.915
 1540SOL    HW1 5519   1.902   5.672   5.878
 1540SOL    HW2 5520   1.907   5.768   6.010
 1541SOL     OW 5521   3.791   2.945   2.723
 1541SOL    HW1 5522   3.806   2.863   2.667
 1541SOL    HW2 5523   3.705   2.988   2.696
 1542SOL     OW 5524   6.142   6.037   2.035
 1542SOL    HW1 5525   6.120   5.999   1.945
 1542SOL    HW2 5526   6.177   5.964   2.094
 1543SOL     OW 5527   3.645   4.366   5.379
 1543SOL    HW1 5528   3.575   4.345   5.310
 1543SOL    HW2 5529   3.735   4.347   5.340
 1544SOL     OW 5530   3.258   3.726   3.086
 1544SOL    HW1 5531   3.197   3.791   3.131
 1544SOL    HW2 5532   3.353   3.755   3.097
 1545SOL     OW 5533   4.741   0.851   4.137
 1545SOL    HW1 5534   4.721   0.835   4.040
 1545SOL    HW2 5535   4.702   0.938   4.166
 1546SOL     OW 5536   3.655   6.262   6.138
 1546SOL    HW1 5537   3.589   6.334   6.115
 1546SOL    HW2 5538   3.740   6.278   6.087
 1547SOL     OW 5539   1.437   3.570   2.998
 1547SOL    HW1 5540   1.497   3.554   3.077
 1547SOL    HW2 5541   1.342   3.570   3.028
 1548SOL     OW 5542   4.640   4.090   5.768
 1548SOL    HW1 5543   4.561   4.128   5.816
 1548SOL    HW2 5544   4.723   4.110   5.819
 1549SOL     OW 5545   4.847   0.920   2.926
 1549SOL    HW1 5546   4.770   0.951   2.870
 1549SOL    HW2 5547   4.888   0.839   2.884
 1550SOL     OW 5548   3.043   4.222   6.975
 1550SOL    HW1 5549   3.024   4.259   0.050
 1550SOL    HW2 5550   2.961   4.225   6.919
 1551SOL     OW 5551   2.153   4.289   6.017
 1551SOL    HW1 5552   2.234   4.344   6.038
 1551SOL    HW2 5553   2.125   4.305   5.922
 1552SOL     OW 5554   0.207   6.686   6.984
 1552SOL    HW1 5555   0.297   6.658   6.952
 1552SOL    HW2 5556   0.150   6.605   6.997
 1553SOL     OW 5557   0.166   1.089   5.429
 1553SOL    HW1 5558   0.258   1.050   5.438
 1553SOL    HW2 5559   0.147   1.148   5.508
 1554SOL     OW 5560   4.671   1.156   3.150
 1554SOL    HW1 5561   4.722   1.233   3.110
 1554SOL    HW2 5562   4.581   1.150   3.108
 1555SOL     OW 5563   5.286   1.829   0.103
 1555SOL    HW1 5564   5.253   1.737   0.122
 1555SOL    HW2 5565   5.218   1.879   0.050
 1556SOL     OW 5566   2.517   1.209   0.888
 1556SOL    HW1 5567   2.520   1.122   0.840
 1556SOL    HW2 5568   2.534   1.195   0.985
 1557SOL     OW 5569   1.635   1.234   6.536
 1557SOL    HW1 5570   1.685   1.293   6.599
 1557SOL    HW2 5571   1.623   1.144   6.577
 1558SOL     OW 5572   5.162   0.979   4.487
 1558SOL    HW1 5573   5.082   0.921   4.501
 1558SOL    HW2 5574   5.177   1.037   4.567
 1559SOL     OW 5575   0.260   2.509   6.968
 1559SOL    HW1 5576   0.348   2.555   6.986
 1559SOL    HW2 5577   0.186   2.565   7.005
 1560SOL     OW 5578   2.685   2.109   6.105
 1560SOL    HW1 5579   2.725   2.155   6.184
 1560SOL    HW2 5580   2.739   2.029   6.081
 1561SOL     OW 5581   0.283   6.073   3.649
 1561SOL    HW1 5582   0.301   6.047   3.744
 1561SOL    HW2 5583   0.256   5.992   3.598
 1562SOL     OW 5584   3.626   5.639   3.042
 1562SOL    HW1 5585   3.602   5.561   2.984
 1562SOL    HW2 5586   3.622   5.612   3.138
 1563SOL     OW 5587   2.210   0.379   6.222
 1563SOL    HW1 5588   2.201   0.334   6.311
 1563SOL    HW2 5589   2.208   0.309   6.150
 1564SOL     OW 5590   1.262   3.118   3.150
 1564SOL    HW1 5591   1.286   3.052   3.079
 1564SOL    HW2 5592   1.185   3.084   3.203
 1565SOL     OW 5593   4.168   5.105   4.926
 1565SOL    HW1 5594   4.235   5.155   4.871
 1565SOL    HW2 5595   4.120   5.169   4.986
 1566SOL     OW 5596   5.199   5.062   3.704
 1566SOL    HW1 5597   5.139   5.109   3.768
 1566SOL    HW2 5598   5.217   4.969   3.737
 1567SOL     OW 5599   5.812   6.235   6.677
 1567SOL    HW1 5600   5.878   6.203   6.744
 1567SOL    HW2 5601   5.727   6.182   6.686
 1568SOL     OW 5602   1.746   5.347   1.274
 1568SOL    HW1 5603   1.762   5.406   1.353
 1568SOL    HW2 5604   1.653   5.311   1.278
 1569SOL     OW 5605   3.058   6.958   3.504
 1569SOL    HW1 5606   3.044   6.941   3.406
 1569SOL    HW2 5607   3.147   6.921   3.532
 1570SOL     OW 5608   1.880   6.582   0.933
 1570SOL    HW1 5609   1.788   6.605   0.901
 1570SOL    HW2 5610   1.874   6.512   1.004
 1571SOL     OW 5611   6.148   1.835   2.291
 1571SOL    HW1 5612   6.162   1.885   2.376
 1571SOL    HW2 5613   6.101   1.748   2.310
 1572SOL     OW 5614   1.024   6.400   0.527
 1572SOL    HW1 5615   1.020   6.421   0.429
 1572SOL    HW2 5616   1.028   6.301   0.540
 1573SOL     OW 5617   6.414   3.481   1.801
 1573SOL    HW1 5618   6.494   3.445   1.849
 1573SOL    HW2 5619   6.404   3.578   1.824
 1574SOL     OW 5620   0.251   1.230   3.027
 1574SOL    HW1 5621   0.192   1.150   3.020
 1574SOL    HW2 5622   0.341   1.201   3.061
 1575SOL     OW 5623   2.644   2.144   0.746
 1575SOL    HW1 5624   2.711   2.110   0.681
 1575SOL    HW2 5625   2.687   2.211   0.807
 1576SOL     OW 5626   0.849   1.075   2.960
 1576SOL    HW1 5627   0.857   1.171   2.933
 1576SOL    HW2 5628   0.880   1.016   2.886
 1577SOL     OW 5629   2.738   0.521   5.299
 1577SOL    HW1 5630   2.697   0.458   5.366
 1577SOL    HW2 5631   2.835   0.498   5.288
 1578SOL     OW 5632   5.504   3.043   5.916
 1578SOL    HW1 5633   5.438   3.050   5.991
 1578SOL    HW2 5634   5.533   2.948   5.906
 1579SOL     OW 5635   0.756   1.862   2.668
 1579SOL    HW1 5636   0.740   1.826   2.577
 1579SOL    HW2 5637   0.760   1.787   2.734
 1580SOL     OW 5638   3.136   4.073   4.160
 1580SOL    HW1 5639   3.156   4.113   4.070
 1580SOL    HW2 5640   3.199   3.997   4.176
 1581SOL     OW 5641   6.728   4.083   5.450
 1581SOL    HW1 5642   6.788   4.019   5.402
 1581SOL    HW2 5643   6.760   4.095   5.544
 1582SOL     OW 5644   2.491   6.896   4.079
 1582SOL    HW1 5645   2.502   6.829   4.006
 1582SOL    HW2 5646   2.441   6.975   4.046
 1583SOL     OW 5647   1.150   5.090   3.331
 1583SOL    HW1 5648   1.171   4.993   3.332
 1583SOL    HW2 5649   1.061   5.105   3.375
 1584SOL     OW 5650   1.004   6.048   6.168
 1584SOL    HW1 5651   0.968   6.130   6.212
 1584SOL    HW2 5652   0.960   5.967   6.207
 1585SOL     OW 5653   5.315   1.253   3.210
 1585SOL    HW1 5654   5.240   1.232   3.273
 1585SOL    HW2 5655   5.389   1.188   3.225
 1586SOL     OW 5656   3.280   4.819   2.124
 1586SOL    HW1 5657   3.326   4.746   2.074
 1586SOL    HW2 5658   3.330   4.905   2.110
 1587SOL     OW 5659   3.059   5.725   6.521
 1587SOL    HW1 5660   3.086   5.707   6.427
 1587SOL    HW2 5661   3.025   5.818   6.530
 1588SOL     OW 5662   4.127   0.334   2.862
 1588SOL    HW1 5663   4.076   0.402   2.809
 1588SOL    HW2 5664   4.184   0.380   2.930
 1589SOL     OW 5665   6.489   3.162   2.152
 1589SOL    HW1 5666   6.475   3.073   2.109
 1589SOL    HW2 5667   6.425   3.228   2.114
 1590SOL     OW 5668   4.060   6.166   5.776
 1590SOL    HW1 5669   4.159   6.183   5.780
 1590SOL    HW2 5670   4.030   6.167   5.680
 1591SOL     OW 5671   6.715   5.225   2.118
 1591SOL    HW1 5672   6.766   5.296   2.070
 1591SOL    HW2 5673   6.763   5.138   2.112
 1592SOL     OW 5674   2.158   4.039   0.027
 1592SOL    HW1 5675   2.217   3.960   0.046
 1592SOL    HW2 5676   2.197   4.093   6.969
 1593SOL     OW 5677   1.548   6.363   5.634
 1593SOL    HW1 5678   1.624   6.303   5.660
 1593SOL    HW2 5679   1.526   6.350   5.537
 1594SOL     OW 5680   0.429   6.239   1.911
 1594SOL    HW1 5681   0.357   6.260   1.845
 1594SOL    HW2 5682   0.387   6.200   1.994
 1595SOL     OW 5683   1.336   5.402   0.467
 1595SOL    HW1 5684   1.363   5.453   0.386
 1595SOL    HW2 5685   1.247   5.359   0.452
 1596SOL     OW 5686   0.415   2.591   4.044
 1596SOL    HW1 5687   0.363   2.507   4.057
 1596SOL    HW2 5688   0.395   2.630   3.954
 1597SOL     OW 5689   1.120   6.113   0.144
 1597SOL    HW1 5690   1.217   6.093   0.136
 1597SOL    HW2 5691   1.081   6.128   0.052
 1598SOL     OW 5692   0.120   4.059   5.703
 1598SOL    HW1 5693   0.174   3.975   5.710
 1598SOL    HW2 5694   0.133   4.098   5.612
 1599SOL     OW 5695   4.977   4.752   5.041
 1599SOL    HW1 5696   4.922   4.676   5.005
 1599SOL    HW2 5697   5.020   4.724   5.127
 1600SOL     OW 5698   4.697   0.744   3.067
 1600SOL    HW1 5699   4.737   0.829   3.035
 1600SOL    HW2 5700   4.599   0.757   3.082
 1601SOL     OW 5701   7.003   4.916   4.688
 1601SOL    HW1 5702   0.046   4.997   4.683
 1601SOL    HW2 5703   6.994   4.888   4.784
 1602SOL     OW 5704   3.864   5.074   3.187
 1602SOL    HW1 5705   3.883   5.156   3.241
 1602SOL    HW2 5706   3.919   4.998   3.221
 1603SOL     OW 5707   0.825   6.551   3.012
 1603SOL    HW1 5708   0.868   6.618   2.951
 1603SOL    HW2 5709   0.861   6.460   2.992
 1604SOL     OW 5710   5.629   4.658   1.194
 1604SOL    HW1 5711   5.704   4.671   1.259
 1604SOL    HW2 5712   5.551   4.616   1.240
 1605SOL     OW 5713   6.215   5.807   1.422
 1605SOL    HW1 5714   6.184   5.845   1.335
 1605SOL    HW2 5715   6.269   5.725   1.405
 1606SOL     OW 5716   3.524   1.256   5.577
 1606SOL    HW1 5717   3.561   1.230   5.488
 1606SOL    HW2 5718   3.448   1.196   5.601
 1607SOL     OW 5719   4.288   1.023   1.327
 1607SOL    HW1 5720   4.320   1.031   1.421
 1607SOL    HW2 5721   4.337   0.947   1.282
 1608SOL     OW 5722   0.707   0.794   3.541
 1608SOL    HW1 5723   0.689   0.845   3.457
 1608SOL    HW2 5724   0.725   0.859   3.616
 1609SOL     OW 5725   4.438   0.207   0.437
 1609SOL    HW1 5726   4.442   0.126   0.496
 1609SOL    HW2 5727   4.353   0.256   0.454
 1610SOL     OW 5728   5.692   5.104   6.591
 1610SOL    HW1 5729   5.784   5.125   6.559
 1610SOL    HW2 5730   5.697   5.034   6.662
 1611SOL     OW 5731   2.163   3.377   0.927
 1611SOL    HW1 5732   2.106   3.432   0.988
 1611SOL    HW2 5733   2.221   3.437   0.873
 1612SOL     OW 5734   2.804   0.077   6.426
 1612SOL    HW1 5735   2.731   0.096   6.360
 1612SOL    HW2 5736   2.841   0.163   6.461
 1613SOL     OW 5737   1.811   4.992   1.902
 1613SOL    HW1 5738   1.872   5.061   1.941
 1613SOL    HW2 5739   1.750   5.035   1.836
 1614SOL     OW 5740   5.838   3.350   0.386
 1614SOL    HW1 5741   5.763   3.404   0.424
 1614SOL    HW2 5742   5.825   3.339   0.288
 1615SOL     OW 5743   5.869   5.038   0.734
 1615SOL    HW1 5744   5.787   5.056   0.680
 1615SOL    HW2 5745   5.856   5.070   0.827
 1616SOL     OW 5746   2.927   1.147   5.071
 1616SOL    HW1 5747   2.914   1.220   5.004
 1616SOL    HW2 5748   2.909   1.183   5.163
 1617SOL     OW 5749   6.212   6.958   2.764
 1617SOL    HW1 5750   6.198   6.877   2.707
 1617SOL    HW2 5751   6.273   0.007   2.717
 1618SOL     OW 5752   1.772   4.262   2.010
 1618SOL    HW1 5753   1.796   4.320   2.088
 1618SOL    HW2 5754   1.829   4.180   2.009
 1619SOL     OW 5755   1.541   3.602   1.994
 1619SOL    HW1 5756   1.470   3.536   1.966
 1619SOL    HW2 5757   1.631   3.563   1.976
 1620SOL     OW 5758   2.737   4.794   1.803
 1620SOL    HW1 5759   2.795   4.764   1.727
 1620SOL    HW2 5760   2.749   4.732   1.880
 1621SOL     OW 5761   0.299   1.128   0.506
 1621SOL    HW1 5762   0.373   1.108   0.441
 1621SOL    HW2 5763   0.314   1.077   0.590
 1622SOL     OW 5764   0.621   3.080   4.821
 1622SOL    HW1 5765   0.622   3.097   4.723
 1622SOL    HW2 5766   0.586   2.988   4.839
 1623SOL     OW 5767   2.146   3.065   4.910
 1623SOL    HW1 5768   2.171   3.090   4.817
 1623SOL    HW2 5769   2.227   3.035   4.960
 1624SOL     OW 5770   2.804   0.927   4.731
 1624SOL    HW1 5771   2.841   0.968   4.648
 1624SOL    HW2 5772   2.707   0.949   4.738
 1625SOL     OW 5773   0.915   5.488   0.575
 1625SOL    HW1 5774   0.970   5.558   0.620
 1625SOL    HW2 5775   0.874   5.428   0.644
 1626SOL     OW 5776   4.256   2.222   6.835
 1626SOL    HW1 5777   4.318   2.240   6.912
 1626SOL    HW2 5778   4.218   2.130   6.843
 1627SOL     OW 5779   6.099   3.745   3.127
 1627SOL    HW1 5780   6.050   3.725   3.043
 1627SOL    HW2 5781   6.123   3.659   3.173
 1628SOL     OW 5782   4.724   4.269   6.968
 1628SOL    HW1 5783   4.765   4.181   6.943
 1628SOL    HW2 5784   4.703   4.269   0.050
 1629SOL     OW 5785   2.509   0.880   3.976
 1629SOL    HW1 5786   2.507   0.954   4.044
 1629SOL    HW2 5787   2.490   0.793   4.020
 1630SOL     OW 5788   1.536   5.033   5.496
 1630SOL    HW1 5789   1.533   4.964   5.423
 1630SOL    HW2 5790   1.626   5.031   5.540
 1631SOL     OW 5791   1.012   2.642   6.695
 1631SOL    HW1 5792   1.042   2.559   6.743
 1631SOL    HW2 5793   1.079   2.666   6.626
 1632SOL     OW 5794   6.868   1.927   0.166
 1632SOL    HW1 5795   6.966   1.925   0.149
 1632SOL    HW2 5796   6.819   1.881   0.092
 1633SOL     OW 5797   5.156   3.398   4.428
 1633SOL    HW1 5798   5.081   3.452   4.388
 1633SOL    HW2 5799   5.237   3.407   4.370
 1634SOL     OW 5800   4.474   5.587   5.130
 1634SOL    HW1 5801   4.573   5.597   5.144
 1634SOL    HW2 5802   4.435   5.674   5.101
 1635SOL     OW 5803   0.362   5.122   6.013
 1635SOL    HW1 5804   0.351   5.043   5.952
 1635SOL    HW2 5805   0.280   5.179   6.009
 1636SOL     OW 5806   2.962   4.293   1.722
 1636SOL    HW1 5807   2.912   4.360   1.777
 1636SOL    HW2 5808   2.907   4.266   1.644
 1637SOL     OW 5809   1.251   0.752   2.720
 1637SOL    HW1 5810   1.182   0.746   2.648
 1637SOL    HW2 5811   1.267   0.848   2.743
 1638SOL     OW 5812   0.252   4.325   3.132
 1638SOL    HW1 5813   0.182   4.315   3.062
 1638SOL    HW2 5814   0.220   4.284   3.217
 1639SOL     OW 5815   5.010   6.960   2.628
 1639SOL    HW1 5816   4.977   6.963   2.723
 1639SOL    HW2 5817   5.075   0.019   2.613
 1640SOL     OW 5818   5.951   1.300   0.436
 1640SOL    HW1 5819   6.001   1.293   0.350
 1640SOL    HW2 5820   5.911   1.211   0.459
 1641SOL     OW 5821   4.690   2.443   3.368
 1641SOL    HW1 5822   4.646   2.524   3.406
 1641SOL    HW2 5823   4.656   2.427   3.276
 1642SOL     OW 5824   5.668   3.616   6.440
 1642SOL    HW1 5825   5.682   3.545   6.371
 1642SOL    HW2 5826   5.715   3.699   6.411
 1643SOL     OW 5827   3.096   5.038   4.450
 1643SOL    HW1 5828   3.085   5.136   4.466
 1643SOL    HW2 5829   3.056   4.987   4.526
 1644SOL     OW 5830   6.375   3.546   0.420
 1644SOL    HW1 5831   6.369   3.643   0.396
 1644SOL    HW2 5832   6.307   3.495   0.368
 1645SOL     OW 5833   3.035   5.523   5.661
 1645SOL    HW1 5834   3.053   5.466   5.741
 1645SOL    HW2 5835   3.103   5.597   5.657
 1646SOL     OW 5836   2.671   6.154   0.483
 1646SOL    HW1 5837   2.586   6.139   0.432
 1646SOL    HW2 5838   2.745   6.104   0.439
 1647SOL     OW 5839   5.969   2.982   4.735
 1647SOL    HW1 5840   5.887   2.972   4.791
 1647SOL    HW2 5841   5.945   2.976   4.638
 1648SOL     OW 5842   5.483   5.180   0.544
 1648SOL    HW1 5843   5.393   5.145   0.573
 1648SOL    HW2 5844   5.548   5.169   0.619
 1649SOL     OW 5845   3.084   0.827   4.456
 1649SOL    HW1 5846   3.057   0.785   4.369
 1649SOL    HW2 5847   3.025   0.905   4.475
 1650SOL     OW 5848   2.110   5.926   5.386
 1650SOL    HW1 5849   2.146   5.893   5.473
 1650SOL    HW2 5850   2.050   5.856   5.347
 1651SOL     OW 5851   0.954   1.948   1.335
 1651SOL    HW1 5852   1.000   2.022   1.385
 1651SOL    HW2 5853   0.933   1.979   1.242
 1652SOL     OW 5854   1.041   4.139   2.425
 1652SOL    HW1 5855   1.089   4.163   2.510
 1652SOL    HW2 5856   0.998   4.050   2.436
 1653SOL     OW 5857   1.290   6.779   1.095
 1653SOL    HW1 5858   1.217   6.830   1.139
 1653SOL    HW2 5859   1.375   6.791   1.146
 1654SOL     OW 5860   0.406   3.667   1.144
 1654SOL    HW1 5861   0.446   3.650   1.053
 1654SOL    HW2 5862   0.473   3.714   1.201
 1655SOL     OW 5863   6.672   2.309   5.274
 1655SOL    HW1 5864   6.572   2.305   5.270
 1655SOL    HW2 5865   6.704   2.265   5.358
 1656SOL     OW 5866   2.440   4.540   2.393
 1656SOL    HW1 5867   2.539   4.525   2.402
 1656SOL    HW2 5868   2.423   4.602   2.317
 1657SOL     OW 5869   0.021   1.198   3.612
 1657SOL    HW1 5870   0.061   1.266   3.551
 1657SOL    HW2 5871   6.956   1.236   3.657
 1658SOL     OW 5872   0.667   6.232   1.212
 1658SOL    HW1 5873   0.736   6.255   1.143
 1658SOL    HW2 5874   0.581   6.209   1.166
 1659SOL     OW 5875   3.615   0.400   5.900
 1659SOL    HW1 5876   3.565   0.487   5.897
 1659SOL    HW2 5877   3.554   0.328   5.933
 1660SOL     OW 5878   1.263   5.550   4.253
 1660SOL    HW1 5879   1.164   5.557   4.261
 1660SOL    HW2 5880   1.304   5.641   4.258
 1661SOL     OW 5881   2.376   0.753   2.084
 1661SOL    HW1 5882   2.405   0.713   2.172
 1661SOL    HW2 5883   2.387   0.852   2.088
 1662SOL     OW 5884   6.470   0.542   4.229
 1662SOL    HW1 5885   6.440   0.492   4.148
 1662SOL    HW2 5886   6.397   0.540   4.298
 1663SOL     OW 5887   4.395   5.687   2.159
 1663SOL    HW1 5888   4.354   5.645   2.240
 1663SOL    HW2 5889   4.452   5.621   2.112
 1664SOL     OW 5890   1.701   0.293   4.778
 1664SOL    HW1 5891   1.687   0.233   4.856
 1664SOL    HW2 5892   1.613   0.312   4.734
 1665SOL     OW 5893   0.034   1.901   3.136
 1665SOL    HW1 5894   0.047   1.804   3.152
 1665SOL    HW2 5895   0.098   1.954   3.191
 1666SOL     OW 5896   5.544   2.528   7.008
 1666SOL    HW1 5897   5.633   2.562   0.022
 1666SOL    HW2 5898   5.495   2.601   6.960
 1667SOL     OW 5899   6.741   5.788   1.345
 1667SOL    HW1 5900   6.811   5.726   1.309
 1667SOL    HW2 5901   6.653   5.765   1.305
 1668SOL     OW 5902   4.911   5.881   5.725
 1668SOL    HW1 5903   4.895   5.967   5.774
 1668SOL    HW2 5904   4.941   5.901   5.632
 1669SOL     OW 5905   6.970   5.862   6.366
 1669SOL    HW1 5906   6.894   5.847   6.429
 1669SOL    HW2 5907   0.014   5.781   6.365
 1670SOL     OW 5908   6.995   3.566   5.742
 1670SOL    HW1 5909   7.003   3.600   5.836
 1670SOL    HW2 5910   0.046   3.612   5.684
 1671SOL     OW 5911   5.258   1.402   1.425
 1671SOL    HW1 5912   5.265   1.324   1.487
 1671SOL    HW2 5913   5.345   1.415   1.377
 1672SOL     OW 5914   1.914   2.649   1.098
 1672SOL    HW1 5915   1.922   2.571   1.161
 1672SOL    HW2 5916   1.912   2.734   1.150
 1673SOL     OW 5917   0.553   2.013   4.549
 1673SOL    HW1 5918   0.643   2.055   4.536
 1673SOL    HW2 5919   0.481   2.080   4.532
 1674SOL     OW 5920   0.918   3.848   2.805
 1674SOL    HW1 5921   0.839   3.827   2.863
 1674SOL    HW2 5922   1.000   3.805   2.843
 1675SOL     OW 5923   4.416   0.237   6.324
 1675SOL    HW1 5924   4.339   0.300   6.340
 1675SOL    HW2 5925   4.437   0.188   6.409
 1676SOL     OW 5926   2.005   2.212   1.855
 1676SOL    HW1 5927   2.057   2.293   1.881
 1676SOL    HW2 5928   2.068   2.137   1.834
 1677SOL     OW 5929   3.138   3.509   5.358
 1677SOL    HW1 5930   3.154   3.467   5.269
 1677SOL    HW2 5931   3.219   3.499   5.415
 1678SOL     OW 5932   4.807   3.913   4.291
 1678SOL    HW1 5933   4.796   3.916   4.192
 1678SOL    HW2 5934   4.764   3.993   4.332
 1679SOL     OW 5935   2.277   2.091   4.234
 1679SOL    HW1 5936   2.345   2.127   4.299
 1679SOL    HW2 5937   2.245   2.165   4.175
 1680SOL     OW 5938   6.895   3.308   4.816
 1680SOL    HW1 5939   6.844   3.222   4.819
 1680SOL    HW2 5940   6.860   3.369   4.887
 1681SOL     OW 5941   6.721   5.834   0.314
 1681SOL    HW1 5942   6.740   5.906   0.248
 1681SOL    HW2 5943   6.777   5.754   0.294
 1682SOL     OW 5944   1.163   0.709   4.233
 1682SOL    HW1 5945   1.127   0.802   4.236
 1682SOL    HW2 5946   1.260   0.711   4.207
 1683SOL     OW 5947   4.580   5.385   1.587
 1683SOL    HW1 5948   4.577   5.456   1.658
 1683SOL    HW2 5949   4.580   5.295   1.630
 1684SOL     OW 5950   1.515   5.778   2.326
 1684SOL    HW1 5951   1.589   5.809   2.386
 1684SOL    HW2 5952   1.517   5.829   2.240
 1685SOL     OW 5953   2.583   0.741   5.384
 1685SOL    HW1 5954   2.649   0.802   5.428
 1685SOL    HW2 5955   2.630   0.661   5.348
 1686SOL     OW 5956   2.970   5.924   5.036
 1686SOL    HW1 5957   2.970   6.010   4.986
 1686SOL    HW2 5958   3.017   5.854   4.983
 1687SOL     OW 5959   2.185   4.047   1.254
 1687SOL    HW1 5960   2.102   3.999   1.281
 1687SOL    HW2 5961   2.199   4.126   1.313
 1688SOL     OW 5962   2.054   2.258   4.530
 1688SOL    HW1 5963   2.006   2.196   4.468
 1688SOL    HW2 5964   2.121   2.311   4.479
 1689SOL     OW 5965   5.870   1.549   2.715
 1689SOL    HW1 5966   5.969   1.539   2.722
 1689SOL    HW2 5967   5.833   1.576   2.804
 1690SOL     OW 5968   1.775   2.815   3.776
 1690SOL    HW1 5969   1.684   2.785   3.801
 1690SOL    HW2 5970   1.841   2.743   3.795
 1691SOL     OW 5971   5.854   3.519   3.091
 1691SOL    HW1 5972   5.802   3.597   3.126
 1691SOL    HW2 5973   5.798   3.436   3.097
 1692SOL     OW 5974   5.594   6.890   1.529
 1692SOL    HW1 5975   5.588   6.792   1.551
 1692SOL    HW2 5976   5.522   6.915   1.465
 1693SOL     OW 5977   0.316   2.424   1.799
 1693SOL    HW1 5978   0.317   2.523   1.810
 1693SOL    HW2 5979   0.267   2.382   1.875
 1694SOL     OW 5980   5.206   0.410   2.654
 1694SOL    HW1 5981   5.109   0.405   2.679
 1694SOL    HW2 5982   5.260   0.440   2.733
 1695SOL     OW 5983   3.210   1.600   5.752
 1695SOL    HW1 5984   3.223   1.533   5.825
 1695SOL    HW2 5985   3.298   1.628   5.715
 1696SOL     OW 5986   4.363   4.493   0.500
 1696SOL    HW1 5987   4.406   4.450   0.579
 1696SOL    HW2 5988   4.316   4.577   0.528
 1697SOL     OW 5989   5.602   6.783   0.804
 1697SOL    HW1 5990   5.654   6.840   0.867
 1697SOL    HW2 5991   5.665   6.738   0.740
 1698SOL     OW 5992   4.201   0.334   0.049
 1698SOL    HW1 5993   4.210   0.365   6.970
 1698SOL    HW2 5994   4.287   0.348   0.097
 1699SOL     OW 5995   2.045   0.931   0.773
 1699SOL    HW1 5996   2.095   0.998   0.828
 1699SOL    HW2 5997   2.076   0.839   0.797
 1700SOL     OW 5998   5.790   2.471   3.186
 1700SOL    HW1 5999   5.862   2.414   3.225
 1700SOL    HW2 6000   5.701   2.429   3.205
 1701SOL     OW 6001   4.603   4.339   6.545
 1701SOL    HW1 6002   4.686   4.306   6.591
 1701SOL    HW2 6003   4.528   4.343   6.611
 1702SOL     OW 6004   6.845   2.551   0.045
 1702SOL    HW1 6005   6.869   2.454   0.057
 1702SOL    HW2 6006   6.817   2.567   6.967
 1703SOL     OW 6007   3.104   2.647   1.704
 1703SOL    HW1 6008   3.050   2.580   1.754
 1703SOL    HW2 6009   3.175   2.601   1.651
 1704SOL     OW 6010   1.011   2.245   0.892
 1704SOL    HW1 6011   1.071   2.309   0.940
 1704SOL    HW2 6012   0.934   2.295   0.851
 1705SOL     OW 6013   3.224   1.651   1.963
 1705SOL    HW1 6014   3.200   1.687   1.872
 1705SOL    HW2 6015   3.282   1.717   2.010
 1706SOL     OW 6016   4.564   0.949   2.299
 1706SOL    HW1 6017   4.595   1.031   2.346
 1706SOL    HW2 6018   4.465   0.940   2.311
 1707SOL     OW 6019   5.205   1.842   2.137
 1707SOL    HW1 6020   5.250   1.806   2.055
 1707SOL    HW2 6021   5.274   1.857   2.208
 1708SOL     OW 6022   5.063   5.136   2.197
 1708SOL    HW1 6023   5.071   5.109   2.293
 1708SOL    HW2 6024   4.979   5.190   2.185
 1709SOL     OW 6025   3.002   5.318   1.883
 1709SOL    HW1 6026   3.022   5.220   1.883
 1709SOL    HW2 6027   2.965   5.345   1.971
 1710SOL     OW 6028   5.151   5.413   3.906
 1710SOL    HW1 6029   5.162   5.443   3.811
 1710SOL    HW2 6030   5.092   5.333   3.909
 1711SOL     OW 6031   0.638   5.002   4.279
 1711SOL    HW1 6032   0.640   4.948   4.363
 1711SOL    HW2 6033   0.644   4.942   4.200
 1712SOL     OW 6034   0.279   2.751   5.912
 1712SOL    HW1 6035   0.201   2.706   5.869
 1712SOL    HW2 6036   0.302   2.703   5.997
 1713SOL     OW 6037   5.036   2.500   1.807
 1713SOL    HW1 6038   5.070   2.469   1.896
 1713SOL    HW2 6039   5.026   2.599   1.807
 1714SOL     OW 6040   3.676   2.001   5.617
 1714SOL    HW1 6041   3.582   1.967   5.608
 1714SOL    HW2 6042   3.692   2.032   5.711
 1715SOL     OW 6043   0.162   5.496   3.009
 1715SOL    HW1 6044   0.094   5.435   3.052
 1715SOL    HW2 6045   0.120   5.545   2.933
 1716SOL     OW 6046   4.938   6.681   2.989
 1716SOL    HW1 6047   5.002   6.614   2.952
 1716SOL    HW2 6048   4.864   6.634   3.037
 1717SOL     OW 6049   2.363   6.624   5.723
 1717SOL    HW1 6050   2.324   6.685   5.792
 1717SOL    HW2 6051   2.291   6.564   5.688
 1718SOL     OW 6052   2.099   1.811   1.012
 1718SOL    HW1 6053   2.091   1.910   0.998
 1718SOL    HW2 6054   2.178   1.777   0.961
 1719SOL     OW 6055   1.924   3.201   0.919
 1719SOL    HW1 6056   1.921   3.129   0.849
 1719SOL    HW2 6057   2.017   3.237   0.926
 1720SOL     OW 6058   0.308   2.408   6.703
 1720SOL    HW1 6059   0.315   2.413   6.803
 1720SOL    HW2 6060   0.315   2.313   6.674
 1721SOL     OW 6061   1.436   6.174   1.393
 1721SOL    HW1 6062   1.373   6.243   1.431
 1721SOL    HW2 6063   1.407   6.151   1.300
 1722SOL     OW 6064   3.849   1.830   4.038
 1722SOL    HW1 6065   3.786   1.812   4.114
 1722SOL    HW2 6066   3.942   1.807   4.066
 1723SOL     OW 6067   6.101   2.735   2.915
 1723SOL    HW1 6068   6.074   2.768   3.006
 1723SOL    HW2 6069   6.106   2.635   2.916
 1724SOL     OW 6070   6.705   2.865   0.869
 1724SOL    HW1 6071   6.786   2.839   0.922
 1724SOL    HW2 6072   6.643   2.918   0.927
 1725SOL     OW 6073   2.045   4.994   6.706
 1725SOL    HW1 6074   1.962   4.939   6.697
 1725SOL    HW2 6075   2.095   4.966   6.788
 1726SOL     OW 6076   5.571   4.482   5.232
 1726SOL    HW1 6077   5.509   4.539   5.285
 1726SOL    HW2 6078   5.552   4.386   5.250
 1727SOL     OW 6079   3.728   3.229   4.339
 1727SOL    HW1 6080   3.749   3.135   4.365
 1727SOL    HW2 6081   3.628   3.241   4.335
 1728SOL     OW 6082   5.000   4.744   5.315
 1728SOL    HW1 6083   4.942   4.757   5.395
 1728SOL    HW2 6084   5.084   4.798   5.325
 1729SOL     OW 6085   2.366   4.271   3.014
 1729SOL    HW1 6086   2.385   4.362   2.977
 1729SOL    HW2 6087   2.406   4.263   3.105
 1730SOL     OW 6088   1.011   6.786   5.801
 1730SOL    HW1 6089   0.970   6.828   5.882
 1730SOL    HW2 6090   1.097   6.832   5.779
 1731SOL     OW 6091   6.920   3.635   2.776
 1731SOL    HW1 6092   6.902   3.656   2.872
 1731SOL    HW2 6093   6.860   3.691   2.718
 1732SOL     OW 6094   2.559   4.952   5.657
 1732SOL    HW1 6095   2.587   4.889   5.584
 1732SOL    HW2 6096   2.490   5.015   5.621
 1733SOL     OW 6097   1.473   4.193   1.413
 1733SOL    HW1 6098   1.495   4.130   1.487
 1733SOL    HW2 6099   1.386   4.238   1.433
 1734SOL     OW 6100   4.363   2.982   1.419
 1734SOL    HW1 6101   4.316   2.929   1.489
 1734SOL    HW2 6102   4.401   3.065   1.460
 1735SOL     OW 6103   5.274   6.028   0.581
 1735SOL    HW1 6104   5.335   6.044   0.504
 1735SOL    HW2 6105   5.180   6.054   0.557
 1736SOL     OW 6106   3.439   3.321   0.484
 1736SOL    HW1 6107   3.363   3.295   0.543
 1736SOL    HW2 6108   3.482   3.238   0.447
 1737SOL     OW 6109   2.760   1.383   4.361
 1737SOL    HW1 6110   2.804   1.459   4.408
 1737SOL    HW2 6111   2.828   1.330   4.311
 1738SOL     OW 6112   2.010   2.212   3.835
 1738SOL    HW1 6113   2.079   2.239   3.768
 1738SOL    HW2 6114   1.923   2.255   3.813
 1739SOL     OW 6115   0.074   2.076   5.371
 1739SOL    HW1 6116   0.119   2.062   5.459
 1739SOL    HW2 6117   0.071   1.989   5.322
 1740SOL     OW 6118   6.802   2.055   5.814
 1740SOL    HW1 6119   6.861   2.106   5.876
 1740SOL    HW2 6120   6.720   2.025   5.863
 1741SOL     OW 6121   2.028   1.020   3.963
 1741SOL    HW1 6122   2.037   1.011   4.062
 1741SOL    HW2 6123   2.063   0.937   3.918
 1742SOL     OW 6124   5.389   0.887   5.833
 1742SOL    HW1 6125   5.448   0.964   5.809
 1742SOL    HW2 6126   5.426   0.840   5.913
 1743SOL     OW 6127   1.237   2.405   1.483
 1743SOL    HW1 6128   1.287   2.392   1.568
 1743SOL    HW2 6129   1.290   2.465   1.423
 1744SOL     OW 6130   0.127   1.792   2.502
 1744SOL    HW1 6131   0.060   1.866   2.509
 1744SOL    HW2 6132   0.218   1.829   2.521
 1745SOL     OW 6133   6.164   6.480   3.149
 1745SOL    HW1 6134   6.155   6.411   3.077
 1745SOL    HW2 6135   6.203   6.439   3.231
 1746SOL     OW 6136   1.874   5.073   4.578
 1746SOL    HW1 6137   1.926   5.159   4.578
 1746SOL    HW2 6138   1.777   5.093   4.565
 1747SOL     OW 6139   5.857   2.245   2.343
 1747SOL    HW1 6140   5.777   2.273   2.289
 1747SOL    HW2 6141   5.849   2.148   2.366
 1748SOL     OW 6142   0.807   0.614   4.583
 1748SOL    HW1 6143   0.729   0.588   4.640
 1748SOL    HW2 6144   0.832   0.537   4.524
 1749SOL     OW 6145   2.803   0.477   4.958
 1749SOL    HW1 6146   2.730   0.438   5.014
 1749SOL    HW2 6147   2.800   0.577   4.964
 1750SOL     OW 6148   5.478   6.955   3.855
 1750SOL    HW1 6149   5.564   6.997   3.886
 1750SOL    HW2 6150   5.447   6.889   3.923
 1751SOL     OW 6151   4.409   6.111   5.099
 1751SOL    HW1 6152   4.452   6.025   5.127
 1751SOL    HW2 6153   4.398   6.111   4.999
 1752SOL     OW 6154   0.125   2.160   1.403
 1752SOL    HW1 6155   0.152   2.246   1.447
 1752SOL    HW2 6156   0.026   2.150   1.408
 1753SOL     OW 6157   0.224   1.207   0.943
 1753SOL    HW1 6158   0.127   1.184   0.941
 1753SOL    HW2 6159   0.236   1.302   0.914
 1754SOL     OW 6160   2.101   4.183   0.758
 1754SOL    HW1 6161   2.117   4.127   0.839
 1754SOL    HW2 6162   2.044   4.262   0.782
 1755SOL     OW 6163   6.800   6.014   2.250
 1755SOL    HW1 6164   6.786   6.087   2.317
 1755SOL    HW2 6165   6.772   6.046   2.160
 1756SOL     OW 6166   4.309   5.746   6.081
 1756SOL    HW1 6167   4.299   5.651   6.049
 1756SOL    HW2 6168   4.300   5.748   6.180
 1757SOL     OW 6169   2.869   5.419   4.843
 1757SOL    HW1 6170   2.961   5.426   4.881
 1757SOL    HW2 6171   2.856   5.329   4.802
 1758SOL     OW 6172   1.709   0.247   4.181
 1758SOL    HW1 6173   1.710   0.329   4.124
 1758SOL    HW2 6174   1.684   0.271   4.275
 1759SOL     OW 6175   1.717   5.387   6.359
 1759SOL    HW1 6176   1.678   5.472   6.324
 1759SOL    HW2 6177   1.817   5.392   6.356
 1760SOL     OW 6178   5.613   1.950   3.078
 1760SOL    HW1 6179   5.664   2.036   3.073
 1760SOL    HW2 6180   5.536   1.961   3.142
 1761SOL     OW 6181   0.314   0.247   0.565
 1761SOL    HW1 6182   0.362   0.274   0.649
 1761SOL    HW2 6183   0.271   0.158   0.580
 1762SOL     OW 6184   0.007   1.187   5.234
 1762SOL    HW1 6185   0.065   1.156   5.309
 1762SOL    HW2 6186   6.950   1.245   5.270
 1763SOL     OW 6187   1.397   3.767   3.899
 1763SOL    HW1 6188   1.329   3.795   3.831
 1763SOL    HW2 6189   1.450   3.846   3.928
 1764SOL     OW 6190   2.025   3.884   2.519
 1764SOL    HW1 6191   2.013   3.785   2.511
 1764SOL    HW2 6192   1.939   3.930   2.497
 1765SOL     OW 6193   3.625   1.112   0.870
 1765SOL    HW1 6194   3.681   1.047   0.920
 1765SOL    HW2 6195   3.535   1.118   0.911
 1766SOL     OW 6196   4.743   4.136   2.857
 1766SOL    HW1 6197   4.822   4.108   2.802
 1766SOL    HW2 6198   4.723   4.065   2.924
 1767SOL     OW 6199   0.429   3.535   3.101
 1767SOL    HW1 6200   0.358   3.500   3.162
 1767SOL    HW2 6201   0.454   3.466   3.034
 1768SOL     OW 6202   4.493   1.408   5.644
 1768SOL    HW1 6203   4.552   1.471   5.594
 1768SOL    HW2 6204   4.503   1.424   5.742
 1769SOL     OW 6205   4.148   2.264   5.856
 1769SOL    HW1 6206   4.236   2.224   5.832
 1769SOL    HW2 6207   4.138   2.265   5.956
 1770SOL     OW 6208   6.518   4.514   4.384
 1770SOL    HW1 6209   6.541   4.577   4.459
 1770SOL    HW2 6210   6.492   4.425   4.422
 1771SOL     OW 6211   2.191   5.065   0.247
 1771SOL    HW1 6212   2.136   5.054   0.330
 1771SOL    HW2 6213   2.263   5.132   0.263
 1772SOL     OW 6214   3.492   0.114   3.382
 1772SOL    HW1 6215   3.473   0.129   3.479
 1772SOL    HW2 6216   3.437   0.037   3.349
 1773SOL     OW 6217   3.471   4.051   0.086
 1773SOL    HW1 6218   3.521   3.965   0.089
 1773SOL    HW2 6219   3.514   4.113   0.020
 1774SOL     OW 6220   4.436   0.389   1.852
 1774SOL    HW1 6221   4.501   0.464   1.845
 1774SOL    HW2 6222   4.470   0.322   1.918
 1775SOL     OW 6223   1.811   5.606   4.236
 1775SOL    HW1 6224   1.733   5.632   4.293
 1775SOL    HW2 6225   1.895   5.614   4.289
 1776SOL     OW 6226   4.162   0.892   5.470
 1776SOL    HW1 6227   4.183   0.900   5.567
 1776SOL    HW2 6228   4.240   0.850   5.423
 1777SOL     OW 6229   3.264   5.686   5.647
 1777SOL    HW1 6230   3.262   5.782   5.618
 1777SOL    HW2 6231   3.358   5.659   5.666
 1778SOL     OW 6232   4.152   2.175   4.640
 1778SOL    HW1 6233   4.115   2.136   4.556
 1778SOL    HW2 6234   4.227   2.237   4.616
 1779SOL     OW 6235   4.408   2.170   4.290
 1779SOL    HW1 6236   4.363   2.246   4.337
 1779SOL    HW2 6237   4.501   2.197   4.265
 1780SOL     OW 6238   2.390   4.366   5.666
 1780SOL    HW1 6239   2.427   4.408   5.583
 1780SOL    HW2 6240   2.347   4.436   5.723
 1781SOL     OW 6241   4.668   5.414   3.452
 1781SOL    HW1 6242   4.625   5.492   3.497
 1781SOL    HW2 6243   4.651   5.418   3.353
 1782SOL     OW 6244   2.738   1.659   3.138
 1782SOL    HW1 6245   2.731   1.560   3.134
 1782SOL    HW2 6246   2.834   1.686   3.125
 1783SOL     OW 6247   1.987   3.002   6.382
 1783SOL    HW1 6248   2.064   2.955   6.339
 1783SOL    HW2 6249   2.021   3.074   6.442
 1784SOL     OW 6250   2.875   0.872   3.239
 1784SOL    HW1 6251   2.907   0.804   3.304
 1784SOL    HW2 6252   2.953   0.926   3.206
 1785SOL     OW 6253   5.199   5.541   3.667
 1785SOL    HW1 6254   5.230   5.512   3.576
 1785SOL    HW2 6255   5.175   5.638   3.665
 1786SOL     OW 6256   1.586   2.845   0.480
 1786SOL    HW1 6257   1.669   2.884   0.521
 1786SOL    HW2 6258   1.555   2.768   0.535
 1787SOL     OW 6259   1.604   0.699   4.788
 1787SOL    HW1 6260   1.535   0.641   4.830
 1787SOL    HW2 6261   1.560   0.758   4.719
 1788SOL     OW 6262   3.248   3.765   0.120
 1788SOL    HW1 6263   3.161   3.741   0.165
 1788SOL    HW2 6264   3.273   3.859   0.144
 1789SOL     OW 6265   6.329   2.297   2.050
 1789SOL    HW1 6266   6.382   2.334   2.126
 1789SOL    HW2 6267   6.233   2.288   2.077
 1790SOL     OW 6268   4.098   6.096   4.368
 1790SOL    HW1 6269   4.120   6.164   4.438
 1790SOL    HW2 6270   4.133   6.129   4.279
 1791SOL     OW 6271   0.704   2.088   4.829
 1791SOL    HW1 6272   0.656   2.175   4.832
 1791SOL    HW2 6273   0.642   2.015   4.860
 1792SOL     OW 6274   0.246   1.547   4.553
 1792SOL    HW1 6275   0.227   1.640   4.522
 1792SOL    HW2 6276   0.262   1.548   4.652
 1793SOL     OW 6277   6.708   0.236   3.763
 1793SOL    HW1 6278   6.688   0.213   3.668
 1793SOL    HW2 6279   6.749   0.327   3.767
 1794SOL     OW 6280   5.318   6.245   6.443
 1794SOL    HW1 6281   5.250   6.254   6.517
 1794SOL    HW2 6282   5.295   6.165   6.388
 1795SOL     OW 6283   7.015   4.574   2.494
 1795SOL    HW1 6284   0.066   4.503   2.517
 1795SOL    HW2 6285   6.951   4.586   2.570
 1796SOL     OW 6286   1.557   1.587   4.304
 1796SOL    HW1 6287   1.489   1.616   4.372
 1796SOL    HW2 6288   1.645   1.631   4.325
 1797SOL     OW 6289   1.340   0.538   5.928
 1797SOL    HW1 6290   1.284   0.522   5.846
 1797SOL    HW2 6291   1.294   0.498   6.007
 1798SOL     OW 6292   4.727   2.595   5.350
 1798SOL    HW1 6293   4.729   2.663   5.423
 1798SOL    HW2 6294   4.706   2.639   5.263
 1799SOL     OW 6295   6.161   1.896   6.692
 1799SOL    HW1 6296   6.184   1.905   6.595
 1799SOL    HW2 6297   6.062   1.886   6.702
 1800SOL     OW 6298   4.998   4.703   3.735
 1800SOL    HW1 6299   4.972   4.640   3.662
 1800SOL    HW2 6300   5.061   4.772   3.699
 1801SOL     OW 6301   0.887   1.439   2.424
 1801SOL    HW1 6302   0.900   1.423   2.522
 1801SOL    HW2 6303   0.906   1.355   2.373
 1802SOL     OW 6304   5.525   5.119   2.653
 1802SOL    HW1 6305   5.581   5.124   2.570
 1802SOL    HW2 6306   5.529   5.207   2.701
 1803SOL     OW 6307   6.693   6.192   0.816
 1803SOL    HW1 6308   6.672   6.111   0.870
 1803SOL    HW2 6309   6.780   6.180   0.768
 1804SOL     OW 6310   2.954   3.228   5.932
 1804SOL    HW1 6311   2.983   3.295   5.863
 1804SOL    HW2 6312   2.868   3.187   5.904
 1805SOL     OW 6313   0.555   3.940   6.061
 1805SOL    HW1 6314   0.579   3.981   5.973
 1805SOL    HW2 6315   0.586   3.999   6.135
 1806SOL     OW 6316   1.565   1.583   1.835
 1806SOL    HW1 6317   1.663   1.575   1.821
 1806SOL    HW2 6318   1.519   1.593   1.747
 1807SOL     OW 6319   5.978   2.202   6.578
 1807SOL    HW1 6320   6.045   2.166   6.513
 1807SOL    HW2 6321   5.995   2.300   6.593
 1808SOL     OW 6322   6.583   4.219   4.787
 1808SOL    HW1 6323   6.529   4.143   4.824
 1808SOL    HW2 6324   6.552   4.239   4.694
 1809SOL     OW 6325   2.495   2.582   4.655
 1809SOL    HW1 6326   2.459   2.624   4.738
 1809SOL    HW2 6327   2.464   2.634   4.576
 1810SOL     OW 6328   2.314   0.201   5.347
 1810SOL    HW1 6329   2.253   0.123   5.335
 1810SOL    HW2 6330   2.261   0.286   5.339
 1811SOL     OW 6331   3.980   4.830   3.303
 1811SOL    HW1 6332   3.981   4.815   3.402
 1811SOL    HW2 6333   4.074   4.835   3.269
 1812SOL     OW 6334   4.387   0.227   5.932
 1812SOL    HW1 6335   4.430   0.214   5.842
 1812SOL    HW2 6336   4.413   0.152   5.992
 1813SOL     OW 6337   4.366   4.802   1.356
 1813SOL    HW1 6338   4.275   4.837   1.336
 1813SOL    HW2 6339   4.365   4.753   1.443
 1814SOL     OW 6340   6.671   0.484   0.322
 1814SOL    HW1 6341   6.676   0.582   0.304
 1814SOL    HW2 6342   6.734   0.436   0.261
 1815SOL     OW 6343   6.383   1.394   1.826
 1815SOL    HW1 6344   6.350   1.315   1.775
 1815SOL    HW2 6345   6.472   1.373   1.866
 1816SOL     OW 6346   1.802   4.256   0.792
 1816SOL    HW1 6347   1.775   4.265   0.888
 1816SOL    HW2 6348   1.875   4.321   0.771
 1817SOL     OW 6349   3.665   6.344   3.250
 1817SOL    HW1 6350   3.590   6.279   3.267
 1817SOL    HW2 6351   3.682   6.396   3.334
 1818SOL     OW 6352   2.687   5.832   1.373
 1818SOL    HW1 6353   2.632   5.894   1.316
 1818SOL    HW2 6354   2.630   5.755   1.402
 1819SOL     OW 6355   1.117   5.575   1.591
 1819SOL    HW1 6356   1.183   5.599   1.520
 1819SOL    HW2 6357   1.060   5.655   1.612
 1820SOL     OW 6358   2.610   0.150   2.288
 1820SOL    HW1 6359   2.678   0.077   2.279
 1820SOL    HW2 6360   2.521   0.116   2.258
 1821SOL     OW 6361   2.640   0.869   1.903
 1821SOL    HW1 6362   2.560   0.904   1.952
 1821SOL    HW2 6363   2.721   0.921   1.931
 1822SOL     OW 6364   1.110   3.216   0.920
 1822SOL    HW1 6365   1.125   3.306   0.878
 1822SOL    HW2 6366   1.193   3.160   0.909
 1823SOL     OW 6367   3.050   6.023   3.290
 1823SOL    HW1 6368   3.038   6.119   3.264
 1823SOL    HW2 6369   3.075   6.018   3.387
 1824SOL     OW 6370   3.553   3.553   0.619
 1824SOL    HW1 6371   3.504   3.499   0.551
 1824SOL    HW2 6372   3.494   3.569   0.698
 1825SOL     OW 6373   2.155   1.991   4.690
 1825SOL    HW1 6374   2.067   2.040   4.681
 1825SOL    HW2 6375   2.221   2.050   4.735
 1826SOL     OW 6376   3.764   1.808   1.275
 1826SOL    HW1 6377   3.835   1.738   1.288
 1826SOL    HW2 6378   3.749   1.857   1.360
 1827SOL     OW 6379   6.965   5.413   0.819
 1827SOL    HW1 6380   6.868   5.407   0.842
 1827SOL    HW2 6381   0.004   5.374   0.893
 1828SOL     OW 6382   1.761   2.282   0.407
 1828SOL    HW1 6383   1.774   2.364   0.352
 1828SOL    HW2 6384   1.802   2.296   0.498
 1829SOL     OW 6385   3.094   1.086   3.195
 1829SOL    HW1 6386   3.119   1.111   3.289
 1829SOL    HW2 6387   3.157   1.016   3.162
 1830SOL     OW 6388   5.775   5.987   4.001
 1830SOL    HW1 6389   5.752   6.082   4.021
 1830SOL    HW2 6390   5.719   5.954   3.925
 1831SOL     OW 6391   6.132   0.120   1.956
 1831SOL    HW1 6392   6.116   0.217   1.976
 1831SOL    HW2 6393   6.056   0.085   1.902
 1832SOL     OW 6394   4.646   1.712   1.511
 1832SOL    HW1 6395   4.699   1.742   1.590
 1832SOL    HW2 6396   4.647   1.612   1.506
 1833SOL     OW 6397   5.696   0.552   0.694
 1833SOL    HW1 6398   5.617   0.520   0.746
 1833SOL    HW2 6399   5.667   0.624   0.632
 1834SOL     OW 6400   2.447   3.473   0.571
 1834SOL    HW1 6401   2.496   3.501   0.489
 1834SOL    HW2 6402   2.360   3.431   0.545
 1835SOL     OW 6403   0.363   4.885   2.372
 1835SOL    HW1 6404   0.408   4.889   2.283
 1835SOL    HW2 6405   0.266   4.867   2.360
 1836SOL     OW 6406   5.531   1.727   1.533
 1836SOL    HW1 6407   5.507   1.823   1.522
 1836SOL    HW2 6408   5.602   1.703   1.467
 1837SOL     OW 6409   0.947   0.188   4.686
 1837SOL    HW1 6410   0.910   0.250   4.755
 1837SOL    HW2 6411   0.947   0.234   4.597
 1838SOL     OW 6412   6.602   1.668   5.808
 1838SOL    HW1 6413   6.695   1.641   5.782
 1838SOL    HW2 6414   6.589   1.653   5.906
 1839SOL     OW 6415   6.699   1.888   5.101
 1839SOL    HW1 6416   6.635   1.956   5.137
 1839SOL    HW2 6417   6.772   1.873   5.167
 1840SOL     OW 6418   3.798   0.311   1.437
 1840SOL    HW1 6419   3.877   0.252   1.452
 1840SOL    HW2 6420   3.741   0.273   1.364
 1841SOL     OW 6421   1.956   1.529   3.551
 1841SOL    HW1 6422   1.923   1.524   3.646
 1841SOL    HW2 6423   1.922   1.450   3.500
 1842SOL     OW 6424   1.045   5.605   0.178
 1842SOL    HW1 6425   1.124   5.584   0.120
 1842SOL    HW2 6426   1.050   5.700   0.208
 1843SOL     OW 6427   6.036   1.530   3.837
 1843SOL    HW1 6428   6.110   1.597   3.847
 1843SOL    HW2 6429   5.974   1.538   3.915
 1844SOL     OW 6430   3.394   6.600   5.256
 1844SOL    HW1 6431   3.397   6.517   5.311
 1844SOL    HW2 6432   3.456   6.591   5.178
 1845SOL     OW 6433   3.379   0.355   4.570
 1845SOL    HW1 6434   3.395   0.372   4.668
 1845SOL    HW2 6435   3.281   0.365   4.551
 1846SOL     OW 6436   3.194   1.374   1.935
 1846SOL    HW1 6437   3.223   1.465   1.966
 1846SOL    HW2 6438   3.154   1.381   1.844
 1847SOL     OW 6439   1.589   0.721   6.446
 1847SOL    HW1 6440   1.569   0.806   6.493
 1847SOL    HW2 6441   1.523   0.651   6.474
 1848SOL     OW 6442   1.748   6.382   3.766
 1848SOL    HW1 6443   1.658   6.424   3.756
 1848SOL    HW2 6444   1.813   6.449   3.801
 1849SOL     OW 6445   4.000   2.788   1.606
 1849SOL    HW1 6446   3.998   2.751   1.513
 1849SOL    HW2 6447   4.092   2.823   1.625
 1850SOL     OW 6448   0.468   2.902   2.329
 1850SOL    HW1 6449   0.488   2.814   2.286
 1850SOL    HW2 6450   0.519   2.908   2.416
 1851SOL     OW 6451   0.139   2.797   0.312
 1851SOL    HW1 6452   0.174   2.712   0.351
 1851SOL    HW2 6453   0.084   2.845   0.380
 1852SOL     OW 6454   6.565   4.228   2.430
 1852SOL    HW1 6455   6.533   4.134   2.429
 1852SOL    HW2 6456   6.646   4.237   2.373
 1853SOL     OW 6457   0.609   2.804   2.886
 1853SOL    HW1 6458   0.568   2.881   2.837
 1853SOL    HW2 6459   0.555   2.721   2.870
 1854SOL     OW 6460   2.622   5.477   3.357
 1854SOL    HW1 6461   2.685   5.417   3.407
 1854SOL    HW2 6462   2.605   5.560   3.410
 1855SOL     OW 6463   5.130   2.988   5.359
 1855SOL    HW1 6464   5.229   2.987   5.376
 1855SOL    HW2 6465   5.112   2.962   5.264
 1856SOL     OW 6466   5.457   4.070   5.950
 1856SOL    HW1 6467   5.530   4.052   5.884
 1856SOL    HW2 6468   5.460   4.001   6.023
 1857SOL     OW 6469   4.303   2.217   6.353
 1857SOL    HW1 6470   4.281   2.261   6.440
 1857SOL    HW2 6471   4.328   2.121   6.369
 1858SOL     OW 6472   5.402   4.194   3.006
 1858SOL    HW1 6473   5.302   4.190   3.015
 1858SOL    HW2 6474   5.436   4.105   2.974
 1859SOL     OW 6475   5.038   1.846   4.015
 1859SOL    HW1 6476   5.057   1.799   3.930
 1859SOL    HW2 6477   5.101   1.924   4.025
 1860SOL     OW 6478   0.420   0.992   5.516
 1860SOL    HW1 6479   0.518   0.992   5.497
 1860SOL    HW2 6480   0.403   0.948   5.604
 1861SOL     OW 6481   6.569   6.808   2.057
 1861SOL    HW1 6482   6.531   6.730   2.106
 1861SOL    HW2 6483   6.510   6.829   1.978
 1862SOL     OW 6484   3.408   6.766   6.540
 1862SOL    HW1 6485   3.476   6.728   6.603
 1862SOL    HW2 6486   3.449   6.841   6.489
 1863SOL     OW 6487   0.316   3.211   3.638
 1863SOL    HW1 6488   0.228   3.164   3.641
 1863SOL    HW2 6489   0.383   3.162   3.694
 1864SOL     OW 6490   1.463   6.519   5.314
 1864SOL    HW1 6491   1.400   6.468   5.372
 1864SOL    HW2 6492   1.419   6.537   5.226
 1865SOL     OW 6493   3.689   6.714   0.074
 1865SOL    HW1 6494   3.706   6.642   0.006
 1865SOL    HW2 6495   3.710   6.678   0.165
 1866SOL     OW 6496   5.521   4.849   3.558
 1866SOL    HW1 6497   5.475   4.773   3.603
 1866SOL    HW2 6498   5.477   4.868   3.470
 1867SOL     OW 6499   0.475   4.174   0.015
 1867SOL    HW1 6500   0.543   4.246   0.006
 1867SOL    HW2 6501   0.493   4.121   0.098
 1868SOL     OW 6502   4.627   3.541   6.385
 1868SOL    HW1 6503   4.685   3.536   6.304
 1868SOL    HW2 6504   4.553   3.475   6.377
 1869SOL     OW 6505   6.452   3.483   5.048
 1869SOL    HW1 6506   6.362   3.523   5.032
 1869SOL    HW2 6507   6.469   3.411   4.982
 1870SOL     OW 6508   1.813   2.566   4.870
 1870SOL    HW1 6509   1.884   2.507   4.833
 1870SOL    HW2 6510   1.850   2.657   4.888
 1871SOL     OW 6511   0.658   0.645   0.320
 1871SOL    HW1 6512   0.584   0.707   0.293
 1871SOL    HW2 6513   0.742   0.670   0.272
 1872SOL     OW 6514   4.293   2.055   0.114
 1872SOL    HW1 6515   4.322   2.039   0.209
 1872SOL    HW2 6516   4.195   2.076   0.113
 1873SOL     OW 6517   5.887   1.399   5.681
 1873SOL    HW1 6518   5.966   1.437   5.632
 1873SOL    HW2 6519   5.908   1.307   5.711
 1874SOL     OW 6520   2.445   1.104   0.180
 1874SOL    HW1 6521   2.359   1.077   0.224
 1874SOL    HW2 6522   2.425   1.161   0.101
 1875SOL     OW 6523   0.257   0.693   0.367
 1875SOL    HW1 6524   0.321   0.745   0.311
 1875SOL    HW2 6525   0.307   0.632   0.428
 1876SOL     OW 6526   2.971   6.323   6.077
 1876SOL    HW1 6527   3.020   6.297   5.994
 1876SOL    HW2 6528   3.013   6.404   6.118
 1877SOL     OW 6529   0.468   1.918   2.986
 1877SOL    HW1 6530   0.427   1.844   2.933
 1877SOL    HW2 6531   0.523   1.976   2.926
 1878SOL     OW 6532   6.352   3.230   4.347
 1878SOL    HW1 6533   6.370   3.229   4.248
 1878SOL    HW2 6534   6.428   3.274   4.394
 1879SOL     OW 6535   1.637   5.506   3.522
 1879SOL    HW1 6536   1.553   5.555   3.542
 1879SOL    HW2 6537   1.703   5.520   3.595
 1880SOL     OW 6538   6.788   1.439   3.993
 1880SOL    HW1 6539   6.718   1.423   4.063
 1880SOL    HW2 6540   6.761   1.518   3.937
 1881SOL     OW 6541   0.873   2.934   2.990
 1881SOL    HW1 6542   0.784   2.893   2.973
 1881SOL    HW2 6543   0.866   3.003   3.062
 1882SOL     OW 6544   1.117   4.132   6.977
 1882SOL    HW1 6545   1.065   4.186   6.911
 1882SOL    HW2 6546   1.137   4.189   0.041
 1883SOL     OW 6547   1.431   3.083   3.798
 1883SOL    HW1 6548   1.376   3.029   3.734
 1883SOL    HW2 6549   1.372   3.149   3.845
 1884SOL     OW 6550   5.982   2.638   6.881
 1884SOL    HW1 6551   5.904   2.588   6.845
 1884SOL    HW2 6552   6.037   2.577   6.938
 1885SOL     OW 6553   0.958   2.371   6.198
 1885SOL    HW1 6554   1.018   2.309   6.147
 1885SOL    HW2 6555   0.953   2.458   6.150
 1886SOL     OW 6556   2.248   0.889   1.736
 1886SOL    HW1 6557   2.227   0.871   1.640
 1886SOL    HW2 6558   2.297   0.810   1.774
 1887SOL     OW 6559   1.543   5.592   6.319
 1887SOL    HW1 6560   1.444   5.588   6.335
 1887SOL    HW2 6561   1.560   5.612   6.222
 1888SOL     OW 6562   3.044   2.511   6.804
 1888SOL    HW1 6563   3.049   2.514   6.903
 1888SOL    HW2 6564   3.136   2.523   6.766
 1889SOL     OW 6565   5.770   3.077   6.682
 1889SOL    HW1 6566   5.757   3.021   6.764
 1889SOL    HW2 6567   5.688   3.131   6.664
 1890SOL     OW 6568   1.386   5.767   4.946
 1890SOL    HW1 6569   1.451   5.727   4.881
 1890SOL    HW2 6570   1.358   5.697   5.012
 1891SOL     OW 6571   5.959   2.240   3.293
 1891SOL    HW1 6572   5.884   2.204   3.349
 1891SOL    HW2 6573   6.047   2.218   3.336
 1892SOL     OW 6574   3.427   0.702   0.635
 1892SOL    HW1 6575   3.359   0.765   0.671
 1892SOL    HW2 6576   3.518   0.744   0.639
 1893SOL     OW 6577   3.133   2.955   0.120
 1893SOL    HW1 6578   3.116   2.864   0.158
 1893SOL    HW2 6579   3.102   2.958   0.025
 1894SOL     OW 6580   3.715   3.599   3.447
 1894SOL    HW1 6581   3.762   3.623   3.362
 1894SOL    HW2 6582   3.677   3.682   3.488
 1895SOL     OW 6583   6.085   1.190   2.307
 1895SOL    HW1 6584   6.166   1.197   2.367
 1895SOL    HW2 6585   6.115   1.172   2.213
 1896SOL     OW 6586   0.425   0.624   1.992
 1896SOL    HW1 6587   0.341   0.595   1.947
 1896SOL    HW2 6588   0.466   0.700   1.942
 1897SOL     OW 6589   1.513   4.755   2.792
 1897SOL    HW1 6590   1.414   4.767   2.803
 1897SOL    HW2 6591   1.562   4.820   2.850
 1898SOL     OW 6592   3.253   5.017   2.793
 1898SOL    HW1 6593   3.253   4.962   2.876
 1898SOL    HW2 6594   3.161   5.053   2.776
 1899SOL     OW 6595   1.069   1.606   2.315
 1899SOL    HW1 6596   0.996   1.549   2.354
 1899SOL    HW2 6597   1.030   1.690   2.279
 1900SOL     OW 6598   1.236   0.278   6.249
 1900SOL    HW1 6599   1.229   0.201   6.312
 1900SOL    HW2 6600   1.322   0.327   6.265
 1901SOL     OW 6601   2.233   1.454   1.579
 1901SOL    HW1 6602   2.239   1.529   1.644
 1901SOL    HW2 6603   2.241   1.489   1.486
 1902SOL     OW 6604   2.496   1.932   5.023
 1902SOL    HW1 6605   2.559   1.950   4.947
 1902SOL    HW2 6606   2.534   1.971   5.107
 1903SOL     OW 6607   6.259   3.343   3.591
 1903SOL    HW1 6608   6.243   3.303   3.681
 1903SOL    HW2 6609   6.268   3.269   3.523
 1904SOL     OW 6610   5.616   6.679   4.910
 1904SOL    HW1 6611   5.666   6.636   4.834
 1904SOL    HW2 6612   5.591   6.772   4.885
 1905SOL     OW 6613   1.731   0.895   4.197
 1905SOL    HW1 6614   1.699   0.827   4.131
 1905SOL    HW2 6615   1.730   0.985   4.153
 1906SOL     OW 6616   2.206   6.985   5.037
 1906SOL    HW1 6617   2.272   6.938   5.096
 1906SOL    HW2 6618   2.241   0.060   5.013
 1907SOL     OW 6619   3.312   6.394   3.163
 1907SOL    HW1 6620   3.314   6.385   3.064
 1907SOL    HW2 6621   3.349   6.311   3.205
 1908SOL     OW 6622   3.963   0.257   5.264
 1908SOL    HW1 6623   3.965   0.355   5.284
 1908SOL    HW2 6624   3.907   0.210   5.333
 1909SOL     OW 6625   0.719   4.200   2.788
 1909SOL    HW1 6626   0.659   4.188   2.867
 1909SOL    HW2 6627   0.814   4.204   2.817
 1910SOL     OW 6628   6.897   2.858   6.381
 1910SOL    HW1 6629   6.830   2.931   6.388
 1910SOL    HW2 6630   6.979   2.882   6.432
 1911SOL     OW 6631   5.865   3.302   5.023
 1911SOL    HW1 6632   5.894   3.252   4.942
 1911SOL    HW2 6633   5.845   3.397   4.998
 1912SOL     OW 6634   2.946   6.763   1.190
 1912SOL    HW1 6635   2.962   6.751   1.092
 1912SOL    HW2 6636   3.004   6.700   1.241
 1913SOL     OW 6637   1.273   5.989   5.425
 1913SOL    HW1 6638   1.210   6.021   5.496
 1913SOL    HW2 6639   1.362   5.970   5.465
 1914SOL     OW 6640   3.791   3.042   6.572
 1914SOL    HW1 6641   3.773   3.124   6.626
 1914SOL    HW2 6642   3.777   3.061   6.475
 1915SOL     OW 6643   3.644   2.136   5.195
 1915SOL    HW1 6644   3.627   2.097   5.285
 1915SOL    HW2 6645   3.584   2.092   5.128
 1916SOL     OW 6646   3.452   5.575   1.361
 1916SOL    HW1 6647   3.464   5.475   1.367
 1916SOL    HW2 6648   3.392   5.605   1.435
 1917SOL     OW 6649   2.884   3.339   4.965
 1917SOL    HW1 6650   2.912   3.270   5.032
 1917SOL    HW2 6651   2.791   3.319   4.933
 1918SOL     OW 6652   0.585   1.206   5.929
 1918SOL    HW1 6653   0.644   1.199   6.010
 1918SOL    HW2 6654   0.597   1.296   5.886
 1919SOL     OW 6655   2.910   0.793   1.442
 1919SOL    HW1 6656   2.931   0.824   1.350
 1919SOL    HW2 6657   2.811   0.781   1.451
 1920SOL     OW 6658   1.694   4.597   2.635
 1920SOL    HW1 6659   1.733   4.524   2.691
 1920SOL    HW2 6660   1.615   4.636   2.683
 1921SOL     OW 6661   0.874   4.900   0.101
 1921SOL    HW1 6662   0.834   4.857   0.020
 1921SOL    HW2 6663   0.951   4.957   0.074
 1922SOL     OW 6664   2.112   4.461   1.073
 1922SOL    HW1 6665   2.095   4.530   1.144
 1922SOL    HW2 6666   2.171   4.390   1.111
 1923SOL     OW 6667   2.967   0.760   5.739
 1923SOL    HW1 6668   2.971   0.697   5.816
 1923SOL    HW2 6669   2.873   0.792   5.726
 1924SOL     OW 6670   4.363   5.404   1.413
 1924SOL    HW1 6671   4.363   5.474   1.342
 1924SOL    HW2 6672   4.439   5.421   1.476
 1925SOL     OW 6673   1.776   4.376   0.347
 1925SOL    HW1 6674   1.783   4.277   0.344
 1925SOL    HW2 6675   1.855   4.417   0.301
 1926SOL     OW 6676   2.361   6.837   3.425
 1926SOL    HW1 6677   2.339   6.801   3.516
 1926SOL    HW2 6678   2.331   6.932   3.418
 1927SOL     OW 6679   3.038   4.227   6.500
 1927SOL    HW1 6680   3.107   4.296   6.480
 1927SOL    HW2 6681   3.048   4.151   6.435
 1928SOL     OW 6682   6.432   4.400   5.920
 1928SOL    HW1 6683   6.511   4.397   5.857
 1928SOL    HW2 6684   6.427   4.314   5.970
 1929SOL     OW 6685   0.688   4.957   1.721
 1929SOL    HW1 6686   0.765   4.896   1.704
 1929SOL    HW2 6687   0.658   4.997   1.634
 1930SOL     OW 6688   3.599   3.651   6.547
 1930SOL    HW1 6689   3.577   3.557   6.573
 1930SOL    HW2 6690   3.516   3.706   6.547
 1931SOL     OW 6691   0.252   3.464   2.881
 1931SOL    HW1 6692   0.181   3.489   2.814
 1931SOL    HW2 6693   0.219   3.485   2.973
 1932SOL     OW 6694   4.895   3.190   3.311
 1932SOL    HW1 6695   4.980   3.151   3.345
 1932SOL    HW2 6696   4.883   3.282   3.348
 1933SOL     OW 6697   1.903   3.928   0.742
 1933SOL    HW1 6698   1.966   3.984   0.688
 1933SOL    HW2 6699   1.935   3.925   0.837
 1934SOL     OW 6700   0.581   6.975   4.983
 1934SOL    HW1 6701   0.558   0.049   5.021
 1934SOL    HW2 6702   0.507   6.911   5.001
 1935SOL     OW 6703   4.249   6.097   3.594
 1935SOL    HW1 6704   4.286   6.170   3.536
 1935SOL    HW2 6705   4.325   6.044   3.633
 1936SOL     OW 6706   5.795   3.668   4.103
 1936SOL    HW1 6707   5.709   3.718   4.089
 1936SOL    HW2 6708   5.785   3.575   4.068
 1937SOL     OW 6709   3.710   7.004   1.163
 1937SOL    HW1 6710   3.780   6.985   1.094
 1937SOL    HW2 6711   3.633   6.941   1.151
 1938SOL     OW 6712   2.105   1.981   1.532
 1938SOL    HW1 6713   2.169   2.024   1.596
 1938SOL    HW2 6714   2.056   2.051   1.481
 1939SOL     OW 6715   6.788   0.378   4.565
 1939SOL    HW1 6716   6.723   0.317   4.609
 1939SOL    HW2 6717   6.863   0.399   4.629
 1940SOL     OW 6718   5.206   4.986   0.583
 1940SOL    HW1 6719   5.169   5.011   0.494
 1940SOL    HW2 6720   5.201   4.887   0.594
 1941SOL     OW 6721   0.564   4.024   4.282
 1941SOL    HW1 6722   0.651   4.007   4.237
 1941SOL    HW2 6723   0.530   3.939   4.321
 1942SOL     OW 6724   5.566   1.357   1.438
 1942SOL    HW1 6725   5.585   1.382   1.343
 1942SOL    HW2 6726   5.579   1.258   1.450
 1943SOL     OW 6727   2.096   6.387   3.535
 1943SOL    HW1 6728   2.151   6.314   3.576
 1943SOL    HW2 6729   2.112   6.472   3.585
 1944SOL     OW 6730   6.563   2.664   0.303
 1944SOL    HW1 6731   6.534   2.631   0.213
 1944SOL    HW2 6732   6.489   2.650   0.369
 1945SOL     OW 6733   4.098   5.507   0.975
 1945SOL    HW1 6734   4.081   5.574   1.047
 1945SOL    HW2 6735   4.192   5.472   0.983
 1946SOL     OW 6736   6.622   6.810   0.665
 1946SOL    HW1 6737   6.600   6.880   0.598
 1946SOL    HW2 6738   6.695   6.752   0.629
 1947SOL     OW 6739   4.567   6.194   4.774
 1947SOL    HW1 6740   4.591   6.217   4.680
 1947SOL    HW2 6741   4.473   6.222   4.792
 1948SOL     OW 6742   5.646   5.331   3.771
 1948SOL    HW1 6743   5.576   5.270   3.734
 1948SOL    HW2 6744   5.624   5.426   3.747
 1949SOL     OW 6745   3.498   4.376   6.451
 1949SOL    HW1 6746   3.521   4.283   6.479
 1949SOL    HW2 6747   3.541   4.441   6.514
 1950SOL     OW 6748   3.918   3.875   0.289
 1950SOL    HW1 6749   3.918   3.828   0.201
 1950SOL    HW2 6750   3.853   3.831   0.351
 1951SOL     OW 6751   5.926   3.489   6.949
 1951SOL    HW1 6752   5.882   3.427   7.015
 1951SOL    HW2 6753   5.858   3.523   6.884
 1952SOL     OW 6754   5.027   3.223   0.891
 1952SOL    HW1 6755   5.009   3.157   0.819
 1952SOL    HW2 6756   5.033   3.315   0.853
 1953SOL     OW 6757   6.517   1.519   5.577
 1953SOL    HW1 6758   6.545   1.570   5.495
 1953SOL    HW2 6759   6.517   1.580   5.656
 1954SOL     OW 6760   6.476   0.602   2.702
 1954SOL    HW1 6761   6.463   0.511   2.741
 1954SOL    HW2 6762   6.573   0.619   2.687
 1955SOL     OW 6763   0.499   1.297   2.660
 1955SOL    HW1 6764   0.559   1.240   2.716
 1955SOL    HW2 6765   0.526   1.289   2.564
 1956SOL     OW 6766   4.822   6.791   2.753
 1956SOL    HW1 6767   4.883   6.742   2.814
 1956SOL    HW2 6768   4.871   6.816   2.669
 1957SOL     OW 6769   5.863   4.411   4.270
 1957SOL    HW1 6770   5.792   4.457   4.323
 1957SOL    HW2 6771   5.825   4.330   4.226
 1958SOL     OW 6772   4.856   1.767   1.903
 1958SOL    HW1 6773   4.934   1.829   1.915
 1958SOL    HW2 6774   4.776   1.804   1.949
 1959SOL     OW 6775   1.008   0.335   4.457
 1959SOL    HW1 6776   1.054   0.424   4.459
 1959SOL    HW2 6777   0.942   0.333   4.382
 1960SOL     OW 6778   6.811   4.285   2.288
 1960SOL    HW1 6779   6.869   4.236   2.224
 1960SOL    HW2 6780   6.840   4.381   2.292
 1961SOL     OW 6781   6.120   4.336   3.725
 1961SOL    HW1 6782   6.115   4.400   3.802
 1961SOL    HW2 6783   6.193   4.364   3.664
 1962SOL     OW 6784   1.199   6.601   3.402
 1962SOL    HW1 6785   1.223   6.691   3.439
 1962SOL    HW2 6786   1.099   6.590   3.403
 1963SOL     OW 6787   0.932   2.027   1.075
 1963SOL    HW1 6788   0.836   1.999   1.066
 1963SOL    HW2 6789   0.954   2.093   1.003
 1964SOL     OW 6790   4.820   4.881   0.742
 1964SOL    HW1 6791   4.725   4.866   0.768
 1964SOL    HW2 6792   4.878   4.812   0.785
 1965SOL     OW 6793   1.957   3.002   4.483
 1965SOL    HW1 6794   2.057   3.002   4.489
 1965SOL    HW2 6795   1.919   3.015   4.575
 1966SOL     OW 6796   0.219   6.111   0.833
 1966SOL    HW1 6797   0.318   6.109   0.817
 1966SOL    HW2 6798   0.200   6.153   0.922
 1967SOL     OW 6799   5.697   2.720   5.911
 1967SOL    HW1 6800   5.772   2.754   5.855
 1967SOL    HW2 6801   5.615   2.712   5.854
 1968SOL     OW 6802   1.602   6.624   5.730
 1968SOL    HW1 6803   1.584   6.526   5.725
 1968SOL    HW2 6804   1.553   6.663   5.807
 1969SOL     OW 6805   0.828   1.298   1.070
 1969SOL    HW1 6806   0.848   1.302   0.972
 1969SOL    HW2 6807   0.872   1.375   1.116
 1970SOL     OW 6808   2.535   6.538   6.086
 1970SOL    HW1 6809   2.617   6.556   6.031
 1970SOL    HW2 6810   2.551   6.457   6.144
 1971SOL     OW 6811   0.645   0.135   5.969
 1971SOL    HW1 6812   0.655   0.217   5.912
 1971SOL    HW2 6813   0.553   0.132   6.007
 1972SOL     OW 6814   5.386   1.965   1.884
 1972SOL    HW1 6815   5.358   1.873   1.912
 1972SOL    HW2 6816   5.485   1.968   1.872
 1973SOL     OW 6817   3.518   3.201   0.124
 1973SOL    HW1 6818   3.421   3.206   0.149
 1973SOL    HW2 6819   3.546   3.287   0.082
 1974SOL     OW 6820   5.890   6.698   5.188
 1974SOL    HW1 6821   5.897   6.607   5.147
 1974SOL    HW2 6822   5.795   6.716   5.212
 1975SOL     OW 6823   1.826   1.499   3.787
 1975SOL    HW1 6824   1.742   1.547   3.811
 1975SOL    HW2 6825   1.881   1.485   3.869
 1976SOL     OW 6826   0.252   6.831   0.260
 1976SOL    HW1 6827   0.323   6.801   0.198
 1976SOL    HW2 6828   0.170   6.775   0.248
 1977SOL     OW 6829   1.874   3.016   4.748
 1977SOL    HW1 6830   1.879   3.106   4.791
 1977SOL    HW2 6831   1.908   2.947   4.812
 1978SOL     OW 6832   1.785   6.127   2.978
 1978SOL    HW1 6833   1.794   6.082   3.067
 1978SOL    HW2 6834   1.752   6.220   2.991
 1979SOL     OW 6835   6.017   4.347   6.388
 1979SOL    HW1 6836   5.996   4.296   6.305
 1979SOL    HW2 6837   6.098   4.306   6.432
 1980SOL     OW 6838   3.688   0.392   4.705
 1980SOL    HW1 6839   3.734   0.460   4.762
 1980SOL    HW2 6840   3.750   0.317   4.685
 1981SOL     OW 6841   0.226   2.735   2.316
 1981SOL    HW1 6842   0.292   2.795   2.360
 1981SOL    HW2 6843   0.168   2.788   2.254
 1982SOL     OW 6844   0.475   4.632   4.030
 1982SOL    HW1 6845   0.390   4.654   4.078
 1982SOL    HW2 6846   0.458   4.560   3.963
 1983SOL     OW 6847   0.966   0.867   2.836
 1983SOL    HW1 6848   0.992   0.849   2.741
 1983SOL    HW2 6849   0.975   0.783   2.889
 1984SOL     OW 6850   4.661   1.927   4.901
 1984SOL    HW1 6851   4.695   2.012   4.940
 1984SOL    HW2 6852   4.627   1.867   4.974
 1985SOL     OW 6853   1.409   6.624   2.416
 1985SOL    HW1 6854   1.400   6.525   2.406
 1985SOL    HW2 6855   1.394   6.649   2.512
 1986SOL     OW 6856   2.340   1.255   6.970
 1986SOL    HW1 6857   2.385   1.293   6.889
 1986SOL    HW2 6858   2.304   1.330   0.010
 1987SOL     OW 6859   2.134   2.544   2.647
 1987SOL    HW1 6860   2.136   2.643   2.664
 1987SOL    HW2 6861   2.109   2.497   2.731
 1988SOL     OW 6862   6.094   3.450   0.925
 1988SOL    HW1 6863   6.152   3.411   0.853
 1988SOL    HW2 6864   6.065   3.378   0.988
 1989SOL     OW 6865   2.452   5.415   5.354
 1989SOL    HW1 6866   2.453   5.513   5.376
 1989SOL    HW2 6867   2.436   5.404   5.256
 1990SOL     OW 6868   3.610   5.965   0.634
 1990SOL    HW1 6869   3.564   5.951   0.547
 1990SOL    HW2 6870   3.542   5.981   0.706
 1991SOL     OW 6871   2.853   5.326   6.959
 1991SOL    HW1 6872   2.787   5.388   6.916
 1991SOL    HW2 6873   2.883   5.258   6.893
 1992SOL     OW 6874   0.561   1.026   0.432
 1992SOL    HW1 6875   0.529   0.959   0.499
 1992SOL    HW2 6876   0.661   1.033   0.437
 1993SOL     OW 6877   3.318   2.244   5.317
 1993SOL    HW1 6878   3.248   2.280   5.255
 1993SOL    HW2 6879   3.403   2.296   5.305
 1994SOL     OW 6880   0.887   1.805   0.507
 1994SOL    HW1 6881   0.884   1.735   0.578
 1994SOL    HW2 6882   0.835   1.774   0.427
 1995SOL     OW 6883   5.213   2.417   3.367
 1995SOL    HW1 6884   5.251   2.384   3.454
 1995SOL    HW2 6885   5.194   2.338   3.308
 1996SOL     OW 6886   1.889   2.726   0.056
 1996SOL    HW1 6887   1.843   2.791   0.116
 1996SOL    HW2 6888   1.821   2.673   0.005
 1997SOL     OW 6889   3.252   1.621   4.906
 1997SOL    HW1 6890   3.267   1.668   4.819
 1997SOL    HW2 6891   3.340   1.593   4.944
 1998SOL     OW 6892   2.734   4.268   6.853
 1998SOL    HW1 6893   2.725   4.304   6.946
 1998SOL    HW2 6894   2.702   4.173   6.852
 1999SOL     OW 6895   2.414   6.242   6.038
 1999SOL    HW1 6896   2.460   6.259   6.126
 1999SOL    HW2 6897   2.424   6.146   6.013
 2000SOL     OW 6898   4.374   2.625   5.242
 2000SOL    HW1 6899   4.283   2.595   5.213
 2000SOL    HW2 6900   4.366   2.707   5.299
 2001SOL     OW 6901   2.917   0.300   1.599
 2001SOL    HW1 6902   2.928   0.355   1.681
 2001SOL    HW2 6903   2.969   0.341   1.523
 2002SOL     OW 6904   0.315   4.673   0.419
 2002SOL    HW1 6905   0.259   4.725   0.483
 2002SOL    HW2 6906   0.412   4.684   0.442
 2003SOL     OW 6907   5.991   5.717   2.611
 2003SOL    HW1 6908   6.071   5.688   2.664
 2003SOL    HW2 6909   5.945   5.791   2.660
 2004SOL     OW 6910   4.665   1.505   4.759
 2004SOL    HW1 6911   4.647   1.591   4.711
 2004SOL    HW2 6912   4.655   1.519   4.857
 2005SOL     OW 6913   0.380   5.201   0.076
 2005SOL    HW1 6914   0.434   5.146   0.140
 2005SOL    HW2 6915   0.291   5.223   0.118
 2006SOL     OW 6916   5.940   0.276   3.495
 2006SOL    HW1 6917   5.955   0.254   3.399
 2006SOL    HW2 6918   5.953   0.374   3.510
 2007SOL     OW 6919   4.834   4.537   0.869
 2007SOL    HW1 6920   4.759   4.472   0.856
 2007SOL    HW2 6921   4.819   4.589   0.953
 2008SOL     OW 6922   2.013   4.526   3.931
 2008SOL    HW1 6923   2.000   4.621   3.901
 2008SOL    HW2 6924   2.014   4.522   4.031
 2009SOL     OW 6925   5.325   0.772   2.456
 2009SOL    HW1 6926   5.348   0.676   2.442
 2009SOL    HW2 6927   5.319   0.818   2.367
 2010SOL     OW 6928   2.109   1.803   1.948
 2010SOL    HW1 6929   2.051   1.885   1.938
 2010SOL    HW2 6930   2.087   1.758   2.034
 2011SOL     OW 6931   6.402   6.622   4.843
 2011SOL    HW1 6932   6.337   6.678   4.792
 2011SOL    HW2 6933   6.485   6.608   4.789
 2012SOL     OW 6934   1.206   4.255   2.250
 2012SOL    HW1 6935   1.155   4.201   2.318
 2012SOL    HW2 6936   1.256   4.194   2.189
 2013SOL     OW 6937   6.113   2.488   3.460
 2013SOL    HW1 6938   6.133   2.455   3.552
 2013SOL    HW2 6939   6.027   2.448   3.427
 2014SOL     OW 6940   2.388   6.385   3.724
 2014SOL    HW1 6941   2.370   6.305   3.668
 2014SOL    HW2 6942   2.304   6.438   3.736
 2015SOL     OW 6943   1.829   0.507   6.929
 2015SOL    HW1 6944   1.916   0.468   6.961
 2015SOL    HW2 6945   1.843   0.602   6.902
 2016SOL     OW 6946   2.240   5.846   6.036
 2016SOL    HW1 6947   2.147   5.815   6.056
 2016SOL    HW2 6948   2.284   5.875   6.121
 2017SOL     OW 6949   3.593   6.931   4.331
 2017SOL    HW1 6950   3.508   6.889   4.301
 2017SOL    HW2 6951   3.658   6.935   4.255
 2018SOL     OW 6952   4.971   1.710   5.170
 2018SOL    HW1 6953   5.047   1.667   5.218
 2018SOL    HW2 6954   4.957   1.803   5.206
 2019SOL     OW 6955   5.169   3.508   6.279
 2019SOL    HW1 6956   5.136   3.432   6.222
 2019SOL    HW2 6957   5.251   3.547   6.237
 2020SOL     OW 6958   1.537   6.966   5.333
 2020SOL    HW1 6959   1.511   0.021   5.398
 2020SOL    HW2 6960   1.538   6.877   5.379
 2021SOL     OW 6961   0.681   6.413   5.118
 2021SOL    HW1 6962   0.766   6.458   5.090
 2021SOL    HW2 6963   0.678   6.321   5.079
 2022SOL     OW 6964   1.499   4.268   3.471
 2022SOL    HW1 6965   1.498   4.231   3.378
 2022SOL    HW2 6966   1.487   4.367   3.469
 2023SOL     OW 6967   6.852   0.697   6.707
 2023SOL    HW1 6968   6.773   0.637   6.713
 2023SOL    HW2 6969   6.919   0.671   6.777
 2024SOL     OW 6970   0.158   6.235   3.450
 2024SOL    HW1 6971   0.072   6.200   3.415
 2024SOL    HW2 6972   0.202   6.165   3.507
 2025SOL     OW 6973   2.941   1.149   3.587
 2025SOL    HW1 6974   2.974   1.167   3.494
 2025SOL    HW2 6975   2.889   1.063   3.588
 2026SOL     OW 6976   6.551   2.853   5.539
 2026SOL    HW1 6977   6.641   2.885   5.568
 2026SOL    HW2 6978   6.499   2.929   5.499
 2027SOL     OW 6979   1.441   0.201   0.541
 2027SOL    HW1 6980   1.513   0.268   0.557
 2027SOL    HW2 6981   1.354   0.235   0.577
 2028SOL     OW 6982   2.654   6.811   4.982
 2028SOL    HW1 6983   2.593   6.789   4.906
 2028SOL    HW2 6984   2.635   6.750   5.059
 2029SOL     OW 6985   6.832   0.772   0.029
 2029SOL    HW1 6986   6.814   0.769   6.946
 2029SOL    HW2 6987   6.779   0.701   0.075
 2030SOL     OW 6988   2.808   0.887   3.595
 2030SOL    HW1 6989   2.725   0.941   3.600
 2030SOL    HW2 6990   2.785   0.793   3.569
 2031SOL     OW 6991   6.496   5.784   1.183
 2031SOL    HW1 6992   6.423   5.719   1.202
 2031SOL    HW2 6993   6.553   5.750   1.108
 2032SOL     OW 6994   4.836   0.329   2.223
 2032SOL    HW1 6995   4.742   0.360   2.237
 2032SOL    HW2 6996   4.894   0.362   2.297
 2033SOL     OW 6997   3.213   3.167   5.951
 2033SOL    HW1 6998   3.117   3.155   5.928
 2033SOL    HW2 6999   3.221   3.228   6.030
 2034SOL     OW 7000   2.312   5.550   5.592
 2034SOL    HW1 7001   2.342   5.615   5.521
 2034SOL    HW2 7002   2.237   5.495   5.557
 2035SOL     OW 7003   6.925   6.309   3.907
 2035SOL    HW1 7004   6.835   6.271   3.928
 2035SOL    HW2 7005   6.914   6.395   3.858
 2036SOL     OW 7006   1.294   4.552   3.075
 2036SOL    HW1 7007   1.390   4.561   3.049
 2036SOL    HW2 7008   1.258   4.641   3.102
 2037SOL     OW 7009   6.199   3.215   5.828
 2037SOL    HW1 7010   6.283   3.254   5.792
 2037SOL    HW2 7011   6.168   3.140   5.769
 2038SOL     OW 7012   1.959   2.098   0.303
 2038SOL    HW1 7013   1.885   2.160   0.331
 2038SOL    HW2 7014   2.045   2.130   0.343
 2039SOL     OW 7015   0.094   4.894   4.099
 2039SOL    HW1 7016   0.119   4.874   4.004
 2039SOL    HW2 7017   7.010   4.886   4.110
 2040SOL     OW 7018   2.686   3.160   5.852
 2040SOL    HW1 7019   2.602   3.176   5.800
 2040SOL    HW2 7020   2.723   3.070   5.830
 2041SOL     OW 7021   1.050   6.344   6.088
 2041SOL    HW1 7022   1.013   6.416   6.029
 2041SOL    HW2 7023   1.130   6.378   6.136
 2042SOL     OW 7024   4.605   6.089   6.724
 2042SOL    HW1 7025   4.653   6.126   6.803
 2042SOL    HW2 7026   4.530   6.031   6.755
 2043SOL     OW 7027   5.981   3.865   2.787
 2043SOL    HW1 7028   6.000   3.870   2.689
 2043SOL    HW2 7029   5.979   3.769   2.815
 2044SOL     OW 7030   6.903   0.505   1.979
 2044SOL    HW1 7031   6.832   0.526   1.911
 2044SOL    HW2 7032   6.882   0.551   2.065
 2045SOL     OW 7033   1.578   5.251   4.338
 2045SOL    HW1 7034   1.561   5.218   4.245
 2045SOL    HW2 7035   1.596   5.173   4.398
 2046SOL     OW 7036   6.765   2.116   4.422
 2046SOL    HW1 7037   6.740   2.164   4.338
 2046SOL    HW2 7038   6.690   2.056   4.450
 2047SOL     OW 7039   0.093   2.648   0.106
 2047SOL    HW1 7040   7.013   2.623   0.095
 2047SOL    HW2 7041   0.100   2.726   0.169
 2048SOL     OW 7042   1.611   6.621   6.075
 2048SOL    HW1 7043   1.603   6.715   6.043
 2048SOL    HW2 7044   1.708   6.594   6.076
 2049SOL     OW 7045   6.181   1.730   4.659
 2049SOL    HW1 7046   6.145   1.801   4.720
 2049SOL    HW2 7047   6.108   1.663   4.640
 2050SOL     OW 7048   5.960   2.618   4.224
 2050SOL    HW1 7049   5.997   2.528   4.202
 2050SOL    HW2 7050   5.872   2.608   4.270
 2051SOL     OW 7051   0.764   6.076   0.137
 2051SOL    HW1 7052   0.759   5.979   0.115
 2051SOL    HW2 7053   0.673   6.117   0.129
 2052SOL     OW 7054   1.486   2.944   1.397
 2052SOL    HW1 7055   1.574   2.985   1.421
 2052SOL    HW2 7056   1.428   3.011   1.351
 2053SOL     OW 7057   6.910   6.155   4.287
 2053SOL    HW1 7058   7.006   6.172   4.309
 2053SOL    HW2 7059   6.859   6.241   4.292
 2054SOL     OW 7060   3.600   4.086   3.297
 2054SOL    HW1 7061   3.533   4.107   3.368
 2054SOL    HW2 7062   3.691   4.083   3.338
 2055SOL     OW 7063   5.570   3.577   3.895
 2055SOL    HW1 7064   5.617   3.647   3.842
 2055SOL    HW2 7065   5.583   3.488   3.852
 2056SOL     OW 7066   3.750   5.772   1.857
 2056SOL    HW1 7067   3.810   5.764   1.778
 2056SOL    HW2 7068   3.776   5.852   1.911
 2057SOL     OW 7069   5.015   4.117   5.813
 2057SOL    HW1 7070   5.021   4.017   5.810
 2057SOL    HW2 7071   5.071   4.151   5.888
 2058SOL     OW 7072   0.312   0.854   3.446
 2058SOL    HW1 7073   0.404   0.892   3.455
 2058SOL    HW2 7074   0.245   0.928   3.443
 2059SOL     OW 7075   1.953   5.870   6.180
 2059SOL    HW1 7076   1.901   5.955   6.170
 2059SOL    HW2 7077   1.997   5.868   6.270
 2060SOL     OW 7078   0.540   4.175   1.531
 2060SOL    HW1 7079   0.622   4.125   1.559
 2060SOL    HW2 7080   0.526   4.164   1.432
 2061SOL     OW 7081   1.037   1.721   2.591
 2061SOL    HW1 7082   0.964   1.783   2.560
 2061SOL    HW2 7083   1.053   1.651   2.521
 2062SOL     OW 7084   7.013   5.382   4.953
 2062SOL    HW1 7085   6.994   5.370   4.856
 2062SOL    HW2 7086   6.948   5.328   5.007
 2063SOL     OW 7087   1.246   6.395   5.445
 2063SOL    HW1 7088   1.252   6.304   5.403
 2063SOL    HW2 7089   1.206   6.387   5.536
 2064SOL     OW 7090   0.423   2.634   5.023
 2064SOL    HW1 7091   0.364   2.586   4.957
 2064SOL    HW2 7092   0.500   2.575   5.048
 2065SOL     OW 7093   6.108   2.657   5.883
 2065SOL    HW1 7094   6.193   2.704   5.860
 2065SOL    HW2 7095   6.111   2.627   5.978
 2066SOL     OW 7096   0.227   4.449   4.341
 2066SOL    HW1 7097   0.199   4.524   4.281
 2066SOL    HW2 7098   0.197   4.468   4.435
 2067SOL     OW 7099   0.023   5.264   0.605
 2067SOL    HW1 7100   6.942   5.266   0.631
 2067SOL    HW2 7101   0.075   5.323   0.667
 2068SOL     OW 7102   1.945   0.364   4.625
 2068SOL    HW1 7103   1.910   0.399   4.538
 2068SOL    HW2 7104   1.869   0.334   4.682
 2069SOL     OW 7105   6.158   2.735   4.085
 2069SOL    HW1 7106   6.076   2.695   4.125
 2069SOL    HW2 7107   6.186   2.680   4.006
 2070SOL     OW 7108   1.111   1.084   1.100
 2070SOL    HW1 7109   1.063   1.123   1.179
 2070SOL    HW2 7110   1.153   1.158   1.048
 2071SOL     OW 7111   6.005   0.668   5.958
 2071SOL    HW1 7112   5.981   0.763   5.936
 2071SOL    HW2 7113   6.080   0.638   5.899
 2072SOL     OW 7114   4.354   5.155   4.121
 2072SOL    HW1 7115   4.403   5.074   4.089
 2072SOL    HW2 7116   4.357   5.226   4.051
 2073SOL     OW 7117   4.531   6.781   4.934
 2073SOL    HW1 7118   4.570   6.718   5.000
 2073SOL    HW2 7119   4.438   6.805   4.961
 2074SOL     OW 7120   2.211   2.196   6.151
 2074SOL    HW1 7121   2.286   2.261   6.137
 2074SOL    HW2 7122   2.220   2.120   6.086
 2075SOL     OW 7123   6.854   2.426   3.394
 2075SOL    HW1 7124   6.912   2.395   3.469
 2075SOL    HW2 7125   6.816   2.516   3.416
 2076SOL     OW 7126   5.349   6.683   6.315
 2076SOL    HW1 7127   5.276   6.664   6.249
 2076SOL    HW2 7128   5.349   6.615   6.387
 2077SOL     OW 7129   6.505   2.214   3.189
 2077SOL    HW1 7130   6.454   2.156   3.127
 2077SOL    HW2 7131   6.590   2.244   3.146
 2078SOL     OW 7132   1.428   5.302   6.304
 2078SOL    HW1 7133   1.521   5.339   6.314
 2078SOL    HW2 7134   1.377   5.316   6.389
 2079SOL     OW 7135   6.853   2.361   2.898
 2079SOL    HW1 7136   6.915   2.294   2.858
 2079SOL    HW2 7137   6.851   2.349   2.998
 2080SOL     OW 7138   1.526   0.295   5.188
 2080SOL    HW1 7139   1.620   0.273   5.161
 2080SOL    HW2 7140   1.528   0.366   5.259
 2081SOL     OW 7141   0.803   6.307   4.427
 2081SOL    HW1 7142   0.822   6.396   4.384
 2081SOL    HW2 7143   0.829   6.310   4.523
 2082SOL     OW 7144   0.635   6.985   3.502
 2082SOL    HW1 7145   0.700   6.991   3.577
 2082SOL    HW2 7146   0.545   6.958   3.537
 2083SOL     OW 7147   1.190   4.927   5.988
 2083SOL    HW1 7148   1.096   4.892   5.984
 2083SOL    HW2 7149   1.234   4.895   6.072
 2084SOL     OW 7150   0.544   4.297   3.113
 2084SOL    HW1 7151   0.447   4.319   3.107
 2084SOL    HW2 7152   0.598   4.380   3.105
 2085SOL     OW 7153   5.244   0.692   0.795
 2085SOL    HW1 7154   5.282   0.637   0.721
 2085SOL    HW2 7155   5.271   0.654   0.883
 2086SOL     OW 7156   3.982   6.568   6.390
 2086SOL    HW1 7157   3.927   6.568   6.306
 2086SOL    HW2 7158   3.931   6.614   6.463
 2087SOL     OW 7159   4.780   1.104   1.805
 2087SOL    HW1 7160   4.767   1.133   1.900
 2087SOL    HW2 7161   4.701   1.132   1.750
 2088SOL     OW 7162   1.011   6.104   6.917
 2088SOL    HW1 7163   1.045   6.022   6.872
 2088SOL    HW2 7164   0.911   6.098   6.927
 2089SOL     OW 7165   4.826   2.711   6.062
 2089SOL    HW1 7166   4.734   2.684   6.090
 2089SOL    HW2 7167   4.831   2.811   6.056
 2090SOL     OW 7168   4.407   3.397   5.977
 2090SOL    HW1 7169   4.463   3.317   5.960
 2090SOL    HW2 7170   4.310   3.373   5.971
 2091SOL     OW 7171   6.801   4.972   0.279
 2091SOL    HW1 7172   6.722   4.916   0.306
 2091SOL    HW2 7173   6.882   4.942   0.329
 2092SOL     OW 7174   5.145   3.639   0.316
 2092SOL    HW1 7175   5.061   3.602   0.356
 2092SOL    HW2 7176   5.150   3.613   0.219
 2093SOL     OW 7177   2.878   2.118   1.556
 2093SOL    HW1 7178   2.947   2.183   1.587
 2093SOL    HW2 7179   2.794   2.131   1.610
 2094SOL     OW 7180   6.042   1.511   1.931
 2094SOL    HW1 7181   5.964   1.562   1.968
 2094SOL    HW2 7182   6.020   1.413   1.930
 2095SOL     OW 7183   6.241   6.403   5.118
 2095SOL    HW1 7184   6.318   6.467   5.112
 2095SOL    HW2 7185   6.182   6.429   5.195
 2096SOL     OW 7186   4.805   4.783   3.218
 2096SOL    HW1 7187   4.810   4.686   3.194
 2096SOL    HW2 7188   4.730   4.797   3.283
 2097SOL     OW 7189   2.986   2.741   6.459
 2097SOL    HW1 7190   3.076   2.770   6.490
 2097SOL    HW2 7191   2.918   2.761   6.530
 2098SOL     OW 7192   4.722   5.906   1.899
 2098SOL    HW1 7193   4.773   5.883   1.815
 2098SOL    HW2 7194   4.750   5.843   1.972
 2099SOL     OW 7195   3.487   1.994   6.601
 2099SOL    HW1 7196   3.524   2.006   6.693
 2099SOL    HW2 7197   3.563   1.974   6.538
 2100SOL     OW 7198   5.430   1.576   0.440
 2100SOL    HW1 7199   5.376   1.564   0.523
 2100SOL    HW2 7200   5.485   1.494   0.424
 2101SOL     OW 7201   0.341   6.586   1.295
 2101SOL    HW1 7202   0.254   6.619   1.258
 2101SOL    HW2 7203   0.384   6.658   1.349
 2102SOL     OW 7204   5.017   4.299   2.497
 2102SOL    HW1 7205   5.002   4.386   2.449
 2102SOL    HW2 7206   5.064   4.317   2.583
 2103SOL     OW 7207   3.610   3.455   0.034
 2103SOL    HW1 7208   3.513   3.474   0.020
 2103SOL    HW2 7209   3.664   3.508   6.985
 2104SOL     OW 7210   1.660   4.329   2.418
 2104SOL    HW1 7211   1.712   4.363   2.340
 2104SOL    HW2 7212   1.580   4.387   2.433
 2105SOL     OW 7213   4.526   4.533   6.353
 2105SOL    HW1 7214   4.567   4.457   6.403
 2105SOL    HW2 7215   4.427   4.524   6.352
 2106SOL     OW 7216   5.378   3.448   0.945
 2106SOL    HW1 7217   5.371   3.407   0.854
 2106SOL    HW2 7218   5.286   3.466   0.981
 2107SOL     OW 7219   6.382   2.342   5.280
 2107SOL    HW1 7220   6.330   2.351   5.366
 2107SOL    HW2 7221   6.321   2.311   5.207
 2108SOL     OW 7222   6.140   5.465   5.054
 2108SOL    HW1 7223   6.058   5.481   5.000
 2108SOL    HW2 7224   6.164   5.368   5.051
 2109SOL     OW 7225   3.971   5.966   2.474
 2109SOL    HW1 7226   3.888   5.968   2.419
 2109SOL    HW2 7227   4.046   6.007   2.422
 2110SOL     OW 7228   3.167   0.602   0.412
 2110SOL    HW1 7229   3.215   0.552   0.484
 2110SOL    HW2 7230   3.216   0.688   0.394
 2111SOL     OW 7231   2.262   3.091   6.820
 2111SOL    HW1 7232   2.282   3.023   6.749
 2111SOL    HW2 7233   2.191   3.055   6.881
 2112SOL     OW 7234   5.660   1.973   0.556
 2112SOL    HW1 7235   5.629   1.879   0.542
 2112SOL    HW2 7236   5.734   1.994   0.491
 2113SOL     OW 7237   2.139   1.148   5.105
 2113SOL    HW1 7238   2.238   1.150   5.119
 2113SOL    HW2 7239   2.100   1.070   5.153
 2114SOL     OW 7240   2.205   1.803   6.935
 2114SOL    HW1 7241   2.117   1.759   6.952
 2114SOL    HW2 7242   2.279   1.745   6.968
 2115SOL     OW 7243   0.381   3.957   2.809
 2115SOL    HW1 7244   0.472   3.964   2.850
 2115SOL    HW2 7245   0.312   3.976   2.878
 2116SOL     OW 7246   0.940   3.890   2.503
 2116SOL    HW1 7247   0.928   3.842   2.590
 2116SOL    HW2 7248   0.853   3.927   2.472
 2117SOL     OW 7249   6.201   4.399   1.334
 2117SOL    HW1 7250   6.249   4.336   1.395
 2117SOL    HW2 7251   6.222   4.376   1.239
 2118SOL     OW 7252   5.867   3.507   3.586
 2118SOL    HW1 7253   5.860   3.429   3.524
 2118SOL    HW2 7254   5.945   3.564   3.559
 2119SOL     OW 7255   1.458   0.558   1.040
 2119SOL    HW1 7256   1.438   0.614   1.121
 2119SOL    HW2 7257   1.557   0.551   1.028
 2120SOL     OW 7258   0.602   4.158   3.335
 2120SOL    HW1 7259   0.580   4.198   3.246
 2120SOL    HW2 7260   0.544   4.078   3.350
 2121SOL     OW 7261   1.635   3.184   5.180
 2121SOL    HW1 7262   1.541   3.151   5.178
 2121SOL    HW2 7263   1.643   3.267   5.125
 2122SOL     OW 7264   6.218   5.362   6.551
 2122SOL    HW1 7265   6.207   5.444   6.495
 2122SOL    HW2 7266   6.223   5.282   6.492
 2123SOL     OW 7267   6.635   5.269   1.720
 2123SOL    HW1 7268   6.546   5.258   1.764
 2123SOL    HW2 7269   6.698   5.198   1.754
 2124SOL     OW 7270   3.291   1.758   0.720
 2124SOL    HW1 7271   3.232   1.816   0.664
 2124SOL    HW2 7272   3.243   1.673   0.742
 2125SOL     OW 7273   1.672   6.354   2.287
 2125SOL    HW1 7274   1.695   6.451   2.277
 2125SOL    HW2 7275   1.589   6.345   2.342
 2126SOL     OW 7276   4.005   2.670   6.607
 2126SOL    HW1 7277   3.959   2.621   6.533
 2126SOL    HW2 7278   4.002   2.768   6.589
 2127SOL     OW 7279   0.742   1.751   6.207
 2127SOL    HW1 7280   0.840   1.772   6.203
 2127SOL    HW2 7281   0.689   1.834   6.190
 2128SOL     OW 7282   6.390   2.820   2.937
 2128SOL    HW1 7283   6.292   2.814   2.954
 2128SOL    HW2 7284   6.439   2.809   3.023
 2129SOL     OW 7285   5.097   3.971   5.030
 2129SOL    HW1 7286   5.046   3.966   5.116
 2129SOL    HW2 7287   5.189   4.007   5.048
 2130SOL     OW 7288   2.946   6.852   2.454
 2130SOL    HW1 7289   2.916   6.806   2.538
 2130SOL    HW2 7290   2.946   6.786   2.379
 2131SOL     OW 7291   5.312   1.594   0.684
 2131SOL    HW1 7292   5.375   1.660   0.724
 2131SOL    HW2 7293   5.218   1.618   0.707
 2132SOL     OW 7294   3.062   1.291   0.191
 2132SOL    HW1 7295   3.093   1.299   0.096
 2132SOL    HW2 7296   3.008   1.371   0.215
 2133SOL     OW 7297   3.650   2.531   1.311
 2133SOL    HW1 7298   3.747   2.512   1.326
 2133SOL    HW2 7299   3.634   2.548   1.214
 2134SOL     OW 7300   0.856   1.100   4.301
 2134SOL    HW1 7301   0.818   1.011   4.326
 2134SOL    HW2 7302   0.827   1.169   4.368
 2135SOL     OW 7303   0.656   1.798   4.158
 2135SOL    HW1 7304   0.629   1.857   4.082
 2135SOL    HW2 7305   0.689   1.854   4.233
 2136SOL     OW 7306   1.115   4.251   4.656
 2136SOL    HW1 7307   1.138   4.234   4.752
 2136SOL    HW2 7308   1.113   4.350   4.640
 2137SOL     OW 7309   0.218   6.117   4.205
 2137SOL    HW1 7310   0.306   6.163   4.195
 2137SOL    HW2 7311   0.174   6.110   4.116
 2138SOL     OW 7312   6.715   1.309   1.353
 2138SOL    HW1 7313   6.747   1.236   1.412
 2138SOL    HW2 7314   6.689   1.271   1.264
 2139SOL     OW 7315   3.670   0.963   2.664
 2139SOL    HW1 7316   3.650   0.969   2.566
 2139SOL    HW2 7317   3.673   1.055   2.703
 2140SOL     OW 7318   3.228   5.645   3.182
 2140SOL    HW1 7319   3.248   5.659   3.085
 2140SOL    HW2 7320   3.129   5.637   3.194
 2141SOL     OW 7321   6.338   4.444   0.855
 2141SOL    HW1 7322   6.294   4.415   0.770
 2141SOL    HW2 7323   6.275   4.503   0.906
 2142SOL     OW 7324   1.173   1.912   3.041
 2142SOL    HW1 7325   1.268   1.914   3.072
 2142SOL    HW2 7326   1.161   1.839   2.974
 2143SOL     OW 7327   3.220   4.830   1.475
 2143SOL    HW1 7328   3.141   4.849   1.416
 2143SOL    HW2 7329   3.246   4.734   1.465
 2144SOL     OW 7330   1.343   5.967   3.099
 2144SOL    HW1 7331   1.393   5.996   3.017
 2144SOL    HW2 7332   1.376   5.878   3.129
 2145SOL     OW 7333   3.336   6.664   4.464
 2145SOL    HW1 7334   3.426   6.626   4.483
 2145SOL    HW2 7335   3.343   6.733   4.392
 2146SOL     OW 7336   2.616   3.397   1.734
 2146SOL    HW1 7337   2.649   3.302   1.740
 2146SOL    HW2 7338   2.522   3.402   1.770
 2147SOL     OW 7339   0.404   1.202   6.496
 2147SOL    HW1 7340   0.411   1.195   6.595
 2147SOL    HW2 7341   0.441   1.291   6.467
 2148SOL     OW 7342   5.041   2.807   4.237
 2148SOL    HW1 7343   4.960   2.845   4.283
 2148SOL    HW2 7344   5.020   2.789   4.141
 2149SOL     OW 7345   3.993   1.001   1.181
 2149SOL    HW1 7346   3.932   0.995   1.259
 2149SOL    HW2 7347   4.048   1.085   1.188
 2150SOL     OW 7348   2.144   2.576   2.317
 2150SOL    HW1 7349   2.179   2.659   2.361
 2150SOL    HW2 7350   2.201   2.498   2.344
 2151SOL     OW 7351   2.103   1.468   4.145
 2151SOL    HW1 7352   2.025   1.476   4.083
 2151SOL    HW2 7353   2.070   1.468   4.239
 2152SOL     OW 7354   3.774   6.260   1.103
 2152SOL    HW1 7355   3.785   6.194   1.177
 2152SOL    HW2 7356   3.678   6.288   1.098
 2153SOL     OW 7357   4.117   6.915   3.109
 2153SOL    HW1 7358   4.126   6.846   3.036
 2153SOL    HW2 7359   4.171   6.996   3.085
 2154SOL     OW 7360   5.104   0.439   4.424
 2154SOL    HW1 7361   5.012   0.478   4.419
 2154SOL    HW2 7362   5.155   0.465   4.342
 2155SOL     OW 7363   1.963   5.199   0.410
 2155SOL    HW1 7364   1.894   5.224   0.342
 2155SOL    HW2 7365   1.917   5.163   0.491
 2156SOL     OW 7366   2.538   0.516   2.873
 2156SOL    HW1 7367   2.559   0.451   2.947
 2156SOL    HW2 7368   2.441   0.507   2.848
 2157SOL     OW 7369   5.971   0.668   3.162
 2157SOL    HW1 7370   5.928   0.615   3.088
 2157SOL    HW2 7371   6.031   0.609   3.215
 2158SOL     OW 7372   3.833   6.537   1.034
 2158SOL    HW1 7373   3.835   6.463   1.101
 2158SOL    HW2 7374   3.920   6.538   0.984
 2159SOL     OW 7375   2.453   6.386   5.464
 2159SOL    HW1 7376   2.516   6.447   5.511
 2159SOL    HW2 7377   2.489   6.292   5.466
 2160SOL     OW 7378   4.621   3.371   1.238
 2160SOL    HW1 7379   4.610   3.289   1.182
 2160SOL    HW2 7380   4.591   3.451   1.185
 2161SOL     OW 7381   5.257   3.192   3.878
 2161SOL    HW1 7382   5.260   3.291   3.866
 2161SOL    HW2 7383   5.350   3.156   3.882
 2162SOL     OW 7384   2.892   0.663   0.050
 2162SOL    HW1 7385   2.868   0.722   6.989
 2162SOL    HW2 7386   2.971   0.607   0.026
 2163SOL     OW 7387   0.212   4.834   6.244
 2163SOL    HW1 7388   0.305   4.829   6.209
 2163SOL    HW2 7389   0.167   4.916   6.207
 2164SOL     OW 7390   1.798   2.528   0.271
 2164SOL    HW1 7391   1.729   2.593   0.239
 2164SOL    HW2 7392   1.862   2.575   0.332
 2165SOL     OW 7393   1.196   1.391   2.792
 2165SOL    HW1 7394   1.194   1.314   2.856
 2165SOL    HW2 7395   1.108   1.397   2.744
 2166SOL     OW 7396   1.841   1.715   5.207
 2166SOL    HW1 7397   1.774   1.685   5.139
 2166SOL    HW2 7398   1.814   1.805   5.242
 2167SOL     OW 7399   1.422   0.732   3.707
 2167SOL    HW1 7400   1.421   0.634   3.726
 2167SOL    HW2 7401   1.363   0.752   3.629
 2168SOL     OW 7402   0.438   1.998   3.475
 2168SOL    HW1 7403   0.489   1.912   3.490
 2168SOL    HW2 7404   0.367   2.006   3.545
 2169SOL     OW 7405   5.605   2.257   5.726
 2169SOL    HW1 7406   5.662   2.279   5.647
 2169SOL    HW2 7407   5.633   2.168   5.763
 2170SOL     OW 7408   5.590   5.085   5.800
 2170SOL    HW1 7409   5.623   4.995   5.827
 2170SOL    HW2 7410   5.647   5.121   5.726
 2171SOL     OW 7411   6.382   3.081   1.582
 2171SOL    HW1 7412   6.408   3.084   1.485
 2171SOL    HW2 7413   6.454   3.124   1.636
 2172SOL     OW 7414   3.093   1.748   0.451
 2172SOL    HW1 7415   3.073   1.799   0.534
 2172SOL    HW2 7416   3.112   1.812   0.376
 2173SOL     OW 7417   4.297   0.170   5.330
 2173SOL    HW1 7418   4.393   0.198   5.325
 2173SOL    HW2 7419   4.247   0.207   5.251
 2174SOL     OW 7420   5.808   5.208   5.671
 2174SOL    HW1 7421   5.786   5.208   5.573
 2174SOL    HW2 7422   5.904   5.182   5.683
 2175SOL     OW 7423   3.458   1.732   3.513
 2175SOL    HW1 7424   3.457   1.789   3.430
 2175SOL    HW2 7425   3.410   1.780   3.586
 2176SOL     OW 7426   0.661   3.315   6.947
 2176SOL    HW1 7427   0.704   3.298   6.858
 2176SOL    HW2 7428   0.698   3.252   7.015
 2177SOL     OW 7429   6.805   0.743   3.390
 2177SOL    HW1 7430   6.855   0.662   3.419
 2177SOL    HW2 7431   6.815   0.815   3.460
 2178SOL     OW 7432   1.544   4.137   0.153
 2178SOL    HW1 7433   1.480   4.074   0.196
 2178SOL    HW2 7434   1.538   4.129   0.053
 2179SOL     OW 7435   1.362   5.541   4.706
 2179SOL    HW1 7436   1.388   5.533   4.610
 2179SOL    HW2 7437   1.366   5.637   4.733
 2180SOL     OW 7438   2.768   3.642   1.807
 2180SOL    HW1 7439   2.767   3.630   1.906
 2180SOL    HW2 7440   2.689   3.597   1.767
 2181SOL     OW 7441   5.588   4.304   5.537
 2181SOL    HW1 7442   5.503   4.345   5.572
 2181SOL    HW2 7443   5.630   4.249   5.609
 2182SOL     OW 7444   6.479   2.840   4.730
 2182SOL    HW1 7445   6.485   2.893   4.645
 2182SOL    HW2 7446   6.386   2.843   4.766
 2183SOL     OW 7447   3.279   3.395   6.549
 2183SOL    HW1 7448   3.359   3.393   6.488
 2183SOL    HW2 7449   3.196   3.379   6.495
 2184SOL     OW 7450   3.888   1.494   5.163
 2184SOL    HW1 7451   3.869   1.552   5.083
 2184SOL    HW2 7452   3.841   1.406   5.152
 2185SOL     OW 7453   1.619   2.050   0.451
 2185SOL    HW1 7454   1.650   2.011   0.537
 2185SOL    HW2 7455   1.663   2.138   0.437
 2186SOL     OW 7456   6.843   4.544   1.995
 2186SOL    HW1 7457   6.909   4.469   1.994
 2186SOL    HW2 7458   6.795   4.546   2.082
 2187SOL     OW 7459   0.535   1.993   1.995
 2187SOL    HW1 7460   0.557   1.980   2.091
 2187SOL    HW2 7461   0.457   2.055   1.987
 2188SOL     OW 7462   5.490   5.928   4.107
 2188SOL    HW1 7463   5.532   6.010   4.147
 2188SOL    HW2 7464   5.518   5.921   4.011
 2189SOL     OW 7465   2.059   6.636   6.763
 2189SOL    HW1 7466   2.098   6.727   6.781
 2189SOL    HW2 7467   2.110   6.592   6.690
 2190SOL     OW 7468   0.333   3.133   2.217
 2190SOL    HW1 7469   0.291   3.175   2.297
 2190SOL    HW2 7470   0.380   3.049   2.245
 2191SOL     OW 7471   3.230   1.673   6.642
 2191SOL    HW1 7472   3.252   1.659   6.545
 2191SOL    HW2 7473   3.226   1.771   6.661
 2192SOL     OW 7474   3.720   6.931   3.796
 2192SOL    HW1 7475   3.670   6.875   3.863
 2192SOL    HW2 7476   3.808   6.887   3.776
 2193SOL     OW 7477   0.478   5.770   6.245
 2193SOL    HW1 7478   0.534   5.804   6.169
 2193SOL    HW2 7479   0.432   5.847   6.289
 2194SOL     OW 7480   2.512   4.578   6.880
 2194SOL    HW1 7481   2.547   4.671   6.882
 2194SOL    HW2 7482   2.549   4.526   6.957
 2195SOL     OW 7483   6.965   6.763   3.442
 2195SOL    HW1 7484   6.964   6.663   3.447
 2195SOL    HW2 7485   6.912   6.792   3.363
 2196SOL     OW 7486   3.515   6.950   5.590
 2196SOL    HW1 7487   3.416   6.936   5.587
 2196SOL    HW2 7488   3.536   0.025   5.555
 2197SOL     OW 7489   4.146   3.830   1.683
 2197SOL    HW1 7490   4.079   3.763   1.713
 2197SOL    HW2 7491   4.108   3.922   1.693
 2198SOL     OW 7492   6.378   1.469   0.110
 2198SOL    HW1 7493   6.407   1.522   0.190
 2198SOL    HW2 7494   6.455   1.415   0.076
 2199SOL     OW 7495   5.250   0.990   1.921
 2199SOL    HW1 7496   5.169   0.958   1.872
 2199SOL    HW2 7497   5.231   0.989   2.019
 2200SOL     OW 7498   3.863   0.204   4.625
 2200SOL    HW1 7499   3.939   0.205   4.560
 2200SOL    HW2 7500   3.830   0.110   4.636
 2201SOL     OW 7501   6.327   2.730   2.297
 2201SOL    HW1 7502   6.383   2.795   2.348
 2201SOL    HW2 7503   6.288   2.664   2.361
 2202SOL     OW 7504   3.657   4.921   3.758
 2202SOL    HW1 7505   3.669   5.018   3.739
 2202SOL    HW2 7506   3.680   4.902   3.854
 2203SOL     OW 7507   1.878   2.777   1.542
 2203SOL    HW1 7508   1.974   2.770   1.515
 2203SOL    HW2 7509   1.826   2.702   1.501
 2204SOL     OW 7510   3.739   1.743   0.027
 2204SOL    HW1 7511   3.640   1.740   0.011
 2204SOL    HW2 7512   3.778   1.653   0.009
 2205SOL     OW 7513   1.954   0.027   6.094
 2205SOL    HW1 7514   2.052   0.016   6.083
 2205SOL    HW2 7515   1.927   7.011   6.185
 2206SOL     OW 7516   2.632   4.102   5.528
 2206SOL    HW1 7517   2.539   4.137   5.524
 2206SOL    HW2 7518   2.641   4.039   5.605
 2207SOL     OW 7519   2.297   3.854   6.165
 2207SOL    HW1 7520   2.241   3.932   6.192
 2207SOL    HW2 7521   2.382   3.854   6.219
 2208SOL     OW 7522   2.073   5.170   2.893
 2208SOL    HW1 7523   2.091   5.112   2.814
 2208SOL    HW2 7524   1.987   5.144   2.935
 2209SOL     OW 7525   1.503   5.386   5.906
 2209SOL    HW1 7526   1.509   5.288   5.888
 2209SOL    HW2 7527   1.454   5.401   5.993
 2210SOL     OW 7528   7.002   4.659   3.641
 2210SOL    HW1 7529   6.918   4.607   3.626
 2210SOL    HW2 7530   0.039   4.662   3.556
 2211SOL     OW 7531   5.245   0.763   6.630
 2211SOL    HW1 7532   5.301   0.751   6.548
 2211SOL    HW2 7533   5.161   0.711   6.621
 2212SOL     OW 7534   1.743   5.929   0.319
 2212SOL    HW1 7535   1.716   5.971   0.406
 2212SOL    HW2 7536   1.778   5.837   0.337
 2213SOL     OW 7537   4.022   2.730   5.393
 2213SOL    HW1 7538   4.055   2.657   5.333
 2213SOL    HW2 7539   3.977   2.800   5.339
 2214SOL     OW 7540   4.853   2.307   5.556
 2214SOL    HW1 7541   4.850   2.406   5.563
 2214SOL    HW2 7542   4.938   2.278   5.512
 2215SOL     OW 7543   6.582   1.794   6.498
 2215SOL    HW1 7544   6.493   1.839   6.497
 2215SOL    HW2 7545   6.644   1.844   6.559
 2216SOL     OW 7546   2.011   0.831   6.580
 2216SOL    HW1 7547   2.109   0.813   6.588
 2216SOL    HW2 7548   1.981   0.811   6.487
 2217SOL     OW 7549   3.465   0.166   1.349
 2217SOL    HW1 7550   3.413   0.233   1.403
 2217SOL    HW2 7551   3.497   0.209   1.265
 2218SOL     OW 7552   0.873   6.775   1.082
 2218SOL    HW1 7553   0.886   6.772   1.181
 2218SOL    HW2 7554   0.963   6.782   1.038
 2219SOL     OW 7555   0.589   3.683   3.311
 2219SOL    HW1 7556   0.530   3.620   3.260
 2219SOL    HW2 7557   0.685   3.661   3.294
 2220SOL     OW 7558   0.140   1.044   4.579
 2220SOL    HW1 7559   0.108   1.053   4.673
 2220SOL    HW2 7560   0.205   1.117   4.559
 2221SOL     OW 7561   6.383   1.161   6.273
 2221SOL    HW1 7562   6.452   1.108   6.322
 2221SOL    HW2 7563   6.316   1.197   6.338
 2222SOL     OW 7564   3.954   0.690   0.950
 2222SOL    HW1 7565   3.948   0.611   0.890
 2222SOL    HW2 7566   3.911   0.668   1.038
 2223SOL     OW 7567   6.016   6.328   4.153
 2223SOL    HW1 7568   6.088   6.309   4.220
 2223SOL    HW2 7569   6.058   6.354   4.066
 2224SOL     OW 7570   2.079   4.716   2.294
 2224SOL    HW1 7571   2.155   4.781   2.291
 2224SOL    HW2 7572   1.999   4.761   2.335
 2225SOL     OW 7573   6.520   5.898   3.103
 2225SOL    HW1 7574   6.484   5.937   3.018
 2225SOL    HW2 7575   6.446   5.855   3.154
 2226SOL     OW 7576   4.483   4.159   0.437
 2226SOL    HW1 7577   4.492   4.203   0.526
 2226SOL    HW2 7578   4.523   4.068   0.440
 2227SOL     OW 7579   5.667   3.750   0.128
 2227SOL    HW1 7580   5.584   3.760   0.183
 2227SOL    HW2 7581   5.731   3.690   0.176
 2228SOL     OW 7582   2.685   5.465   1.182
 2228SOL    HW1 7583   2.738   5.382   1.165
 2228SOL    HW2 7584   2.747   5.542   1.196
 2229SOL     OW 7585   4.245   1.549   4.433
 2229SOL    HW1 7586   4.344   1.561   4.424
 2229SOL    HW2 7587   4.226   1.458   4.471
 2230SOL     OW 7588   0.316   5.686   5.429
 2230SOL    HW1 7589   0.378   5.659   5.503
 2230SOL    HW2 7590   0.300   5.785   5.433
 2231SOL     OW 7591   1.949   0.577   1.529
 2231SOL    HW1 7592   1.948   0.591   1.430
 2231SOL    HW2 7593   2.043   0.568   1.561
 2232SOL     OW 7594   1.293   2.017   3.630
 2232SOL    HW1 7595   1.348   1.991   3.551
 2232SOL    HW2 7596   1.232   2.092   3.605
 2233SOL     OW 7597   1.775   4.791   1.233
 2233SOL    HW1 7598   1.728   4.727   1.294
 2233SOL    HW2 7599   1.815   4.865   1.287
 2234SOL     OW 7600   4.800   2.009   1.751
 2234SOL    HW1 7601   4.834   2.091   1.704
 2234SOL    HW2 7602   4.854   1.993   1.833
 2235SOL     OW 7603   2.009   6.824   0.921
 2235SOL    HW1 7604   2.036   6.837   0.826
 2235SOL    HW2 7605   1.958   6.738   0.930
 2236SOL     OW 7606   0.716   4.386   7.011
 2236SOL    HW1 7607   0.705   4.435   0.082
 2236SOL    HW2 7608   0.756   4.296   0.012
 2237SOL     OW 7609   5.447   4.249   4.423
 2237SOL    HW1 7610   5.452   4.154   4.393
 2237SOL    HW2 7611   5.368   4.260   4.484
 2238SOL     OW 7612   6.074   5.655   1.895
 2238SOL    HW1 7613   6.142   5.601   1.944
 2238SOL    HW2 7614   5.985   5.611   1.904
 2239SOL     OW 7615   3.826   5.645   4.023
 2239SOL    HW1 7616   3.744   5.690   4.058
 2239SOL    HW2 7617   3.907   5.698   4.051
 2240SOL     OW 7618   5.582   5.892   3.830
 2240SOL    HW1 7619   5.611   5.936   3.745
 2240SOL    HW2 7620   5.498   5.840   3.815
 2241SOL     OW 7621   0.314   6.941   2.475
 2241SOL    HW1 7622   0.260   6.905   2.399
 2241SOL    HW2 7623   0.335   6.867   2.539
 2242SOL     OW 7624   5.183   2.565   2.583
 2242SOL    HW1 7625   5.096   2.516   2.583
 2242SOL    HW2 7626   5.225   2.559   2.674
 2243SOL     OW 7627   2.729   6.362   5.266
 2243SOL    HW1 7628   2.781   6.291   5.219
 2243SOL    HW2 7629   2.636   6.363   5.232
 2244SOL     OW 7630   3.485   0.533   3.031
 2244SOL    HW1 7631   3.541   0.472   2.974
 2244SOL    HW2 7632   3.512   0.524   3.127
 2245SOL     OW 7633   0.600   2.214   1.719
 2245SOL    HW1 7634   0.571   2.152   1.646
 2245SOL    HW2 7635   0.604   2.164   1.806
 2246SOL     OW 7636   1.121   1.396   4.581
 2246SOL    HW1 7637   1.067   1.315   4.602
 2246SOL    HW2 7638   1.094   1.431   4.491
 2247SOL     OW 7639   2.640   2.557   6.178
 2247SOL    HW1 7640   2.709   2.503   6.129
 2247SOL    HW2 7641   2.635   2.648   6.138
 2248SOL     OW 7642   4.137   4.065   6.483
 2248SOL    HW1 7643   4.226   4.021   6.478
 2248SOL    HW2 7644   4.119   4.115   6.399
 2249SOL     OW 7645   6.140   6.456   2.634
 2249SOL    HW1 7646   6.163   6.450   2.537
 2249SOL    HW2 7647   6.077   6.532   2.648
 2250SOL     OW 7648   5.231   3.972   0.809
 2250SOL    HW1 7649   5.267   3.915   0.735
 2250SOL    HW2 7650   5.229   3.919   0.893
 2251SOL     OW 7651   5.265   1.294   6.899
 2251SOL    HW1 7652   5.251   1.219   6.964
 2251SOL    HW2 7653   5.189   1.296   6.834
 2252SOL     OW 7654   7.000   2.462   4.129
 2252SOL    HW1 7655   6.980   2.431   4.036
 2252SOL    HW2 7656   6.914   2.469   4.180
 2253SOL     OW 7657   0.818   3.131   0.052
 2253SOL    HW1 7658   0.829   3.064   0.126
 2253SOL    HW2 7659   0.907   3.164   0.023
 2254SOL     OW 7660   2.304   2.593   5.639
 2254SOL    HW1 7661   2.278   2.688   5.656
 2254SOL    HW2 7662   2.401   2.587   5.616
 2255SOL     OW 7663   5.649   2.221   0.649
 2255SOL    HW1 7664   5.567   2.249   0.698
 2255SOL    HW2 7665   5.639   2.127   0.617
 2256SOL     OW 7666   3.778   6.221   1.602
 2256SOL    HW1 7667   3.864   6.271   1.613
 2256SOL    HW2 7668   3.714   6.252   1.673
 2257SOL     OW 7669   0.453   2.948   4.434
 2257SOL    HW1 7670   0.412   2.899   4.357
 2257SOL    HW2 7671   0.510   2.886   4.488
 2258SOL     OW 7672   0.959   5.400   5.250
 2258SOL    HW1 7673   1.017   5.343   5.308
 2258SOL    HW2 7674   0.967   5.370   5.155
 2259SOL     OW 7675   4.641   3.548   6.858
 2259SOL    HW1 7676   4.663   3.496   6.776
 2259SOL    HW2 7677   4.620   3.642   6.833
 2260SOL     OW 7678   5.316   4.609   2.959
 2260SOL    HW1 7679   5.366   4.541   2.906
 2260SOL    HW2 7680   5.373   4.640   3.035
 2261SOL     OW 7681   6.210   6.718   1.089
 2261SOL    HW1 7682   6.302   6.756   1.094
 2261SOL    HW2 7683   6.213   6.628   1.047
 2262SOL     OW 7684   5.785   2.968   2.332
 2262SOL    HW1 7685   5.739   3.056   2.345
 2262SOL    HW2 7686   5.718   2.894   2.335
 2263SOL     OW 7687   2.831   5.909   5.813
 2263SOL    HW1 7688   2.776   5.991   5.829
 2263SOL    HW2 7689   2.928   5.931   5.828
 2264SOL     OW 7690   3.170   3.528   1.759
 2264SOL    HW1 7691   3.187   3.494   1.851
 2264SOL    HW2 7692   3.258   3.548   1.715
 2265SOL     OW 7693   0.285   0.584   4.116
 2265SOL    HW1 7694   0.188   0.610   4.113
 2265SOL    HW2 7695   0.293   0.484   4.108
 2266SOL     OW 7696   6.118   1.520   1.231
 2266SOL    HW1 7697   6.157   1.463   1.303
 2266SOL    HW2 7698   6.189   1.581   1.195
 2267SOL     OW 7699   5.288   2.510   5.262
 2267SOL    HW1 7700   5.297   2.428   5.205
 2267SOL    HW2 7701   5.193   2.521   5.290
 2268SOL     OW 7702   6.604   4.272   6.368
 2268SOL    HW1 7703   6.568   4.212   6.440
 2268SOL    HW2 7704   6.694   4.305   6.394
 2269SOL     OW 7705   5.998   5.833   5.158
 2269SOL    HW1 7706   5.959   5.805   5.245
 2269SOL    HW2 7707   6.077   5.893   5.174
 2270SOL     OW 7708   3.809   3.245   6.773
 2270SOL    HW1 7709   3.866   3.214   6.849
 2270SOL    HW2 7710   3.716   3.261   6.805
 2271SOL     OW 7711   6.195   4.302   0.636
 2271SOL    HW1 7712   6.155   4.291   0.546
 2271SOL    HW2 7713   6.232   4.214   0.667
 2272SOL     OW 7714   5.877   1.801   5.249
 2272SOL    HW1 7715   5.843   1.760   5.334
 2272SOL    HW2 7716   5.942   1.738   5.206
 2273SOL     OW 7717   1.803   1.238   1.660
 2273SOL    HW1 7718   1.902   1.226   1.651
 2273SOL    HW2 7719   1.757   1.155   1.628
 2274SOL     OW 7720   1.092   2.823   6.015
 2274SOL    HW1 7721   1.075   2.921   5.999
 2274SOL    HW2 7722   1.078   2.803   6.112
 2275SOL     OW 7723   5.440   0.534   4.427
 2275SOL    HW1 7724   5.450   0.558   4.524
 2275SOL    HW2 7725   5.401   0.612   4.378
 2276SOL     OW 7726   2.952   4.793   1.199
 2276SOL    HW1 7727   2.858   4.776   1.227
 2276SOL    HW2 7728   3.001   4.706   1.191
 2277SOL     OW 7729   3.193   3.894   4.637
 2277SOL    HW1 7730   3.176   3.970   4.576
 2277SOL    HW2 7731   3.125   3.894   4.711
 2278SOL     OW 7732   5.349   6.644   4.607
 2278SOL    HW1 7733   5.343   6.557   4.656
 2278SOL    HW2 7734   5.261   6.691   4.613
 2279SOL     OW 7735   5.067   5.619   4.740
 2279SOL    HW1 7736   5.112   5.530   4.747
 2279SOL    HW2 7737   5.045   5.638   4.644
 2280SOL     OW 7738   6.901   6.395   4.872
 2280SOL    HW1 7739   6.885   6.454   4.793
 2280SOL    HW2 7740   6.936   6.307   4.841
 2281SOL     OW 7741   3.606   0.995   1.493
 2281SOL    HW1 7742   3.681   0.944   1.535
 2281SOL    HW2 7743   3.588   1.077   1.546
 2282SOL     OW 7744   5.200   0.503   4.714
 2282SOL    HW1 7745   5.169   0.487   4.620
 2282SOL    HW2 7746   5.248   0.422   4.747
 2283SOL     OW 7747   0.003   4.692   1.056
 2283SOL    HW1 7748   6.953   4.733   1.119
 2283SOL    HW2 7749   0.073   4.643   1.107
 2284SOL     OW 7750   1.980   1.558   0.238
 2284SOL    HW1 7751   1.998   1.654   0.258
 2284SOL    HW2 7752   1.982   1.506   0.323
 2285SOL     OW 7753   1.811   2.989   0.191
 2285SOL    HW1 7754   1.901   3.015   0.226
 2285SOL    HW2 7755   1.745   3.061   0.213
 2286SOL     OW 7756   6.897   6.785   4.547
 2286SOL    HW1 7757   6.915   6.775   4.449
 2286SOL    HW2 7758   6.915   6.698   4.593
 2287SOL     OW 7759   2.511   2.849   1.774
 2287SOL    HW1 7760   2.608   2.824   1.772
 2287SOL    HW2 7761   2.491   2.908   1.695
 2288SOL     OW 7762   6.716   4.886   4.691
 2288SOL    HW1 7763   6.681   4.978   4.709
 2288SOL    HW2 7764   6.816   4.888   4.689
 2289SOL     OW 7765   6.365   4.241   2.697
 2289SOL    HW1 7766   6.344   4.339   2.702
 2289SOL    HW2 7767   6.320   4.201   2.618
 2290SOL     OW 7768   2.056   3.570   2.207
 2290SOL    HW1 7769   2.108   3.540   2.127
 2290SOL    HW2 7770   1.958   3.562   2.188
 2291SOL     OW 7771   2.426   2.023   0.394
 2291SOL    HW1 7772   2.448   2.061   0.305
 2291SOL    HW2 7773   2.470   1.934   0.405
 2292SOL     OW 7774   5.541   2.363   3.213
 2292SOL    HW1 7775   5.553   2.304   3.292
 2292SOL    HW2 7776   5.465   2.330   3.157
 2293SOL     OW 7777   6.863   6.925   0.821
 2293SOL    HW1 7778   6.783   6.878   0.860
 2293SOL    HW2 7779   6.896   6.994   0.886
 2294SOL     OW 7780   3.310   1.456   6.008
 2294SOL    HW1 7781   3.394   1.421   5.965
 2294SOL    HW2 7782   3.334   1.505   6.092
 2295SOL     OW 7783   0.670   1.741   2.926
 2295SOL    HW1 7784   0.602   1.801   2.969
 2295SOL    HW2 7785   0.760   1.783   2.933
 2296SOL     OW 7786   3.156   5.204   3.112
 2296SOL    HW1 7787   3.163   5.106   3.097
 2296SOL    HW2 7788   3.125   5.249   3.028
 2297SOL     OW 7789   4.900   4.730   5.567
 2297SOL    HW1 7790   4.895   4.640   5.610
 2297SOL    HW2 7791   4.981   4.778   5.602
 2298SOL     OW 7792   4.079   3.671   3.091
 2298SOL    HW1 7793   4.088   3.654   2.992
 2298SOL    HW2 7794   3.986   3.649   3.120
 2299SOL     OW 7795   5.145   4.498   5.235
 2299SOL    HW1 7796   5.125   4.585   5.280
 2299SOL    HW2 7797   5.237   4.469   5.258
 2300SOL     OW 7798   2.680   6.491   3.760
 2300SOL    HW1 7799   2.635   6.475   3.848
 2300SOL    HW2 7800   2.636   6.434   3.690
 2301SOL     OW 7801   3.668   3.105   3.528
 2301SOL    HW1 7802   3.693   3.199   3.504
 2301SOL    HW2 7803   3.731   3.071   3.598
 2302SOL     OW 7804   3.742   0.606   1.226
 2302SOL    HW1 7805   3.757   0.551   1.308
 2302SOL    HW2 7806   3.688   0.687   1.249
 2303SOL     OW 7807   2.600   3.491   0.999
 2303SOL    HW1 7808   2.531   3.418   1.008
 2303SOL    HW2 7809   2.671   3.478   1.069
 2304SOL     OW 7810   5.900   6.183   4.429
 2304SOL    HW1 7811   5.817   6.144   4.468
 2304SOL    HW2 7812   5.955   6.224   4.502
 2305SOL     OW 7813   2.178   0.415   3.215
 2305SOL    HW1 7814   2.273   0.400   3.240
 2305SOL    HW2 7815   2.166   0.399   3.117
 2306SOL     OW 7816   1.415   5.045   1.518
 2306SOL    HW1 7817   1.448   5.085   1.603
 2306SOL    HW2 7818   1.315   5.037   1.521
 2307SOL     OW 7819   0.195   2.896   5.587
 2307SOL    HW1 7820   0.250   2.827   5.540
 2307SOL    HW2 7821   0.235   2.915   5.677
 2308SOL     OW 7822   2.716   4.514   1.262
 2308SOL    HW1 7823   2.622   4.496   1.293
 2308SOL    HW2 7824   2.779   4.495   1.337
 2309SOL     OW 7825   1.829   0.782   5.094
 2309SOL    HW1 7826   1.782   0.709   5.144
 2309SOL    HW2 7827   1.894   0.827   5.156
 2310SOL     OW 7828   5.893   6.120   2.166
 2310SOL    HW1 7829   5.979   6.129   2.115
 2310SOL    HW2 7830   5.842   6.042   2.132
 2311SOL     OW 7831   2.461   6.465   0.526
 2311SOL    HW1 7832   2.402   6.490   0.603
 2311SOL    HW2 7833   2.556   6.459   0.558
 2312SOL     OW 7834   4.900   5.605   3.373
 2312SOL    HW1 7835   4.824   5.540   3.372
 2312SOL    HW2 7836   4.878   5.681   3.434
 2313SOL     OW 7837   4.726   5.524   1.990
 2313SOL    HW1 7838   4.657   5.490   2.054
 2313SOL    HW2 7839   4.781   5.594   2.034
 2314SOL     OW 7840   4.398   6.259   2.681
 2314SOL    HW1 7841   4.368   6.241   2.587
 2314SOL    HW2 7842   4.486   6.307   2.678
 2315SOL     OW 7843   5.043   2.945   6.091
 2315SOL    HW1 7844   5.050   2.866   6.030
 2315SOL    HW2 7845   5.095   2.927   6.174
 2316SOL     OW 7846   4.525   1.892   3.708
 2316SOL    HW1 7847   4.605   1.847   3.669
 2316SOL    HW2 7848   4.527   1.883   3.808
 2317SOL     OW 7849   0.329   5.668   3.154
 2317SOL    HW1 7850   0.281   5.748   3.191
 2317SOL    HW2 7851   0.262   5.598   3.129
 2318SOL     OW 7852   0.501   2.981   3.762
 2318SOL    HW1 7853   0.454   2.955   3.678
 2318SOL    HW2 7854   0.554   2.903   3.796
 2319SOL     OW 7855   1.247   4.691   4.535
 2319SOL    HW1 7856   1.238   4.597   4.501
 2319SOL    HW2 7857   1.256   4.754   4.458
 2320SOL     OW 7858   1.029   2.466   3.914
 2320SOL    HW1 7859   1.079   2.401   3.971
 2320SOL    HW2 7860   0.931   2.455   3.931
 2321SOL     OW 7861   3.190   1.075   5.308
 2321SOL    HW1 7862   3.194   1.053   5.211
 2321SOL    HW2 7863   3.231   1.001   5.361
 2322SOL     OW 7864   2.546   1.656   5.053
 2322SOL    HW1 7865   2.534   1.616   4.961
 2322SOL    HW2 7866   2.507   1.748   5.055
 2323SOL     OW 7867   3.050   4.874   2.260
 2323SOL    HW1 7868   3.124   4.823   2.215
 2323SOL    HW2 7869   3.078   4.898   2.353
 2324SOL     OW 7870   0.066   6.372   2.983
 2324SOL    HW1 7871   6.988   6.359   3.017
 2324SOL    HW2 7872   0.072   6.339   2.889
 2325SOL     OW 7873   0.623   4.600   1.370
 2325SOL    HW1 7874   0.682   4.609   1.450
 2325SOL    HW2 7875   0.609   4.689   1.328
 2326SOL     OW 7876   3.273   4.216   6.130
 2326SOL    HW1 7877   3.349   4.155   6.150
 2326SOL    HW2 7878   3.303   4.287   6.067
 2327SOL     OW 7879   5.577   2.629   4.617
 2327SOL    HW1 7880   5.511   2.652   4.545
 2327SOL    HW2 7881   5.533   2.639   4.706
 2328SOL     OW 7882   4.451   1.639   3.291
 2328SOL    HW1 7883   4.456   1.730   3.250
 2328SOL    HW2 7884   4.422   1.647   3.386
 2329SOL     OW 7885   1.448   5.251   4.694
 2329SOL    HW1 7886   1.495   5.209   4.772
 2329SOL    HW2 7887   1.443   5.350   4.708
 2330SOL     OW 7888   6.964   4.270   2.739
 2330SOL    HW1 7889   6.883   4.308   2.695
 2330SOL    HW2 7890   0.026   4.278   2.677
 2331SOL     OW 7891   6.484   4.944   6.752
 2331SOL    HW1 7892   6.391   4.982   6.743
 2331SOL    HW2 7893   6.491   4.896   6.839
 2332SOL     OW 7894   4.313   1.760   5.456
 2332SOL    HW1 7895   4.271   1.848   5.479
 2332SOL    HW2 7896   4.402   1.752   5.499
 2333SOL     OW 7897   6.359   4.833   2.896
 2333SOL    HW1 7898   6.352   4.901   2.824
 2333SOL    HW2 7899   6.406   4.752   2.862
 2334SOL     OW 7900   2.924   0.267   0.607
 2334SOL    HW1 7901   2.841   0.320   0.624
 2334SOL    HW2 7902   2.902   0.185   0.556
 2335SOL     OW 7903   6.071   0.897   3.010
 2335SOL    HW1 7904   6.063   0.843   3.093
 2335SOL    HW2 7905   6.150   0.864   2.956
 2336SOL     OW 7906   4.583   1.806   5.545
 2336SOL    HW1 7907   4.625   1.760   5.466
 2336SOL    HW2 7908   4.613   1.762   5.629
 2337SOL     OW 7909   5.129   0.678   3.149
 2337SOL    HW1 7910   5.071   0.728   3.085
 2337SOL    HW2 7911   5.100   0.582   3.153
 2338SOL     OW 7912   0.683   0.039   6.916
 2338SOL    HW1 7913   0.720   0.121   6.873
 2338SOL    HW2 7914   0.715   0.032   7.010
 2339SOL     OW 7915   3.878   3.787   5.207
 2339SOL    HW1 7916   3.908   3.859   5.145
 2339SOL    HW2 7917   3.808   3.730   5.162
 2340SOL     OW 7918   4.566   6.789   5.623
 2340SOL    HW1 7919   4.479   6.817   5.584
 2340SOL    HW2 7920   4.617   6.736   5.555
 2341SOL     OW 7921   4.861   3.694   1.186
 2341SOL    HW1 7922   4.832   3.666   1.095
 2341SOL    HW2 7923   4.894   3.788   1.184
 2342SOL     OW 7924   0.941   5.663   5.578
 2342SOL    HW1 7925   1.022   5.704   5.535
 2342SOL    HW2 7926   0.884   5.621   5.508
 2343SOL     OW 7927   1.924   6.400   1.157
 2343SOL    HW1 7928   1.892   6.400   1.251
 2343SOL    HW2 7929   2.021   6.424   1.154
 2344SOL     OW 7930   1.967   0.890   1.174
 2344SOL    HW1 7931   1.872   0.874   1.146
 2344SOL    HW2 7932   1.971   0.910   1.272
 2345SOL     OW 7933   2.062   6.190   5.435
 2345SOL    HW1 7934   2.135   6.202   5.503
 2345SOL    HW2 7935   2.057   6.093   5.408
 2346SOL     OW 7936   4.898   3.140   5.013
 2346SOL    HW1 7937   4.932   3.220   5.064
 2346SOL    HW2 7938   4.831   3.092   5.069
 2347SOL     OW 7939   2.299   3.968   1.886
 2347SOL    HW1 7940   2.284   3.997   1.981
 2347SOL    HW2 7941   2.382   4.012   1.851
 2348SOL     OW 7942   2.267   6.162   3.641
 2348SOL    HW1 7943   2.228   6.140   3.730
 2348SOL    HW2 7944   2.268   6.079   3.584
 2349SOL     OW 7945   0.684   6.574   0.422
 2349SOL    HW1 7946   0.750   6.535   0.358
 2349SOL    HW2 7947   0.656   6.503   0.487
 2350SOL     OW 7948   4.301   6.921   5.659
 2350SOL    HW1 7949   4.218   6.933   5.713
 2350SOL    HW2 7950   4.359   7.002   5.667
 2351SOL     OW 7951   2.989   5.572   3.584
 2351SOL    HW1 7952   2.971   5.514   3.663
 2351SOL    HW2 7953   2.992   5.668   3.613
 2352SOL     OW 7954   0.134   4.473   2.870
 2352SOL    HW1 7955   0.158   4.556   2.920
 2352SOL    HW2 7956   0.179   4.474   2.781
 2353SOL     OW 7957   2.455   4.500   4.510
 2353SOL    HW1 7958   2.434   4.534   4.602
 2353SOL    HW2 7959   2.429   4.403   4.505
 2354SOL     OW 7960   3.872   2.559   6.397
 2354SOL    HW1 7961   3.797   2.620   6.423
 2354SOL    HW2 7962   3.870   2.478   6.456
 2355SOL     OW 7963   0.725   5.254   0.680
 2355SOL    HW1 7964   0.663   5.329   0.704
 2355SOL    HW2 7965   0.695   5.210   0.596
 2356SOL     OW 7966   1.807   4.059   1.153
 2356SOL    HW1 7967   1.713   4.092   1.145
 2356SOL    HW2 7968   1.815   4.004   1.236
 2357SOL     OW 7969   4.359   4.983   3.855
 2357SOL    HW1 7970   4.279   4.944   3.902
 2357SOL    HW2 7971   4.441   4.964   3.909
 2358SOL     OW 7972   3.145   6.449   4.394
 2358SOL    HW1 7973   3.192   6.521   4.445
 2358SOL    HW2 7974   3.067   6.416   4.447
 2359SOL     OW 7975   2.016   0.705   6.169
 2359SOL    HW1 7976   2.103   0.707   6.219
 2359SOL    HW2 7977   1.943   0.740   6.228
 2360SOL     OW 7978   4.572   5.451   6.142
 2360SOL    HW1 7979   4.615   5.446   6.052
 2360SOL    HW2 7980   4.643   5.458   6.212
 2361SOL     OW 7981   2.591   0.300   4.149
 2361SOL    HW1 7982   2.602   0.214   4.198
 2361SOL    HW2 7983   2.681   0.333   4.119
 2362SOL     OW 7984   4.701   6.964   4.855
 2362SOL    HW1 7985   4.661   0.000   4.780
 2362SOL    HW2 7986   4.638   6.890   4.881
 2363SOL     OW 7987   4.528   2.553   5.022
 2363SOL    HW1 7988   4.456   2.564   5.090
 2363SOL    HW2 7989   4.597   2.624   5.035
 2364SOL     OW 7990   6.047   2.144   1.552
 2364SOL    HW1 7991   6.105   2.063   1.558
 2364SOL    HW2 7992   6.086   2.217   1.608
 2365SOL     OW 7993   5.702   3.890   5.874
 2365SOL    HW1 7994   5.763   3.859   5.947
 2365SOL    HW2 7995   5.692   3.817   5.806
 2366SOL     OW 7996   1.007   4.359   5.408
 2366SOL    HW1 7997   1.022   4.439   5.350
 2366SOL    HW2 7998   0.977   4.282   5.351
 2367SOL     OW 7999   1.332   3.382   6.570
 2367SOL    HW1 8000   1.423   3.424   6.569
 2367SOL    HW2 8001   1.273   3.430   6.504
 2368SOL     OW 8002   4.876   1.023   5.054
 2368SOL    HW1 8003   4.886   0.985   4.962
 2368SOL    HW2 8004   4.847   1.118   5.048
 2369SOL     OW 8005   2.534   2.111   3.952
 2369SOL    HW1 8006   2.469   2.048   3.994
 2369SOL    HW2 8007   2.504   2.205   3.965
 2370SOL     OW 8008   4.348   3.802   0.190
 2370SOL    HW1 8009   4.421   3.825   0.125
 2370SOL    HW2 8010   4.343   3.703   0.200
 2371SOL     OW 8011   1.809   5.654   1.843
 2371SOL    HW1 8012   1.815   5.749   1.813
 2371SOL    HW2 8013   1.824   5.649   1.942
 2372SOL     OW 8014   0.788   1.703   0.253
 2372SOL    HW1 8015   0.874   1.680   0.208
 2372SOL    HW2 8016   0.737   1.768   0.196
 2373SOL     OW 8017   6.201   1.045   6.873
 2373SOL    HW1 8018   6.298   1.043   6.848
 2373SOL    HW2 8019   6.153   1.109   6.813
 2374SOL     OW 8020   6.470   5.804   3.640
 2374SOL    HW1 8021   6.564   5.790   3.611
 2374SOL    HW2 8022   6.433   5.886   3.597
 2375SOL     OW 8023   0.646   0.306   4.666
 2375SOL    HW1 8024   0.580   0.234   4.684
 2375SOL    HW2 8025   0.704   0.319   4.746
 2376SOL     OW 8026   5.985   2.800   3.403
 2376SOL    HW1 8027   5.943   2.716   3.369
 2376SOL    HW2 8028   5.914   2.869   3.419
 2377SOL     OW 8029   3.461   3.606   4.627
 2377SOL    HW1 8030   3.378   3.638   4.582
 2377SOL    HW2 8031   3.538   3.611   4.564
 2378SOL     OW 8032   5.670   1.546   0.190
 2378SOL    HW1 8033   5.586   1.601   0.189
 2378SOL    HW2 8034   5.664   1.478   0.263
 2379SOL     OW 8035   6.663   3.152   0.099
 2379SOL    HW1 8036   6.613   3.073   0.065
 2379SOL    HW2 8037   6.614   3.236   0.074
 2380SOL     OW 8038   6.478   0.714   5.489
 2380SOL    HW1 8039   6.467   0.723   5.390
 2380SOL    HW2 8040   6.498   0.618   5.511
 2381SOL     OW 8041   1.429   4.304   5.070
 2381SOL    HW1 8042   1.342   4.302   5.118
 2381SOL    HW2 8043   1.488   4.231   5.104
 2382SOL     OW 8044   2.130   5.448   2.611
 2382SOL    HW1 8045   2.215   5.399   2.591
 2382SOL    HW2 8046   2.123   5.463   2.709
 2383SOL     OW 8047   5.382   6.365   6.166
 2383SOL    HW1 8048   5.412   6.389   6.074
 2383SOL    HW2 8049   5.420   6.430   6.232
 2384SOL     OW 8050   1.055   1.713   1.552
 2384SOL    HW1 8051   1.083   1.806   1.526
 2384SOL    HW2 8052   1.137   1.657   1.568
 2385SOL     OW 8053   0.340   0.454   0.936
 2385SOL    HW1 8054   0.279   0.439   0.858
 2385SOL    HW2 8055   0.363   0.551   0.941
 2386SOL     OW 8056   3.153   5.600   4.423
 2386SOL    HW1 8057   3.252   5.591   4.416
 2386SOL    HW2 8058   3.122   5.680   4.372
 2387SOL     OW 8059   6.489   2.991   4.062
 2387SOL    HW1 8060   6.445   3.077   4.088
 2387SOL    HW2 8061   6.447   2.915   4.112
 2388SOL     OW 8062   1.229   1.466   5.181
 2388SOL    HW1 8063   1.252   1.524   5.259
 2388SOL    HW2 8064   1.236   1.518   5.096
 2389SOL     OW 8065   4.410   4.652   3.930
 2389SOL    HW1 8066   4.487   4.644   3.867
 2389SOL    HW2 8067   4.420   4.583   4.002
 2390SOL     OW 8068   3.736   3.645   5.027
 2390SOL    HW1 8069   3.680   3.692   4.959
 2390SOL    HW2 8070   3.832   3.650   5.000
 2391SOL     OW 8071   3.571   4.310   6.191
 2391SOL    HW1 8072   3.544   4.329   6.286
 2391SOL    HW2 8073   3.530   4.378   6.131
 2392SOL     OW 8074   3.278   4.827   6.661
 2392SOL    HW1 8075   3.330   4.838   6.577
 2392SOL    HW2 8076   3.180   4.836   6.642
 2393SOL     OW 8077   3.874   5.351   1.353
 2393SOL    HW1 8078   3.894   5.316   1.261
 2393SOL    HW2 8079   3.781   5.325   1.379
 2394SOL     OW 8080   0.684   3.859   4.778
 2394SOL    HW1 8081   0.752   3.843   4.849
 2394SOL    HW2 8082   0.678   3.778   4.719
 2395SOL     OW 8083   6.870   2.606   6.533
 2395SOL    HW1 8084   6.861   2.666   6.454
 2395SOL    HW2 8085   6.966   2.601   6.561
 2396SOL     OW 8086   5.862   6.324   0.676
 2396SOL    HW1 8087   5.835   6.359   0.586
 2396SOL    HW2 8088   5.833   6.388   0.746
 2397SOL     OW 8089   6.809   5.154   0.056
 2397SOL    HW1 8090   6.812   5.088   0.130
 2397SOL    HW2 8091   6.895   5.150   0.004
 2398SOL     OW 8092   2.765   4.781   4.804
 2398SOL    HW1 8093   2.683   4.835   4.821
 2398SOL    HW2 8094   2.772   4.708   4.872
 2399SOL     OW 8095   4.364   1.355   3.316
 2399SOL    HW1 8096   4.373   1.299   3.234
 2399SOL    HW2 8097   4.404   1.445   3.299
 2400SOL     OW 8098   2.743   3.798   0.751
 2400SOL    HW1 8099   2.774   3.704   0.739
 2400SOL    HW2 8100   2.791   3.858   0.688
 2401SOL     OW 8101   3.480   0.562   4.757
 2401SOL    HW1 8102   3.529   0.648   4.742
 2401SOL    HW2 8103   3.543   0.485   4.745
 2402SOL     OW 8104   0.060   1.853   3.819
 2402SOL    HW1 8105   0.034   1.785   3.750
 2402SOL    HW2 8106   0.049   1.813   3.910
 2403SOL     OW 8107   3.454   3.117   0.867
 2403SOL    HW1 8108   3.496   3.047   0.923
 2403SOL    HW2 8109   3.502   3.204   0.881
 2404SOL     OW 8110   5.657   1.541   1.783
 2404SOL    HW1 8111   5.601   1.550   1.701
 2404SOL    HW2 8112   5.712   1.624   1.795
 2405SOL     OW 8113   3.685   3.988   5.332
 2405SOL    HW1 8114   3.737   3.913   5.291
 2405SOL    HW2 8115   3.613   4.017   5.269
 2406SOL     OW 8116   2.407   0.690   3.390
 2406SOL    HW1 8117   2.376   0.730   3.304
 2406SOL    HW2 8118   2.445   0.600   3.373
 2407SOL     OW 8119   4.497   2.448   2.711
 2407SOL    HW1 8120   4.482   2.486   2.803
 2407SOL    HW2 8121   4.540   2.517   2.653
 2408SOL     OW 8122   3.461   4.928   3.283
 2408SOL    HW1 8123   3.528   4.914   3.356
 2408SOL    HW2 8124   3.508   4.945   3.197
 2409SOL     OW 8125   1.708   2.595   1.421
 2409SOL    HW1 8126   1.668   2.630   1.336
 2409SOL    HW2 8127   1.712   2.495   1.418
 2410SOL     OW 8128   6.534   3.379   5.539
 2410SOL    HW1 8129   6.616   3.435   5.540
 2410SOL    HW2 8130   6.456   3.434   5.512
 2411SOL     OW 8131   3.202   4.096   5.572
 2411SOL    HW1 8132   3.119   4.077   5.625
 2411SOL    HW2 8133   3.235   4.188   5.595
 2412SOL     OW 8134   2.986   3.399   0.403
 2412SOL    HW1 8135   2.892   3.415   0.374
 2412SOL    HW2 8136   3.030   3.335   0.340
 2413SOL     OW 8137   6.032   3.935   6.683
 2413SOL    HW1 8138   6.120   3.983   6.681
 2413SOL    HW2 8139   6.032   3.864   6.612
 2414SOL     OW 8140   5.513   3.729   2.807
 2414SOL    HW1 8141   5.595   3.728   2.751
 2414SOL    HW2 8142   5.481   3.636   2.821
 2415SOL     OW 8143   2.062   0.452   1.820
 2415SOL    HW1 8144   2.000   0.530   1.827
 2415SOL    HW2 8145   2.019   0.380   1.766
 2416SOL     OW 8146   1.229   1.535   4.792
 2416SOL    HW1 8147   1.309   1.480   4.815
 2416SOL    HW2 8148   1.177   1.490   4.719
 2417SOL     OW 8149   5.563   1.747   0.833
 2417SOL    HW1 8150   5.509   1.828   0.859
 2417SOL    HW2 8151   5.575   1.746   0.734
 2418SOL     OW 8152   3.279   3.879   5.226
 2418SOL    HW1 8153   3.183   3.870   5.252
 2418SOL    HW2 8154   3.337   3.844   5.299
 2419SOL     OW 8155   0.972   6.937   5.390
 2419SOL    HW1 8156   0.911   6.912   5.465
 2419SOL    HW2 8157   1.005   0.015   5.403
 2420SOL     OW 8158   3.817   0.089   2.235
 2420SOL    HW1 8159   3.903   0.123   2.198
 2420SOL    HW2 8160   3.835   0.029   2.313
 2421SOL     OW 8161   3.022   0.368   4.806
 2421SOL    HW1 8162   2.945   0.397   4.862
 2421SOL    HW2 8163   3.095   0.436   4.810
 2422SOL     OW 8164   4.785   0.786   0.715
 2422SOL    HW1 8165   4.798   0.692   0.683
 2422SOL    HW2 8166   4.865   0.813   0.770
 2423SOL     OW 8167   2.137   5.776   2.304
 2423SOL    HW1 8168   2.100   5.688   2.335
 2423SOL    HW2 8169   2.073   5.849   2.328
 2424SOL     OW 8170   5.514   6.158   6.628
 2424SOL    HW1 8171   5.494   6.236   6.687
 2424SOL    HW2 8172   5.463   6.167   6.542
 2425SOL     OW 8173   5.759   6.510   5.456
 2425SOL    HW1 8174   5.772   6.588   5.394
 2425SOL    HW2 8175   5.693   6.447   5.417
 2426SOL     OW 8176   1.010   5.978   4.640
 2426SOL    HW1 8177   0.983   5.979   4.544
 2426SOL    HW2 8178   0.929   5.979   4.698
 2427SOL     OW 8179   5.537   5.535   6.936
 2427SOL    HW1 8180   5.497   5.445   6.954
 2427SOL    HW2 8181   5.629   5.523   6.898
 2428SOL     OW 8182   0.402   0.687   3.251
 2428SOL    HW1 8183   0.442   0.604   3.289
 2428SOL    HW2 8184   0.380   0.750   3.326
 2429SOL     OW 8185   6.162   5.007   3.008
 2429SOL    HW1 8186   6.225   4.931   3.022
 2429SOL    HW2 8187   6.070   4.980   3.036
 2430SOL     OW 8188   5.167   2.720   0.814
 2430SOL    HW1 8189   5.211   2.646   0.864
 2430SOL    HW2 8190   5.151   2.797   0.877
 2431SOL     OW 8191   4.565   0.916   1.234
 2431SOL    HW1 8192   4.599   0.920   1.140
 2431SOL    HW2 8193   4.556   0.820   1.262
 2432SOL     OW 8194   3.566   6.586   2.400
 2432SOL    HW1 8195   3.610   6.617   2.485
 2432SOL    HW2 8196   3.566   6.486   2.397
 2433SOL     OW 8197   2.638   6.771   0.125
 2433SOL    HW1 8198   2.655   6.677   0.155
 2433SOL    HW2 8199   2.601   6.771   0.032
 2434SOL     OW 8200   5.322   1.699   3.464
 2434SOL    HW1 8201   5.384   1.756   3.518
 2434SOL    HW2 8202   5.362   1.609   3.451
 2435SOL     OW 8203   5.036   5.044   0.335
 2435SOL    HW1 8204   5.017   5.105   0.258
 2435SOL    HW2 8205   4.952   5.030   0.388
 2436SOL     OW 8206   1.899   6.887   1.480
 2436SOL    HW1 8207   1.911   6.848   1.388
 2436SOL    HW2 8208   1.804   6.917   1.491
 2437SOL     OW 8209   5.079   6.029   1.389
 2437SOL    HW1 8210   5.043   5.978   1.466
 2437SOL    HW2 8211   5.010   6.095   1.357
 2438SOL     OW 8212   4.224   0.646   4.422
 2438SOL    HW1 8213   4.301   0.585   4.439
 2438SOL    HW2 8214   4.246   0.738   4.456
 2439SOL     OW 8215   1.159   4.119   0.389
 2439SOL    HW1 8216   1.163   4.163   0.299
 2439SOL    HW2 8217   1.069   4.135   0.429
 2440SOL     OW 8218   4.163   6.647   5.359
 2440SOL    HW1 8219   4.224   6.586   5.410
 2440SOL    HW2 8220   4.199   6.741   5.365
 2441SOL     OW 8221   5.592   0.402   6.878
 2441SOL    HW1 8222   5.620   0.369   6.968
 2441SOL    HW2 8223   5.506   0.358   6.852
 2442SOL     OW 8224   5.997   5.509   2.823
 2442SOL    HW1 8225   5.952   5.551   2.902
 2442SOL    HW2 8226   5.952   5.539   2.739
 2443SOL     OW 8227   2.975   0.363   6.241
 2443SOL    HW1 8228   2.924   0.347   6.157
 2443SOL    HW2 8229   3.027   0.447   6.233
 2444SOL     OW 8230   3.605   3.819   0.148
 2444SOL    HW1 8231   3.691   3.800   0.102
 2444SOL    HW2 8232   3.601   3.768   0.234
 2445SOL     OW 8233   6.719   1.590   2.215
 2445SOL    HW1 8234   6.782   1.522   2.178
 2445SOL    HW2 8235   6.703   1.571   2.312
 2446SOL     OW 8236   0.866   2.755   4.630
 2446SOL    HW1 8237   0.860   2.854   4.612
 2446SOL    HW2 8238   0.898   2.709   4.547
 2447SOL     OW 8239   2.347   1.367   1.240
 2447SOL    HW1 8240   2.424   1.316   1.203
 2447SOL    HW2 8241   2.376   1.460   1.263
 2448SOL     OW 8242   6.482   1.430   4.447
 2448SOL    HW1 8243   6.496   1.343   4.496
 2448SOL    HW2 8244   6.564   1.486   4.455
 2449SOL     OW 8245   0.499   3.728   2.679
 2449SOL    HW1 8246   0.444   3.784   2.740
 2449SOL    HW2 8247   0.509   3.636   2.718
 2450SOL     OW 8248   3.398   5.196   6.176
 2450SOL    HW1 8249   3.311   5.170   6.134
 2450SOL    HW2 8250   3.389   5.196   6.276
 2451SOL     OW 8251   1.155   0.097   3.598
 2451SOL    HW1 8252   1.143   0.124   3.694
 2451SOL    HW2 8253   1.159   0.178   3.541
 2452SOL     OW 8254   3.251   1.698   4.045
 2452SOL    HW1 8255   3.312   1.698   3.965
 2452SOL    HW2 8256   3.202   1.612   4.050
 2453SOL     OW 8257   6.866   3.662   0.347
 2453SOL    HW1 8258   6.785   3.607   0.330
 2453SOL    HW2 8259   6.945   3.621   0.302
 2454SOL     OW 8260   3.202   0.804   6.330
 2454SOL    HW1 8261   3.124   0.852   6.290
 2454SOL    HW2 8262   3.286   0.832   6.283
 2455SOL     OW 8263   4.284   0.488   0.608
 2455SOL    HW1 8264   4.216   0.447   0.547
 2455SOL    HW2 8265   4.328   0.565   0.561
 2456SOL     OW 8266   6.351   2.331   0.114
 2456SOL    HW1 8267   6.343   2.326   0.214
 2456SOL    HW2 8268   6.421   2.266   0.084
 2457SOL     OW 8269   6.195   0.711   6.452
 2457SOL    HW1 8270   6.095   0.710   6.445
 2457SOL    HW2 8271   6.222   0.724   6.547
 2458SOL     OW 8272   1.758   6.257   4.026
 2458SOL    HW1 8273   1.802   6.326   4.084
 2458SOL    HW2 8274   1.745   6.294   3.934
 2459SOL     OW 8275   2.687   6.152   5.768
 2459SOL    HW1 8276   2.629   6.228   5.738
 2459SOL    HW2 8277   2.661   6.068   5.721
 2460SOL     OW 8278   1.456   1.391   1.339
 2460SOL    HW1 8279   1.536   1.388   1.399
 2460SOL    HW2 8280   1.412   1.301   1.338
 2461SOL     OW 8281   5.007   0.718   2.809
 2461SOL    HW1 8282   5.102   0.744   2.792
 2461SOL    HW2 8283   4.989   0.628   2.771
 2462SOL     OW 8284   1.850   5.429   6.739
 2462SOL    HW1 8285   1.767   5.460   6.693
 2462SOL    HW2 8286   1.897   5.508   6.779
 2463SOL     OW 8287   5.913   2.048   6.330
 2463SOL    HW1 8288   5.978   2.120   6.355
 2463SOL    HW2 8289   5.963   1.966   6.302
 2464SOL     OW 8290   2.078   4.161   2.552
 2464SOL    HW1 8291   2.106   4.201   2.639
 2464SOL    HW2 8292   2.082   4.061   2.559
 2465SOL     OW 8293   1.229   0.118   0.270
 2465SOL    HW1 8294   1.172   0.062   0.211
 2465SOL    HW2 8295   1.207   0.214   0.256
 2466SOL     OW 8296   2.671   1.889   2.958
 2466SOL    HW1 8297   2.721   1.866   2.874
 2466SOL    HW2 8298   2.691   1.820   3.028
 2467SOL     OW 8299   4.813   1.569   4.994
 2467SOL    HW1 8300   4.852   1.618   5.072
 2467SOL    HW2 8301   4.885   1.546   4.930
 2468SOL     OW 8302   4.595   6.204   1.505
 2468SOL    HW1 8303   4.619   6.241   1.415
 2468SOL    HW2 8304   4.499   6.178   1.506
 2469SOL     OW 8305   4.392   3.990   5.377
 2469SOL    HW1 8306   4.470   3.994   5.316
 2469SOL    HW2 8307   4.308   3.976   5.324
 2470SOL     OW 8308   4.778   4.158   6.026
 2470SOL    HW1 8309   4.692   4.173   6.074
 2470SOL    HW2 8310   4.852   4.148   6.092
 2471SOL     OW 8311   2.592   6.182   0.749
 2471SOL    HW1 8312   2.611   6.208   0.655
 2471SOL    HW2 8313   2.641   6.244   0.811
 2472SOL     OW 8314   4.417   2.491   3.946
 2472SOL    HW1 8315   4.332   2.439   3.957
 2472SOL    HW2 8316   4.488   2.430   3.910
 2473SOL     OW 8317   1.917   3.820   5.074
 2473SOL    HW1 8318   1.905   3.774   5.162
 2473SOL    HW2 8319   2.014   3.820   5.049
 2474SOL     OW 8320   0.390   5.431   1.118
 2474SOL    HW1 8321   0.394   5.335   1.146
 2474SOL    HW2 8322   0.482   5.464   1.098
 2475SOL     OW 8323   4.315   0.941   3.182
 2475SOL    HW1 8324   4.356   0.915   3.095
 2475SOL    HW2 8325   4.369   0.901   3.257
 2476SOL     OW 8326   0.013   1.590   2.902
 2476SOL    HW1 8327   0.071   1.576   2.821
 2476SOL    HW2 8328   0.071   1.617   2.979
 2477SOL     OW 8329   4.305   1.143   2.103
 2477SOL    HW1 8330   4.217   1.164   2.061
 2477SOL    HW2 8331   4.337   1.222   2.156
 2478SOL     OW 8332   6.330   1.151   1.699
 2478SOL    HW1 8333   6.402   1.189   1.641
 2478SOL    HW2 8334   6.241   1.173   1.661
 2479SOL     OW 8335   1.177   3.791   1.489
 2479SOL    HW1 8336   1.151   3.710   1.541
 2479SOL    HW2 8337   1.276   3.790   1.474
 2480SOL     OW 8338   4.729   4.259   0.609
 2480SOL    HW1 8339   4.746   4.347   0.564
 2480SOL    HW2 8340   4.698   4.275   0.702
 2481SOL     OW 8341   2.482   0.011   0.562
 2481SOL    HW1 8342   2.484   6.935   0.522
 2481SOL    HW2 8343   2.516   0.007   0.656
 2482SOL     OW 8344   5.087   3.268   6.101
 2482SOL    HW1 8345   4.996   3.285   6.139
 2482SOL    HW2 8346   5.079   3.227   6.010
 2483SOL     OW 8347   1.979   1.397   0.455
 2483SOL    HW1 8348   1.953   1.419   0.549
 2483SOL    HW2 8349   2.014   1.304   0.451
 2484SOL     OW 8350   3.571   0.935   0.385
 2484SOL    HW1 8351   3.546   1.002   0.315
 2484SOL    HW2 8352   3.558   0.974   0.476
 2485SOL     OW 8353   6.455   3.825   1.350
 2485SOL    HW1 8354   6.555   3.832   1.352
 2485SOL    HW2 8355   6.419   3.853   1.439
 2486SOL     OW 8356   1.929   4.922   4.801
 2486SOL    HW1 8357   1.937   4.840   4.744
 2486SOL    HW2 8358   1.911   5.002   4.743
 2487SOL     OW 8359   4.186   5.940   0.592
 2487SOL    HW1 8360   4.136   5.856   0.609
 2487SOL    HW2 8361   4.284   5.925   0.608
 2488SOL     OW 8362   1.912   4.806   2.639
 2488SOL    HW1 8363   1.875   4.730   2.587
 2488SOL    HW2 8364   1.865   4.890   2.614
 2489SOL     OW 8365   1.232   5.369   2.507
 2489SOL    HW1 8366   1.292   5.449   2.518
 2489SOL    HW2 8367   1.171   5.384   2.429
 2490SOL     OW 8368   6.637   4.860   1.475
 2490SOL    HW1 8369   6.594   4.855   1.565
 2490SOL    HW2 8370   6.617   4.776   1.424
 2491SOL     OW 8371   2.431   5.375   1.036
 2491SOL    HW1 8372   2.385   5.444   1.092
 2491SOL    HW2 8373   2.530   5.391   1.039
 2492SOL     OW 8374   4.481   2.228   1.403
 2492SOL    HW1 8375   4.486   2.207   1.305
 2492SOL    HW2 8376   4.531   2.159   1.454
 2493SOL     OW 8377   5.787   0.858   2.019
 2493SOL    HW1 8378   5.804   0.932   2.085
 2493SOL    HW2 8379   5.864   0.852   1.956
 2494SOL     OW 8380   5.972   3.562   2.231
 2494SOL    HW1 8381   5.891   3.619   2.241
 2494SOL    HW2 8382   5.944   3.466   2.219
 2495SOL     OW 8383   5.440   0.387   4.174
 2495SOL    HW1 8384   5.415   0.292   4.196
 2495SOL    HW2 8385   5.445   0.440   4.259
 2496SOL     OW 8386   6.618   3.530   5.924
 2496SOL    HW1 8387   6.684   3.459   5.949
 2496SOL    HW2 8388   6.665   3.603   5.875
 2497SOL     OW 8389   0.583   0.490   0.785
 2497SOL    HW1 8390   0.647   0.484   0.861
 2497SOL    HW2 8391   0.516   0.415   0.791
 2498SOL     OW 8392   3.051   1.200   4.343
 2498SOL    HW1 8393   3.129   1.248   4.383
 2498SOL    HW2 8394   3.019   1.249   4.262
 2499SOL     OW 8395   6.156   2.473   2.916
 2499SOL    HW1 8396   6.211   2.426   2.847
 2499SOL    HW2 8397   6.192   2.451   3.007
 2500SOL     OW 8398   4.618   3.145   0.152
 2500SOL    HW1 8399   4.540   3.134   0.213
 2500SOL    HW2 8400   4.687   3.077   0.174
 2501SOL     OW 8401   5.662   5.618   0.183
 2501SOL    HW1 8402   5.760   5.625   0.161
 2501SOL    HW2 8403   5.610   5.612   0.098
 2502SOL     OW 8404   1.326   5.516   3.516
 2502SOL    HW1 8405   1.336   5.456   3.595
 2502SOL    HW2 8406   1.358   5.608   3.539
 2503SOL     OW 8407   3.014   5.633   4.127
 2503SOL    HW1 8408   3.017   5.697   4.203
 2503SOL    HW2 8409   2.988   5.542   4.160
 2504SOL     OW 8410   3.846   5.160   4.741
 2504SOL    HW1 8411   3.885   5.080   4.696
 2504SOL    HW2 8412   3.759   5.135   4.785
 2505SOL     OW 8413   1.414   6.235   3.378
 2505SOL    HW1 8414   1.513   6.248   3.384
 2505SOL    HW2 8415   1.394   6.137   3.365
 2506SOL     OW 8416   6.913   3.896   5.327
 2506SOL    HW1 8417   6.870   3.811   5.357
 2506SOL    HW2 8418   7.011   3.881   5.314
 2507SOL     OW 8419   0.747   4.162   1.107
 2507SOL    HW1 8420   0.669   4.213   1.143
 2507SOL    HW2 8421   0.717   4.106   1.029
 2508SOL     OW 8422   2.084   1.650   2.197
 2508SOL    HW1 8423   2.091   1.572   2.259
 2508SOL    HW2 8424   1.997   1.645   2.147
 2509SOL     OW 8425   0.028   2.579   1.573
 2509SOL    HW1 8426   6.957   2.529   1.567
 2509SOL    HW2 8427   0.043   2.630   1.488
 2510SOL     OW 8428   3.087   4.311   0.997
 2510SOL    HW1 8429   2.998   4.296   1.040
 2510SOL    HW2 8430   3.075   4.363   0.912
 2511SOL     OW 8431   2.764   1.995   3.685
 2511SOL    HW1 8432   2.740   1.932   3.759
 2511SOL    HW2 8433   2.680   2.037   3.649
 2512SOL     OW 8434   5.440   4.327   4.833
 2512SOL    HW1 8435   5.477   4.414   4.802
 2512SOL    HW2 8436   5.394   4.340   4.921
 2513SOL     OW 8437   1.147   4.166   4.923
 2513SOL    HW1 8438   1.145   4.068   4.904
 2513SOL    HW2 8439   1.164   4.181   5.020
 2514SOL     OW 8440   6.461   3.623   4.506
 2514SOL    HW1 8441   6.527   3.675   4.560
 2514SOL    HW2 8442   6.430   3.678   4.428
 2515SOL     OW 8443   1.611   6.341   0.548
 2515SOL    HW1 8444   1.605   6.418   0.485
 2515SOL    HW2 8445   1.524   6.331   0.596
 2516SOL     OW 8446   6.332   1.091   3.126
 2516SOL    HW1 8447   6.245   1.111   3.170
 2516SOL    HW2 8448   6.404   1.146   3.168
 2517SOL     OW 8449   1.307   5.419   6.090
 2517SOL    HW1 8450   1.352   5.360   6.157
 2517SOL    HW2 8451   1.248   5.364   6.031
 2518SOL     OW 8452   1.443   4.409   0.123
 2518SOL    HW1 8453   1.490   4.470   0.187
 2518SOL    HW2 8454   1.487   4.320   0.123
 2519SOL     OW 8455   5.098   6.466   3.674
 2519SOL    HW1 8456   5.067   6.381   3.630
 2519SOL    HW2 8457   5.124   6.447   3.769
 2520SOL     OW 8458   2.237   1.946   6.684
 2520SOL    HW1 8459   2.233   1.880   6.759
 2520SOL    HW2 8460   2.146   1.987   6.671
 2521SOL     OW 8461   0.912   0.212   5.235
 2521SOL    HW1 8462   0.844   0.159   5.184
 2521SOL    HW2 8463   0.985   0.241   5.174
 2522SOL     OW 8464   0.716   3.298   5.447
 2522SOL    HW1 8465   0.627   3.284   5.405
 2522SOL    HW2 8466   0.725   3.238   5.527
 2523SOL     OW 8467   0.772   2.712   2.065
 2523SOL    HW1 8468   0.699   2.655   2.029
 2523SOL    HW2 8469   0.785   2.792   2.005
 2524SOL     OW 8470   1.140   6.121   5.618
 2524SOL    HW1 8471   1.128   6.065   5.700
 2524SOL    HW2 8472   1.152   6.216   5.644
 2525SOL     OW 8473   1.161   2.399   4.752
 2525SOL    HW1 8474   1.107   2.350   4.684
 2525SOL    HW2 8475   1.162   2.497   4.730
 2526SOL     OW 8476   1.744   3.752   5.774
 2526SOL    HW1 8477   1.769   3.818   5.845
 2526SOL    HW2 8478   1.771   3.787   5.685
 2527SOL     OW 8479   5.542   5.648   4.798
 2527SOL    HW1 8480   5.614   5.716   4.786
 2527SOL    HW2 8481   5.453   5.691   4.781
 2528SOL     OW 8482   5.378   5.259   0.966
 2528SOL    HW1 8483   5.398   5.176   0.914
 2528SOL    HW2 8484   5.462   5.314   0.975
 2529SOL     OW 8485   6.979   6.794   6.528
 2529SOL    HW1 8486   6.969   6.723   6.598
 2529SOL    HW2 8487   6.889   6.822   6.496
 2530SOL     OW 8488   2.056   0.196   4.846
 2530SOL    HW1 8489   2.080   0.159   4.936
 2530SOL    HW2 8490   2.103   0.283   4.832
 2531SOL     OW 8491   4.917   5.877   4.485
 2531SOL    HW1 8492   4.903   5.785   4.449
 2531SOL    HW2 8493   5.014   5.899   4.483
 2532SOL     OW 8494   1.036   6.502   1.203
 2532SOL    HW1 8495   1.032   6.473   1.299
 2532SOL    HW2 8496   1.092   6.584   1.195
 2533SOL     OW 8497   3.016   0.318   3.012
 2533SOL    HW1 8498   3.113   0.321   2.986
 2533SOL    HW2 8499   2.963   0.370   2.945
 2534SOL     OW 8500   3.111   0.947   2.923
 2534SOL    HW1 8501   3.179   0.922   2.992
 2534SOL    HW2 8502   3.146   0.928   2.832
 2535SOL     OW 8503   3.417   2.145   5.931
 2535SOL    HW1 8504   3.363   2.131   5.848
 2535SOL    HW2 8505   3.384   2.084   6.003
 2536SOL     OW 8506   0.095   1.944   4.659
 2536SOL    HW1 8507   0.029   2.016   4.637
 2536SOL    HW2 8508   0.136   1.909   4.576
 2537SOL     OW 8509   3.776   0.112   6.070
 2537SOL    HW1 8510   3.697   0.092   6.012
 2537SOL    HW2 8511   3.845   0.160   6.016
 2538SOL     OW 8512   1.296   5.002   5.085
 2538SOL    HW1 8513   1.272   5.056   5.004
 2538SOL    HW2 8514   1.349   4.922   5.056
 2539SOL     OW 8515   4.831   0.882   5.481
 2539SOL    HW1 8516   4.927   0.869   5.505
 2539SOL    HW2 8517   4.811   0.836   5.394
 2540SOL     OW 8518   4.046   0.985   2.321
 2540SOL    HW1 8519   3.984   0.916   2.284
 2540SOL    HW2 8520   3.999   1.072   2.329
 2541SOL     OW 8521   1.733   6.474   5.235
 2541SOL    HW1 8522   1.788   6.443   5.313
 2541SOL    HW2 8523   1.637   6.456   5.253
 2542SOL     OW 8524   4.751   0.854   5.786
 2542SOL    HW1 8525   4.838   0.888   5.821
 2542SOL    HW2 8526   4.747   0.868   5.687
 2543SOL     OW 8527   1.733   1.673   2.908
 2543SOL    HW1 8528   1.729   1.579   2.941
 2543SOL    HW2 8529   1.709   1.676   2.811
 2544SOL     OW 8530   0.326   5.878   1.130
 2544SOL    HW1 8531   0.321   5.793   1.077
 2544SOL    HW2 8532   0.234   5.912   1.148
 2545SOL     OW 8533   1.992   0.723   1.923
 2545SOL    HW1 8534   1.998   0.755   2.018
 2545SOL    HW2 8535   2.076   0.749   1.875
 2546SOL     OW 8536   0.497   2.055   1.500
 2546SOL    HW1 8537   0.547   1.969   1.492
 2546SOL    HW2 8538   0.408   2.039   1.543
 2547SOL     OW 8539   6.174   3.468   0.084
 2547SOL    HW1 8540   6.129   3.406   0.149
 2547SOL    HW2 8541   6.116   3.481   0.004
 2548SOL     OW 8542   2.595   6.578   5.616
 2548SOL    HW1 8543   2.525   6.612   5.678
 2548SOL    HW2 8544   2.626   6.653   5.558
 2549SOL     OW 8545   1.777   0.400   1.150
 2549SOL    HW1 8546   1.762   0.316   1.203
 2549SOL    HW2 8547   1.724   0.475   1.190
 2550SOL     OW 8548   6.763   0.604   5.961
 2550SOL    HW1 8549   6.691   0.671   5.942
 2550SOL    HW2 8550   6.739   0.551   6.043
 2551SOL     OW 8551   3.804   5.102   0.567
 2551SOL    HW1 8552   3.902   5.118   0.579
 2551SOL    HW2 8553   3.790   5.014   0.522
 2552SOL     OW 8554   1.976   5.512   6.392
 2552SOL    HW1 8555   2.059   5.468   6.428
 2552SOL    HW2 8556   1.997   5.555   6.304
 2553SOL     OW 8557   4.194   3.175   6.507
 2553SOL    HW1 8558   4.289   3.156   6.530
 2553SOL    HW2 8559   4.186   3.192   6.409
 2554SOL     OW 8560   1.829   6.457   6.824
 2554SOL    HW1 8561   1.904   6.507   6.781
 2554SOL    HW2 8562   1.750   6.457   6.761
 2555SOL     OW 8563   5.983   6.875   6.629
 2555SOL    HW1 8564   5.954   6.814   6.703
 2555SOL    HW2 8565   6.004   6.821   6.547
 2556SOL     OW 8566   4.464   5.365   0.085
 2556SOL    HW1 8567   4.502   5.434   0.146
 2556SOL    HW2 8568   4.384   5.322   0.127
 2557SOL     OW 8569   2.827   3.090   6.538
 2557SOL    HW1 8570   2.800   3.185   6.521
 2557SOL    HW2 8571   2.796   3.033   6.462
 2558SOL     OW 8572   4.585   2.923   5.886
 2558SOL    HW1 8573   4.619   2.985   5.956
 2558SOL    HW2 8574   4.513   2.865   5.924
 2559SOL     OW 8575   5.991   3.927   3.760
 2559SOL    HW1 8576   6.028   3.867   3.832
 2559SOL    HW2 8577   6.042   3.911   3.675
 2560SOL     OW 8578   5.616   3.325   3.827
 2560SOL    HW1 8579   5.711   3.302   3.806
 2560SOL    HW2 8580   5.577   3.256   3.888
 2561SOL     OW 8581   2.732   0.189   4.487
 2561SOL    HW1 8582   2.805   0.127   4.516
 2561SOL    HW2 8583   2.677   0.144   4.416
 2562SOL     OW 8584   1.343   5.632   2.482
 2562SOL    HW1 8585   1.415   5.692   2.445
 2562SOL    HW2 8586   1.292   5.682   2.552
 2563SOL     OW 8587   4.029   2.093   0.108
 2563SOL    HW1 8588   3.993   2.049   0.191
 2563SOL    HW2 8589   4.061   2.185   0.131
 2564SOL     OW 8590   1.949   6.288   6.065
 2564SOL    HW1 8591   1.930   6.258   5.972
 2564SOL    HW2 8592   1.881   6.249   6.128
 2565SOL     OW 8593   0.004   0.425   0.303
 2565SOL    HW1 8594   6.975   0.354   0.358
 2565SOL    HW2 8595   0.100   0.401   0.291
 2566SOL     OW 8596   1.621   6.959   1.511
 2566SOL    HW1 8597   1.592   0.039   1.505
 2566SOL    HW2 8598   1.560   6.910   1.573
 2567SOL     OW 8599   0.890   1.173   1.561
 2567SOL    HW1 8600   0.910   1.079   1.590
 2567SOL    HW2 8601   0.791   1.184   1.550
 2568SOL     OW 8602   3.292   6.581   6.896
 2568SOL    HW1 8603   3.329   6.673   6.905
 2568SOL    HW2 8604   3.354   6.515   6.938
 2569SOL     OW 8605   2.859   1.156   1.663
 2569SOL    HW1 8606   2.939   1.102   1.637
 2569SOL    HW2 8607   2.776   1.101   1.654
 2570SOL     OW 8608   5.780   0.275   6.728
 2570SOL    HW1 8609   5.687   0.311   6.738
 2570SOL    HW2 8610   5.846   0.341   6.765
 2571SOL     OW 8611   2.068   4.469   5.069
 2571SOL    HW1 8612   2.041   4.376   5.045
 2571SOL    HW2 8613   2.063   4.481   5.168
 2572SOL     OW 8614   2.129   5.263   0.033
 2572SOL    HW1 8615   2.129   5.203   0.113
 2572SOL    HW2 8616   2.061   5.230   6.982
 2573SOL     OW 8617   6.863   1.844   1.923
 2573SOL    HW1 8618   6.805   1.915   1.962
 2573SOL    HW2 8619   6.831   1.820   1.832
 2574SOL     OW 8620   6.356   3.758   0.048
 2574SOL    HW1 8621   6.262   3.770   0.016
 2574SOL    HW2 8622   6.383   3.662   0.035
 2575SOL     OW 8623   5.231   5.402   6.664
 2575SOL    HW1 8624   5.222   5.497   6.631
 2575SOL    HW2 8625   5.320   5.367   6.638
 2576SOL     OW 8626   3.575   0.249   4.357
 2576SOL    HW1 8627   3.531   0.161   4.340
 2576SOL    HW2 8628   3.553   0.280   4.450
 2577SOL     OW 8629   3.634   6.574   1.587
 2577SOL    HW1 8630   3.598   6.481   1.587
 2577SOL    HW2 8631   3.593   6.625   1.663
 2578SOL     OW 8632   5.100   2.214   3.199
 2578SOL    HW1 8633   5.062   2.206   3.291
 2578SOL    HW2 8634   5.098   2.124   3.156
 2579SOL     OW 8635   1.656   6.289   2.645
 2579SOL    HW1 8636   1.741   6.237   2.636
 2579SOL    HW2 8637   1.673   6.385   2.622
 2580SOL     OW 8638   2.648   3.182   6.916
 2580SOL    HW1 8639   2.582   3.183   6.992
 2580SOL    HW2 8640   2.637   3.265   6.861
 2581SOL     OW 8641   0.285   3.898   1.049
 2581SOL    HW1 8642   0.287   3.923   1.145
 2581SOL    HW2 8643   0.314   3.803   1.038
 2582SOL     OW 8644   0.928   4.720   2.254
 2582SOL    HW1 8645   0.858   4.723   2.325
 2582SOL    HW2 8646   0.953   4.625   2.237
 2583SOL     OW 8647   0.653   1.629   0.716
 2583SOL    HW1 8648   0.613   1.660   0.630
 2583SOL    HW2 8649   0.747   1.601   0.701
 2584SOL     OW 8650   4.313   5.610   0.264
 2584SOL    HW1 8651   4.362   5.543   0.320
 2584SOL    HW2 8652   4.234   5.567   0.221
 2585SOL     OW 8653   5.362   2.240   0.788
 2585SOL    HW1 8654   5.332   2.288   0.870
 2585SOL    HW2 8655   5.310   2.272   0.709
 2586SOL     OW 8656   3.436   1.342   3.233
 2586SOL    HW1 8657   3.383   1.343   3.149
 2586SOL    HW2 8658   3.415   1.259   3.285
 2587SOL     OW 8659   0.479   1.093   3.161
 2587SOL    HW1 8660   0.549   1.028   3.131
 2587SOL    HW2 8661   0.478   1.097   3.261
 2588SOL     OW 8662   4.019   0.685   5.853
 2588SOL    HW1 8663   4.085   0.728   5.914
 2588SOL    HW2 8664   3.972   0.611   5.901
 2589SOL     OW 8665   0.723   5.960   6.515
 2589SOL    HW1 8666   0.630   5.997   6.507
 2589SOL    HW2 8667   0.789   6.033   6.500
 2590SOL     OW 8668   3.412   6.038   0.832
 2590SOL    HW1 8669   3.406   6.029   0.931
 2590SOL    HW2 8670   3.472   6.115   0.809
 2591SOL     OW 8671   0.174   5.745   2.251
 2591SOL    HW1 8672   0.252   5.772   2.308
 2591SOL    HW2 8673   0.152   5.649   2.267
 2592SOL     OW 8674   3.465   5.988   1.117
 2592SOL    HW1 8675   3.535   5.932   1.072
 2592SOL    HW2 8676   3.423   5.935   1.191
 2593SOL     OW 8677   3.176   5.686   0.985
 2593SOL    HW1 8678   3.267   5.650   0.967
 2593SOL    HW2 8679   3.108   5.612   0.976
 2594SOL     OW 8680   1.110   5.161   6.169
 2594SOL    HW1 8681   1.065   5.072   6.164
 2594SOL    HW2 8682   1.174   5.171   6.093
 2595SOL     OW 8683   6.525   1.683   4.101
 2595SOL    HW1 8684   6.485   1.721   4.184
 2595SOL    HW2 8685   6.607   1.735   4.076
 2596SOL     OW 8686   3.507   1.763   1.771
 2596SOL    HW1 8687   3.422   1.739   1.725
 2596SOL    HW2 8688   3.491   1.841   1.832
 2597SOL     OW 8689   1.723   4.608   5.877
 2597SOL    HW1 8690   1.760   4.518   5.902
 2597SOL    HW2 8691   1.647   4.595   5.813
 2598SOL     OW 8692   6.049   1.034   3.308
 2598SOL    HW1 8693   6.119   0.967   3.332
 2598SOL    HW2 8694   5.971   1.026   3.369
 2599SOL     OW 8695   1.937   6.812   1.225
 2599SOL    HW1 8696   1.859   6.791   1.167
 2599SOL    HW2 8697   1.994   6.730   1.235
 2600SOL     OW 8698   5.425   3.260   4.812
 2600SOL    HW1 8699   5.347   3.274   4.751
 2600SOL    HW2 8700   5.497   3.211   4.763
 2601SOL     OW 8701   1.957   1.804   0.687
 2601SOL    HW1 8702   1.949   1.709   0.718
 2601SOL    HW2 8703   2.028   1.851   0.740
 2602SOL     OW 8704   0.835   4.288   4.130
 2602SOL    HW1 8705   0.881   4.281   4.219
 2602SOL    HW2 8706   0.803   4.382   4.116
 2603SOL     OW 8707   2.410   1.344   3.267
 2603SOL    HW1 8708   2.347   1.374   3.339
 2603SOL    HW2 8709   2.469   1.272   3.303
 2604SOL     OW 8710   4.826   1.919   2.677
 2604SOL    HW1 8711   4.891   1.874   2.616
 2604SOL    HW2 8712   4.828   1.874   2.766
 2605SOL     OW 8713   2.155   3.848   2.752
 2605SOL    HW1 8714   2.106   3.874   2.669
 2605SOL    HW2 8715   2.233   3.909   2.765
 2606SOL     OW 8716   5.707   4.517   1.905
 2606SOL    HW1 8717   5.766   4.497   1.826
 2606SOL    HW2 8718   5.692   4.434   1.958
 2607SOL     OW 8719   1.519   1.459   1.069
 2607SOL    HW1 8720   1.490   1.451   1.164
 2607SOL    HW2 8721   1.576   1.380   1.045
 2608SOL     OW 8722   4.865   4.806   1.401
 2608SOL    HW1 8723   4.813   4.742   1.458
 2608SOL    HW2 8724   4.881   4.764   1.311
 2609SOL     OW 8725   6.821   1.146   0.725
 2609SOL    HW1 8726   6.722   1.160   0.730
 2609SOL    HW2 8727   6.863   1.226   0.682
 2610SOL     OW 8728   0.880   4.913   4.562
 2610SOL    HW1 8729   0.948   4.909   4.489
 2610SOL    HW2 8730   0.856   5.008   4.581
 2611SOL     OW 8731   4.576   6.970   1.004
 2611SOL    HW1 8732   4.615   6.947   1.093
 2611SOL    HW2 8733   4.478   6.985   1.013
 2612SOL     OW 8734   6.669   0.131   5.856
 2612SOL    HW1 8735   6.722   0.068   5.800
 2612SOL    HW2 8736   6.572   0.117   5.839
 2613SOL     OW 8737   2.559   6.322   6.271
 2613SOL    HW1 8738   2.482   6.296   6.330
 2613SOL    HW2 8739   2.643   6.325   6.327
 2614SOL     OW 8740   6.898   0.475   5.522
 2614SOL    HW1 8741   6.928   0.422   5.602
 2614SOL    HW2 8742   6.818   0.530   5.547
 2615SOL     OW 8743   0.055   2.673   3.145
 2615SOL    HW1 8744   0.084   2.628   3.060
 2615SOL    HW2 8745   0.071   2.771   3.137
 2616SOL     OW 8746   3.368   3.464   5.505
 2616SOL    HW1 8747   3.386   3.373   5.468
 2616SOL    HW2 8748   3.442   3.490   5.567
 2617SOL     OW 8749   3.562   6.433   0.408
 2617SOL    HW1 8750   3.533   6.349   0.455
 2617SOL    HW2 8751   3.603   6.409   0.321
 2618SOL     OW 8752   6.973   0.647   4.396
 2618SOL    HW1 8753   6.913   0.722   4.422
 2618SOL    HW2 8754   6.918   0.566   4.375
 2619SOL     OW 8755   4.023   1.789   3.418
 2619SOL    HW1 8756   3.965   1.795   3.499
 2619SOL    HW2 8757   4.020   1.696   3.382
 2620SOL     OW 8758   6.653   6.995   3.412
 2620SOL    HW1 8759   6.619   0.069   3.441
 2620SOL    HW2 8760   6.713   6.958   3.483
 2621SOL     OW 8761   0.923   5.678   2.608
 2621SOL    HW1 8762   1.008   5.728   2.594
 2621SOL    HW2 8763   0.893   5.639   2.521
 2622SOL     OW 8764   1.954   3.257   5.474
 2622SOL    HW1 8765   2.050   3.256   5.447
 2622SOL    HW2 8766   1.944   3.212   5.563
 2623SOL     OW 8767   1.445   0.785   5.868
 2623SOL    HW1 8768   1.433   0.835   5.783
 2623SOL    HW2 8769   1.395   0.698   5.863
 2624SOL     OW 8770   6.657   1.267   5.546
 2624SOL    HW1 8771   6.632   1.362   5.563
 2624SOL    HW2 8772   6.632   1.211   5.626
 2625SOL     OW 8773   2.034   3.403   5.147
 2625SOL    HW1 8774   2.092   3.406   5.066
 2625SOL    HW2 8775   2.081   3.353   5.220
 2626SOL     OW 8776   0.394   0.422   6.204
 2626SOL    HW1 8777   0.406   0.512   6.163
 2626SOL    HW2 8778   0.299   0.411   6.234
 2627SOL     OW 8779   1.140   1.249   5.758
 2627SOL    HW1 8780   1.066   1.306   5.723
 2627SOL    HW2 8781   1.224   1.304   5.765
 2628SOL     OW 8782   2.067   4.633   5.689
 2628SOL    HW1 8783   2.086   4.722   5.647
 2628SOL    HW2 8784   2.076   4.640   5.788
 2629SOL     OW 8785   3.398   3.259   1.914
 2629SOL    HW1 8786   3.360   3.177   1.871
 2629SOL    HW2 8787   3.325   3.311   1.958
 2630SOL     OW 8788   3.533   2.108   2.662
 2630SOL    HW1 8789   3.497   2.025   2.704
 2630SOL    HW2 8790   3.460   2.153   2.609
 2631SOL     OW 8791   5.311   1.115   5.558
 2631SOL    HW1 8792   5.269   1.206   5.562
 2631SOL    HW2 8793   5.407   1.125   5.530
 2632SOL     OW 8794   4.829   3.249   6.243
 2632SOL    HW1 8795   4.847   3.341   6.277
 2632SOL    HW2 8796   4.882   3.183   6.296
 2633SOL     OW 8797   0.582   2.349   4.839
 2633SOL    HW1 8798   0.491   2.388   4.827
 2633SOL    HW2 8799   0.649   2.406   4.791
 2634SOL     OW 8800   0.640   4.722   3.360
 2634SOL    HW1 8801   0.553   4.762   3.331
 2634SOL    HW2 8802   0.627   4.672   3.446
 2635SOL     OW 8803   6.957   5.442   5.625
 2635SOL    HW1 8804   6.922   5.433   5.531
 2635SOL    HW2 8805   6.903   5.384   5.686
 2636SOL     OW 8806   3.782   0.840   4.899
 2636SOL    HW1 8807   3.788   0.745   4.868
 2636SOL    HW2 8808   3.825   0.849   4.988
 2637SOL     OW 8809   5.166   1.260   3.450
 2637SOL    HW1 8810   5.092   1.286   3.389
 2637SOL    HW2 8811   5.146   1.171   3.491
 2638SOL     OW 8812   6.754   0.073   3.998
 2638SOL    HW1 8813   6.738   0.163   4.037
 2638SOL    HW2 8814   6.792   0.082   3.906
 2639SOL     OW 8815   0.285   5.639   0.973
 2639SOL    HW1 8816   0.193   5.638   0.935
 2639SOL    HW2 8817   0.291   5.576   1.051
 2640SOL     OW 8818   0.577   6.069   5.467
 2640SOL    HW1 8819   0.673   6.077   5.492
 2640SOL    HW2 8820   0.547   6.152   5.420
 2641SOL     OW 8821   5.587   3.206   2.284
 2641SOL    HW1 8822   5.518   3.278   2.275
 2641SOL    HW2 8823   5.603   3.165   2.194
 2642SOL     OW 8824   4.751   6.512   3.880
 2642SOL    HW1 8825   4.793   6.422   3.862
 2642SOL    HW2 8826   4.738   6.523   3.978
 2643SOL     OW 8827   0.455   3.709   3.594
 2643SOL    HW1 8828   0.489   3.786   3.648
 2643SOL    HW2 8829   0.530   3.673   3.537
 2644SOL     OW 8830   5.277   6.583   5.300
 2644SOL    HW1 8831   5.200   6.545   5.249
 2644SOL    HW2 8832   5.361   6.536   5.272
 2645SOL     OW 8833   4.181   5.887   3.853
 2645SOL    HW1 8834   4.140   5.918   3.767
 2645SOL    HW2 8835   4.139   5.934   3.930
 2646SOL     OW 8836   5.926   0.638   6.439
 2646SOL    HW1 8837   5.906   0.548   6.400
 2646SOL    HW2 8838   5.928   0.707   6.366
 2647SOL     OW 8839   6.724   6.925   1.716
 2647SOL    HW1 8840   6.800   6.990   1.721
 2647SOL    HW2 8841   6.748   6.850   1.655
 2648SOL     OW 8842   0.484   6.918   4.058
 2648SOL    HW1 8843   0.426   6.934   4.138
 2648SOL    HW2 8844   0.427   6.908   3.976
 2649SOL     OW 8845   5.798   3.339   0.124
 2649SOL    HW1 8846   5.707   3.337   0.082
 2649SOL    HW2 8847   5.858   3.276   0.075
 2650SOL     OW 8848   1.193   4.938   3.751
 2650SOL    HW1 8849   1.158   4.970   3.839
 2650SOL    HW2 8850   1.249   4.856   3.766
 2651SOL     OW 8851   1.955   1.160   1.175
 2651SOL    HW1 8852   2.027   1.187   1.239
 2651SOL    HW2 8853   1.957   1.061   1.162
 2652SOL     OW 8854   4.179   3.495   4.749
 2652SOL    HW1 8855   4.271   3.455   4.741
 2652SOL    HW2 8856   4.125   3.471   4.669
 2653SOL     OW 8857   4.861   6.324   5.004
 2653SOL    HW1 8858   4.830   6.332   4.909
 2653SOL    HW2 8859   4.882   6.229   5.025
 2654SOL     OW 8860   4.602   6.762   2.331
 2654SOL    HW1 8861   4.656   6.818   2.268
 2654SOL    HW2 8862   4.547   6.697   2.279
 2655SOL     OW 8863   4.604   6.168   4.360
 2655SOL    HW1 8864   4.520   6.207   4.324
 2655SOL    HW2 8865   4.598   6.068   4.357
 2656SOL     OW 8866   3.881   4.886   4.755
 2656SOL    HW1 8867   3.845   4.827   4.827
 2656SOL    HW2 8868   3.974   4.857   4.731
 2657SOL     OW 8869   1.262   4.390   6.845
 2657SOL    HW1 8870   1.218   4.301   6.833
 2657SOL    HW2 8871   1.341   4.396   6.784
 2658SOL     OW 8872   5.093   4.497   0.746
 2658SOL    HW1 8873   5.100   4.399   0.765
 2658SOL    HW2 8874   5.003   4.530   0.774
 2659SOL     OW 8875   5.441   3.168   4.201
 2659SOL    HW1 8876   5.427   3.255   4.152
 2659SOL    HW2 8877   5.504   3.183   4.278
 2660SOL     OW 8878   2.019   0.203   2.066
 2660SOL    HW1 8879   2.024   0.138   2.142
 2660SOL    HW2 8880   2.037   0.295   2.100
 2661SOL     OW 8881   2.227   0.472   1.502
 2661SOL    HW1 8882   2.279   0.461   1.586
 2661SOL    HW2 8883   2.230   0.387   1.449
 2662SOL     OW 8884   4.727   6.674   4.719
 2662SOL    HW1 8885   4.749   6.729   4.638
 2662SOL    HW2 8886   4.655   6.719   4.771
 2663SOL     OW 8887   3.292   4.143   6.925
 2663SOL    HW1 8888   3.320   4.105   7.013
 2663SOL    HW2 8889   3.196   4.171   6.931
 2664SOL     OW 8890   4.403   3.564   5.550
 2664SOL    HW1 8891   4.424   3.571   5.452
 2664SOL    HW2 8892   4.485   3.585   5.603
 2665SOL     OW 8893   2.826   3.285   5.327
 2665SOL    HW1 8894   2.757   3.215   5.346
 2665SOL    HW2 8895   2.898   3.246   5.269
 2666SOL     OW 8896   6.296   4.888   1.309
 2666SOL    HW1 8897   6.375   4.933   1.266
 2666SOL    HW2 8898   6.305   4.789   1.300
 2667SOL     OW 8899   0.427   5.813   4.254
 2667SOL    HW1 8900   0.439   5.886   4.321
 2667SOL    HW2 8901   0.344   5.762   4.275
 2668SOL     OW 8902   0.044   3.049   5.180
 2668SOL    HW1 8903   6.971   3.092   5.163
 2668SOL    HW2 8904   0.088   3.028   5.093
 2669SOL     OW 8905   2.930   4.466   5.634
 2669SOL    HW1 8906   2.937   4.419   5.546
 2669SOL    HW2 8907   3.001   4.433   5.696
 2670SOL     OW 8908   5.416   3.153   5.671
 2670SOL    HW1 8909   5.504   3.175   5.627
 2670SOL    HW2 8910   5.432   3.105   5.757
 2671SOL     OW 8911   4.637   5.244   6.405
 2671SOL    HW1 8912   4.702   5.320   6.407
 2671SOL    HW2 8913   4.679   5.163   6.445
 2672SOL     OW 8914   1.815   5.073   0.625
 2672SOL    HW1 8915   1.826   5.082   0.724
 2672SOL    HW2 8916   1.732   5.121   0.596
 2673SOL     OW 8917   6.287   1.437   2.487
 2673SOL    HW1 8918   6.315   1.424   2.392
 2673SOL    HW2 8919   6.335   1.372   2.545
 2674SOL     OW 8920   1.332   4.667   3.735
 2674SOL    HW1 8921   1.376   4.588   3.778
 2674SOL    HW2 8922   1.256   4.636   3.678
 2675SOL     OW 8923   6.139   5.126   4.101
 2675SOL    HW1 8924   6.125   5.054   4.170
 2675SOL    HW2 8925   6.116   5.215   4.140
 2676SOL     OW 8926   3.816   2.465   0.938
 2676SOL    HW1 8927   3.738   2.437   0.994
 2676SOL    HW2 8928   3.792   2.459   0.842
 2677SOL     OW 8929   2.476   3.629   0.341
 2677SOL    HW1 8930   2.427   3.661   0.260
 2677SOL    HW2 8931   2.476   3.700   0.410
 2678SOL     OW 8932   0.360   2.861   1.536
 2678SOL    HW1 8933   0.404   2.921   1.603
 2678SOL    HW2 8934   0.430   2.802   1.494
 2679SOL     OW 8935   2.115   4.221   1.849
 2679SOL    HW1 8936   2.137   4.180   1.938
 2679SOL    HW2 8937   2.131   4.320   1.853
 2680SOL     OW 8938   1.135   1.651   0.739
 2680SOL    HW1 8939   1.100   1.691   0.823
 2680SOL    HW2 8940   1.171   1.723   0.679
 2681SOL     OW 8941   1.913   2.588   4.540
 2681SOL    HW1 8942   1.837   2.531   4.508
 2681SOL    HW2 8943   1.968   2.537   4.606
 2682SOL     OW 8944   4.854   4.516   3.133
 2682SOL    HW1 8945   4.942   4.506   3.088
 2682SOL    HW2 8946   4.794   4.439   3.108
 2683SOL     OW 8947   2.716   5.562   1.515
 2683SOL    HW1 8948   2.704   5.468   1.545
 2683SOL    HW2 8949   2.696   5.624   1.591
 2684SOL     OW 8950   4.835   5.563   1.661
 2684SOL    HW1 8951   4.835   5.497   1.586
 2684SOL    HW2 8952   4.756   5.623   1.653
 2685SOL     OW 8953   5.825   6.243   5.849
 2685SOL    HW1 8954   5.854   6.310   5.918
 2685SOL    HW2 8955   5.737   6.204   5.875
 2686SOL     OW 8956   1.851   1.689   5.477
 2686SOL    HW1 8957   1.842   1.688   5.377
 2686SOL    HW2 8958   1.819   1.602   5.514
 2687SOL     OW 8959   5.050   5.008   1.143
 2687SOL    HW1 8960   5.108   5.031   1.065
 2687SOL    HW2 8961   5.103   4.956   1.210
 2688SOL     OW 8962   3.628   4.053   0.363
 2688SOL    HW1 8963   3.639   3.974   0.302
 2688SOL    HW2 8964   3.713   4.069   0.412
 2689SOL     OW 8965   1.458   4.546   3.491
 2689SOL    HW1 8966   1.440   4.604   3.572
 2689SOL    HW2 8967   1.513   4.597   3.426
 2690SOL     OW 8968   3.690   2.966   4.610
 2690SOL    HW1 8969   3.735   2.976   4.699
 2690SOL    HW2 8970   3.607   2.911   4.620
 2691SOL     OW 8971   2.007   5.519   3.236
 2691SOL    HW1 8972   1.953   5.457   3.177
 2691SOL    HW2 8973   1.946   5.560   3.304
 2692SOL     OW 8974   3.245   6.151   2.728
 2692SOL    HW1 8975   3.268   6.248   2.724
 2692SOL    HW2 8976   3.295   6.107   2.803
 2693SOL     OW 8977   2.399   5.452   3.708
 2693SOL    HW1 8978   2.364   5.413   3.793
 2693SOL    HW2 8979   2.492   5.488   3.724
 2694SOL     OW 8980   3.568   5.814   2.827
 2694SOL    HW1 8981   3.633   5.762   2.883
 2694SOL    HW2 8982   3.578   5.786   2.731
 2695SOL     OW 8983   5.673   0.499   1.668
 2695SOL    HW1 8984   5.724   0.528   1.588
 2695SOL    HW2 8985   5.707   0.546   1.749
 2696SOL     OW 8986   3.821   3.276   5.870
 2696SOL    HW1 8987   3.860   3.262   5.779
 2696SOL    HW2 8988   3.732   3.321   5.862
 2697SOL     OW 8989   3.102   1.217   2.894
 2697SOL    HW1 8990   3.097   1.157   2.973
 2697SOL    HW2 8991   3.010   1.248   2.870
 2698SOL     OW 8992   1.633   5.764   0.590
 2698SOL    HW1 8993   1.704   5.738   0.655
 2698SOL    HW2 8994   1.652   5.722   0.501
 2699SOL     OW 8995   2.023   5.925   0.302
 2699SOL    HW1 8996   1.925   5.938   0.286
 2699SOL    HW2 8997   2.044   5.942   0.398
 2700SOL     OW 8998   2.804   3.350   0.161
 2700SOL    HW1 8999   2.824   3.398   0.075
 2700SOL    HW2 9000   2.827   3.253   0.151
 2701SOL     OW 9001   5.261   1.716   5.819
 2701SOL    HW1 9002   5.238   1.793   5.760
 2701SOL    HW2 9003   5.316   1.748   5.896
 2702SOL     OW 9004   0.869   3.077   3.244
 2702SOL    HW1 9005   0.948   3.045   3.295
 2702SOL    HW2 9006   0.829   3.157   3.289
 2703SOL     OW 9007   1.200   0.262   1.197
 2703SOL    HW1 9008   1.186   0.187   1.262
 2703SOL    HW2 9009   1.128   0.331   1.210
 2704SOL     OW 9010   6.773   5.519   1.650
 2704SOL    HW1 9011   6.714   5.444   1.679
 2704SOL    HW2 9012   6.800   5.506   1.555
 2705SOL     OW 9013   0.289   5.359   4.650
 2705SOL    HW1 9014   0.286   5.403   4.560
 2705SOL    HW2 9015   0.373   5.385   4.697
 2706SOL     OW 9016   6.444   5.333   2.085
 2706SOL    HW1 9017   6.382   5.272   2.133
 2706SOL    HW2 9018   6.536   5.294   2.084
 2707SOL     OW 9019   4.173   6.948   3.653
 2707SOL    HW1 9020   4.092   7.004   3.667
 2707SOL    HW2 9021   4.248   7.006   3.620
 2708SOL     OW 9022   0.359   2.998   0.633
 2708SOL    HW1 9023   0.276   3.039   0.597
 2708SOL    HW2 9024   0.431   3.067   0.639
 2709SOL     OW 9025   5.096   0.012   6.811
 2709SOL    HW1 9026   5.122   6.988   6.723
 2709SOL    HW2 9027   5.024   6.971   6.852
 2710SOL     OW 9028   0.531   3.692   4.091
 2710SOL    HW1 9029   0.572   3.696   4.182
 2710SOL    HW2 9030   0.497   3.783   4.066
 2711SOL     OW 9031   2.306   0.423   4.287
 2711SOL    HW1 9032   2.217   0.459   4.316
 2711SOL    HW2 9033   2.338   0.473   4.207
 2712SOL     OW 9034   2.906   4.428   1.428
 2712SOL    HW1 9035   2.837   4.403   1.496
 2712SOL    HW2 9036   2.971   4.353   1.417
 2713SOL     OW 9037   2.583   2.502   4.956
 2713SOL    HW1 9038   2.606   2.427   5.019
 2713SOL    HW2 9039   2.637   2.493   4.873
 2714SOL     OW 9040   3.682   2.637   0.516
 2714SOL    HW1 9041   3.763   2.619   0.461
 2714SOL    HW2 9042   3.602   2.644   0.455
 2715SOL     OW 9043   5.040   1.480   1.230
 2715SOL    HW1 9044   4.962   1.458   1.288
 2715SOL    HW2 9045   5.125   1.465   1.280
 2716SOL     OW 9046   5.363   3.944   2.252
 2716SOL    HW1 9047   5.284   3.988   2.209
 2716SOL    HW2 9048   5.360   3.846   2.232
 2717SOL     OW 9049   0.787   0.159   2.922
 2717SOL    HW1 9050   0.793   0.101   3.003
 2717SOL    HW2 9051   0.847   0.238   2.933
 2718SOL     OW 9052   1.438   1.808   4.812
 2718SOL    HW1 9053   1.426   1.867   4.892
 2718SOL    HW2 9054   1.370   1.735   4.815
 2719SOL     OW 9055   0.461   4.903   2.125
 2719SOL    HW1 9056   0.525   4.834   2.092
 2719SOL    HW2 9057   0.381   4.905   2.065
 2720SOL     OW 9058   2.101   5.706   1.878
 2720SOL    HW1 9059   2.003   5.712   1.896
 2720SOL    HW2 9060   2.125   5.614   1.847
 2721SOL     OW 9061   2.980   0.030   3.762
 2721SOL    HW1 9062   3.058   0.011   3.702
 2721SOL    HW2 9063   2.910   0.080   3.711
 2722SOL     OW 9064   0.135   4.968   0.547
 2722SOL    HW1 9065   0.081   5.046   0.577
 2722SOL    HW2 9066   0.122   4.954   0.449
 2723SOL     OW 9067   0.288   0.095   6.471
 2723SOL    HW1 9068   0.304   0.020   6.535
 2723SOL    HW2 9069   0.364   0.102   6.407
 2724SOL     OW 9070   2.115   6.547   0.038
 2724SOL    HW1 9071   2.095   6.449   0.032
 2724SOL    HW2 9072   2.111   6.588   6.963
 2725SOL     OW 9073   5.209   4.270   4.534
 2725SOL    HW1 9074   5.152   4.191   4.511
 2725SOL    HW2 9075   5.151   4.342   4.571
 2726SOL     OW 9076   0.355   2.188   0.913
 2726SOL    HW1 9077   0.345   2.098   0.869
 2726SOL    HW2 9078   0.365   2.176   1.012
 2727SOL     OW 9079   0.571   5.138   3.518
 2727SOL    HW1 9080   0.538   5.055   3.564
 2727SOL    HW2 9081   0.512   5.215   3.544
 2728SOL     OW 9082   4.457   6.668   5.826
 2728SOL    HW1 9083   4.496   6.718   5.748
 2728SOL    HW2 9084   4.414   6.733   5.888
 2729SOL     OW 9085   6.959   6.170   0.713
 2729SOL    HW1 9086   7.016   6.206   0.787
 2729SOL    HW2 9087   7.005   6.091   0.671
 2730SOL     OW 9088   1.844   5.915   1.724
 2730SOL    HW1 9089   1.929   5.935   1.772
 2730SOL    HW2 9090   1.803   6.001   1.692
 2731SOL     OW 9091   3.542   4.088   3.019
 2731SOL    HW1 9092   3.518   3.991   3.016
 2731SOL    HW2 9093   3.584   4.110   3.107
 2732SOL     OW 9094   5.212   2.915   1.793
 2732SOL    HW1 9095   5.179   2.973   1.867
 2732SOL    HW2 9096   5.159   2.933   1.710
 2733SOL     OW 9097   6.415   2.068   4.280
 2733SOL    HW1 9098   6.434   2.001   4.208
 2733SOL    HW2 9099   6.316   2.072   4.296
 2734SOL     OW 9100   3.115   5.960   1.058
 2734SOL    HW1 9101   3.130   5.866   1.026
 2734SOL    HW2 9102   3.101   5.960   1.157
 2735SOL     OW 9103   1.074   3.597   1.676
 2735SOL    HW1 9104   1.173   3.579   1.674
 2735SOL    HW2 9105   1.030   3.531   1.737
 2736SOL     OW 9106   5.905   6.465   5.042
 2736SOL    HW1 9107   5.992   6.503   5.009
 2736SOL    HW2 9108   5.867   6.404   4.973
 2737SOL     OW 9109   2.633   3.911   5.711
 2737SOL    HW1 9110   2.547   3.862   5.700
 2737SOL    HW2 9111   2.641   3.944   5.805
 2738SOL     OW 9112   4.865   6.568   1.477
 2738SOL    HW1 9113   4.769   6.589   1.456
 2738SOL    HW2 9114   4.885   6.474   1.452
 2739SOL     OW 9115   0.837   4.570   1.549
 2739SOL    HW1 9116   0.896   4.490   1.540
 2739SOL    HW2 9117   0.893   4.651   1.567
 2740SOL     OW 9118   0.155   3.643   2.668
 2740SOL    HW1 9119   0.206   3.729   2.672
 2740SOL    HW2 9120   0.063   3.658   2.703
 2741SOL     OW 9121   6.152   0.627   5.096
 2741SOL    HW1 9122   6.066   0.619   5.146
 2741SOL    HW2 9123   6.143   0.696   5.024
 2742SOL     OW 9124   2.112   4.993   0.494
 2742SOL    HW1 9125   2.115   4.914   0.556
 2742SOL    HW2 9126   2.026   5.042   0.508
 2743SOL     OW 9127   6.123   4.737   2.108
 2743SOL    HW1 9128   6.196   4.668   2.108
 2743SOL    HW2 9129   6.039   4.695   2.141
 2744SOL     OW 9130   4.709   2.413   0.113
 2744SOL    HW1 9131   4.750   2.325   0.089
 2744SOL    HW2 9132   4.636   2.434   0.048
 2745SOL     OW 9133   6.783   0.018   5.386
 2745SOL    HW1 9134   6.710   7.002   5.327
 2745SOL    HW2 9135   6.781   6.984   5.473
 2746SOL     OW 9136   1.998   1.478   4.425
 2746SOL    HW1 9137   2.071   1.545   4.428
 2746SOL    HW2 9138   1.927   1.503   4.491
 2747SOL     OW 9139   5.776   3.874   6.753
 2747SOL    HW1 9140   5.733   3.924   6.828
 2747SOL    HW2 9141   5.872   3.901   6.745
 2748SOL     OW 9142   5.046   1.420   1.723
 2748SOL    HW1 9143   4.952   1.418   1.687
 2748SOL    HW2 9144   5.108   1.384   1.654
 2749SOL     OW 9145   0.185   4.198   2.168
 2749SOL    HW1 9146   0.139   4.122   2.215
 2749SOL    HW2 9147   0.258   4.233   2.227
 2750SOL     OW 9148   0.826   4.441   1.263
 2750SOL    HW1 9149   0.847   4.346   1.284
 2750SOL    HW2 9150   0.749   4.471   1.320
 2751SOL     OW 9151   0.977   4.345   1.547
 2751SOL    HW1 9152   0.985   4.305   1.638
 2751SOL    HW2 9153   0.955   4.273   1.481
 2752SOL     OW 9154   4.054   5.564   5.729
 2752SOL    HW1 9155   3.994   5.596   5.802
 2752SOL    HW2 9156   4.000   5.514   5.661
 2753SOL     OW 9157   0.456   6.693   5.571
 2753SOL    HW1 9158   0.396   6.773   5.565
 2753SOL    HW2 9159   0.462   6.663   5.666
 2754SOL     OW 9160   0.534   0.836   1.840
 2754SOL    HW1 9161   0.499   0.817   1.748
 2754SOL    HW2 9162   0.529   0.934   1.858
 2755SOL     OW 9163   2.526   6.893   2.921
 2755SOL    HW1 9164   2.506   6.836   3.001
 2755SOL    HW2 9165   2.620   6.875   2.891
 2756SOL     OW 9166   5.713   5.426   6.392
 2756SOL    HW1 9167   5.709   5.332   6.359
 2756SOL    HW2 9168   5.784   5.476   6.342
 2757SOL     OW 9169   2.676   0.333   0.006
 2757SOL    HW1 9170   2.635   0.245   7.001
 2757SOL    HW2 9171   2.765   0.318   0.049
 2758SOL     OW 9172   3.772   6.623   3.686
 2758SOL    HW1 9173   3.831   6.687   3.734
 2758SOL    HW2 9174   3.678   6.635   3.718
 2759SOL     OW 9175   5.491   6.842   5.607
 2759SOL    HW1 9176   5.458   6.748   5.595
 2759SOL    HW2 9177   5.547   6.847   5.690
 2760SOL     OW 9178   0.829   6.127   2.024
 2760SOL    HW1 9179   0.773   6.209   2.029
 2760SOL    HW2 9180   0.838   6.098   1.929
 2761SOL     OW 9181   2.032   5.331   5.160
 2761SOL    HW1 9182   2.091   5.268   5.210
 2761SOL    HW2 9183   2.088   5.394   5.107
 2762SOL     OW 9184   1.202   0.924   4.769
 2762SOL    HW1 9185   1.210   0.957   4.675
 2762SOL    HW2 9186   1.110   0.887   4.783
 2763SOL     OW 9187   4.847   1.854   3.171
 2763SOL    HW1 9188   4.868   1.932   3.229
 2763SOL    HW2 9189   4.794   1.787   3.224
 2764SOL     OW 9190   5.998   0.592   1.577
 2764SOL    HW1 9191   5.917   0.562   1.526
 2764SOL    HW2 9192   6.060   0.515   1.590
 2765SOL     OW 9193   6.126   0.073   0.836
 2765SOL    HW1 9194   6.045   0.062   0.778
 2765SOL    HW2 9195   6.147   0.170   0.846
 2766SOL     OW 9196   5.031   2.574   0.610
 2766SOL    HW1 9197   4.966   2.540   0.678
 2766SOL    HW2 9198   5.118   2.595   0.655
 2767SOL     OW 9199   0.036   5.566   6.924
 2767SOL    HW1 9200   0.063   5.637   6.858
 2767SOL    HW2 9201   0.117   5.514   6.951
 2768SOL     OW 9202   4.258   0.600   1.154
 2768SOL    HW1 9203   4.239   0.694   1.124
 2768SOL    HW2 9204   4.171   0.550   1.162
 2769SOL     OW 9205   2.107   4.835   4.396
 2769SOL    HW1 9206   2.165   4.800   4.323
 2769SOL    HW2 9207   2.156   4.908   4.445
 2770SOL     OW 9208   4.157   6.216   6.311
 2770SOL    HW1 9209   4.168   6.119   6.333
 2770SOL    HW2 9210   4.101   6.225   6.229
 2771SOL     OW 9211   6.469   0.877   3.550
 2771SOL    HW1 9212   6.552   0.839   3.590
 2771SOL    HW2 9213   6.402   0.893   3.622
 2772SOL     OW 9214   4.030   1.972   0.912
 2772SOL    HW1 9215   4.063   2.025   0.833
 2772SOL    HW2 9216   4.096   1.900   0.933
 2773SOL     OW 9217   6.276   2.021   5.036
 2773SOL    HW1 9218   6.220   1.959   4.981
 2773SOL    HW2 9219   6.238   2.025   5.129
 2774SOL     OW 9220   5.608   3.164   2.605
 2774SOL    HW1 9221   5.570   3.154   2.697
 2774SOL    HW2 9222   5.538   3.200   2.544
 2775SOL     OW 9223   6.474   5.100   5.609
 2775SOL    HW1 9224   6.508   5.091   5.516
 2775SOL    HW2 9225   6.427   5.188   5.620
 2776SOL     OW 9226   4.404   4.887   5.790
 2776SOL    HW1 9227   4.365   4.819   5.728
 2776SOL    HW2 9228   4.496   4.911   5.759
 2777SOL     OW 9229   3.033   1.873   1.780
 2777SOL    HW1 9230   3.120   1.841   1.745
 2777SOL    HW2 9231   3.041   1.969   1.807
 2778SOL     OW 9232   1.811   0.140   5.520
 2778SOL    HW1 9233   1.814   0.211   5.450
 2778SOL    HW2 9234   1.793   0.182   5.609
 2779SOL     OW 9235   4.683   6.301   1.244
 2779SOL    HW1 9236   4.595   6.335   1.211
 2779SOL    HW2 9237   4.750   6.307   1.170
 2780SOL     OW 9238   6.431   6.694   6.835
 2780SOL    HW1 9239   6.398   6.757   6.765
 2780SOL    HW2 9240   6.490   6.625   6.793
 2781SOL     OW 9241   5.373   6.489   1.656
 2781SOL    HW1 9242   5.323   6.501   1.570
 2781SOL    HW2 9243   5.322   6.532   1.731
 2782SOL     OW 9244   4.624   2.166   6.284
 2782SOL    HW1 9245   4.623   2.265   6.271
 2782SOL    HW2 9246   4.656   2.145   6.376
 2783SOL     OW 9247   5.123   4.403   2.987
 2783SOL    HW1 9248   5.171   4.490   2.986
 2783SOL    HW2 9249   5.125   4.362   2.896
 2784SOL     OW 9250   3.245   1.663   2.408
 2784SOL    HW1 9251   3.241   1.581   2.465
 2784SOL    HW2 9252   3.166   1.721   2.428
 2785SOL     OW 9253   5.173   2.264   0.548
 2785SOL    HW1 9254   5.154   2.270   0.450
 2785SOL    HW2 9255   5.097   2.217   0.594
 2786SOL     OW 9256   5.260   6.959   2.850
 2786SOL    HW1 9257   5.275   0.011   2.778
 2786SOL    HW2 9258   5.209   7.002   2.925
 2787SOL     OW 9259   4.974   0.957   5.873
 2787SOL    HW1 9260   5.023   1.019   5.813
 2787SOL    HW2 9261   5.035   0.925   5.946
 2788SOL     OW 9262   2.216   4.879   5.893
 2788SOL    HW1 9263   2.223   4.914   5.799
 2788SOL    HW2 9264   2.202   4.955   5.956
 2789SOL     OW 9265   1.519   2.719   3.736
 2789SOL    HW1 9266   1.448   2.649   3.740
 2789SOL    HW2 9267   1.543   2.736   3.640
 2790SOL     OW 9268   3.302   5.985   2.407
 2790SOL    HW1 9269   3.261   5.894   2.398
 2790SOL    HW2 9270   3.246   6.051   2.356
 2791SOL     OW 9271   0.297   2.887   3.325
 2791SOL    HW1 9272   0.370   2.948   3.292
 2791SOL    HW2 9273   0.208   2.932   3.312
 2792SOL     OW 9274   1.614   6.918   4.246
 2792SOL    HW1 9275   1.696   6.940   4.193
 2792SOL    HW2 9276   1.533   6.950   4.197
 2793SOL     OW 9277   5.718   4.088   1.369
 2793SOL    HW1 9278   5.793   4.133   1.320
 2793SOL    HW2 9279   5.747   3.997   1.397
 2794SOL     OW 9280   0.067   2.552   6.747
 2794SOL    HW1 9281   0.153   2.512   6.717
 2794SOL    HW2 9282   0.078   2.651   6.759
 2795SOL     OW 9283   0.829   2.995   0.271
 2795SOL    HW1 9284   0.897   2.925   0.294
 2795SOL    HW2 9285   0.817   3.056   0.349
 2796SOL     OW 9286   0.194   6.377   3.775
 2796SOL    HW1 9287   0.097   6.353   3.779
 2796SOL    HW2 9288   0.248   6.296   3.752
 2797SOL     OW 9289   5.167   5.382   4.737
 2797SOL    HW1 9290   5.216   5.336   4.810
 2797SOL    HW2 9291   5.107   5.316   4.691
 2798SOL     OW 9292   0.623   5.762   2.156
 2798SOL    HW1 9293   0.524   5.745   2.156
 2798SOL    HW2 9294   0.662   5.724   2.072
 2799SOL     OW 9295   5.949   5.181   6.553
 2799SOL    HW1 9296   5.952   5.248   6.627
 2799SOL    HW2 9297   5.936   5.228   6.466
 2800SOL     OW 9298   4.535   6.232   0.174
 2800SOL    HW1 9299   4.538   6.132   0.170
 2800SOL    HW2 9300   4.451   6.265   0.132
 2801SOL     OW 9301   6.932   5.677   6.072
 2801SOL    HW1 9302   6.931   5.614   6.150
 2801SOL    HW2 9303   6.924   5.771   6.105
 2802SOL     OW 9304   5.065   0.749   5.063
 2802SOL    HW1 9305   4.996   0.817   5.086
 2802SOL    HW2 9306   5.058   0.724   4.967
 2803SOL     OW 9307   4.124   5.650   6.334
 2803SOL    HW1 9308   4.166   5.595   6.406
 2803SOL    HW2 9309   4.070   5.591   6.274
 2804SOL     OW 9310   0.457   4.715   5.309
 2804SOL    HW1 9311   0.481   4.624   5.276
 2804SOL    HW2 9312   0.358   4.728   5.303
 2805SOL     OW 9313   6.150   3.046   1.943
 2805SOL    HW1 9314   6.193   3.121   1.893
 2805SOL    HW2 9315   6.104   3.082   2.024
 2806SOL     OW 9316   0.402   3.876   6.410
 2806SOL    HW1 9317   0.480   3.914   6.361
 2806SOL    HW2 9318   0.367   3.797   6.360
 2807SOL     OW 9319   3.803   6.584   4.059
 2807SOL    HW1 9320   3.734   6.529   4.106
 2807SOL    HW2 9321   3.826   6.542   3.971
 2808SOL     OW 9322   6.116   4.834   1.863
 2808SOL    HW1 9323   6.066   4.771   1.803
 2808SOL    HW2 9324   6.100   4.809   1.958
 2809SOL     OW 9325   5.545   2.753   1.394
 2809SOL    HW1 9326   5.571   2.843   1.360
 2809SOL    HW2 9327   5.445   2.748   1.401
 2810SOL     OW 9328   3.621   5.186   3.817
 2810SOL    HW1 9329   3.681   5.261   3.846
 2810SOL    HW2 9330   3.602   5.196   3.719
 2811SOL     OW 9331   1.004   2.179   3.307
 2811SOL    HW1 9332   1.083   2.212   3.255
 2811SOL    HW2 9333   1.021   2.191   3.405
 2812SOL     OW 9334   5.293   3.320   6.593
 2812SOL    HW1 9335   5.320   3.411   6.624
 2812SOL    HW2 9336   5.279   3.260   6.672
 2813SOL     OW 9337   0.745   0.409   6.919
 2813SOL    HW1 9338   0.813   0.385   6.988
 2813SOL    HW2 9339   0.654   0.409   6.960
 2814SOL     OW 9340   3.932   3.643   5.434
 2814SOL    HW1 9341   3.935   3.699   5.351
 2814SOL    HW2 9342   3.891   3.696   5.508
 2815SOL     OW 9343   6.496   6.786   6.065
 2815SOL    HW1 9344   6.406   6.743   6.066
 2815SOL    HW2 9345   6.547   6.755   5.984
 2816SOL     OW 9346   6.261   5.121   3.224
 2816SOL    HW1 9347   6.222   5.081   3.141
 2816SOL    HW2 9348   6.359   5.135   3.212
 2817SOL     OW 9349   3.491   6.720   1.781
 2817SOL    HW1 9350   3.408   6.695   1.830
 2817SOL    HW2 9351   3.484   6.814   1.748
 2818SOL     OW 9352   0.333   0.436   1.517
 2818SOL    HW1 9353   0.361   0.355   1.466
 2818SOL    HW2 9354   0.411   0.497   1.529
 2819SOL     OW 9355   0.500   0.901   1.537
 2819SOL    HW1 9356   0.413   0.884   1.583
 2819SOL    HW2 9357   0.500   0.993   1.498
 2820SOL     OW 9358   0.679   2.487   2.956
 2820SOL    HW1 9359   0.726   2.405   2.924
 2820SOL    HW2 9360   0.738   2.567   2.942
 2821SOL     OW 9361   4.097   4.206   6.254
 2821SOL    HW1 9362   4.172   4.265   6.224
 2821SOL    HW2 9363   4.017   4.222   6.196
 2822SOL     OW 9364   4.065   2.120   0.690
 2822SOL    HW1 9365   4.094   2.215   0.703
 2822SOL    HW2 9366   4.062   2.099   0.592
 2823SOL     OW 9367   4.609   0.977   0.684
 2823SOL    HW1 9368   4.660   1.052   0.727
 2823SOL    HW2 9369   4.641   0.890   0.721
 2824SOL     OW 9370   1.993   1.958   3.491
 2824SOL    HW1 9371   1.976   1.863   3.464
 2824SOL    HW2 9372   2.015   1.961   3.589
 2825SOL     OW 9373   5.660   6.711   6.498
 2825SOL    HW1 9374   5.581   6.650   6.507
 2825SOL    HW2 9375   5.669   6.767   6.580
 2826SOL     OW 9376   4.562   0.684   0.052
 2826SOL    HW1 9377   4.506   0.717   6.992
 2826SOL    HW2 9378   4.629   0.618   0.018
 2827SOL     OW 9379   0.805   1.538   6.000
 2827SOL    HW1 9380   0.792   1.603   6.075
 2827SOL    HW2 9381   0.900   1.542   5.969
 2828SOL     OW 9382   2.532   1.536   0.196
 2828SOL    HW1 9383   2.472   1.469   0.241
 2828SOL    HW2 9384   2.547   1.613   0.258
 2829SOL     OW 9385   2.921   3.614   5.196
 2829SOL    HW1 9386   2.930   3.551   5.119
 2829SOL    HW2 9387   2.999   3.602   5.258
 2830SOL     OW 9388   1.956   3.077   5.685
 2830SOL    HW1 9389   1.952   2.982   5.654
 2830SOL    HW2 9390   1.867   3.102   5.724
 2831SOL     OW 9391   0.840   4.617   3.714
 2831SOL    HW1 9392   0.817   4.520   3.708
 2831SOL    HW2 9393   0.914   4.629   3.780
 2832SOL     OW 9394   0.972   3.287   2.194
 2832SOL    HW1 9395   0.879   3.317   2.171
 2832SOL    HW2 9396   1.010   3.347   2.263
 2833SOL     OW 9397   2.910   1.881   2.360
 2833SOL    HW1 9398   2.891   1.978   2.371
 2833SOL    HW2 9399   2.893   1.853   2.266
 2834SOL     OW 9400   4.054   5.818   6.020
 2834SOL    HW1 9401   4.004   5.733   6.035
 2834SOL    HW2 9402   4.152   5.800   6.022
 2835SOL     OW 9403   0.676   6.342   2.042
 2835SOL    HW1 9404   0.602   6.297   1.993
 2835SOL    HW2 9405   0.708   6.421   1.990
 2836SOL     OW 9406   0.210   0.056   2.177
 2836SOL    HW1 9407   0.141   6.999   2.181
 2836SOL    HW2 9408   0.174   0.133   2.124
 2837SOL     OW 9409   4.454   5.123   2.582
 2837SOL    HW1 9410   4.505   5.051   2.628
 2837SOL    HW2 9411   4.400   5.084   2.507
 2838SOL     OW 9412   3.370   3.858   1.126
 2838SOL    HW1 9413   3.353   3.789   1.197
 2838SOL    HW2 9414   3.391   3.813   1.040
 2839SOL     OW 9415   6.611   2.481   2.982
 2839SOL    HW1 9416   6.674   2.416   2.940
 2839SOL    HW2 9417   6.662   2.547   3.037
 2840SOL     OW 9418   1.203   0.339   3.385
 2840SOL    HW1 9419   1.224   0.253   3.338
 2840SOL    HW2 9420   1.288   0.384   3.412
 2841SOL     OW 9421   0.258   0.954   6.229
 2841SOL    HW1 9422   0.223   0.862   6.244
 2841SOL    HW2 9423   0.347   0.950   6.183
 2842SOL     OW 9424   0.529   3.908   3.760
 2842SOL    HW1 9425   0.550   4.002   3.733
 2842SOL    HW2 9426   0.513   3.904   3.859
 2843SOL     OW 9427   2.447   2.586   2.424
 2843SOL    HW1 9428   2.386   2.658   2.457
 2843SOL    HW2 9429   2.438   2.579   2.324
 2844SOL     OW 9430   6.996   5.176   6.888
 2844SOL    HW1 9431   6.942   5.197   6.807
 2844SOL    HW2 9432   0.068   5.223   6.883
 2845SOL     OW 9433   5.764   3.292   1.789
 2845SOL    HW1 9434   5.814   3.218   1.835
 2845SOL    HW2 9435   5.829   3.361   1.756
 2846SOL     OW 9436   4.078   1.160   0.151
 2846SOL    HW1 9437   3.984   1.154   0.186
 2846SOL    HW2 9438   4.120   1.244   0.183
 2847SOL     OW 9439   5.287   3.914   3.289
 2847SOL    HW1 9440   5.379   3.878   3.272
 2847SOL    HW2 9441   5.266   3.985   3.222
 2848SOL     OW 9442   1.988   2.602   5.181
 2848SOL    HW1 9443   2.004   2.541   5.258
 2848SOL    HW2 9444   2.043   2.685   5.193
 2849SOL     OW 9445   4.097   0.063   0.811
 2849SOL    HW1 9446   4.135   6.991   0.781
 2849SOL    HW2 9447   4.006   0.076   0.771
 2850SOL     OW 9448   1.963   0.298   2.780
 2850SOL    HW1 9449   1.924   0.369   2.721
 2850SOL    HW2 9450   1.968   0.212   2.730
 2851SOL     OW 9451   5.913   1.664   6.071
 2851SOL    HW1 9452   5.929   1.733   6.142
 2851SOL    HW2 9453   5.947   1.576   6.102
 2852SOL     OW 9454   6.155   3.749   6.882
 2852SOL    HW1 9455   6.115   3.839   6.866
 2852SOL    HW2 9456   6.082   3.681   6.894
 2853SOL     OW 9457   1.549   1.129   6.858
 2853SOL    HW1 9458   1.604   1.080   6.925
 2853SOL    HW2 9459   1.453   1.123   6.883
 2854SOL     OW 9460   4.764   0.810   5.217
 2854SOL    HW1 9461   4.811   0.888   5.175
 2854SOL    HW2 9462   4.677   0.795   5.170
 2855SOL     OW 9463   2.049   1.871   5.989
 2855SOL    HW1 9464   2.072   1.866   6.087
 2855SOL    HW2 9465   2.062   1.781   5.947
 2856SOL     OW 9466   0.464   3.100   5.649
 2856SOL    HW1 9467   0.561   3.105   5.672
 2856SOL    HW2 9468   0.418   3.039   5.714
 2857SOL     OW 9469   2.160   2.916   2.106
 2857SOL    HW1 9470   2.074   2.879   2.070
 2857SOL    HW2 9471   2.230   2.913   2.035
 2858SOL     OW 9472   4.891   4.074   1.946
 2858SOL    HW1 9473   4.802   4.078   1.899
 2858SOL    HW2 9474   4.906   4.160   1.995
 2859SOL     OW 9475   5.638   0.643   6.781
 2859SOL    HW1 9476   5.622   0.556   6.828
 2859SOL    HW2 9477   5.611   0.718   6.842
 2860SOL     OW 9478   2.523   1.874   1.800
 2860SOL    HW1 9479   2.551   1.962   1.761
 2860SOL    HW2 9480   2.600   1.836   1.851
 2861SOL     OW 9481   3.886   5.106   5.584
 2861SOL    HW1 9482   3.788   5.118   5.567
 2861SOL    HW2 9483   3.900   5.027   5.644
 2862SOL     OW 9484   5.330   1.649   2.414
 2862SOL    HW1 9485   5.388   1.728   2.397
 2862SOL    HW2 9486   5.274   1.631   2.333
 2863SOL     OW 9487   4.561   1.277   6.754
 2863SOL    HW1 9488   4.504   1.316   6.682
 2863SOL    HW2 9489   4.515   1.197   6.793
 2864SOL     OW 9490   4.040   1.581   2.050
 2864SOL    HW1 9491   3.952   1.580   2.003
 2864SOL    HW2 9492   4.024   1.572   2.149
 2865SOL     OW 9493   3.635   5.991   6.171
 2865SOL    HW1 9494   3.543   5.956   6.190
 2865SOL    HW2 9495   3.630   6.087   6.145
 2866SOL     OW 9496   6.740   5.640   6.780
 2866SOL    HW1 9497   6.657   5.618   6.729
 2866SOL    HW2 9498   6.724   5.722   6.835
 2867SOL     OW 9499   6.996   6.069   3.296
 2867SOL    HW1 9500   6.926   6.017   3.248
 2867SOL    HW2 9501   0.069   6.023   3.286
 2868SOL     OW 9502   1.459   1.021   5.580
 2868SOL    HW1 9503   1.410   0.935   5.568
 2868SOL    HW2 9504   1.407   1.095   5.536
 2869SOL     OW 9505   6.728   1.453   3.543
 2869SOL    HW1 9506   6.787   1.413   3.613
 2869SOL    HW2 9507   6.637   1.470   3.582
 2870SOL     OW 9508   0.410   1.386   5.058
 2870SOL    HW1 9509   0.477   1.349   5.123
 2870SOL    HW2 9510   0.442   1.368   4.964
 2871SOL     OW 9511   0.311   1.583   6.398
 2871SOL    HW1 9512   0.394   1.585   6.342
 2871SOL    HW2 9513   0.256   1.665   6.380
 2872SOL     OW 9514   2.404   2.294   1.796
 2872SOL    HW1 9515   2.408   2.390   1.827
 2872SOL    HW2 9516   2.427   2.234   1.873
 2873SOL     OW 9517   6.625   5.771   2.669
 2873SOL    HW1 9518   6.648   5.775   2.572
 2873SOL    HW2 9519   6.673   5.694   2.711
 2874SOL     OW 9520   5.036   6.827   3.445
 2874SOL    HW1 9521   4.949   6.801   3.404
 2874SOL    HW2 9522   5.033   6.923   3.474
 2875SOL     OW 9523   5.255   0.537   1.019
 2875SOL    HW1 9524   5.240   0.566   1.113
 2875SOL    HW2 9525   5.321   0.462   1.018
 2876SOL     OW 9526   1.828   0.021   2.656
 2876SOL    HW1 9527   1.743   0.021   2.603
 2876SOL    HW2 9528   1.906   0.025   2.593
 2877SOL     OW 9529   2.589   1.775   5.889
 2877SOL    HW1 9530   2.609   1.788   5.986
 2877SOL    HW2 9531   2.526   1.846   5.859
 2878SOL     OW 9532   3.688   4.611   5.485
 2878SOL    HW1 9533   3.774   4.643   5.445
 2878SOL    HW2 9534   3.647   4.542   5.425
 2879SOL     OW 9535   5.223   5.212   6.980
 2879SOL    HW1 9536   5.321   5.231   6.967
 2879SOL    HW2 9537   5.201   5.124   6.939
 2880SOL     OW 9538   6.920   0.812   1.864
 2880SOL    HW1 9539   6.933   0.767   1.776
 2880SOL    HW2 9540   6.825   0.802   1.893
 2881SOL     OW 9541   5.115   5.773   6.248
 2881SOL    HW1 9542   5.138   5.786   6.151
 2881SOL    HW2 9543   5.019   5.796   6.264
 2882SOL     OW 9544   0.049   5.479   2.260
 2882SOL    HW1 9545   6.965   5.480   2.250
 2882SOL    HW2 9546   0.073   5.456   2.355
 2883SOL     OW 9547   5.969   0.218   3.219
 2883SOL    HW1 9548   6.050   0.160   3.206
 2883SOL    HW2 9549   5.980   0.301   3.165
 2884SOL     OW 9550   1.114   0.045   2.394
 2884SOL    HW1 9551   1.168   0.102   2.332
 2884SOL    HW2 9552   1.131   0.074   2.488
 2885SOL     OW 9553   1.259   3.863   3.663
 2885SOL    HW1 9554   1.179   3.882   3.606
 2885SOL    HW2 9555   1.288   3.947   3.710
 2886SOL     OW 9556   1.321   3.979   6.066
 2886SOL    HW1 9557   1.264   3.918   6.122
 2886SOL    HW2 9558   1.417   3.969   6.092
 2887SOL     OW 9559   0.549   0.674   5.740
 2887SOL    HW1 9560   0.595   0.756   5.774
 2887SOL    HW2 9561   0.581   0.654   5.647
 2888SOL     OW 9562   0.085   4.314   6.675
 2888SOL    HW1 9563   0.041   4.404   6.670
 2888SOL    HW2 9564   0.139   4.299   6.592
 2889SOL     OW 9565   3.005   6.222   2.579
 2889SOL    HW1 9566   2.943   6.160   2.530
 2889SOL    HW2 9567   3.078   6.170   2.622
 2890SOL     OW 9568   1.579   6.222   0.249
 2890SOL    HW1 9569   1.650   6.281   0.210
 2890SOL    HW2 9570   1.607   6.194   0.341
 2891SOL     OW 9571   0.908   4.844   3.432
 2891SOL    HW1 9572   0.821   4.819   3.389
 2891SOL    HW2 9573   0.892   4.869   3.527
 2892SOL     OW 9574   5.650   3.488   0.532
 2892SOL    HW1 9575   5.617   3.405   0.578
 2892SOL    HW2 9576   5.676   3.556   0.601
 2893SOL     OW 9577   0.000   5.365   4.680
 2893SOL    HW1 9578   6.943   5.352   4.613
 2893SOL    HW2 9579   0.084   5.323   4.646
 2894SOL     OW 9580   1.101   3.754   2.339
 2894SOL    HW1 9581   1.053   3.802   2.412
 2894SOL    HW2 9582   1.145   3.821   2.279
 2895SOL     OW 9583   5.063   2.754   5.491
 2895SOL    HW1 9584   5.159   2.732   5.507
 2895SOL    HW2 9585   5.056   2.840   5.440
 2896SOL     OW 9586   4.857   5.628   5.474
 2896SOL    HW1 9587   4.866   5.595   5.568
 2896SOL    HW2 9588   4.948   5.643   5.435
 2897SOL     OW 9589   4.053   5.089   3.482
 2897SOL    HW1 9590   4.130   5.151   3.495
 2897SOL    HW2 9591   4.069   5.004   3.533
 2898SOL     OW 9592   4.390   4.718   4.483
 2898SOL    HW1 9593   4.469   4.779   4.480
 2898SOL    HW2 9594   4.380   4.680   4.575
 2899SOL     OW 9595   1.032   1.637   0.075
 2899SOL    HW1 9596   1.098   1.707   0.049
 2899SOL    HW2 9597   1.077   1.547   0.075
 2900SOL     OW 9598   1.716   3.420   6.069
 2900SOL    HW1 9599   1.685   3.501   6.020
 2900SOL    HW2 9600   1.812   3.403   6.047
 2901SOL     OW 9601   3.254   5.373   3.302
 2901SOL    HW1 9602   3.291   5.447   3.246
 2901SOL    HW2 9603   3.229   5.297   3.242
 2902SOL     OW 9604   5.489   5.936   3.073
 2902SOL    HW1 9605   5.541   6.020   3.087
 2902SOL    HW2 9606   5.439   5.941   2.986
 2903SOL     OW 9607   3.128   0.378   0.750
 2903SOL    HW1 9608   3.148   0.331   0.836
 2903SOL    HW2 9609   3.043   0.342   0.711
 2904SOL     OW 9610   2.463   4.477   4.234
 2904SOL    HW1 9611   2.505   4.506   4.320
 2904SOL    HW2 9612   2.406   4.396   4.250
 2905SOL     OW 9613   1.453   2.369   4.751
 2905SOL    HW1 9614   1.354   2.375   4.738
 2905SOL    HW2 9615   1.487   2.457   4.784
 2906SOL     OW 9616   3.893   5.568   1.970
 2906SOL    HW1 9617   3.954   5.554   1.893
 2906SOL    HW2 9618   3.832   5.645   1.950
 2907SOL     OW 9619   1.033   1.049   3.169
 2907SOL    HW1 9620   0.982   1.041   3.083
 2907SOL    HW2 9621   0.972   1.083   3.240
 2908SOL     OW 9622   5.027   6.497   3.247
 2908SOL    HW1 9623   5.058   6.589   3.269
 2908SOL    HW2 9624   5.097   6.431   3.274
 2909SOL     OW 9625   1.670   5.597   3.812
 2909SOL    HW1 9626   1.633   5.515   3.856
 2909SOL    HW2 9627   1.730   5.645   3.875
 2910SOL     OW 9628   4.842   0.581   4.466
 2910SOL    HW1 9629   4.791   0.587   4.380
 2910SOL    HW2 9630   4.803   0.509   4.523
 2911SOL     OW 9631   0.961   5.662   3.409
 2911SOL    HW1 9632   1.042   5.676   3.352
 2911SOL    HW2 9633   0.879   5.667   3.351
 2912SOL     OW 9634   4.991   0.167   6.424
 2912SOL    HW1 9635   4.898   0.139   6.400
 2912SOL    HW2 9636   5.057   0.100   6.391
 2913SOL     OW 9637   3.003   5.060   2.687
 2913SOL    HW1 9638   2.946   4.985   2.653
 2913SOL    HW2 9639   3.015   5.128   2.615
 2914SOL     OW 9640   6.290   6.182   6.519
 2914SOL    HW1 9641   6.288   6.230   6.431
 2914SOL    HW2 9642   6.363   6.114   6.518
 2915SOL     OW 9643   4.773   1.776   3.584
 2915SOL    HW1 9644   4.787   1.753   3.488
 2915SOL    HW2 9645   4.768   1.692   3.638
 2916SOL     OW 9646   1.056   6.648   0.658
 2916SOL    HW1 9647   1.067   6.550   0.640
 2916SOL    HW2 9648   1.105   6.673   0.741
 2917SOL     OW 9649   2.850   0.169   3.367
 2917SOL    HW1 9650   2.830   0.098   3.299
 2917SOL    HW2 9651   2.847   0.259   3.323
 2918SOL     OW 9652   6.087   4.619   4.932
 2918SOL    HW1 9653   6.020   4.656   4.996
 2918SOL    HW2 9654   6.148   4.555   4.980
 2919SOL     OW 9655   6.286   1.121   2.482
 2919SOL    HW1 9656   6.292   1.171   2.568
 2919SOL    HW2 9657   6.337   1.035   2.491
 2920SOL     OW 9658   2.957   1.568   1.420
 2920SOL    HW1 9659   3.040   1.518   1.442
 2920SOL    HW2 9660   2.880   1.530   1.472
 2921SOL     OW 9661   0.601   0.367   4.398
 2921SOL    HW1 9662   0.611   0.357   4.497
 2921SOL    HW2 9663   0.532   0.302   4.365
 2922SOL     OW 9664   4.820   1.162   0.781
 2922SOL    HW1 9665   4.838   1.222   0.859
 2922SOL    HW2 9666   4.902   1.159   0.723
 2923SOL     OW 9667   6.323   5.126   2.248
 2923SOL    HW1 9668   6.349   5.030   2.243
 2923SOL    HW2 9669   6.359   5.166   2.333
 2924SOL     OW 9670   6.936   2.243   5.962
 2924SOL    HW1 9671   6.886   2.251   6.048
 2924SOL    HW2 9672   6.996   2.322   5.951
 2925SOL     OW 9673   5.021   0.934   2.291
 2925SOL    HW1 9674   5.013   0.918   2.390
 2925SOL    HW2 9675   5.112   0.904   2.260
 2926SOL     OW 9676   0.153   2.006   4.151
 2926SOL    HW1 9677   0.211   2.070   4.100
 2926SOL    HW2 9678   0.165   1.914   4.115
 2927SOL     OW 9679   1.280   3.662   0.927
 2927SOL    HW1 9680   1.325   3.679   0.839
 2927SOL    HW2 9681   1.344   3.614   0.987
 2928SOL     OW 9682   0.122   1.370   6.291
 2928SOL    HW1 9683   0.190   1.419   6.345
 2928SOL    HW2 9684   0.139   1.385   6.194
 2929SOL     OW 9685   0.319   2.333   0.162
 2929SOL    HW1 9686   0.287   2.407   0.103
 2929SOL    HW2 9687   0.242   2.296   0.215
 2930SOL     OW 9688   4.761   0.699   4.896
 2930SOL    HW1 9689   4.713   0.785   4.913
 2930SOL    HW2 9690   4.852   0.718   4.860
 2931SOL     OW 9691   5.421   4.981   6.955
 2931SOL    HW1 9692   5.386   4.964   0.031
 2931SOL    HW2 9693   5.461   5.073   6.951
 2932SOL     OW 9694   0.857   5.587   2.008
 2932SOL    HW1 9695   0.936   5.619   1.956
 2932SOL    HW2 9696   0.795   5.536   1.947
 2933SOL     OW 9697   6.922   5.350   3.433
 2933SOL    HW1 9698   6.915   5.329   3.531
 2933SOL    HW2 9699   7.015   5.331   3.402
 2934SOL     OW 9700   4.527   1.507   0.289
 2934SOL    HW1 9701   4.445   1.564   0.286
 2934SOL    HW2 9702   4.512   1.425   0.235
 2935SOL     OW 9703   6.166   3.353   6.800
 2935SOL    HW1 9704   6.187   3.255   6.792
 2935SOL    HW2 9705   6.069   3.364   6.823
 2936SOL     OW 9706   3.918   6.779   0.681
 2936SOL    HW1 9707   3.899   6.831   0.598
 2936SOL    HW2 9708   3.897   6.682   0.665
 2937SOL     OW 9709   5.224   4.690   0.581
 2937SOL    HW1 9710   5.208   4.633   0.500
 2937SOL    HW2 9711   5.178   4.649   0.659
 2938SOL     OW 9712   4.625   4.800   6.449
 2938SOL    HW1 9713   4.591   4.865   6.380
 2938SOL    HW2 9714   4.598   4.707   6.422
 2939SOL     OW 9715   1.679   1.085   2.726
 2939SOL    HW1 9716   1.618   1.014   2.762
 2939SOL    HW2 9717   1.752   1.043   2.672
 2940SOL     OW 9718   5.177   5.103   5.877
 2940SOL    HW1 9719   5.198   5.077   5.972
 2940SOL    HW2 9720   5.112   5.179   5.877
 2941SOL     OW 9721   2.004   1.852   4.181
 2941SOL    HW1 9722   2.019   1.949   4.159
 2941SOL    HW2 9723   2.064   1.825   4.256
 2942SOL     OW 9724   2.641   2.376   0.505
 2942SOL    HW1 9725   2.735   2.364   0.537
 2942SOL    HW2 9726   2.585   2.414   0.579
 2943SOL     OW 9727   4.571   4.331   3.589
 2943SOL    HW1 9728   4.542   4.266   3.518
 2943SOL    HW2 9729   4.497   4.395   3.609
 2944SOL     OW 9730   3.019   6.162   4.653
 2944SOL    HW1 9731   3.108   6.136   4.616
 2944SOL    HW2 9732   2.982   6.239   4.601
 2945SOL     OW 9733   3.203   4.030   3.666
 2945SOL    HW1 9734   3.189   4.103   3.734
 2945SOL    HW2 9735   3.245   3.951   3.711
 2946SOL     OW 9736   0.969   4.720   5.998
 2946SOL    HW1 9737   1.034   4.647   6.020
 2946SOL    HW2 9738   0.888   4.711   6.055
 2947SOL     OW 9739   0.105   3.487   0.956
 2947SOL    HW1 9740   0.178   3.509   1.021
 2947SOL    HW2 9741   0.115   3.545   0.875
 2948SOL     OW 9742   0.746   4.332   5.499
 2948SOL    HW1 9743   0.829   4.381   5.474
 2948SOL    HW2 9744   0.748   4.310   5.597
 2949SOL     OW 9745   2.531   5.575   0.878
 2949SOL    HW1 9746   2.485   5.493   0.914
 2949SOL    HW2 9747   2.464   5.635   0.836
 2950SOL     OW 9748   5.580   4.484   4.321
 2950SOL    HW1 9749   5.531   4.409   4.365
 2950SOL    HW2 9750   5.515   4.542   4.272
 2951SOL     OW 9751   6.065   0.692   0.583
 2951SOL    HW1 9752   6.150   0.744   0.573
 2951SOL    HW2 9753   6.034   0.697   0.678
 2952SOL     OW 9754   6.851   4.413   5.521
 2952SOL    HW1 9755   6.902   4.396   5.605
 2952SOL    HW2 9756   6.754   4.392   5.536
 2953SOL     OW 9757   4.892   3.104   2.186
 2953SOL    HW1 9758   4.800   3.065   2.187
 2953SOL    HW2 9759   4.886   3.202   2.205
 2954SOL     OW 9760   0.736   5.800   1.891
 2954SOL    HW1 9761   0.831   5.831   1.904
 2954SOL    HW2 9762   0.736   5.703   1.868
 2955SOL     OW 9763   0.739   3.988   2.126
 2955SOL    HW1 9764   0.764   3.916   2.061
 2955SOL    HW2 9765   0.707   4.068   2.076
 2956SOL     OW 9766   5.324   6.027   3.305
 2956SOL    HW1 9767   5.390   6.040   3.379
 2956SOL    HW2 9768   5.371   5.989   3.225
 2957SOL     OW 9769   5.971   3.450   1.697
 2957SOL    HW1 9770   6.021   3.467   1.782
 2957SOL    HW2 9771   6.028   3.396   1.635
 2958SOL     OW 9772   2.667   4.656   3.913
 2958SOL    HW1 9773   2.725   4.595   3.861
 2958SOL    HW2 9774   2.584   4.607   3.942
 2959SOL     OW 9775   4.664   4.296   0.234
 2959SOL    HW1 9776   4.684   4.337   0.323
 2959SOL    HW2 9777   4.566   4.281   0.225
 2960SOL     OW 9778   3.289   0.865   6.665
 2960SOL    HW1 9779   3.271   0.961   6.683
 2960SOL    HW2 9780   3.330   0.855   6.574
 2961SOL     OW 9781   5.206   3.746   2.628
 2961SOL    HW1 9782   5.108   3.761   2.615
 2961SOL    HW2 9783   5.224   3.725   2.725
 2962SOL     OW 9784   5.322   6.695   2.872
 2962SOL    HW1 9785   5.288   6.786   2.893
 2962SOL    HW2 9786   5.246   6.630   2.872
 2963SOL     OW 9787   2.209   0.528   5.958
 2963SOL    HW1 9788   2.177   0.622   5.973
 2963SOL    HW2 9789   2.267   0.500   6.035
 2964SOL     OW 9790   0.432   0.265   3.217
 2964SOL    HW1 9791   0.483   0.337   3.265
 2964SOL    HW2 9792   0.494   0.191   3.191
 2965SOL     OW 9793   7.004   1.553   4.163
 2965SOL    HW1 9794   6.930   1.514   4.108
 2965SOL    HW2 9795   0.008   1.492   4.240
 2966SOL     OW 9796   5.128   5.812   3.642
 2966SOL    HW1 9797   5.159   5.811   3.547
 2966SOL    HW2 9798   5.137   5.905   3.679
 2967SOL     OW 9799   6.527   0.671   4.967
 2967SOL    HW1 9800   6.588   0.680   4.888
 2967SOL    HW2 9801   6.565   0.603   5.029
 2968SOL     OW 9802   1.214   2.756   6.518
 2968SOL    HW1 9803   1.260   2.823   6.575
 2968SOL    HW2 9804   1.268   2.739   6.435
 2969SOL     OW 9805   4.770   1.444   4.087
 2969SOL    HW1 9806   4.804   1.435   4.181
 2969SOL    HW2 9807   4.818   1.379   4.029
 2970SOL     OW 9808   1.917   4.272   6.220
 2970SOL    HW1 9809   1.895   4.248   6.314
 2970SOL    HW2 9810   2.012   4.248   6.201
 2971SOL     OW 9811   5.064   4.324   0.184
 2971SOL    HW1 9812   5.010   4.382   0.124
 2971SOL    HW2 9813   5.149   4.298   0.139
 2972SOL     OW 9814   6.353   4.881   6.408
 2972SOL    HW1 9815   6.377   4.794   6.449
 2972SOL    HW2 9816   6.275   4.921   6.456
 2973SOL     OW 9817   5.655   6.636   2.638
 2973SOL    HW1 9818   5.639   6.594   2.548
 2973SOL    HW2 9819   5.579   6.697   2.660
 2974SOL     OW 9820   1.218   4.472   2.805
 2974SOL    HW1 9821   1.277   4.489   2.883
 2974SOL    HW2 9822   1.194   4.559   2.762
 2975SOL     OW 9823   5.337   3.473   4.223
 2975SOL    HW1 9824   5.429   3.469   4.262
 2975SOL    HW2 9825   5.325   3.561   4.175
 2976SOL     OW 9826   4.473   1.977   2.971
 2976SOL    HW1 9827   4.421   2.009   2.892
 2976SOL    HW2 9828   4.517   1.890   2.948
 2977SOL     OW 9829   2.601   6.676   2.602
 2977SOL    HW1 9830   2.571   6.678   2.507
 2977SOL    HW2 9831   2.700   6.660   2.606
 2978SOL     OW 9832   5.296   4.156   0.112
 2978SOL    HW1 9833   5.329   4.105   0.192
 2978SOL    HW2 9834   5.372   4.204   0.069
 2979SOL     OW 9835   3.701   0.735   3.954
 2979SOL    HW1 9836   3.733   0.722   4.048
 2979SOL    HW2 9837   3.601   0.730   3.952
 2980SOL     OW 9838   0.923   5.917   4.975
 2980SOL    HW1 9839   1.022   5.923   4.986
 2980SOL    HW2 9840   0.882   5.884   5.060
 2981SOL     OW 9841   2.323   1.358   5.813
 2981SOL    HW1 9842   2.243   1.414   5.837
 2981SOL    HW2 9843   2.312   1.323   5.720
 2982SOL     OW 9844   3.491   4.928   2.697
 2982SOL    HW1 9845   3.399   4.954   2.724
 2982SOL    HW2 9846   3.509   4.958   2.604
 2983SOL     OW 9847   0.483   1.599   2.589
 2983SOL    HW1 9848   0.463   1.526   2.655
 2983SOL    HW2 9849   0.521   1.560   2.506
 2984SOL     OW 9850   5.274   5.313   1.198
 2984SOL    HW1 9851   5.310   5.405   1.212
 2984SOL    HW2 9852   5.295   5.283   1.105
 2985SOL     OW 9853   1.774   2.709   5.529
 2985SOL    HW1 9854   1.745   2.802   5.507
 2985SOL    HW2 9855   1.736   2.645   5.461
 2986SOL     OW 9856   3.435   4.127   4.151
 2986SOL    HW1 9857   3.390   4.044   4.182
 2986SOL    HW2 9858   3.473   4.177   4.229
 2987SOL     OW 9859   6.300   1.644   4.396
 2987SOL    HW1 9860   6.242   1.670   4.474
 2987SOL    HW2 9861   6.348   1.559   4.417
 2988SOL     OW 9862   1.368   5.759   2.829
 2988SOL    HW1 9863   1.413   5.681   2.871
 2988SOL    HW2 9864   1.417   5.843   2.851
 2989SOL     OW 9865   6.216   5.857   6.175
 2989SOL    HW1 9866   6.311   5.833   6.155
 2989SOL    HW2 9867   6.199   5.848   6.274
 2990SOL     OW 9868   3.710   1.919   4.763
 2990SOL    HW1 9869   3.637   1.891   4.825
 2990SOL    HW2 9870   3.784   1.961   4.815
 2991SOL     OW 9871   6.707   4.326   5.153
 2991SOL    HW1 9872   6.784   4.370   5.199
 2991SOL    HW2 9873   6.728   4.229   5.140
 2992SOL     OW 9874   2.641   6.163   4.940
 2992SOL    HW1 9875   2.724   6.149   4.994
 2992SOL    HW2 9876   2.587   6.237   4.980
 2993SOL     OW 9877   0.439   4.876   1.790
 2993SOL    HW1 9878   0.534   4.898   1.767
 2993SOL    HW2 9879   0.423   4.778   1.780
 2994SOL     OW 9880   4.275   6.011   0.279
 2994SOL    HW1 9881   4.182   6.034   0.308
 2994SOL    HW2 9882   4.278   5.915   0.250
 2995SOL     OW 9883   3.031   2.102   5.989
 2995SOL    HW1 9884   3.090   2.059   6.058
 2995SOL    HW2 9885   2.979   2.031   5.941
 2996SOL     OW 9886   1.226   1.258   3.367
 2996SOL    HW1 9887   1.212   1.347   3.323
 2996SOL    HW2 9888   1.324   1.239   3.373
 2997SOL     OW 9889   6.104   0.257   2.736
 2997SOL    HW1 9890   6.038   0.186   2.760
 2997SOL    HW2 9891   6.122   0.314   2.817
 2998SOL     OW 9892   4.586   6.906   4.049
 2998SOL    HW1 9893   4.680   6.905   4.015
 2998SOL    HW2 9894   4.525   6.940   3.978
 2999SOL     OW 9895   2.688   5.104   5.059
 2999SOL    HW1 9896   2.747   5.172   5.102
 2999SOL    HW2 9897   2.675   5.027   5.120
 3000SOL     OW 9898   2.751   3.764   6.635
 3000SOL    HW1 9899   2.822   3.760   6.564
 3000SOL    HW2 9900   2.762   3.686   6.697
 3001SOL     OW 9901   5.196   0.011   6.281
 3001SOL    HW1 9902   5.215   0.101   6.241
 3001SOL    HW2 9903   5.270   6.964   6.258
 3002SOL     OW 9904   3.479   1.446   6.855
 3002SOL    HW1 9905   3.520   1.432   6.765
 3002SOL    HW2 9906   3.503   1.369   6.915
 3003SOL     OW 9907   1.751   6.955   0.325
 3003SOL    HW1 9908   1.710   6.992   0.242
 3003SOL    HW2 9909   1.850   6.970   0.323
 3004SOL     OW 9910   1.234   4.790   2.813
 3004SOL    HW1 9911   1.190   4.784   2.903
 3004SOL    HW2 9912   1.164   4.809   2.743
 3005SOL     OW 9913   2.828   2.091   0.565
 3005SOL    HW1 9914   2.796   2.050   0.479
 3005SOL    HW2 9915   2.926   2.109   0.558
 3006SOL     OW 9916   5.428   1.818   5.303
 3006SOL    HW1 9917   5.449   1.723   5.325
 3006SOL    HW2 9918   5.388   1.823   5.211
 3007SOL     OW 9919   5.279   4.855   1.019
 3007SOL    HW1 9920   5.300   4.923   0.949
 3007SOL    HW2 9921   5.328   4.877   1.103
 3008SOL     OW 9922   3.699   2.263   6.081
 3008SOL    HW1 9923   3.637   2.330   6.040
 3008SOL    HW2 9924   3.679   2.252   6.178
 3009SOL     OW 9925   0.382   1.865   2.543
 3009SOL    HW1 9926   0.438   1.782   2.537
 3009SOL    HW2 9927   0.430   1.934   2.597
 3010SOL     OW 9928   3.642   5.800   3.684
 3010SOL    HW1 9929   3.549   5.830   3.665
 3010SOL    HW2 9930   3.644   5.701   3.696
 3011SOL     OW 9931   6.396   1.398   2.223
 3011SOL    HW1 9932   6.389   1.317   2.164
 3011SOL    HW2 9933   6.340   1.471   2.185
 3012SOL     OW 9934   1.985   3.402   6.013
 3012SOL    HW1 9935   2.058   3.387   6.080
 3012SOL    HW2 9936   2.014   3.370   5.923
 3013SOL     OW 9937   5.911   5.817   4.487
 3013SOL    HW1 9938   5.950   5.903   4.519
 3013SOL    HW2 9939   5.866   5.831   4.399
 3014SOL     OW 9940   4.320   2.366   4.547
 3014SOL    HW1 9941   4.419   2.373   4.563
 3014SOL    HW2 9942   4.282   2.457   4.533
 3015SOL     OW 9943   3.494   1.653   0.546
 3015SOL    HW1 9944   3.457   1.574   0.497
 3015SOL    HW2 9945   3.419   1.709   0.580
 3016SOL     OW 9946   2.505   6.185   4.130
 3016SOL    HW1 9947   2.561   6.243   4.189
 3016SOL    HW2 9948   2.411   6.182   4.165
 3017SOL     OW 9949   6.389   4.878   2.216
 3017SOL    HW1 9950   6.451   4.869   2.293
 3017SOL    HW2 9951   6.344   4.790   2.200
 3018SOL     OW 9952   2.871   6.707   6.196
 3018SOL    HW1 9953   2.887   6.715   6.295
 3018SOL    HW2 9954   2.843   6.795   6.159
 3019SOL     OW 9955   0.995   0.238   6.825
 3019SOL    HW1 9956   0.942   0.313   6.785
 3019SOL    HW2 9957   1.080   0.275   6.864
 3020SOL     OW 9958   3.886   2.869   1.858
 3020SOL    HW1 9959   3.869   2.784   1.909
 3020SOL    HW2 9960   3.924   2.847   1.768
 3021SOL     OW 9961   3.109   0.065   6.590
 3021SOL    HW1 9962   3.127   6.986   6.616
 3021SOL    HW2 9963   3.040   0.104   6.652
 3022SOL     OW 9964   3.686   5.981   4.442
 3022SOL    HW1 9965   3.652   5.891   4.470
 3022SOL    HW2 9966   3.613   6.048   4.450
 3023SOL     OW 9967   3.628   0.057   2.728
 3023SOL    HW1 9968   3.567   6.996   2.711
 3023SOL    HW2 9969   3.696   0.032   2.797
 3024SOL     OW 9970   4.587   0.152   4.663
 3024SOL    HW1 9971   4.522   0.224   4.686
 3024SOL    HW2 9972   4.670   0.192   4.626
 3025SOL     OW 9973   3.152   0.441   0.162
 3025SOL    HW1 9974   3.200   0.483   0.086
 3025SOL    HW2 9975   3.183   0.482   0.248
 3026SOL     OW 9976   1.583   0.443   6.850
 3026SOL    HW1 9977   1.565   0.360   6.903
 3026SOL    HW2 9978   1.666   0.487   6.884
 3027SOL     OW 9979   3.850   0.759   2.990
 3027SOL    HW1 9980   3.863   0.669   3.031
 3027SOL    HW2 9981   3.819   0.748   2.895
 3028SOL     OW 9982   1.154   3.968   5.841
 3028SOL    HW1 9983   1.221   3.974   5.767
 3028SOL    HW2 9984   1.203   3.954   5.928
 3029SOL     OW 9985   6.819   2.538   5.276
 3029SOL    HW1 9986   6.787   2.443   5.271
 3029SOL    HW2 9987   6.857   2.565   5.188
 3030SOL     OW 9988   0.124   3.350   6.853
 3030SOL    HW1 9989   0.097   3.446   6.864
 3030SOL    HW2 9990   0.224   3.344   6.847
 3031SOL     OW 9991   0.565   4.078   0.328
 3031SOL    HW1 9992   0.546   3.981   0.344
 3031SOL    HW2 9993   0.601   4.119   0.411
 3032SOL     OW 9994   2.913   0.340   1.014
 3032SOL    HW1 9995   3.011   0.320   1.019
 3032SOL    HW2 9996   2.862   0.272   1.067
 3033SOL     OW 9997   6.430   2.143   1.598
 3033SOL    HW1 9998   6.381   2.071   1.549
 3033SOL    HW2 9999   6.528   2.120   1.600
 3034SOL     OW10000   2.009   5.853   2.893
 3034SOL    HW110001   2.017   5.847   2.992
 3034SOL    HW210002   1.914   5.840   2.866
 3035SOL     OW10003   0.125   3.056   6.919
 3035SOL    HW110004   0.035   3.064   6.962
 3035SOL    HW210005   0.148   3.142   6.874
 3036SOL     OW10006   1.907   1.175   6.439
 3036SOL    HW110007   1.810   1.170   6.418
 3036SOL    HW210008   1.926   1.125   6.524
 3037SOL     OW10009   6.343   6.136   5.378
 3037SOL    HW110010   6.291   6.065   5.426
 3037SOL    HW210011   6.434   6.102   5.357
 3038SOL     OW10012   5.214   6.081   5.898
 3038SOL    HW110013   5.183   6.102   5.991
 3038SOL    HW210014   5.228   5.983   5.888
 3039SOL     OW10015   6.612   3.440   0.299
 3039SOL    HW110016   6.535   3.470   0.356
 3039SOL    HW210017   6.666   3.372   0.350
 3040SOL     OW10018   3.839   4.215   6.133
 3040SOL    HW110019   3.741   4.228   6.119
 3040SOL    HW210020   3.885   4.204   6.045
 3041SOL     OW10021   2.333   2.710   4.407
 3041SOL    HW110022   2.378   2.642   4.350
 3041SOL    HW210023   2.241   2.727   4.372
 3042SOL     OW10024   4.825   5.784   2.120
 3042SOL    HW110025   4.742   5.787   2.176
 3042SOL    HW210026   4.901   5.826   2.171
 3043SOL     OW10027   2.488   4.595   1.682
 3043SOL    HW110028   2.390   4.601   1.665
 3043SOL    HW210029   2.506   4.615   1.778
 3044SOL     OW10030   3.671   4.133   5.820
 3044SOL    HW110031   3.671   4.233   5.823
 3044SOL    HW210032   3.646   4.103   5.727
 3045SOL     OW10033   4.492   0.419   2.813
 3045SOL    HW110034   4.411   0.369   2.782
 3045SOL    HW210035   4.554   0.357   2.861
 3046SOL     OW10036   2.597   0.758   6.283
 3046SOL    HW110037   2.527   0.725   6.346
 3046SOL    HW210038   2.584   0.857   6.269
 3047SOL     OW10039   6.597   0.429   2.036
 3047SOL    HW110040   6.626   0.487   1.959
 3047SOL    HW210041   6.589   0.485   2.118
 3048SOL     OW10042   3.928   2.370   1.746
 3048SOL    HW110043   3.841   2.369   1.797
 3048SOL    HW210044   3.954   2.276   1.723
 3049SOL     OW10045   1.722   6.562   2.557
 3049SOL    HW110046   1.650   6.626   2.583
 3049SOL    HW210047   1.759   6.588   2.468
 3050SOL     OW10048   3.114   1.274   1.655
 3050SOL    HW110049   3.016   1.255   1.650
 3050SOL    HW210050   3.165   1.187   1.657
 3051SOL     OW10051   2.255   4.437   0.082
 3051SOL    HW110052   2.295   4.500   0.014
 3051SOL    HW210053   2.167   4.405   0.048
 3052SOL     OW10054   4.883   6.394   1.824
 3052SOL    HW110055   4.849   6.366   1.913
 3052SOL    HW210056   4.853   6.487   1.804
 3053SOL     OW10057   6.803   1.819   6.931
 3053SOL    HW110058   6.711   1.792   6.902
 3053SOL    HW210059   6.859   1.737   6.945
 3054SOL     OW10060   6.803   1.696   0.655
 3054SOL    HW110061   6.762   1.772   0.606
 3054SOL    HW210062   6.885   1.665   0.607
 3055SOL     OW10063   5.135   0.500   4.127
 3055SOL    HW110064   5.077   0.575   4.162
 3055SOL    HW210065   5.221   0.538   4.093
 3056SOL     OW10066   6.403   0.230   4.609
 3056SOL    HW110067   6.475   0.214   4.676
 3056SOL    HW210068   6.387   0.146   4.557
 3057SOL     OW10069   4.169   6.111   2.347
 3057SOL    HW110070   4.222   6.028   2.365
 3057SOL    HW210071   4.192   6.180   2.416
 3058SOL     OW10072   0.227   4.564   1.953
 3058SOL    HW110073   0.269   4.558   1.863
 3058SOL    HW210074   0.151   4.499   1.959
 3059SOL     OW10075   2.898   2.192   4.260
 3059SOL    HW110076   2.856   2.149   4.340
 3059SOL    HW210077   2.866   2.146   4.177
 3060SOL     OW10078   1.041   5.410   0.362
 3060SOL    HW110079   0.999   5.450   0.444
 3060SOL    HW210080   1.045   5.480   0.290
 3061SOL     OW10081   0.082   6.781   4.913
 3061SOL    HW110082   0.079   6.783   4.813
 3061SOL    HW210083   7.007   6.798   4.950
 3062SOL     OW10084   2.032   0.281   0.802
 3062SOL    HW110085   1.955   0.243   0.750
 3062SOL    HW210086   2.118   0.252   0.760
 3063SOL     OW10087   2.478   4.909   1.861
 3063SOL    HW110088   2.560   4.854   1.877
 3063SOL    HW210089   2.396   4.854   1.877
 3064SOL     OW10090   5.514   4.230   2.305
 3064SOL    HW110091   5.514   4.135   2.277
 3064SOL    HW210092   5.538   4.236   2.402
 3065SOL     OW10093   2.220   0.828   0.523
 3065SOL    HW110094   2.153   0.827   0.598
 3065SOL    HW210095   2.299   0.882   0.551
 3066SOL     OW10096   4.805   5.583   1.143
 3066SOL    HW110097   4.733   5.618   1.083
 3066SOL    HW210098   4.823   5.649   1.216
 3067SOL     OW10099   3.146   2.008   5.473
 3067SOL    HW110100   3.155   1.908   5.465
 3067SOL    HW210101   3.145   2.049   5.382
 3068SOL     OW10102   6.821   0.030   0.583
 3068SOL    HW110103   6.781   6.979   0.520
 3068SOL    HW210104   6.827   7.006   0.675
 3069SOL     OW10105   6.786   6.152   1.817
 3069SOL    HW110106   6.850   6.224   1.845
 3069SOL    HW210107   6.706   6.153   1.877
 3070SOL     OW10108   2.776   1.588   0.049
 3070SOL    HW110109   2.684   1.562   0.079
 3070SOL    HW210110   2.844   1.534   0.098
 3071SOL     OW10111   6.160   5.970   3.347
 3071SOL    HW110112   6.199   5.902   3.286
 3071SOL    HW210113   6.091   5.928   3.405
 3072SOL     OW10114   1.885   5.977   6.578
 3072SOL    HW110115   1.896   5.940   6.670
 3072SOL    HW210116   1.957   5.942   6.519
 3073SOL     OW10117   5.729   2.911   4.259
 3073SOL    HW110118   5.667   2.870   4.192
 3073SOL    HW210119   5.795   2.970   4.212
 3074SOL     OW10120   5.762   4.234   0.543
 3074SOL    HW110121   5.762   4.305   0.473
 3074SOL    HW210122   5.675   4.183   0.540
 3075SOL     OW10123   2.720   6.373   1.459
 3075SOL    HW110124   2.721   6.472   1.474
 3075SOL    HW210125   2.636   6.348   1.410
 3076SOL     OW10126   6.735   0.479   4.325
 3076SOL    HW110127   6.645   0.523   4.321
 3076SOL    HW210128   6.749   0.441   4.417
 3077SOL     OW10129   5.453   5.599   1.737
 3077SOL    HW110130   5.367   5.648   1.753
 3077SOL    HW210131   5.440   5.534   1.662
 3078SOL     OW10132   6.796   2.815   2.673
 3078SOL    HW110133   6.880   2.765   2.694
 3078SOL    HW210134   6.717   2.762   2.704
 3079SOL     OW10135   2.407   2.651   2.860
 3079SOL    HW110136   2.448   2.606   2.781
 3079SOL    HW210137   2.373   2.582   2.923
 3080SOL     OW10138   4.743   4.390   2.747
 3080SOL    HW110139   4.736   4.385   2.647
 3080SOL    HW210140   4.749   4.298   2.785
 3081SOL     OW10141   0.842   2.835   4.951
 3081SOL    HW110142   0.898   2.806   4.873
 3081SOL    HW210143   0.853   2.933   4.966
 3082SOL     OW10144   3.086   6.509   4.062
 3082SOL    HW110145   3.017   6.580   4.048
 3082SOL    HW210146   3.059   6.452   4.140
 3083SOL     OW10147   3.223   6.023   4.361
 3083SOL    HW110148   3.278   6.102   4.332
 3083SOL    HW210149   3.248   5.998   4.455
 3084SOL     OW10150   6.772   3.953   4.828
 3084SOL    HW110151   6.776   4.049   4.804
 3084SOL    HW210152   6.787   3.942   4.927
 3085SOL     OW10153   6.321   4.722   0.718
 3085SOL    HW110154   6.234   4.688   0.683
 3085SOL    HW210155   6.306   4.803   0.774
 3086SOL     OW10156   4.905   1.369   0.995
 3086SOL    HW110157   4.987   1.422   1.017
 3086SOL    HW210158   4.901   1.289   1.055
 3087SOL     OW10159   0.886   5.368   4.038
 3087SOL    HW110160   0.859   5.436   3.970
 3087SOL    HW210161   0.937   5.295   3.995
 3088SOL     OW10162   1.877   5.245   4.913
 3088SOL    HW110163   1.947   5.283   4.852
 3088SOL    HW210164   1.895   5.274   5.007
 3089SOL     OW10165   1.540   3.133   6.451
 3089SOL    HW110166   1.450   3.091   6.445
 3089SOL    HW210167   1.603   3.071   6.499
 3090SOL     OW10168   2.340   2.363   1.439
 3090SOL    HW110169   2.433   2.355   1.474
 3090SOL    HW210170   2.279   2.396   1.512
 3091SOL     OW10171   1.377   0.329   1.440
 3091SOL    HW110172   1.316   0.383   1.382
 3091SOL    HW210173   1.355   0.345   1.536
 3092SOL     OW10174   4.998   1.097   0.561
 3092SOL    HW110175   5.057   1.176   0.545
 3092SOL    HW210176   5.047   1.014   0.533
 3093SOL     OW10177   5.545   6.165   5.896
 3093SOL    HW110178   5.475   6.127   5.836
 3093SOL    HW210179   5.542   6.264   5.893
 3094SOL     OW10180   1.813   6.800   4.553
 3094SOL    HW110181   1.824   6.877   4.615
 3094SOL    HW210182   1.875   6.809   4.475
 3095SOL     OW10183   2.451   5.148   5.409
 3095SOL    HW110184   2.539   5.113   5.378
 3095SOL    HW210185   2.455   5.248   5.414
 3096SOL     OW10186   1.715   5.889   5.329
 3096SOL    HW110187   1.698   5.841   5.243
 3096SOL    HW210188   1.752   5.980   5.309
 3097SOL     OW10189   6.202   2.221   0.333
 3097SOL    HW110190   6.145   2.187   0.258
 3097SOL    HW210191   6.161   2.194   0.420
 3098SOL     OW10192   2.313   2.930   1.566
 3098SOL    HW110193   2.254   2.856   1.532
 3098SOL    HW210194   2.317   3.004   1.499
 3099SOL     OW10195   0.819   0.004   3.722
 3099SOL    HW110196   0.848   6.934   3.765
 3099SOL    HW210197   0.867   0.081   3.764
 3100SOL     OW10198   6.790   5.674   4.096
 3100SOL    HW110199   6.748   5.727   4.022
 3100SOL    HW210200   6.727   5.669   4.173
 3101SOL     OW10201   5.606   6.812   6.759
 3101SOL    HW110202   5.684   6.797   6.820
 3101SOL    HW210203   5.608   6.906   6.725
 3102SOL     OW10204   6.544   4.989   1.985
 3102SOL    HW110205   6.496   5.059   1.933
 3102SOL    HW210206   6.506   4.983   2.077
 3103SOL     OW10207   4.367   0.653   2.378
 3103SOL    HW110208   4.356   0.747   2.347
 3103SOL    HW210209   4.344   0.647   2.475
 3104SOL     OW10210   5.000   0.710   4.796
 3104SOL    HW110211   4.985   0.768   4.716
 3104SOL    HW210212   5.055   0.631   4.769
 3105SOL     OW10213   6.296   4.628   1.212
 3105SOL    HW110214   6.272   4.551   1.271
 3105SOL    HW210215   6.224   4.639   1.142
 3106SOL     OW10216   5.775   0.992   3.429
 3106SOL    HW110217   5.834   0.964   3.504
 3106SOL    HW210218   5.697   1.043   3.466
 3107SOL     OW10219   4.438   1.324   4.768
 3107SOL    HW110220   4.503   1.290   4.701
 3107SOL    HW210221   4.488   1.360   4.847
 3108SOL     OW10222   1.349   6.352   3.971
 3108SOL    HW110223   1.399   6.281   3.922
 3108SOL    HW210224   1.254   6.354   3.940
 3109SOL     OW10225   5.849   6.135   2.987
 3109SOL    HW110226   5.769   6.169   3.038
 3109SOL    HW210227   5.844   6.167   2.893
 3110SOL     OW10228   1.141   2.441   2.318
 3110SOL    HW110229   1.181   2.521   2.274
 3110SOL    HW210230   1.044   2.458   2.336
 3111SOL     OW10231   6.527   5.493   3.758
 3111SOL    HW110232   6.506   5.548   3.677
 3111SOL    HW210233   6.480   5.532   3.837
 3112SOL     OW10234   4.381   2.853   6.931
 3112SOL    HW110235   4.323   2.930   6.955
 3112SOL    HW210236   4.350   2.812   6.845
 3113SOL     OW10237   2.654   5.788   3.812
 3113SOL    HW110238   2.731   5.821   3.867
 3113SOL    HW210239   2.618   5.864   3.757
 3114SOL     OW10240   4.483   1.819   1.111
 3114SOL    HW110241   4.459   1.735   1.161
 3114SOL    HW210242   4.436   1.897   1.153
 3115SOL     OW10243   3.861   3.576   6.619
 3115SOL    HW110244   3.774   3.614   6.587
 3115SOL    HW210245   3.902   3.521   6.546
 3116SOL     OW10246   0.482   2.849   6.843
 3116SOL    HW110247   0.562   2.909   6.839
 3116SOL    HW210248   0.417   2.885   6.910
 3117SOL     OW10249   4.435   3.534   5.279
 3117SOL    HW110250   4.458   3.439   5.303
 3117SOL    HW210251   4.501   3.568   5.213
 3118SOL     OW10252   0.979   5.353   2.382
 3118SOL    HW110253   0.942   5.439   2.347
 3118SOL    HW210254   0.912   5.280   2.367
 3119SOL     OW10255   2.319   3.366   6.056
 3119SOL    HW110256   2.301   3.269   6.039
 3119SOL    HW210257   2.403   3.375   6.110
 3120SOL     OW10258   3.448   0.213   4.848
 3120SOL    HW110259   3.501   0.222   4.933
 3120SOL    HW210260   3.353   0.240   4.865
 3121SOL     OW10261   0.240   0.726   3.706
 3121SOL    HW110262   0.247   0.794   3.633
 3121SOL    HW210263   0.168   0.753   3.770
 3122SOL     OW10264   4.217   6.446   6.422
 3122SOL    HW110265   4.208   6.353   6.385
 3122SOL    HW210266   4.128   6.492   6.418
 3123SOL     OW10267   2.818   1.817   3.432
 3123SOL    HW110268   2.818   1.879   3.510
 3123SOL    HW210269   2.826   1.870   3.347
 3124SOL     OW10270   4.248   6.987   4.314
 3124SOL    HW110271   4.333   0.016   4.342
 3124SOL    HW210272   4.215   6.929   4.388
 3125SOL     OW10273   0.154   2.278   5.212
 3125SOL    HW110274   0.115   2.206   5.269
 3125SOL    HW210275   0.098   2.290   5.130
 3126SOL     OW10276   5.822   4.572   5.308
 3126SOL    HW110277   5.831   4.543   5.404
 3126SOL    HW210278   5.730   4.552   5.275
 3127SOL     OW10279   1.437   3.502   5.164
 3127SOL    HW110280   1.526   3.458   5.180
 3127SOL    HW210281   1.443   3.598   5.193
 3128SOL     OW10282   2.510   0.551   6.077
 3128SOL    HW110283   2.519   0.613   6.154
 3128SOL    HW210284   2.540   0.460   6.104
 3129SOL     OW10285   5.785   3.864   6.417
 3129SOL    HW110286   5.782   3.955   6.457
 3129SOL    HW210287   5.840   3.804   6.475
 3130SOL     OW10288   1.487   3.903   1.187
 3130SOL    HW110289   1.546   3.855   1.123
 3130SOL    HW210290   1.494   4.002   1.171
 3131SOL     OW10291   0.540   2.692   1.434
 3131SOL    HW110292   0.482   2.614   1.409
 3131SOL    HW210293   0.609   2.706   1.363
 3132SOL     OW10294   3.702   5.631   6.267
 3132SOL    HW110295   3.730   5.637   6.363
 3132SOL    HW210296   3.730   5.714   6.219
 3133SOL     OW10297   3.773   1.571   3.602
 3133SOL    HW110298   3.735   1.663   3.593
 3133SOL    HW210299   3.802   1.556   3.696
 3134SOL     OW10300   4.707   4.091   1.746
 3134SOL    HW110301   4.635   4.152   1.780
 3134SOL    HW210302   4.666   4.020   1.688
 3135SOL     OW10303   4.523   1.130   5.643
 3135SOL    HW110304   4.496   1.224   5.624
 3135SOL    HW210305   4.614   1.129   5.684
 3136SOL     OW10306   5.304   0.964   1.304
 3136SOL    HW110307   5.380   0.972   1.368
 3136SOL    HW210308   5.275   1.055   1.275
 3137SOL     OW10309   6.650   0.324   2.530
 3137SOL    HW110310   6.647   0.282   2.621
 3137SOL    HW210311   6.727   0.288   2.479
 3138SOL     OW10312   5.900   4.179   3.774
 3138SOL    HW110313   5.922   4.082   3.779
 3138SOL    HW210314   5.981   4.229   3.741
 3139SOL     OW10315   5.265   6.490   0.532
 3139SOL    HW110316   5.218   6.436   0.601
 3139SOL    HW210317   5.250   6.450   0.442
 3140SOL     OW10318   6.828   0.064   6.986
 3140SOL    HW110319   6.801   0.148   6.937
 3140SOL    HW210320   6.793   7.000   6.937
 3141SOL     OW10321   0.516   6.170   6.148
 3141SOL    HW110322   0.502   6.261   6.188
 3141SOL    HW210323   0.614   6.154   6.136
 3142SOL     OW10324   3.935   6.423   2.123
 3142SOL    HW110325   3.960   6.486   2.049
 3142SOL    HW210326   3.948   6.468   2.211
 3143SOL     OW10327   6.559   1.679   6.856
 3143SOL    HW110328   6.604   1.594   6.827
 3143SOL    HW210329   6.466   1.681   6.819
 3144SOL     OW10330   4.027   4.064   1.687
 3144SOL    HW110331   4.074   4.149   1.711
 3144SOL    HW210332   3.930   4.073   1.710
 3145SOL     OW10333   1.863   5.780   0.985
 3145SOL    HW110334   1.852   5.738   0.895
 3145SOL    HW210335   1.960   5.788   1.007
 3146SOL     OW10336   1.736   0.278   3.843
 3146SOL    HW110337   1.732   0.365   3.893
 3146SOL    HW210338   1.672   0.214   3.885
 3147SOL     OW10339   3.194   5.387   1.278
 3147SOL    HW110340   3.201   5.324   1.200
 3147SOL    HW210341   3.234   5.475   1.253
 3148SOL     OW10342   5.845   6.013   4.992
 3148SOL    HW110343   5.918   6.081   4.981
 3148SOL    HW210344   5.882   5.931   5.035
 3149SOL     OW10345   2.272   1.059   5.437
 3149SOL    HW110346   2.195   1.018   5.388
 3149SOL    HW210347   2.306   0.994   5.505
 3150SOL     OW10348   6.003   5.363   4.185
 3150SOL    HW110349   5.911   5.334   4.211
 3150SOL    HW210350   5.999   5.414   4.099
 3151SOL     OW10351   5.766   1.718   5.591
 3151SOL    HW110352   5.675   1.688   5.620
 3151SOL    HW210353   5.815   1.642   5.549
 3152SOL     OW10354   1.317   5.478   0.717
 3152SOL    HW110355   1.373   5.421   0.777
 3152SOL    HW210356   1.315   5.438   0.625
 3153SOL     OW10357   5.850   4.766   1.333
 3153SOL    HW110358   5.787   4.831   1.375
 3153SOL    HW210359   5.918   4.815   1.279
 3154SOL     OW10360   5.890   1.207   6.369
 3154SOL    HW110361   5.864   1.292   6.417
 3154SOL    HW210362   5.840   1.130   6.409
 3155SOL     OW10363   6.396   4.984   0.432
 3155SOL    HW110364   6.305   4.947   0.413
 3155SOL    HW210365   6.401   5.078   0.399
 3156SOL     OW10366   2.910   3.316   3.183
 3156SOL    HW110367   2.992   3.333   3.238
 3156SOL    HW210368   2.890   3.396   3.127
 3157SOL     OW10369   2.640   1.785   4.661
 3157SOL    HW110370   2.645   1.855   4.732
 3157SOL    HW210371   2.645   1.829   4.571
 3158SOL     OW10372   4.599   0.807   3.355
 3158SOL    HW110373   4.652   0.883   3.393
 3158SOL    HW210374   4.661   0.735   3.325
 3159SOL     OW10375   5.499   1.463   6.825
 3159SOL    HW110376   5.419   1.406   6.845
 3159SOL    HW210377   5.501   1.542   6.886
 3160SOL     OW10378   0.297   6.294   5.710
 3160SOL    HW110379   0.315   6.226   5.781
 3160SOL    HW210380   0.244   6.253   5.636
 3161SOL     OW10381   2.008   1.986   3.188
 3161SOL    HW110382   1.949   1.907   3.172
 3161SOL    HW210383   1.992   2.022   3.279
 3162SOL     OW10384   1.423   6.686   2.136
 3162SOL    HW110385   1.449   6.671   2.231
 3162SOL    HW210386   1.460   6.613   2.079
 3163SOL     OW10387   4.354   2.746   5.935
 3163SOL    HW110388   4.296   2.668   5.958
 3163SOL    HW210389   4.296   2.823   5.907
 3164SOL     OW10390   4.561   4.802   0.881
 3164SOL    HW110391   4.513   4.730   0.830
 3164SOL    HW210392   4.500   4.840   0.950
 3165SOL     OW10393   0.437   6.254   1.060
 3165SOL    HW110394   0.464   6.350   1.059
 3165SOL    HW210395   0.346   6.244   1.099
 3166SOL     OW10396   4.426   1.880   4.534
 3166SOL    HW110397   4.432   1.976   4.561
 3166SOL    HW210398   4.474   1.823   4.601
 3167SOL     OW10399   6.337   4.097   0.728
 3167SOL    HW110400   6.317   3.999   0.735
 3167SOL    HW210401   6.376   4.129   0.814
 3168SOL     OW10402   4.311   2.448   6.677
 3168SOL    HW110403   4.255   2.531   6.674
 3168SOL    HW210404   4.266   2.380   6.735
 3169SOL     OW10405   2.141   4.002   4.683
 3169SOL    HW110406   2.047   4.030   4.704
 3169SOL    HW210407   2.170   3.930   4.746
 3170SOL     OW10408   4.042   0.118   1.459
 3170SOL    HW110409   4.092   0.204   1.470
 3170SOL    HW210410   4.066   0.077   1.371
 3171SOL     OW10411   0.467   0.185   1.409
 3171SOL    HW110412   0.380   0.160   1.450
 3171SOL    HW210413   0.464   0.165   1.311
 3172SOL     OW10414   0.127   4.973   0.271
 3172SOL    HW110415   0.091   4.948   0.181
 3172SOL    HW210416   0.227   4.973   0.270
 3173SOL     OW10417   2.880   2.248   0.314
 3173SOL    HW110418   2.868   2.311   0.237
 3173SOL    HW210419   2.812   2.268   0.384
 3174SOL     OW10420   3.194   2.841   6.737
 3174SOL    HW110421   3.221   2.909   6.669
 3174SOL    HW210422   3.274   2.790   6.768
 3175SOL     OW10423   0.145   0.778   0.763
 3175SOL    HW110424   0.191   0.710   0.706
 3175SOL    HW210425   0.177   0.768   0.857
 3176SOL     OW10426   1.290   4.879   4.732
 3176SOL    HW110427   1.257   4.802   4.678
 3176SOL    HW210428   1.374   4.853   4.779
 3177SOL     OW10429   4.814   3.972   4.015
 3177SOL    HW110430   4.886   4.036   4.042
 3177SOL    HW210431   4.854   3.893   3.970
 3178SOL     OW10432   6.144   2.120   0.591
 3178SOL    HW110433   6.062   2.083   0.547
 3178SOL    HW210434   6.118   2.169   0.674
 3179SOL     OW10435   1.161   3.222   2.008
 3179SOL    HW110436   1.093   3.245   2.077
 3179SOL    HW210437   1.212   3.141   2.038
 3180SOL     OW10438   4.369   1.105   6.992
 3180SOL    HW110439   4.334   1.141   0.062
 3180SOL    HW210440   4.462   1.070   7.006
 3181SOL     OW10441   6.790   1.573   3.069
 3181SOL    HW110442   6.864   1.583   3.002
 3181SOL    HW210443   6.781   1.657   3.121
 3182SOL     OW10444   3.065   1.280   5.539
 3182SOL    HW110445   3.107   1.258   5.626
 3182SOL    HW210446   3.136   1.299   5.471
 3183SOL     OW10447   4.364   4.480   1.850
 3183SOL    HW110448   4.404   4.389   1.835
 3183SOL    HW210449   4.403   4.520   1.933
 3184SOL     OW10450   0.885   2.619   2.296
 3184SOL    HW110451   0.812   2.647   2.359
 3184SOL    HW210452   0.857   2.642   2.202
 3185SOL     OW10453   6.226   5.732   6.985
 3185SOL    HW110454   6.145   5.739   6.926
 3185SOL    HW210455   6.252   5.635   6.993
 3186SOL     OW10456   3.777   1.546   1.923
 3186SOL    HW110457   3.705   1.583   1.982
 3186SOL    HW210458   3.758   1.449   1.905
 3187SOL     OW10459   4.381   4.234   0.171
 3187SOL    HW110460   4.318   4.172   0.124
 3187SOL    HW210461   4.395   4.203   0.265
 3188SOL     OW10462   2.611   0.630   4.596
 3188SOL    HW110463   2.646   0.627   4.690
 3188SOL    HW210464   2.588   0.538   4.565
 3189SOL     OW10465   1.257   1.770   1.773
 3189SOL    HW110466   1.270   1.687   1.720
 3189SOL    HW210467   1.229   1.844   1.712
 3190SOL     OW10468   7.004   6.493   0.643
 3190SOL    HW110469   6.997   6.395   0.627
 3190SOL    HW210470   0.071   6.529   0.600
 3191SOL     OW10471   4.930   0.249   0.827
 3191SOL    HW110472   4.844   0.299   0.820
 3191SOL    HW210473   4.948   0.202   0.740
 3192SOL     OW10474   0.290   2.626   1.141
 3192SOL    HW110475   0.331   2.581   1.220
 3192SOL    HW210476   0.291   2.725   1.155
 3193SOL     OW10477   3.920   1.470   6.638
 3193SOL    HW110478   3.898   1.433   6.548
 3193SOL    HW210479   3.851   1.538   6.664
 3194SOL     OW10480   1.642   2.948   6.001
 3194SOL    HW110481   1.681   2.858   5.987
 3194SOL    HW210482   1.674   2.986   6.088
 3195SOL     OW10483   2.620   2.527   3.137
 3195SOL    HW110484   2.665   2.446   3.176
 3195SOL    HW210485   2.622   2.521   3.037
 3196SOL     OW10486   0.659   1.308   5.626
 3196SOL    HW110487   0.592   1.338   5.558
 3196SOL    HW210488   0.653   1.366   5.707
 3197SOL     OW10489   1.886   6.205   3.603
 3197SOL    HW110490   1.836   6.273   3.657
 3197SOL    HW210491   1.944   6.252   3.536
 3198SOL     OW10492   5.727   2.327   5.476
 3198SOL    HW110493   5.786   2.406   5.490
 3198SOL    HW210494   5.752   2.283   5.390
 3199SOL     OW10495   4.756   2.810   2.204
 3199SOL    HW110496   4.723   2.716   2.190
 3199SOL    HW210497   4.727   2.867   2.128
 3200SOL     OW10498   0.249   2.961   1.813
 3200SOL    HW110499   0.209   2.967   1.722
 3200SOL    HW210500   0.344   2.992   1.811
 3201SOL     OW10501   5.205   4.658   4.338
 3201SOL    HW110502   5.294   4.689   4.370
 3201SOL    HW210503   5.134   4.689   4.402
 3202SOL     OW10504   0.835   4.638   1.908
 3202SOL    HW110505   0.808   4.543   1.890
 3202SOL    HW210506   0.849   4.685   1.821
 3203SOL     OW10507   6.374   2.332   6.397
 3203SOL    HW110508   6.410   2.340   6.304
 3203SOL    HW210509   6.387   2.418   6.446
 3204SOL     OW10510   4.659   5.950   1.472
 3204SOL    HW110511   4.640   6.036   1.519
 3204SOL    HW210512   4.603   5.944   1.389
 3205SOL     OW10513   6.963   3.191   6.722
 3205SOL    HW110514   6.889   3.229   6.667
 3205SOL    HW210515   6.987   3.255   6.795
 3206SOL     OW10516   0.408   6.563   6.087
 3206SOL    HW110517   0.313   6.576   6.115
 3206SOL    HW210518   0.410   6.530   5.993
 3207SOL     OW10519   1.135   0.723   5.733
 3207SOL    HW110520   1.069   0.770   5.675
 3207SOL    HW210521   1.186   0.790   5.787
 3208SOL     OW10522   4.755   6.705   5.401
 3208SOL    HW110523   4.769   6.695   5.303
 3208SOL    HW210524   4.837   6.745   5.442
 3209SOL     OW10525   4.131   5.170   2.694
 3209SOL    HW110526   4.135   5.270   2.688
 3209SOL    HW210527   4.199   5.138   2.759
 3210SOL     OW10528   0.892   4.157   1.341
 3210SOL    HW110529   0.943   4.070   1.337
 3210SOL    HW210530   0.830   4.163   1.262
 3211SOL     OW10531   1.852   3.285   1.371
 3211SOL    HW110532   1.853   3.381   1.396
 3211SOL    HW210533   1.815   3.275   1.278
 3212SOL     OW10534   2.886   0.578   0.429
 3212SOL    HW110535   2.985   0.573   0.430
 3212SOL    HW210536   2.854   0.633   0.506
 3213SOL     OW10537   0.067   6.006   2.237
 3213SOL    HW110538   0.082   5.907   2.233
 3213SOL    HW210539   6.985   6.025   2.232
 3214SOL     OW10540   5.080   5.643   0.810
 3214SOL    HW110541   5.032   5.654   0.723
 3214SOL    HW210542   5.133   5.558   0.808
 3215SOL     OW10543   0.718   3.015   0.803
 3215SOL    HW110544   0.711   3.101   0.854
 3215SOL    HW210545   0.629   2.991   0.765
 3216SOL     OW10546   5.653   5.172   1.211
 3216SOL    HW110547   5.573   5.113   1.204
 3216SOL    HW210548   5.625   5.267   1.222
 3217SOL     OW10549   0.042   5.665   2.817
 3217SOL    HW110550   6.971   5.617   2.801
 3217SOL    HW210551   0.024   5.759   2.847
 3218SOL     OW10552   4.381   0.222   3.949
 3218SOL    HW110553   4.381   0.123   3.933
 3218SOL    HW210554   4.290   0.259   3.930
 3219SOL     OW10555   0.201   2.291   3.007
 3219SOL    HW110556   0.278   2.300   2.943
 3219SOL    HW210557   0.229   2.234   3.085
 3220SOL     OW10558   6.839   5.865   5.797
 3220SOL    HW110559   6.829   5.791   5.863
 3220SOL    HW210560   6.923   5.853   5.745
 3221SOL     OW10561   3.482   6.982   1.689
 3221SOL    HW110562   3.424   0.026   1.634
 3221SOL    HW210563   3.546   0.022   1.742
 3222SOL     OW10564   4.256   1.665   2.663
 3222SOL    HW110565   4.204   1.666   2.578
 3222SOL    HW210566   4.198   1.697   2.738
 3223SOL     OW10567   2.175   5.711   6.577
 3223SOL    HW110568   2.094   5.653   6.575
 3223SOL    HW210569   2.206   5.721   6.672
 3224SOL     OW10570   4.340   3.502   6.927
 3224SOL    HW110571   4.372   3.509   0.005
 3224SOL    HW210572   4.353   3.590   6.880
 3225SOL     OW10573   4.442   3.612   6.164
 3225SOL    HW110574   4.474   3.702   6.134
 3225SOL    HW210575   4.414   3.558   6.084
 3226SOL     OW10576   1.759   1.778   4.310
 3226SOL    HW110577   1.764   1.829   4.397
 3226SOL    HW210578   1.844   1.792   4.259
 3227SOL     OW10579   3.478   1.715   6.983
 3227SOL    HW110580   3.405   1.775   6.950
 3227SOL    HW210581   3.469   1.626   6.940
 3228SOL     OW10582   5.776   4.555   2.717
 3228SOL    HW110583   5.742   4.597   2.801
 3228SOL    HW210584   5.702   4.551   2.649
 3229SOL     OW10585   3.466   1.629   5.606
 3229SOL    HW110586   3.562   1.640   5.633
 3229SOL    HW210587   3.461   1.587   5.516
 3230SOL     OW10588   1.820   3.467   3.914
 3230SOL    HW110589   1.894   3.505   3.858
 3230SOL    HW210590   1.833   3.368   3.924
 3231SOL     OW10591   2.748   0.611   1.791
 3231SOL    HW110592   2.669   0.573   1.741
 3231SOL    HW210593   2.731   0.708   1.810
 3232SOL     OW10594   3.943   4.972   5.057
 3232SOL    HW110595   4.004   5.001   4.983
 3232SOL    HW210596   3.892   5.050   5.091
 3233SOL     OW10597   0.907   2.534   1.665
 3233SOL    HW110598   0.978   2.580   1.613
 3233SOL    HW210599   0.828   2.594   1.675
 3234SOL     OW10600   0.041   1.629   0.169
 3234SOL    HW110601   0.107   1.704   0.174
 3234SOL    HW210602   0.078   1.556   0.113
 3235SOL     OW10603   4.886   0.804   1.327
 3235SOL    HW110604   4.852   0.897   1.341
 3235SOL    HW210605   4.817   0.750   1.279
 3236SOL     OW10606   1.284   3.157   0.570
 3236SOL    HW110607   1.261   3.169   0.667
 3236SOL    HW210608   1.232   3.223   0.515
 3237SOL     OW10609   5.314   1.444   3.893
 3237SOL    HW110610   5.270   1.462   3.981
 3237SOL    HW210611   5.251   1.466   3.819
 3238SOL     OW10612   0.236   4.931   0.947
 3238SOL    HW110613   0.263   4.869   0.873
 3238SOL    HW210614   0.276   5.021   0.932
 3239SOL     OW10615   6.696   1.846   1.310
 3239SOL    HW110616   6.710   1.753   1.342
 3239SOL    HW210617   6.784   1.890   1.294
 3240SOL     OW10618   1.426   6.419   6.079
 3240SOL    HW110619   1.498   6.486   6.093
 3240SOL    HW210620   1.467   6.329   6.064
 3241SOL     OW10621   4.563   1.435   5.046
 3241SOL    HW110622   4.597   1.508   5.105
 3241SOL    HW210623   4.497   1.379   5.096
 3242SOL     OW10624   3.161   4.439   0.759
 3242SOL    HW110625   3.119   4.520   0.802
 3242SOL    HW210626   3.255   4.429   0.793
 3243SOL     OW10627   5.522   4.663   0.651
 3243SOL    HW110628   5.523   4.565   0.672
 3243SOL    HW210629   5.429   4.692   0.630
 3244SOL     OW10630   4.857   6.387   0.473
 3244SOL    HW110631   4.868   6.347   0.564
 3244SOL    HW210632   4.842   6.315   0.406
 3245SOL     OW10633   4.697   2.738   5.117
 3245SOL    HW110634   4.676   2.834   5.132
 3245SOL    HW210635   4.795   2.726   5.101
 3246SOL     OW10636   5.309   0.912   2.949
 3246SOL    HW110637   5.339   0.840   3.012
 3246SOL    HW210638   5.279   0.871   2.863
 3247SOL     OW10639   5.930   4.851   3.036
 3247SOL    HW110640   5.945   4.850   3.135
 3247SOL    HW210641   5.961   4.764   2.997
 3248SOL     OW10642   6.693   3.391   1.843
 3248SOL    HW110643   6.753   3.464   1.809
 3248SOL    HW210644   6.737   3.344   1.919
 3249SOL     OW10645   3.425   3.993   4.753
 3249SOL    HW110646   3.357   3.961   4.687
 3249SOL    HW210647   3.380   4.015   4.839
 3250SOL     OW10648   5.754   0.037   1.958
 3250SOL    HW110649   5.795   6.990   1.892
 3250SOL    HW210650   5.789   0.129   1.943
 3251SOL     OW10651   3.616   0.873   1.850
 3251SOL    HW110652   3.528   0.844   1.812
 3251SOL    HW210653   3.653   0.801   1.907
 3252SOL     OW10654   2.534   2.247   2.391
 3252SOL    HW110655   2.456   2.281   2.338
 3252SOL    HW210656   2.503   2.222   2.483
 3253SOL     OW10657   5.866   3.314   2.231
 3253SOL    HW110658   5.877   3.268   2.320
 3253SOL    HW210659   5.797   3.265   2.177
 3254SOL     OW10660   5.398   5.448   5.586
 3254SOL    HW110661   5.367   5.386   5.658
 3254SOL    HW210662   5.416   5.396   5.503
 3255SOL     OW10663   5.442   5.969   1.631
 3255SOL    HW110664   5.408   6.057   1.598
 3255SOL    HW210665   5.533   5.980   1.670
 3256SOL     OW10666   4.316   0.737   0.187
 3256SOL    HW110667   4.232   0.726   0.134
 3256SOL    HW210668   4.392   0.693   0.138
 3257SOL     OW10669   1.186   1.955   1.548
 3257SOL    HW110670   1.277   1.968   1.509
 3257SOL    HW210671   1.131   2.037   1.533
 3258SOL     OW10672   3.947   4.761   1.811
 3258SOL    HW110673   4.004   4.680   1.801
 3258SOL    HW210674   3.947   4.791   1.906
 3259SOL     OW10675   4.578   5.338   3.776
 3259SOL    HW110676   4.573   5.388   3.690
 3259SOL    HW210677   4.504   5.367   3.836
 3260SOL     OW10678   1.087   1.775   0.962
 3260SOL    HW110679   1.110   1.872   0.954
 3260SOL    HW210680   0.988   1.764   0.970
 3261SOL     OW10681   4.595   6.461   0.488
 3261SOL    HW110682   4.587   6.558   0.512
 3261SOL    HW210683   4.691   6.436   0.478
 3262SOL     OW10684   3.833   2.108   2.609
 3262SOL    HW110685   3.740   2.144   2.602
 3262SOL    HW210686   3.899   2.184   2.605
 3263SOL     OW10687   3.444   1.472   3.516
 3263SOL    HW110688   3.438   1.443   3.420
 3263SOL    HW210689   3.454   1.571   3.520
 3264SOL     OW10690   1.297   4.292   1.159
 3264SOL    HW110691   1.383   4.330   1.126
 3264SOL    HW210692   1.250   4.358   1.218
 3265SOL     OW10693   4.646   1.509   5.427
 3265SOL    HW110694   4.727   1.451   5.421
 3265SOL    HW210695   4.670   1.603   5.400
 3266SOL     OW10696   0.642   2.592   6.807
 3266SOL    HW110697   0.554   2.601   6.855
 3266SOL    HW210698   0.688   2.681   6.804
 3267SOL     OW10699   3.757   1.135   6.850
 3267SOL    HW110700   3.689   1.170   6.915
 3267SOL    HW210701   3.819   1.209   6.824
 3268SOL     OW10702   1.182   4.790   0.161
 3268SOL    HW110703   1.152   4.883   0.140
 3268SOL    HW210704   1.235   4.791   0.246
 3269SOL     OW10705   4.405   4.699   2.053
 3269SOL    HW110706   4.311   4.710   2.082
 3269SOL    HW210707   4.452   4.636   2.114
 3270SOL     OW10708   1.031   4.506   4.581
 3270SOL    HW110709   1.018   4.592   4.630
 3270SOL    HW210710   0.944   4.457   4.575
 3271SOL     OW10711   5.693   3.936   2.531
 3271SOL    HW110712   5.706   3.974   2.623
 3271SOL    HW210713   5.599   3.902   2.522
 3272SOL     OW10714   3.728   3.618   6.868
 3272SOL    HW110715   3.776   3.591   6.784
 3272SOL    HW210716   3.659   3.686   6.846
 3273SOL     OW10717   0.534   6.642   1.833
 3273SOL    HW110718   0.612   6.674   1.888
 3273SOL    HW210719   0.478   6.720   1.808
 3274SOL     OW10720   4.345   1.038   1.583
 3274SOL    HW110721   4.254   1.045   1.623
 3274SOL    HW210722   4.402   1.114   1.615
 3275SOL     OW10723   0.354   0.544   6.603
 3275SOL    HW110724   0.283   0.488   6.646
 3275SOL    HW210725   0.373   0.623   6.661
 3276SOL     OW10726   3.399   6.014   0.422
 3276SOL    HW110727   3.302   5.991   0.416
 3276SOL    HW210728   3.437   6.023   0.330
 3277SOL     OW10729   5.373   0.161   0.299
 3277SOL    HW110730   5.439   0.086   0.307
 3277SOL    HW210731   5.306   0.138   0.229
 3278SOL     OW10732   7.013   1.147   5.690
 3278SOL    HW110733   6.932   1.093   5.668
 3278SOL    HW210734   0.051   1.100   5.759
 3279SOL     OW10735   6.446   1.385   0.547
 3279SOL    HW110736   6.393   1.445   0.608
 3279SOL    HW210737   6.532   1.430   0.523
 3280SOL     OW10738   3.380   5.083   5.251
 3280SOL    HW110739   3.459   5.089   5.190
 3280SOL    HW210740   3.329   5.168   5.248
 3281SOL     OW10741   2.181   5.105   0.857
 3281SOL    HW110742   2.267   5.081   0.811
 3281SOL    HW210743   2.132   5.174   0.803
 3282SOL     OW10744   1.228   5.817   4.709
 3282SOL    HW110745   1.150   5.880   4.705
 3282SOL    HW210746   1.239   5.784   4.802
 3283SOL     OW10747   3.991   1.266   0.945
 3283SOL    HW110748   3.965   1.291   1.038
 3283SOL    HW210749   3.912   1.276   0.884
 3284SOL     OW10750   6.341   5.936   6.842
 3284SOL    HW110751   6.261   5.950   6.783
 3284SOL    HW210752   6.320   5.865   6.909
 3285SOL     OW10753   5.136   2.690   3.719
 3285SOL    HW110754   5.095   2.719   3.633
 3285SOL    HW210755   5.235   2.683   3.708
 3286SOL     OW10756   4.131   3.417   2.635
 3286SOL    HW110757   4.096   3.342   2.691
 3286SOL    HW210758   4.129   3.390   2.539
 3287SOL     OW10759   1.600   6.350   6.631
 3287SOL    HW110760   1.567   6.445   6.632
 3287SOL    HW210761   1.656   6.336   6.549
 3288SOL     OW10762   0.584   5.585   6.835
 3288SOL    HW110763   0.551   5.542   6.918
 3288SOL    HW210764   0.683   5.573   6.827
 3289SOL     OW10765   2.348   6.789   5.181
 3289SOL    HW110766   2.420   6.720   5.173
 3289SOL    HW210767   2.345   6.824   5.275
 3290SOL     OW10768   0.363   0.055   1.869
 3290SOL    HW110769   0.299   0.131   1.883
 3290SOL    HW210770   0.452   0.079   1.908
 3291SOL     OW10771   1.340   6.496   0.327
 3291SOL    HW110772   1.352   6.473   0.230
 3291SOL    HW210773   1.424   6.537   0.362
 3292SOL     OW10774   0.528   0.844   0.651
 3292SOL    HW110775   0.480   0.853   0.738
 3292SOL    HW210776   0.624   0.821   0.667
 3293SOL     OW10777   6.868   3.536   3.412
 3293SOL    HW110778   6.835   3.446   3.383
 3293SOL    HW210779   6.791   3.588   3.451
 3294SOL     OW10780   0.486   0.863   6.108
 3294SOL    HW110781   0.470   0.769   6.078
 3294SOL    HW210782   0.567   0.899   6.061
 3295SOL     OW10783   1.524   2.894   1.746
 3295SOL    HW110784   1.482   2.975   1.705
 3295SOL    HW210785   1.585   2.921   1.821
 3296SOL     OW10786   2.105   6.220   2.140
 3296SOL    HW110787   2.024   6.201   2.196
 3296SOL    HW210788   2.127   6.140   2.085
 3297SOL     OW10789   2.919   0.587   4.326
 3297SOL    HW110790   2.925   0.514   4.395
 3297SOL    HW210791   2.953   0.552   4.238
 3298SOL     OW10792   5.488   1.917   4.048
 3298SOL    HW110793   5.415   1.943   3.986
 3298SOL    HW210794   5.496   1.817   4.051
 3299SOL     OW10795   2.040   6.162   4.202
 3299SOL    HW110796   2.071   6.070   4.227
 3299SOL    HW210797   1.948   6.156   4.162
 3300SOL     OW10798   0.214   0.721   5.804
 3300SOL    HW110799   0.298   0.718   5.749
 3300SOL    HW210800   0.176   0.628   5.811
 3301SOL     OW10801   1.924   3.161   2.917
 3301SOL    HW110802   1.882   3.103   2.847
 3301SOL    HW210803   1.862   3.168   2.995
 3302SOL     OW10804   1.640   5.938   5.886
 3302SOL    HW110805   1.676   5.895   5.803
 3302SOL    HW210806   1.550   5.901   5.906
 3303SOL     OW10807   3.788   3.053   2.067
 3303SOL    HW110808   3.812   2.995   1.989
 3303SOL    HW210809   3.847   3.030   2.145
 3304SOL     OW10810   1.604   5.654   4.445
 3304SOL    HW110811   1.505   5.639   4.441
 3304SOL    HW210812   1.623   5.747   4.476
 3305SOL     OW10813   2.028   1.346   3.294
 3305SOL    HW110814   1.970   1.275   3.333
 3305SOL    HW210815   2.101   1.369   3.358
 3306SOL     OW10816   2.159   5.447   4.168
 3306SOL    HW110817   2.201   5.533   4.195
 3306SOL    HW210818   2.117   5.404   4.248
 3307SOL     OW10819   6.813   6.129   6.532
 3307SOL    HW110820   6.856   6.214   6.502
 3307SOL    HW210821   6.874   6.082   6.596
 3308SOL     OW10822   4.181   5.747   6.751
 3308SOL    HW110823   4.203   5.841   6.725
 3308SOL    HW210824   4.245   5.684   6.707
 3309SOL     OW10825   0.340   5.096   2.696
 3309SOL    HW110826   0.343   5.184   2.744
 3309SOL    HW210827   0.255   5.049   2.717
 3310SOL     OW10828   6.897   4.003   5.065
 3310SOL    HW110829   6.906   3.949   5.148
 3310SOL    HW210830   6.980   4.057   5.051
 3311SOL     OW10831   2.373   3.836   1.647
 3311SOL    HW110832   2.402   3.741   1.660
 3311SOL    HW210833   2.346   3.874   1.736
 3312SOL     OW10834   3.808   4.914   5.834
 3312SOL    HW110835   3.803   4.977   5.912
 3312SOL    HW210836   3.717   4.906   5.792
 3313SOL     OW10837   6.728   5.555   2.826
 3313SOL    HW110838   6.718   5.457   2.807
 3313SOL    HW210839   6.705   5.573   2.922
 3314SOL     OW10840   2.277   1.845   3.743
 3314SOL    HW110841   2.304   1.749   3.738
 3314SOL    HW210842   2.306   1.883   3.831
 3315SOL     OW10843   6.082   3.346   4.320
 3315SOL    HW110844   6.091   3.411   4.246
 3315SOL    HW210845   6.148   3.272   4.309
 3316SOL     OW10846   4.200   1.630   6.319
 3316SOL    HW110847   4.156   1.662   6.235
 3316SOL    HW210848   4.184   1.697   6.392
 3317SOL     OW10849   4.748   3.440   1.700
 3317SOL    HW110850   4.753   3.406   1.606
 3317SOL    HW210851   4.767   3.538   1.701
 3318SOL     OW10852   3.571   0.373   0.473
 3318SOL    HW110853   3.588   0.316   0.554
 3318SOL    HW210854   3.478   0.412   0.479
 3319SOL     OW10855   5.970   0.537   4.560
 3319SOL    HW110856   5.951   0.458   4.502
 3319SOL    HW210857   6.012   0.507   4.645
 3320SOL     OW10858   5.490   0.728   5.574
 3320SOL    HW110859   5.462   0.757   5.666
 3320SOL    HW210860   5.539   0.641   5.580
 3321SOL     OW10861   4.073   2.201   1.224
 3321SOL    HW110862   4.069   2.236   1.130
 3321SOL    HW210863   4.016   2.120   1.232
 3322SOL     OW10864   5.067   3.509   1.276
 3322SOL    HW110865   4.985   3.501   1.334
 3322SOL    HW210866   5.055   3.585   1.212
 3323SOL     OW10867   2.590   3.772   6.262
 3323SOL    HW110868   2.683   3.800   6.288
 3323SOL    HW210869   2.525   3.800   6.332
 3324SOL     OW10870   1.121   3.491   6.346
 3324SOL    HW110871   1.209   3.482   6.299
 3324SOL    HW210872   1.051   3.522   6.281
 3325SOL     OW10873   2.269   2.605   6.143
 3325SOL    HW110874   2.248   2.510   6.120
 3325SOL    HW210875   2.339   2.640   6.081
 3326SOL     OW10876   5.854   1.659   2.075
 3326SOL    HW110877   5.892   1.749   2.096
 3326SOL    HW210878   5.764   1.651   2.117
 3327SOL     OW10879   3.271   6.243   1.314
 3327SOL    HW110880   3.235   6.149   1.313
 3327SOL    HW210881   3.241   6.290   1.397
 3328SOL     OW10882   4.533   1.490   1.834
 3328SOL    HW110883   4.465   1.563   1.845
 3328SOL    HW210884   4.591   1.486   1.915
 3329SOL     OW10885   5.306   0.776   4.333
 3329SOL    HW110886   5.336   0.789   4.239
 3329SOL    HW210887   5.245   0.851   4.359
 3330SOL     OW10888   5.759   6.175   1.327
 3330SOL    HW110889   5.816   6.201   1.249
 3330SOL    HW210890   5.819   6.151   1.404
 3331SOL     OW10891   0.702   3.455   2.196
 3331SOL    HW110892   0.631   3.484   2.261
 3331SOL    HW210893   0.664   3.387   2.135
 3332SOL     OW10894   6.560   4.378   0.428
 3332SOL    HW110895   6.572   4.291   0.475
 3332SOL    HW210896   6.547   4.451   0.495
 3333SOL     OW10897   3.193   4.029   6.671
 3333SOL    HW110898   3.250   4.043   6.752
 3333SOL    HW210899   3.138   4.111   6.654
 3334SOL     OW10900   2.213   4.029   2.137
 3334SOL    HW110901   2.240   4.099   2.203
 3334SOL    HW210902   2.205   3.940   2.183
 3335SOL     OW10903   4.657   6.846   6.235
 3335SOL    HW110904   4.664   6.798   6.323
 3335SOL    HW210905   4.699   6.790   6.164
 3336SOL     OW10906   1.724   6.678   4.775
 3336SOL    HW110907   1.771   6.748   4.721
 3336SOL    HW210908   1.648   6.719   4.825
 3337SOL     OW10909   2.689   3.947   1.209
 3337SOL    HW110910   2.786   3.948   1.233
 3337SOL    HW210911   2.634   3.931   1.291
 3338SOL     OW10912   0.444   2.850   0.843
 3338SOL    HW110913   0.438   2.907   0.925
 3338SOL    HW210914   0.407   2.901   0.765
 3339SOL     OW10915   1.108   6.695   6.529
 3339SOL    HW110916   1.091   6.597   6.542
 3339SOL    HW210917   1.021   6.745   6.537
 3340SOL     OW10918   3.317   1.349   2.996
 3340SOL    HW110919   3.283   1.442   3.009
 3340SOL    HW210920   3.243   1.292   2.960
 3341SOL     OW10921   1.671   4.526   4.017
 3341SOL    HW110922   1.741   4.570   4.073
 3341SOL    HW210923   1.583   4.570   4.034
 3342SOL     OW10924   1.393   6.961   4.074
 3342SOL    HW110925   1.305   7.001   4.100
 3342SOL    HW210926   1.384   6.861   4.068
 3343SOL     OW10927   5.663   4.471   6.755
 3343SOL    HW110928   5.656   4.527   6.837
 3343SOL    HW210929   5.755   4.477   6.718
 3344SOL     OW10930   5.716   3.702   3.729
 3344SOL    HW110931   5.792   3.649   3.691
 3344SOL    HW210932   5.675   3.758   3.657
 3345SOL     OW10933   1.757   3.996   6.445
 3345SOL    HW110934   1.712   4.051   6.375
 3345SOL    HW210935   1.781   3.906   6.407
 3346SOL     OW10936   0.886   0.676   0.195
 3346SOL    HW110937   0.959   0.727   0.239
 3346SOL    HW210938   0.923   0.627   0.116
 3347SOL     OW10939   1.253   2.429   5.217
 3347SOL    HW110940   1.192   2.502   5.187
 3347SOL    HW210941   1.340   2.468   5.247
 3348SOL     OW10942   4.077   3.343   4.504
 3348SOL    HW110943   4.040   3.273   4.566
 3348SOL    HW210944   4.145   3.301   4.444
 3349SOL     OW10945   2.273   5.410   3.470
 3349SOL    HW110946   2.338   5.435   3.542
 3349SOL    HW210947   2.284   5.472   3.393
 3350SOL     OW10948   0.275   2.270   5.776
 3350SOL    HW110949   0.228   2.192   5.733
 3350SOL    HW210950   0.273   2.348   5.713
 3351SOL     OW10951   4.776   0.781   2.344
 3351SOL    HW110952   4.855   0.836   2.319
 3351SOL    HW210953   4.692   0.835   2.329
 3352SOL     OW10954   6.499   2.978   1.006
 3352SOL    HW110955   6.485   3.002   1.102
 3352SOL    HW210956   6.477   3.057   0.948
 3353SOL     OW10957   3.086   5.956   1.374
 3353SOL    HW110958   3.105   5.939   1.471
 3353SOL    HW210959   3.019   5.890   1.342
 3354SOL     OW10960   3.852   2.316   5.254
 3354SOL    HW110961   3.838   2.305   5.352
 3354SOL    HW210962   3.778   2.271   5.204
 3355SOL     OW10963   1.575   1.568   6.012
 3355SOL    HW110964   1.538   1.475   6.018
 3355SOL    HW210965   1.644   1.572   5.939
 3356SOL     OW10966   0.806   5.602   6.169
 3356SOL    HW110967   0.887   5.543   6.173
 3356SOL    HW210968   0.759   5.587   6.082
 3357SOL     OW10969   2.394   3.580   1.659
 3357SOL    HW110970   2.389   3.528   1.745
 3357SOL    HW210971   2.369   3.520   1.583
 3358SOL     OW10972   4.469   1.735   2.233
 3358SOL    HW110973   4.412   1.663   2.192
 3358SOL    HW210974   4.565   1.711   2.223
 3359SOL     OW10975   0.486   6.105   3.072
 3359SOL    HW110976   0.404   6.160   3.091
 3359SOL    HW210977   0.534   6.144   2.994
 3360SOL     OW10978   1.265   1.108   6.942
 3360SOL    HW110979   1.167   1.106   6.918
 3360SOL    HW210980   1.275   1.126   0.024
 3361SOL     OW10981   6.719   5.165   4.702
 3361SOL    HW110982   6.809   5.174   4.659
 3361SOL    HW210983   6.656   5.231   4.661
 3362SOL     OW10984   3.602   1.291   2.858
 3362SOL    HW110985   3.525   1.320   2.914
 3362SOL    HW210986   3.658   1.226   2.909
 3363SOL     OW10987   6.873   2.333   1.443
 3363SOL    HW110988   6.828   2.421   1.455
 3363SOL    HW210989   6.918   2.306   1.529
 3364SOL     OW10990   2.105   4.553   4.178
 3364SOL    HW110991   2.143   4.564   4.270
 3364SOL    HW210992   2.144   4.621   4.117
 3365SOL     OW10993   0.312   2.456   4.829
 3365SOL    HW110994   0.271   2.539   4.790
 3365SOL    HW210995   0.241   2.387   4.842
 3366SOL     OW10996   5.385   4.847   4.430
 3366SOL    HW110997   5.443   4.917   4.390
 3366SOL    HW210998   5.361   4.872   4.524
 3367SOL     OW10999   4.028   3.225   2.794
 3367SOL    HW111000   3.935   3.242   2.827
 3367SOL    HW211001   4.088   3.208   2.872
 3368SOL     OW11002   0.671   5.646   6.415
 3368SOL    HW111003   0.718   5.637   6.327
 3368SOL    HW211004   0.589   5.702   6.404
 3369SOL     OW11005   3.666   1.886   0.497
 3369SOL    HW111006   3.624   1.795   0.497
 3369SOL    HW211007   3.706   1.905   0.587
 3370SOL     OW11008   6.648   6.331   1.551
 3370SOL    HW111009   6.732   6.277   1.553
 3370SOL    HW211010   6.599   6.314   1.465
 3371SOL     OW11011   2.329   3.113   1.336
 3371SOL    HW111012   2.354   3.172   1.412
 3371SOL    HW211013   2.240   3.142   1.299
 3372SOL     OW11014   6.810   1.899   6.598
 3372SOL    HW111015   6.908   1.897   6.619
 3372SOL    HW211016   6.765   1.967   6.656
 3373SOL     OW11017   0.359   2.213   4.164
 3373SOL    HW111018   0.360   2.295   4.222
 3373SOL    HW211019   0.438   2.157   4.185
 3374SOL     OW11020   1.061   6.852   3.640
 3374SOL    HW111021   1.120   6.815   3.711
 3374SOL    HW211022   1.065   6.952   3.643
 3375SOL     OW11023   0.064   4.557   0.141
 3375SOL    HW111024   0.021   4.620   0.076
 3375SOL    HW211025   0.110   4.610   0.212
 3376SOL     OW11026   3.392   2.835   4.934
 3376SOL    HW111027   3.383   2.851   4.836
 3376SOL    HW211028   3.361   2.743   4.956
 3377SOL     OW11029   6.578   5.084   5.912
 3377SOL    HW111030   6.541   5.139   5.987
 3377SOL    HW211031   6.504   5.056   5.851
 3378SOL     OW11032   1.553   6.959   0.568
 3378SOL    HW111033   1.505   0.031   0.559
 3378SOL    HW211034   1.632   6.957   0.507
 3379SOL     OW11035   1.010   1.691   4.926
 3379SOL    HW111036   1.021   1.788   4.903
 3379SOL    HW211037   1.075   1.637   4.872
 3380SOL     OW11038   4.979   6.927   4.820
 3380SOL    HW111039   4.881   6.941   4.810
 3380SOL    HW211040   5.001   6.913   4.916
 3381SOL     OW11041   0.572   3.036   1.319
 3381SOL    HW111042   0.632   3.059   1.396
 3381SOL    HW211043   0.505   3.109   1.306
 3382SOL     OW11044   0.689   2.658   6.303
 3382SOL    HW111045   0.681   2.583   6.369
 3382SOL    HW211046   0.785   2.689   6.300
 3383SOL     OW11047   3.954   5.614   1.317
 3383SOL    HW111048   3.941   5.515   1.324
 3383SOL    HW211049   3.867   5.660   1.337
 3384SOL     OW11050   2.021   2.996   0.776
 3384SOL    HW111051   2.099   3.058   0.768
 3384SOL    HW211052   2.053   2.902   0.764
 3385SOL     OW11053   6.888   3.671   4.827
 3385SOL    HW111054   6.973   3.655   4.778
 3385SOL    HW211055   6.865   3.768   4.824
 3386SOL     OW11056   5.530   4.526   0.241
 3386SOL    HW111057   5.465   4.472   0.294
 3386SOL    HW211058   5.482   4.580   0.173
 3387SOL     OW11059   4.286   0.166   3.078
 3387SOL    HW111060   4.274   0.207   2.988
 3387SOL    HW211061   4.368   0.203   3.121
 3388SOL     OW11062   5.320   3.029   2.501
 3388SOL    HW111063   5.414   3.063   2.502
 3388SOL    HW211064   5.317   2.940   2.547
 3389SOL     OW11065   6.471   5.778   6.108
 3389SOL    HW111066   6.479   5.712   6.033
 3389SOL    HW211067   6.537   5.852   6.094
 3390SOL     OW11068   4.953   6.985   6.001
 3390SOL    HW111069   4.900   0.044   6.041
 3390SOL    HW211070   4.898   6.939   5.932
 3391SOL     OW11071   4.761   2.657   4.180
 3391SOL    HW111072   4.777   2.661   4.082
 3391SOL    HW211073   4.688   2.591   4.199
 3392SOL     OW11074   3.359   6.588   4.068
 3392SOL    HW111075   3.265   6.553   4.072
 3392SOL    HW211076   3.422   6.514   4.044
 3393SOL     OW11077   6.296   6.050   0.548
 3393SOL    HW111078   6.325   5.954   0.548
 3393SOL    HW211079   6.198   6.054   0.525
 3394SOL     OW11080   5.107   3.597   0.979
 3394SOL    HW111081   5.013   3.603   1.010
 3394SOL    HW211082   5.156   3.680   1.004
 3395SOL     OW11083   5.013   2.804   3.499
 3395SOL    HW111084   4.994   2.711   3.466
 3395SOL    HW211085   5.074   2.851   3.435
 3396SOL     OW11086   5.378   1.429   3.452
 3396SOL    HW111087   5.465   1.400   3.412
 3396SOL    HW211088   5.311   1.356   3.442
 3397SOL     OW11089   3.212   5.450   6.826
 3397SOL    HW111090   3.154   5.390   6.770
 3397SOL    HW211091   3.171   5.460   6.917
 3398SOL     OW11092   0.833   0.455   4.245
 3398SOL    HW111093   0.833   0.532   4.182
 3398SOL    HW211094   0.742   0.444   4.285
 3399SOL     OW11095   5.345   4.977   3.355
 3399SOL    HW111096   5.289   5.037   3.412
 3399SOL    HW211097   5.300   4.965   3.266
 3400SOL     OW11098   5.658   3.356   6.619
 3400SOL    HW111099   5.715   3.437   6.634
 3400SOL    HW211100   5.600   3.369   6.539
 3401SOL     OW11101   6.593   3.589   6.319
 3401SOL    HW111102   6.605   3.558   6.413
 3401SOL    HW211103   6.496   3.596   6.298
 3402SOL     OW11104   4.958   5.627   6.471
 3402SOL    HW111105   5.044   5.585   6.443
 3402SOL    HW211106   4.975   5.720   6.504
 3403SOL     OW11107   4.107   5.084   6.558
 3403SOL    HW111108   4.207   5.094   6.558
 3403SOL    HW211109   4.069   5.132   6.479
 3404SOL     OW11110   5.457   2.572   0.706
 3404SOL    HW111111   5.383   2.551   0.642
 3404SOL    HW211112   5.432   2.542   0.798
 3405SOL     OW11113   6.216   4.272   6.590
 3405SOL    HW111114   6.158   4.302   6.666
 3405SOL    HW211115   6.214   4.172   6.584
 3406SOL     OW11116   1.484   3.462   2.233
 3406SOL    HW111117   1.474   3.552   2.192
 3406SOL    HW211118   1.541   3.404   2.174
 3407SOL     OW11119   1.494   4.378   6.738
 3407SOL    HW111120   1.559   4.341   6.805
 3407SOL    HW211121   1.465   4.305   6.676
 3408SOL     OW11122   5.299   2.991   4.539
 3408SOL    HW111123   5.327   2.959   4.448
 3408SOL    HW211124   5.297   3.091   4.540
 3409SOL     OW11125   3.933   5.850   0.262
 3409SOL    HW111126   3.854   5.908   0.244
 3409SOL    HW211127   3.997   5.855   0.185
 3410SOL     OW11128   7.010   6.449   1.528
 3410SOL    HW111129   0.023   6.474   1.620
 3410SOL    HW211130   6.968   6.358   1.530
 3411SOL     OW11131   0.274   2.422   0.488
 3411SOL    HW111132   0.304   2.375   0.570
 3411SOL    HW211133   0.176   2.409   0.475
 3412SOL     OW11134   4.951   3.188   1.344
 3412SOL    HW111135   5.029   3.192   1.282
 3412SOL    HW211136   4.976   3.139   1.427
 3413SOL     OW11137   6.471   1.557   0.970
 3413SOL    HW111138   6.516   1.470   0.987
 3413SOL    HW211139   6.443   1.561   0.874
 3414SOL     OW11140   3.669   2.065   5.884
 3414SOL    HW111141   3.574   2.095   5.895
 3414SOL    HW211142   3.727   2.117   5.946
 3415SOL     OW11143   2.102   2.914   3.848
 3415SOL    HW111144   2.168   2.950   3.782
 3415SOL    HW211145   2.045   2.989   3.883
 3416SOL     OW11146   5.563   6.194   0.597
 3416SOL    HW111147   5.560   6.294   0.590
 3416SOL    HW211148   5.630   6.167   0.665
 3417SOL     OW11149   0.861   6.163   4.120
 3417SOL    HW111150   0.912   6.124   4.196
 3417SOL    HW211151   0.908   6.245   4.086
 3418SOL     OW11152   3.819   5.492   3.505
 3418SOL    HW111153   3.874   5.575   3.519
 3418SOL    HW211154   3.738   5.496   3.563
 3419SOL     OW11155   2.914   5.516   6.095
 3419SOL    HW111156   2.879   5.553   6.008
 3419SOL    HW211157   3.001   5.559   6.117
 3420SOL     OW11158   5.844   3.284   3.402
 3420SOL    HW111159   5.824   3.188   3.421
 3420SOL    HW211160   5.778   3.319   3.335
 3421SOL     OW11161   5.079   1.782   3.759
 3421SOL    HW111162   5.001   1.844   3.763
 3421SOL    HW211163   5.097   1.758   3.663
 3422SOL     OW11164   3.247   0.313   6.862
 3422SOL    HW111165   3.281   0.398   6.902
 3422SOL    HW211166   3.179   0.334   6.791
 3423SOL     OW11167   6.889   4.663   5.915
 3423SOL    HW111168   6.870   4.595   5.986
 3423SOL    HW211169   6.895   4.754   5.957
 3424SOL     OW11170   2.179   6.473   1.146
 3424SOL    HW111171   2.221   6.481   1.236
 3424SOL    HW211172   2.186   6.561   1.098
 3425SOL     OW11173   4.533   4.838   2.296
 3425SOL    HW111174   4.457   4.903   2.298
 3425SOL    HW211175   4.509   4.755   2.346
 3426SOL     OW11176   4.509   2.496   1.444
 3426SOL    HW111177   4.502   2.398   1.462
 3426SOL    HW211178   4.461   2.518   1.359
 3427SOL     OW11179   0.831   1.636   0.993
 3427SOL    HW111180   0.763   1.691   1.043
 3427SOL    HW211181   0.881   1.579   1.058
 3428SOL     OW11182   3.546   5.224   0.492
 3428SOL    HW111183   3.636   5.187   0.515
 3428SOL    HW211184   3.509   5.272   0.571
 3429SOL     OW11185   0.492   2.248   1.258
 3429SOL    HW111186   0.501   2.214   1.351
 3429SOL    HW211187   0.519   2.177   1.193
 3430SOL     OW11188   1.974   5.623   5.621
 3430SOL    HW111189   1.977   5.571   5.706
 3430SOL    HW211190   1.945   5.563   5.546
 3431SOL     OW11191   1.484   5.791   1.644
 3431SOL    HW111192   1.520   5.837   1.563
 3431SOL    HW211193   1.522   5.699   1.651
 3432SOL     OW11194   2.089   4.464   5.338
 3432SOL    HW111195   2.019   4.487   5.406
 3432SOL    HW211196   2.117   4.369   5.350
 3433SOL     OW11197   1.037   0.310   5.033
 3433SOL    HW111198   1.113   0.247   5.021
 3433SOL    HW211199   1.072   0.400   5.059
 3434SOL     OW11200   3.786   1.190   2.179
 3434SOL    HW111201   3.722   1.163   2.108
 3434SOL    HW211202   3.746   1.264   2.233
 3435SOL     OW11203   2.158   1.203   1.341
 3435SOL    HW111204   2.220   1.262   1.290
 3435SOL    HW211205   2.161   1.228   1.438
 3436SOL     OW11206   3.769   6.053   0.191
 3436SOL    HW111207   3.818   6.114   0.128
 3436SOL    HW211208   3.671   6.071   0.185
 3437SOL     OW11209   2.691   6.796   5.496
 3437SOL    HW111210   2.784   6.831   5.509
 3437SOL    HW211211   2.626   6.861   5.535
 3438SOL     OW11212   0.807   3.508   0.651
 3438SOL    HW111213   0.789   3.426   0.705
 3438SOL    HW211214   0.764   3.587   0.695
 3439SOL     OW11215   3.476   6.147   4.474
 3439SOL    HW111216   3.416   6.181   4.547
 3439SOL    HW211217   3.435   6.165   4.385
 3440SOL     OW11218   3.285   3.006   2.108
 3440SOL    HW111219   3.332   3.073   2.050
 3440SOL    HW211220   3.263   2.925   2.053
 3441SOL     OW11221   6.607   6.212   6.237
 3441SOL    HW111222   6.546   6.192   6.161
 3441SOL    HW211223   6.665   6.290   6.215
 3442SOL     OW11224   1.961   3.966   1.814
 3442SOL    HW111225   2.011   4.053   1.814
 3442SOL    HW211226   2.014   3.897   1.864
 3443SOL     OW11227   4.150   6.247   2.109
 3443SOL    HW111228   4.158   6.196   2.195
 3443SOL    HW211229   4.071   6.309   2.115
 3444SOL     OW11230   4.391   5.344   6.839
 3444SOL    HW111231   4.431   5.347   6.931
 3444SOL    HW211232   4.421   5.262   6.792
 3445SOL     OW11233   5.257   5.375   2.397
 3445SOL    HW111234   5.259   5.379   2.297
 3445SOL    HW211235   5.253   5.280   2.427
 3446SOL     OW11236   6.389   0.670   1.181
 3446SOL    HW111237   6.384   0.570   1.188
 3446SOL    HW211238   6.448   0.695   1.105
 3447SOL     OW11239   4.672   6.704   0.585
 3447SOL    HW111240   4.709   6.676   0.674
 3447SOL    HW211241   4.708   6.794   0.561
 3448SOL     OW11242   3.786   6.900   6.266
 3448SOL    HW111243   3.765   6.984   6.217
 3448SOL    HW211244   3.799   6.920   6.363
 3449SOL     OW11245   5.992   5.149   4.809
 3449SOL    HW111246   5.959   5.055   4.820
 3449SOL    HW211247   5.981   5.178   4.714
 3450SOL     OW11248   1.036   1.385   6.561
 3450SOL    HW111249   0.947   1.362   6.520
 3450SOL    HW211250   1.038   1.352   6.655
 3451SOL     OW11251   2.746   6.570   6.873
 3451SOL    HW111252   2.842   6.562   6.898
 3451SOL    HW211253   2.701   6.481   6.886
 3452SOL     OW11254   5.334   0.442   6.548
 3452SOL    HW111255   5.369   0.463   6.639
 3452SOL    HW211256   5.264   0.371   6.555
 3453SOL     OW11257   6.229   5.412   6.183
 3453SOL    HW111258   6.273   5.484   6.237
 3453SOL    HW211259   6.239   5.433   6.086
 3454SOL     OW11260   1.118   3.906   5.239
 3454SOL    HW111261   1.083   3.846   5.166
 3454SOL    HW211262   1.165   3.851   5.308
 3455SOL     OW11263   2.830   1.671   4.189
 3455SOL    HW111264   2.765   1.623   4.131
 3455SOL    HW211265   2.881   1.737   4.134
 3456SOL     OW11266   5.519   4.643   1.600
 3456SOL    HW111267   5.483   4.597   1.519
 3456SOL    HW211268   5.454   4.633   1.675
 3457SOL     OW11269   3.940   5.348   4.269
 3457SOL    HW111270   3.912   5.323   4.361
 3457SOL    HW211271   4.014   5.415   4.273
 3458SOL     OW11272   4.306   0.919   2.290
 3458SOL    HW111273   4.324   0.943   2.195
 3458SOL    HW211274   4.212   0.943   2.314
 3459SOL     OW11275   4.949   2.441   2.319
 3459SOL    HW111276   4.884   2.425   2.392
 3459SOL    HW211277   4.962   2.540   2.307
 3460SOL     OW11278   3.266   1.965   0.170
 3460SOL    HW111279   3.294   1.958   0.074
 3460SOL    HW211280   3.347   1.977   0.228
 3461SOL     OW11281   4.593   3.835   0.065
 3461SOL    HW111282   4.653   3.915   0.066
 3461SOL    HW211283   4.648   3.752   0.074
 3462SOL     OW11284   0.942   4.039   5.468
 3462SOL    HW111285   0.846   4.035   5.440
 3462SOL    HW211286   1.000   4.016   5.389
 3463SOL     OW11287   0.636   4.225   1.919
 3463SOL    HW111288   0.628   4.280   1.836
 3463SOL    HW211289   0.585   4.140   1.908
 3464SOL     OW11290   0.196   4.631   5.802
 3464SOL    HW111291   0.098   4.654   5.802
 3464SOL    HW211292   0.212   4.553   5.742
 3465SOL     OW11293   1.583   2.542   2.211
 3465SOL    HW111294   1.634   2.456   2.219
 3465SOL    HW211295   1.616   2.593   2.132
 3466SOL     OW11296   6.799   5.308   6.151
 3466SOL    HW111297   6.782   5.294   6.053
 3466SOL    HW211298   6.794   5.221   6.199
 3467SOL     OW11299   1.830   2.672   6.418
 3467SOL    HW111300   1.858   2.723   6.336
 3467SOL    HW211301   1.911   2.647   6.470
 3468SOL     OW11302   4.459   6.244   2.345
 3468SOL    HW111303   4.526   6.171   2.332
 3468SOL    HW211304   4.428   6.277   2.256
 3469SOL     OW11305   5.651   0.569   3.237
 3469SOL    HW111306   5.634   0.480   3.278
 3469SOL    HW211307   5.721   0.561   3.166
 3470SOL     OW11308   6.599   3.770   0.749
 3470SOL    HW111309   6.568   3.680   0.719
 3470SOL    HW211310   6.561   3.791   0.839
 3471SOL     OW11311   3.900   4.872   4.267
 3471SOL    HW111312   3.976   4.812   4.291
 3471SOL    HW211313   3.857   4.908   4.350
 3472SOL     OW11314   1.984   0.816   2.731
 3472SOL    HW111315   1.894   0.783   2.760
 3472SOL    HW211316   2.048   0.810   2.808
 3473SOL     OW11317   6.720   1.489   6.611
 3473SOL    HW111318   6.650   1.561   6.619
 3473SOL    HW211319   6.766   1.497   6.523
 3474SOL     OW11320   2.685   5.085   1.723
 3474SOL    HW111321   2.699   4.990   1.747
 3474SOL    HW211322   2.628   5.130   1.792
 3475SOL     OW11323   0.767   5.941   4.752
 3475SOL    HW111324   0.811   5.942   4.842
 3475SOL    HW211325   0.671   5.915   4.763
 3476SOL     OW11326   3.598   1.831   2.993
 3476SOL    HW111327   3.643   1.790   3.071
 3476SOL    HW211328   3.624   1.928   2.986
 3477SOL     OW11329   2.756   5.061   1.304
 3477SOL    HW111330   2.782   4.969   1.331
 3477SOL    HW211331   2.661   5.062   1.274
 3478SOL     OW11332   2.552   5.504   4.916
 3478SOL    HW111333   2.525   5.416   4.877
 3478SOL    HW211334   2.647   5.498   4.948
 3479SOL     OW11335   1.204   1.046   2.748
 3479SOL    HW111336   1.107   1.059   2.732
 3479SOL    HW211337   1.225   1.059   2.844
 3480SOL     OW11338   6.836   6.931   4.931
 3480SOL    HW111339   6.796   6.871   4.862
 3480SOL    HW211340   6.868   7.015   4.888
 3481SOL     OW11341   4.636   0.006   0.185
 3481SOL    HW111342   4.642   6.922   0.175
 3481SOL    HW211343   4.698   0.035   0.257
 3482SOL     OW11344   5.809   1.481   0.916
 3482SOL    HW111345   5.863   1.563   0.896
 3482SOL    HW211346   5.716   1.493   0.880
 3483SOL     OW11347   4.133   1.263   1.216
 3483SOL    HW111348   4.186   1.202   1.276
 3483SOL    HW211349   4.192   1.338   1.185
 3484SOL     OW11350   2.713   3.926   1.586
 3484SOL    HW111351   2.736   3.866   1.663
 3484SOL    HW211352   2.700   3.870   1.504
 3485SOL     OW11353   1.183   0.136   4.193
 3485SOL    HW111354   1.226   0.221   4.226
 3485SOL    HW211355   1.211   0.060   4.252
 3486SOL     OW11356   2.893   1.550   2.702
 3486SOL    HW111357   2.828   1.620   2.732
 3486SOL    HW211358   2.859   1.460   2.729
 3487SOL     OW11359   5.724   1.987   5.864
 3487SOL    HW111360   5.769   2.028   5.943
 3487SOL    HW211361   5.786   1.920   5.822
 3488SOL     OW11362   5.198   2.529   4.210
 3488SOL    HW111363   5.132   2.605   4.205
 3488SOL    HW211364   5.252   2.526   4.125
 3489SOL     OW11365   2.777   6.727   0.566
 3489SOL    HW111366   2.782   6.653   0.633
 3489SOL    HW211367   2.864   6.733   0.517
 3490SOL     OW11368   4.764   4.765   6.679
 3490SOL    HW111369   4.721   4.770   6.590
 3490SOL    HW211370   4.773   4.670   6.707
 3491SOL     OW11371   5.400   2.656   4.377
 3491SOL    HW111372   5.406   2.755   4.366
 3491SOL    HW211373   5.330   2.620   4.315
 3492SOL     OW11374   0.751   5.560   1.306
 3492SOL    HW111375   0.693   5.531   1.382
 3492SOL    HW211376   0.750   5.660   1.300
 3493SOL     OW11377   6.514   5.226   6.640
 3493SOL    HW111378   6.552   5.249   6.730
 3493SOL    HW211379   6.494   5.128   6.637
 3494SOL     OW11380   3.686   0.530   1.543
 3494SOL    HW111381   3.708   0.433   1.528
 3494SOL    HW211382   3.768   0.585   1.529
 3495SOL     OW11383   4.187   4.929   1.985
 3495SOL    HW111384   4.279   4.920   1.947
 3495SOL    HW211385   4.149   4.838   2.000
 3496SOL     OW11386   0.131   4.012   0.862
 3496SOL    HW111387   0.192   4.057   0.796
 3496SOL    HW211388   0.186   3.971   0.935
 3497SOL     OW11389   4.306   6.672   3.383
 3497SOL    HW111390   4.258   6.668   3.295
 3497SOL    HW211391   4.244   6.707   3.453
 3498SOL     OW11392   1.944   2.555   0.501
 3498SOL    HW111393   1.918   2.517   0.590
 3498SOL    HW211394   2.039   2.531   0.482
 3499SOL     OW11395   4.781   2.865   4.363
 3499SOL    HW111396   4.782   2.828   4.455
 3499SOL    HW211397   4.735   2.801   4.301
 3500SOL     OW11398   0.706   3.902   5.074
 3500SOL    HW111399   0.672   3.977   5.017
 3500SOL    HW211400   0.672   3.913   5.167
 3501SOL     OW11401   1.307   5.431   3.778
 3501SOL    HW111402   1.345   5.409   3.867
 3501SOL    HW211403   1.231   5.496   3.790
 3502SOL     OW11404   6.555   2.343   1.860
 3502SOL    HW111405   6.474   2.341   1.918
 3502SOL    HW211406   6.591   2.437   1.856
 3503SOL     OW11407   5.822   6.111   5.611
 3503SOL    HW111408   5.848   6.169   5.534
 3503SOL    HW211409   5.837   6.161   5.696
 3504SOL     OW11410   2.046   2.098   1.113
 3504SOL    HW111411   2.130   2.131   1.157
 3504SOL    HW211412   2.006   2.026   1.169
 3505SOL     OW11413   5.439   4.709   5.125
 3505SOL    HW111414   5.375   4.726   5.200
 3505SOL    HW211415   5.393   4.725   5.038
 3506SOL     OW11416   4.728   6.237   5.411
 3506SOL    HW111417   4.745   6.150   5.366
 3506SOL    HW211418   4.754   6.231   5.507
 3507SOL     OW11419   2.640   0.462   0.345
 3507SOL    HW111420   2.620   0.521   0.266
 3507SOL    HW211421   2.736   0.475   0.372
 3508SOL     OW11422   3.877   2.546   6.125
 3508SOL    HW111423   3.834   2.459   6.099
 3508SOL    HW211424   3.882   2.551   6.225
 3509SOL     OW11425   4.978   6.850   6.350
 3509SOL    HW111426   4.968   6.763   6.300
 3509SOL    HW211427   5.055   6.901   6.312
 3510SOL     OW11428   2.192   1.834   1.312
 3510SOL    HW111429   2.143   1.893   1.376
 3510SOL    HW211430   2.282   1.873   1.293
 3511SOL     OW11431   1.627   4.811   6.962
 3511SOL    HW111432   1.685   4.845   0.019
 3511SOL    HW211433   1.570   4.736   6.997
 3512SOL     OW11434   6.573   3.853   1.025
 3512SOL    HW111435   6.570   3.754   1.018
 3512SOL    HW211436   6.537   3.882   1.114
 3513SOL     OW11437   5.921   4.067   0.703
 3513SOL    HW111438   6.001   4.025   0.661
 3513SOL    HW211439   5.864   4.109   0.633
 3514SOL     OW11440   6.930   1.014   2.093
 3514SOL    HW111441   6.846   1.021   2.145
 3514SOL    HW211442   6.917   0.950   2.017
 3515SOL     OW11443   4.155   6.468   2.407
 3515SOL    HW111444   4.253   6.456   2.393
 3515SOL    HW211445   4.133   6.455   2.503
 3516SOL     OW11446   4.728   0.674   1.115
 3516SOL    HW111447   4.641   0.626   1.112
 3516SOL    HW211448   4.800   0.615   1.077
 3517SOL     OW11449   0.630   2.324   6.772
 3517SOL    HW111450   0.640   2.422   6.787
 3517SOL    HW211451   0.635   2.276   6.859
 3518SOL     OW11452   5.556   4.013   4.813
 3518SOL    HW111453   5.575   4.076   4.738
 3518SOL    HW211454   5.526   3.925   4.776
 3519SOL     OW11455   2.481   0.556   6.470
 3519SOL    HW111456   2.540   0.484   6.433
 3519SOL    HW211457   2.497   0.565   6.568
 3520SOL     OW11458   3.021   5.008   1.074
 3520SOL    HW111459   2.997   4.929   1.131
 3520SOL    HW211460   2.975   5.001   0.986
 3521SOL     OW11461   5.753   3.543   1.261
 3521SOL    HW111462   5.824   3.483   1.225
 3521SOL    HW211463   5.663   3.508   1.234
 3522SOL     OW11464   4.298   5.147   2.129
 3522SOL    HW111465   4.282   5.227   2.071
 3522SOL    HW211466   4.268   5.065   2.081
 3523SOL     OW11467   2.775   4.252   5.694
 3523SOL    HW111468   2.726   4.208   5.619
 3523SOL    HW211469   2.805   4.343   5.666
 3524SOL     OW11470   2.559   1.163   1.170
 3524SOL    HW111471   2.499   1.086   1.195
 3524SOL    HW211472   2.642   1.159   1.226
 3525SOL     OW11473   0.726   4.039   2.402
 3525SOL    HW111474   0.734   4.042   2.302
 3525SOL    HW211475   0.683   4.123   2.435
 3526SOL     OW11476   1.835   5.987   3.927
 3526SOL    HW111477   1.908   6.015   3.865
 3526SOL    HW211478   1.776   6.066   3.947
 3527SOL     OW11479   5.999   3.505   5.880
 3527SOL    HW111480   6.030   3.420   5.837
 3527SOL    HW211481   6.051   3.582   5.843
 3528SOL     OW11482   1.027   5.289   3.781
 3528SOL    HW111483   1.052   5.335   3.696
 3528SOL    HW211484   0.952   5.225   3.763
 3529SOL     OW11485   4.505   6.981   5.273
 3529SOL    HW111486   4.421   6.939   5.306
 3529SOL    HW211487   4.565   7.001   5.350
 3530SOL     OW11488   3.199   4.920   3.403
 3530SOL    HW111489   3.287   4.913   3.356
 3530SOL    HW211490   3.207   4.982   3.481
 3531SOL     OW11491   4.855   4.661   1.149
 3531SOL    HW111492   4.945   4.623   1.172
 3531SOL    HW211493   4.788   4.587   1.141
 3532SOL     OW11494   2.903   0.079   0.813
 3532SOL    HW111495   2.933   0.114   0.902
 3532SOL    HW211496   2.937   0.139   0.741
 3533SOL     OW11497   1.023   2.604   3.067
 3533SOL    HW111498   0.962   2.550   3.126
 3533SOL    HW211499   0.977   2.623   2.980
 3534SOL     OW11500   6.157   1.061   5.204
 3534SOL    HW111501   6.236   1.027   5.254
 3534SOL    HW211502   6.133   0.996   5.131
 3535SOL     OW11503   6.512   5.590   0.608
 3535SOL    HW111504   6.430   5.571   0.663
 3535SOL    HW211505   6.506   5.541   0.521
 3536SOL     OW11506   2.255   2.937   3.618
 3536SOL    HW111507   2.173   2.887   3.591
 3536SOL    HW211508   2.336   2.880   3.603
 3537SOL     OW11509   2.442   4.957   0.245
 3537SOL    HW111510   2.363   5.015   0.263
 3537SOL    HW211511   2.415   4.861   0.247
 3538SOL     OW11512   2.738   1.066   3.944
 3538SOL    HW111513   2.662   1.041   4.003
 3538SOL    HW211514   2.806   0.993   3.943
 3539SOL     OW11515   5.411   3.711   6.459
 3539SOL    HW111516   5.500   3.664   6.461
 3539SOL    HW211517   5.425   3.808   6.442
 3540SOL     OW11518   2.252   1.513   5.374
 3540SOL    HW111519   2.254   1.579   5.449
 3540SOL    HW211520   2.184   1.541   5.306
 3541SOL     OW11521   2.411   2.612   6.682
 3541SOL    HW111522   2.316   2.619   6.711
 3541SOL    HW211523   2.415   2.575   6.589
 3542SOL     OW11524   6.785   3.278   1.069
 3542SOL    HW111525   6.777   3.378   1.072
 3542SOL    HW211526   6.696   3.238   1.050
 3543SOL     OW11527   1.827   3.139   4.254
 3543SOL    HW111528   1.727   3.132   4.254
 3543SOL    HW211529   1.863   3.085   4.330
 3544SOL     OW11530   2.061   4.520   6.370
 3544SOL    HW111531   1.976   4.478   6.400
 3544SOL    HW211532   2.138   4.462   6.397
 3545SOL     OW11533   3.668   4.944   6.569
 3545SOL    HW111534   3.735   5.004   6.613
 3545SOL    HW211535   3.579   4.954   6.614
 3546SOL     OW11536   6.542   4.741   3.148
 3546SOL    HW111537   6.482   4.802   3.096
 3546SOL    HW211538   6.611   4.795   3.195
 3547SOL     OW11539   0.044   4.210   5.089
 3547SOL    HW111540   0.039   4.243   4.995
 3547SOL    HW211541   6.997   4.263   5.146
 3548SOL     OW11542   5.529   0.418   5.943
 3548SOL    HW111543   5.608   0.478   5.952
 3548SOL    HW211544   5.452   0.470   5.906
 3549SOL     OW11545   2.008   4.287   5.745
 3549SOL    HW111546   2.002   4.376   5.702
 3549SOL    HW211547   2.033   4.218   5.677
 3550SOL     OW11548   5.963   2.192   4.730
 3550SOL    HW111549   5.942   2.285   4.759
 3550SOL    HW211550   6.062   2.178   4.732
 3551SOL     OW11551   3.868   1.566   3.903
 3551SOL    HW111552   3.932   1.500   3.943
 3551SOL    HW211553   3.883   1.656   3.944
 3552SOL     OW11554   6.450   6.278   1.744
 3552SOL    HW111555   6.522   6.309   1.683
 3552SOL    HW211556   6.457   6.179   1.756
 3553SOL     OW11557   3.470   5.365   7.002
 3553SOL    HW111558   3.421   5.404   6.923
 3553SOL    HW211559   3.405   5.347   0.060
 3554SOL     OW11560   4.586   2.779   0.828
 3554SOL    HW111561   4.650   2.745   0.758
 3554SOL    HW211562   4.544   2.701   0.875
 3555SOL     OW11563   1.261   3.012   4.133
 3555SOL    HW111564   1.243   3.073   4.056
 3555SOL    HW211565   1.312   2.932   4.100
 3556SOL     OW11566   4.050   0.996   3.817
 3556SOL    HW111567   4.110   1.021   3.893
 3556SOL    HW211568   3.981   1.067   3.803
 3557SOL     OW11569   1.181   6.640   3.840
 3557SOL    HW111570   1.149   6.555   3.883
 3557SOL    HW211571   1.148   6.718   3.893
 3558SOL     OW11572   2.118   4.797   1.521
 3558SOL    HW111573   2.135   4.880   1.575
 3558SOL    HW211574   2.138   4.716   1.577
 3559SOL     OW11575   0.725   6.172   4.982
 3559SOL    HW111576   0.755   6.203   4.892
 3559SOL    HW211577   0.804   6.168   5.043
 3560SOL     OW11578   2.151   4.780   3.005
 3560SOL    HW111579   2.240   4.819   3.030
 3560SOL    HW211580   2.138   4.787   2.906
 3561SOL     OW11581   4.960   3.822   5.819
 3561SOL    HW111582   4.882   3.810   5.881
 3561SOL    HW211583   5.011   3.736   5.813
 3562SOL     OW11584   3.238   1.866   3.660
 3562SOL    HW111585   3.190   1.779   3.671
 3562SOL    HW211586   3.172   1.938   3.638
 3563SOL     OW11587   6.381   1.539   6.514
 3563SOL    HW111588   6.351   1.444   6.514
 3563SOL    HW211589   6.320   1.593   6.571
 3564SOL     OW11590   0.255   4.707   2.977
 3564SOL    HW111591   0.278   4.783   3.037
 3564SOL    HW211592   0.328   4.692   2.911
 3565SOL     OW11593   3.708   5.995   3.911
 3565SOL    HW111594   3.677   5.909   3.870
 3565SOL    HW211595   3.711   5.985   4.011
 3566SOL     OW11596   6.054   1.492   6.637
 3566SOL    HW111597   5.982   1.481   6.568
 3566SOL    HW211598   6.040   1.579   6.686
 3567SOL     OW11599   0.493   2.564   6.557
 3567SOL    HW111600   0.447   2.509   6.627
 3567SOL    HW211601   0.477   2.661   6.575
 3568SOL     OW11602   5.274   4.236   5.225
 3568SOL    HW111603   5.327   4.184   5.159
 3568SOL    HW211604   5.216   4.174   5.278
 3569SOL     OW11605   2.918   2.455   6.419
 3569SOL    HW111606   2.880   2.417   6.503
 3569SOL    HW211607   2.931   2.554   6.430
 3570SOL     OW11608   4.792   0.196   6.089
 3570SOL    HW111609   4.768   0.214   6.184
 3570SOL    HW211610   4.743   0.260   6.030
 3571SOL     OW11611   0.724   5.078   0.223
 3571SOL    HW111612   0.778   5.017   0.165
 3571SOL    HW211613   0.753   5.172   0.208
 3572SOL     OW11614   5.128   4.049   3.124
 3572SOL    HW111615   5.157   4.132   3.172
 3572SOL    HW211616   5.029   4.051   3.110
 3573SOL     OW11617   0.538   4.684   3.703
 3573SOL    HW111618   0.485   4.615   3.653
 3573SOL    HW211619   0.635   4.663   3.695
 3574SOL     OW11620   0.527   4.354   0.341
 3574SOL    HW111621   0.609   4.395   0.301
 3574SOL    HW211622   0.549   4.263   0.376
 3575SOL     OW11623   5.222   4.684   2.443
 3575SOL    HW111624   5.232   4.672   2.541
 3575SOL    HW211625   5.291   4.630   2.395
 3576SOL     OW11626   2.111   1.664   5.192
 3576SOL    HW111627   2.014   1.683   5.183
 3576SOL    HW211628   2.164   1.747   5.175
 3577SOL     OW11629   1.198   2.490   5.998
 3577SOL    HW111630   1.244   2.552   6.061
 3577SOL    HW211631   1.255   2.408   5.985
 3578SOL     OW11632   3.221   2.249   0.825
 3578SOL    HW111633   3.173   2.224   0.909
 3578SOL    HW211634   3.155   2.252   0.749
 3579SOL     OW11635   6.289   4.003   4.700
 3579SOL    HW111636   6.341   4.024   4.783
 3579SOL    HW211637   6.273   4.088   4.648
 3580SOL     OW11638   6.190   2.511   1.072
 3580SOL    HW111639   6.232   2.465   0.993
 3580SOL    HW211640   6.195   2.610   1.059
 3581SOL     OW11641   0.387   6.056   3.939
 3581SOL    HW111642   0.297   6.034   3.978
 3581SOL    HW211643   0.457   6.048   4.010
 3582SOL     OW11644   0.933   1.861   5.585
 3582SOL    HW111645   1.028   1.839   5.564
 3582SOL    HW211646   0.875   1.782   5.566
 3583SOL     OW11647   1.374   3.444   6.241
 3583SOL    HW111648   1.444   3.510   6.268
 3583SOL    HW211649   1.416   3.371   6.187
 3584SOL     OW11650   6.025   5.362   6.748
 3584SOL    HW111651   6.088   5.390   6.675
 3584SOL    HW211652   6.077   5.343   6.831
 3585SOL     OW11653   4.810   5.988   5.235
 3585SOL    HW111654   4.787   5.897   5.271
 3585SOL    HW211655   4.758   6.005   5.152
 3586SOL     OW11656   0.409   2.175   5.424
 3586SOL    HW111657   0.459   2.228   5.492
 3586SOL    HW211658   0.379   2.235   5.350
 3587SOL     OW11659   3.175   5.061   6.078
 3587SOL    HW111660   3.100   5.125   6.063
 3587SOL    HW211661   3.141   4.978   6.120
 3588SOL     OW11662   1.349   3.055   4.857
 3588SOL    HW111663   1.432   3.066   4.801
 3588SOL    HW211664   1.375   3.044   4.953
 3589SOL     OW11665   4.087   2.161   4.926
 3589SOL    HW111666   4.112   2.146   4.830
 3589SOL    HW211667   4.134   2.242   4.961
 3590SOL     OW11668   1.421   2.671   6.346
 3590SOL    HW111669   1.421   2.572   6.331
 3590SOL    HW211670   1.511   2.700   6.378
 3591SOL     OW11671   4.749   3.429   6.632
 3591SOL    HW111672   4.833   3.374   6.632
 3591SOL    HW211673   4.735   3.467   6.540
 3592SOL     OW11674   6.393   4.152   2.044
 3592SOL    HW111675   6.391   4.211   1.963
 3592SOL    HW211676   6.366   4.205   2.124
 3593SOL     OW11677   1.966   5.914   4.581
 3593SOL    HW111678   1.942   5.948   4.672
 3593SOL    HW211679   1.942   5.983   4.512
 3594SOL     OW11680   4.478   0.677   2.761
 3594SOL    HW111681   4.568   0.693   2.720
 3594SOL    HW211682   4.462   0.578   2.768
 3595SOL     OW11683   2.253   5.717   6.864
 3595SOL    HW111684   2.267   5.804   6.911
 3595SOL    HW211685   2.272   5.641   6.927
 3596SOL     OW11686   6.777   2.290   3.169
 3596SOL    HW111687   6.779   2.192   3.148
 3596SOL    HW211688   6.816   2.305   3.260
 3597SOL     OW11689   2.398   1.180   5.133
 3597SOL    HW111690   2.439   1.264   5.170
 3597SOL    HW211691   2.400   1.183   5.033
 3598SOL     OW11692   1.130   5.890   6.724
 3598SOL    HW111693   1.037   5.895   6.687
 3598SOL    HW211694   1.158   5.795   6.733
 3599SOL     OW11695   0.531   1.801   5.517
 3599SOL    HW111696   0.580   1.858   5.452
 3599SOL    HW211697   0.483   1.859   5.583
 3600SOL     OW11698   0.993   3.578   0.173
 3600SOL    HW111699   0.942   3.505   0.219
 3600SOL    HW211700   0.971   3.577   0.075
 3601SOL     OW11701   5.716   5.277   6.851
 3601SOL    HW111702   5.701   5.248   6.757
 3601SOL    HW211703   5.757   5.202   6.903
 3602SOL     OW11704   1.537   2.365   0.577
 3602SOL    HW111705   1.620   2.333   0.531
 3602SOL    HW211706   1.471   2.290   0.580
 3603SOL     OW11707   3.365   0.135   3.637
 3603SOL    HW111708   3.357   0.092   3.727
 3603SOL    HW211709   3.276   0.137   3.592
 3604SOL     OW11710   0.198   5.216   3.206
 3604SOL    HW111711   0.184   5.207   3.305
 3604SOL    HW211712   0.110   5.238   3.163
 3605SOL     OW11713   5.766   3.952   5.025
 3605SOL    HW111714   5.719   3.994   4.948
 3605SOL    HW211715   5.736   3.858   5.035
 3606SOL     OW11716   0.104   6.212   5.510
 3606SOL    HW111717   0.113   6.277   5.435
 3606SOL    HW211718   0.011   6.216   5.547
 3607SOL     OW11719   4.998   6.104   1.011
 3607SOL    HW111720   5.089   6.064   1.001
 3607SOL    HW211721   4.934   6.035   1.042
 3608SOL     OW11722   6.408   1.953   3.353
 3608SOL    HW111723   6.441   1.985   3.264
 3608SOL    HW211724   6.321   1.906   3.340
 3609SOL     OW11725   0.794   0.755   4.162
 3609SOL    HW111726   0.712   0.727   4.112
 3609SOL    HW211727   0.871   0.764   4.099
 3610SOL     OW11728   1.370   6.926   6.169
 3610SOL    HW111729   1.339   6.847   6.222
 3610SOL    HW211730   1.464   6.909   6.136
 3611SOL     OW11731   4.637   6.233   5.910
 3611SOL    HW111732   4.596   6.145   5.885
 3611SOL    HW211733   4.699   6.220   5.987
 3612SOL     OW11734   5.871   0.048   6.310
 3612SOL    HW111735   5.885   0.072   6.406
 3612SOL    HW211736   5.819   6.978   6.306
 3613SOL     OW11737   4.895   5.337   1.878
 3613SOL    HW111738   4.942   5.373   1.798
 3613SOL    HW211739   4.837   5.409   1.917
 3614SOL     OW11740   3.966   3.435   2.058
 3614SOL    HW111741   4.031   3.364   2.086
 3614SOL    HW211742   4.014   3.522   2.050
 3615SOL     OW11743   5.488   5.787   6.930
 3615SOL    HW111744   5.503   5.688   6.942
 3615SOL    HW211745   5.576   5.834   6.930
 3616SOL     OW11746   0.567   3.176   5.941
 3616SOL    HW111747   0.631   3.251   5.921
 3616SOL    HW211748   0.551   3.172   6.040
 3617SOL     OW11749   3.894   1.361   6.392
 3617SOL    HW111750   3.992   1.364   6.370
 3617SOL    HW211751   3.858   1.271   6.368
 3618SOL     OW11752   2.506   1.887   5.518
 3618SOL    HW111753   2.593   1.852   5.484
 3618SOL    HW211754   2.449   1.811   5.550
 3619SOL     OW11755   5.407   2.713   3.702
 3619SOL    HW111756   5.447   2.758   3.782
 3619SOL    HW211757   5.474   2.648   3.664
 3620SOL     OW11758   6.427   6.190   6.021
 3620SOL    HW111759   6.486   6.142   5.956
 3620SOL    HW211760   6.332   6.185   5.990
 3621SOL     OW11761   3.863   2.880   5.653
 3621SOL    HW111762   3.949   2.834   5.631
 3621SOL    HW211763   3.827   2.845   5.739
 3622SOL     OW11764   1.675   1.810   4.643
 3622SOL    HW111765   1.721   1.897   4.628
 3622SOL    HW211766   1.600   1.822   4.708
 3623SOL     OW11767   6.690   5.746   4.522
 3623SOL    HW111768   6.730   5.838   4.517
 3623SOL    HW211769   6.646   5.724   4.436
 3624SOL     OW11770   2.319   6.180   1.813
 3624SOL    HW111771   2.270   6.228   1.740
 3624SOL    HW211772   2.418   6.186   1.796
 3625SOL     OW11773   5.632   3.302   6.888
 3625SOL    HW111774   5.641   3.205   6.908
 3625SOL    HW211775   5.651   3.318   6.791
 3626SOL     OW11776   1.319   3.140   6.289
 3626SOL    HW111777   1.367   3.116   6.204
 3626SOL    HW211778   1.311   3.239   6.296
 3627SOL     OW11779   3.493   2.900   3.482
 3627SOL    HW111780   3.527   2.813   3.518
 3627SOL    HW211781   3.565   2.970   3.489
 3628SOL     OW11782   1.322   1.182   1.821
 3628SOL    HW111783   1.335   1.087   1.849
 3628SOL    HW211784   1.288   1.185   1.726
 3629SOL     OW11785   6.603   2.468   4.938
 3629SOL    HW111786   6.674   2.422   4.992
 3629SOL    HW211787   6.632   2.563   4.919
 3630SOL     OW11788   4.700   2.798   3.762
 3630SOL    HW111789   4.718   2.881   3.814
 3630SOL    HW211790   4.705   2.818   3.664
 3631SOL     OW11791   1.848   6.838   3.785
 3631SOL    HW111792   1.750   6.857   3.787
 3631SOL    HW211793   1.899   6.923   3.793
 3632SOL     OW11794   4.895   6.274   1.397
 3632SOL    HW111795   4.820   6.256   1.333
 3632SOL    HW211796   4.866   6.249   1.490
 3633SOL     OW11797   3.739   1.868   5.379
 3633SOL    HW111798   3.655   1.854   5.327
 3633SOL    HW211799   3.719   1.923   5.460
 3634SOL     OW11800   0.525   5.023   4.740
 3634SOL    HW111801   0.574   4.966   4.674
 3634SOL    HW211802   0.502   5.111   4.698
 3635SOL     OW11803   2.798   6.925   6.067
 3635SOL    HW111804   2.745   6.879   5.996
 3635SOL    HW211805   2.741   6.994   6.112
 3636SOL     OW11806   0.431   5.679   0.247
 3636SOL    HW111807   0.355   5.615   0.256
 3636SOL    HW211808   0.466   5.703   0.337
 3637SOL     OW11809   6.846   1.937   1.661
 3637SOL    HW111810   6.818   1.972   1.571
 3637SOL    HW211811   6.820   2.003   1.731
 3638SOL     OW11812   0.595   4.582   4.451
 3638SOL    HW111813   0.677   4.604   4.397
 3638SOL    HW211814   0.535   4.524   4.396
 3639SOL     OW11815   3.578   4.004   1.154
 3639SOL    HW111816   3.494   3.961   1.120
 3639SOL    HW211817   3.555   4.090   1.200
 3640SOL     OW11818   3.681   0.811   0.694
 3640SOL    HW111819   3.729   0.728   0.722
 3640SOL    HW211820   3.748   0.885   0.683
 3641SOL     OW11821   5.398   3.238   3.373
 3641SOL    HW111822   5.336   3.166   3.345
 3641SOL    HW211823   5.428   3.221   3.467
 3642SOL     OW11824   4.948   0.704   0.313
 3642SOL    HW111825   4.880   0.757   0.363
 3642SOL    HW211826   5.037   0.750   0.318
 3643SOL     OW11827   2.851   5.710   5.195
 3643SOL    HW111828   2.907   5.776   5.145
 3643SOL    HW211829   2.836   5.629   5.139
 3644SOL     OW11830   0.082   1.332   1.992
 3644SOL    HW111831   0.058   1.240   1.960
 3644SOL    HW211832   0.140   1.377   1.924
 3645SOL     OW11833   6.964   2.860   3.516
 3645SOL    HW111834   6.896   2.910   3.570
 3645SOL    HW211835   7.001   2.920   3.446
 3646SOL     OW11836   6.848   4.318   6.459
 3646SOL    HW111837   6.883   4.388   6.521
 3646SOL    HW211838   6.905   4.236   6.465
 3647SOL     OW11839   2.502   4.108   6.374
 3647SOL    HW111840   2.581   4.136   6.319
 3647SOL    HW211841   2.530   4.099   6.469
 3648SOL     OW11842   3.533   5.265   2.441
 3648SOL    HW111843   3.522   5.313   2.354
 3648SOL    HW211844   3.446   5.226   2.469
 3649SOL     OW11845   4.652   2.741   1.825
 3649SOL    HW111846   4.661   2.817   1.890
 3649SOL    HW211847   4.563   2.747   1.780
 3650SOL     OW11848   0.533   5.150   1.093
 3650SOL    HW111849   0.618   5.105   1.068
 3650SOL    HW211850   0.491   5.102   1.170
 3651SOL     OW11851   0.306   6.925   4.270
 3651SOL    HW111852   0.219   6.964   4.243
 3651SOL    HW211853   0.328   6.952   4.363
 3652SOL     OW11854   5.740   6.251   3.521
 3652SOL    HW111855   5.775   6.174   3.575
 3652SOL    HW211856   5.800   6.266   3.442
 3653SOL     OW11857   0.059   1.397   4.389
 3653SOL    HW111858   0.009   1.339   4.452
 3653SOL    HW211859   0.120   1.458   4.440
 3654SOL     OW11860   2.500   4.655   0.841
 3654SOL    HW111861   2.449   4.643   0.926
 3654SOL    HW211862   2.439   4.692   0.771
 3655SOL     OW11863   1.362   6.697   3.651
 3655SOL    HW111864   1.448   6.659   3.685
 3655SOL    HW211865   1.285   6.654   3.698
 3656SOL     OW11866   0.902   3.628   2.154
 3656SOL    HW111867   0.841   3.553   2.181
 3656SOL    HW211868   0.895   3.702   2.221
 3657SOL     OW11869   4.782   5.241   6.180
 3657SOL    HW111870   4.789   5.161   6.121
 3657SOL    HW211871   4.712   5.225   6.249
 3658SOL     OW11872   1.901   5.466   5.399
 3658SOL    HW111873   1.962   5.414   5.338
 3658SOL    HW211874   1.810   5.424   5.398
 3659SOL     OW11875   1.174   3.266   4.585
 3659SOL    HW111876   1.177   3.359   4.547
 3659SOL    HW211877   1.246   3.211   4.543
 3660SOL     OW11878   5.742   0.103   3.444
 3660SOL    HW111879   5.818   0.146   3.493
 3660SOL    HW211880   5.778   0.041   3.374
 3661SOL     OW11881   5.348   1.844   5.558
 3661SOL    HW111882   5.296   1.759   5.563
 3661SOL    HW211883   5.399   1.847   5.472
 3662SOL     OW11884   4.285   6.631   3.778
 3662SOL    HW111885   4.367   6.590   3.738
 3662SOL    HW211886   4.283   6.611   3.876
 3663SOL     OW11887   1.718   1.944   0.663
 3663SOL    HW111888   1.796   1.886   0.638
 3663SOL    HW211889   1.733   1.983   0.754
 3664SOL     OW11890   5.190   2.162   1.813
 3664SOL    HW111891   5.255   2.087   1.815
 3664SOL    HW211892   5.227   2.240   1.864
 3665SOL     OW11893   2.311   6.059   5.260
 3665SOL    HW111894   2.378   6.051   5.333
 3665SOL    HW211895   2.224   6.020   5.290
 3666SOL     OW11896   1.049   4.394   3.376
 3666SOL    HW111897   0.951   4.374   3.378
 3666SOL    HW211898   1.085   4.379   3.284
 3667SOL     OW11899   0.716   0.916   2.604
 3667SOL    HW111900   0.662   0.885   2.525
 3667SOL    HW211901   0.756   0.836   2.649
 3668SOL     OW11902   1.668   1.009   2.158
 3668SOL    HW111903   1.623   1.032   2.244
 3668SOL    HW211904   1.741   1.075   2.140
 3669SOL     OW11905   5.020   0.793   3.562
 3669SOL    HW111906   5.065   0.847   3.491
 3669SOL    HW211907   5.087   0.767   3.632
 3670SOL     OW11908   2.711   5.122   0.318
 3670SOL    HW111909   2.616   5.091   0.321
 3670SOL    HW211910   2.772   5.043   0.326
 3671SOL     OW11911   6.041   1.181   3.933
 3671SOL    HW111912   6.121   1.239   3.944
 3671SOL    HW211913   6.062   1.088   3.963
 3672SOL     OW11914   5.844   1.413   1.191
 3672SOL    HW111915   5.834   1.433   1.093
 3672SOL    HW211916   5.932   1.450   1.223
 3673SOL     OW11917   3.916   6.262   6.496
 3673SOL    HW111918   3.889   6.165   6.497
 3673SOL    HW211919   3.982   6.278   6.423
 3674SOL     OW11920   0.817   6.966   5.177
 3674SOL    HW111921   0.897   6.972   5.237
 3674SOL    HW211922   0.741   6.924   5.227
 3675SOL     OW11923   2.056   3.291   4.324
 3675SOL    HW111924   1.975   3.250   4.283
 3675SOL    HW211925   2.032   3.333   4.412
 3676SOL     OW11926   5.160   4.299   3.227
 3676SOL    HW111927   5.220   4.368   3.269
 3676SOL    HW211928   5.134   4.328   3.135
 3677SOL     OW11929   2.012   5.838   3.152
 3677SOL    HW111930   1.997   5.751   3.200
 3677SOL    HW211931   2.109   5.863   3.159
 3678SOL     OW11932   0.775   2.399   5.397
 3678SOL    HW111933   0.792   2.301   5.384
 3678SOL    HW211934   0.818   2.450   5.322
 3679SOL     OW11935   0.729   0.286   3.588
 3679SOL    HW111936   0.793   0.246   3.522
 3679SOL    HW211937   0.779   0.323   3.665
 3680SOL     OW11938   5.653   2.607   3.517
 3680SOL    HW111939   5.586   2.573   3.451
 3680SOL    HW211940   5.729   2.543   3.524
 3681SOL     OW11941   0.554   0.099   6.433
 3681SOL    HW111942   0.564   0.164   6.508
 3681SOL    HW211943   0.641   0.092   6.384
 3682SOL     OW11944   5.835   2.253   7.008
 3682SOL    HW111945   5.867   2.338   0.035
 3682SOL    HW211946   5.766   2.211   0.051
 3683SOL     OW11947   6.953   0.473   2.838
 3683SOL    HW111948   0.023   0.523   2.855
 3683SOL    HW211949   6.957   0.384   2.882
 3684SOL     OW11950   2.069   4.719   0.034
 3684SOL    HW111951   2.125   4.668   6.985
 3684SOL    HW211952   2.115   4.723   0.122
 3685SOL     OW11953   6.943   6.342   6.461
 3685SOL    HW111954   6.955   6.366   6.365
 3685SOL    HW211955   7.009   6.392   6.517
 3686SOL     OW11956   5.875   5.738   3.951
 3686SOL    HW111957   5.849   5.834   3.949
 3686SOL    HW211958   5.886   5.704   3.858
 3687SOL     OW11959   3.530   5.968   5.253
 3687SOL    HW111960   3.432   5.983   5.264
 3687SOL    HW211961   3.551   5.963   5.155
 3688SOL     OW11962   6.368   3.568   6.005
 3688SOL    HW111963   6.464   3.545   5.986
 3688SOL    HW211964   6.325   3.493   6.056
 3689SOL     OW11965   2.336   0.207   6.016
 3689SOL    HW111966   2.416   0.267   6.017
 3689SOL    HW211967   2.307   0.191   5.922
 3690SOL     OW11968   5.054   5.624   0.121
 3690SOL    HW111969   5.071   5.590   0.029
 3690SOL    HW211970   4.963   5.666   0.124
 3691SOL     OW11971   2.884   2.707   6.959
 3691SOL    HW111972   2.813   2.777   6.944
 3691SOL    HW211973   2.937   2.696   6.875
 3692SOL     OW11974   0.559   5.321   5.598
 3692SOL    HW111975   0.536   5.344   5.503
 3692SOL    HW211976   0.657   5.303   5.605
 3693SOL     OW11977   2.156   3.610   2.908
 3693SOL    HW111978   2.153   3.678   2.835
 3693SOL    HW211979   2.218   3.536   2.883
 3694SOL     OW11980   1.349   6.211   2.755
 3694SOL    HW111981   1.331   6.213   2.853
 3694SOL    HW211982   1.398   6.293   2.727
 3695SOL     OW11983   6.728   2.968   1.249
 3695SOL    HW111984   6.650   3.027   1.269
 3695SOL    HW211985   6.697   2.873   1.247
 3696SOL     OW11986   3.571   5.641   5.530
 3696SOL    HW111987   3.662   5.626   5.491
 3696SOL    HW211988   3.572   5.727   5.581
 3697SOL     OW11989   0.024   6.649   2.995
 3697SOL    HW111990   0.062   6.557   2.985
 3697SOL    HW211991   6.941   6.644   3.007
 3698SOL     OW11992   2.021   0.945   4.261
 3698SOL    HW111993   2.034   1.032   4.310
 3698SOL    HW211994   1.925   0.921   4.263
 3699SOL     OW11995   0.857   2.086   3.607
 3699SOL    HW111996   0.838   2.180   3.636
 3699SOL    HW211997   0.949   2.059   3.639
 3700SOL     OW11998   0.703   6.723   4.963
 3700SOL    HW111999   0.714   6.688   5.056
 3700SOL    HW212000   0.687   6.822   4.967
 3701SOL     OW12001   1.338   0.345   4.001
 3701SOL    HW112002   1.389   0.261   3.984
 3701SOL    HW212003   1.350   0.372   4.096
 3702SOL     OW12004   5.952   0.026   2.808
 3702SOL    HW112005   6.046   7.012   2.796
 3702SOL    HW212006   5.890   6.973   2.769
 3703SOL     OW12007   5.858   1.019   5.441
 3703SOL    HW112008   5.844   0.924   5.470
 3703SOL    HW212009   5.927   1.022   5.368
 3704SOL     OW12010   3.482   2.004   1.899
 3704SOL    HW112011   3.434   2.014   1.987
 3704SOL    HW212012   3.570   2.051   1.904
 3705SOL     OW12013   4.366   5.480   3.564
 3705SOL    HW112014   4.385   5.466   3.467
 3705SOL    HW212015   4.319   5.400   3.601
 3706SOL     OW12016   1.821   3.142   6.716
 3706SOL    HW112017   1.874   3.071   6.763
 3706SOL    HW212018   1.748   3.100   6.663
 3707SOL     OW12019   5.748   4.572   4.541
 3707SOL    HW112020   5.787   4.663   4.533
 3707SOL    HW212021   5.682   4.557   4.467
 3708SOL     OW12022   0.305   0.730   6.426
 3708SOL    HW112023   0.372   0.804   6.434
 3708SOL    HW212024   0.337   0.650   6.477
 3709SOL     OW12025   3.061   0.690   0.725
 3709SOL    HW112026   2.976   0.680   0.675
 3709SOL    HW212027   3.079   0.606   0.778
 3710SOL     OW12028   6.433   5.216   6.097
 3710SOL    HW112029   6.471   5.171   6.178
 3710SOL    HW212030   6.351   5.267   6.124
 3711SOL     OW12031   0.259   0.318   4.089
 3711SOL    HW112032   0.275   0.306   3.991
 3711SOL    HW212033   0.318   0.257   4.140
 3712SOL     OW12034   0.165   5.877   6.827
 3712SOL    HW112035   0.198   5.872   6.733
 3712SOL    HW212036   0.237   5.848   6.890
 3713SOL     OW12037   0.965   6.192   5.137
 3713SOL    HW112038   0.970   6.292   5.144
 3713SOL    HW212039   1.021   6.151   5.208
 3714SOL     OW12040   4.978   5.941   5.455
 3714SOL    HW112041   4.900   5.966   5.397
 3714SOL    HW212042   5.051   6.009   5.445
 3715SOL     OW12043   7.009   3.978   2.761
 3715SOL    HW112044   6.981   4.071   2.786
 3715SOL    HW212045   6.935   3.933   2.712
 3716SOL     OW12046   6.408   0.075   5.050
 3716SOL    HW112047   6.351   0.121   4.982
 3716SOL    HW212048   6.393   0.115   5.140
 3717SOL     OW12049   6.174   6.495   6.513
 3717SOL    HW112050   6.269   6.484   6.484
 3717SOL    HW212051   6.128   6.559   6.451
 3718SOL     OW12052   1.354   0.634   6.998
 3718SOL    HW112053   1.432   0.574   6.979
 3718SOL    HW212054   1.353   0.709   6.932
 3719SOL     OW12055   5.439   4.560   0.997
 3719SOL    HW112056   5.384   4.630   0.950
 3719SOL    HW212057   5.519   4.603   1.039
 3720SOL     OW12058   5.718   2.547   6.777
 3720SOL    HW112059   5.691   2.634   6.736
 3720SOL    HW212060   5.656   2.475   6.745
 3721SOL     OW12061   5.948   4.522   1.425
 3721SOL    HW112062   6.042   4.494   1.405
 3721SOL    HW212063   5.937   4.619   1.403
 3722SOL     OW12064   6.515   5.825   0.810
 3722SOL    HW112065   6.581   5.806   0.883
 3722SOL    HW212066   6.533   5.765   0.732
 3723SOL     OW12067   6.325   5.577   1.670
 3723SOL    HW112068   6.402   5.621   1.623
 3723SOL    HW212069   6.267   5.648   1.712
 3724SOL     OW12070   1.839   4.045   4.789
 3724SOL    HW112071   1.848   4.099   4.705
 3724SOL    HW212072   1.765   3.979   4.779
 3725SOL     OW12073   5.755   5.468   0.680
 3725SOL    HW112074   5.742   5.523   0.598
 3725SOL    HW212075   5.723   5.375   0.663
 3726SOL     OW12076   5.438   3.799   0.283
 3726SOL    HW112077   5.360   3.808   0.221
 3726SOL    HW212078   5.410   3.824   0.376
 3727SOL     OW12079   6.764   2.230   5.028
 3727SOL    HW112080   6.862   2.247   5.025
 3727SOL    HW212081   6.731   2.241   5.121
 3728SOL     OW12082   1.793   3.541   6.639
 3728SOL    HW112083   1.859   3.475   6.603
 3728SOL    HW212084   1.703   3.499   6.644
 3729SOL     OW12085   1.088   2.677   3.760
 3729SOL    HW112086   1.002   2.725   3.744
 3729SOL    HW212087   1.072   2.596   3.817
 3730SOL     OW12088   2.666   4.969   5.899
 3730SOL    HW112089   2.637   5.059   5.931
 3730SOL    HW212090   2.628   4.952   5.808
 3731SOL     OW12091   6.940   1.183   0.272
 3731SOL    HW112092   0.006   1.238   0.257
 3731SOL    HW212093   6.949   1.131   0.357
 3732SOL     OW12094   3.068   1.298   6.943
 3732SOL    HW112095   3.062   1.395   6.918
 3732SOL    HW212096   2.975   1.261   6.953
 3733SOL     OW12097   1.626   3.797   2.468
 3733SOL    HW112098   1.564   3.875   2.478
 3733SOL    HW212099   1.690   3.795   2.545
 3734SOL     OW12100   5.547   1.437   2.036
 3734SOL    HW112101   5.602   1.469   1.960
 3734SOL    HW212102   5.456   1.410   2.003
 3735SOL     OW12103   1.784   0.968   3.546
 3735SOL    HW112104   1.799   0.877   3.584
 3735SOL    HW212105   1.750   0.959   3.452
 3736SOL     OW12106   0.439   2.356   0.700
 3736SOL    HW112107   0.456   2.449   0.731
 3736SOL    HW212108   0.386   2.307   0.769
 3737SOL     OW12109   5.219   0.331   3.417
 3737SOL    HW112110   5.228   0.293   3.508
 3737SOL    HW212111   5.273   0.278   3.352
 3738SOL     OW12112   6.910   6.339   1.975
 3738SOL    HW112113   6.855   6.423   1.967
 3738SOL    HW212114   6.907   6.306   2.069
 3739SOL     OW12115   2.724   4.465   1.623
 3739SOL    HW112116   2.636   4.500   1.592
 3739SOL    HW212117   2.740   4.493   1.718
 3740SOL     OW12118   5.743   0.456   0.439
 3740SOL    HW112119   5.839   0.467   0.462
 3740SOL    HW212120   5.686   0.495   0.511
 3741SOL     OW12121   4.986   3.083   0.645
 3741SOL    HW112122   5.010   3.161   0.588
 3741SOL    HW212123   5.031   3.001   0.610
 3742SOL     OW12124   3.221   1.531   6.876
 3742SOL    HW112125   3.320   1.512   6.874
 3742SOL    HW212126   3.195   1.577   6.792
 3743SOL     OW12127   5.360   3.094   1.098
 3743SOL    HW112128   5.302   3.176   1.101
 3743SOL    HW212129   5.429   3.105   1.026
 3744SOL     OW12130   1.204   5.811   2.634
 3744SOL    HW112131   1.159   5.901   2.638
 3744SOL    HW212132   1.262   5.800   2.715
 3745SOL     OW12133   3.780   4.822   1.526
 3745SOL    HW112134   3.795   4.805   1.429
 3745SOL    HW212135   3.703   4.766   1.558
 3746SOL     OW12136   5.482   1.102   2.887
 3746SOL    HW112137   5.424   1.029   2.922
 3746SOL    HW212138   5.425   1.178   2.855
 3747SOL     OW12139   2.597   6.673   5.246
 3747SOL    HW112140   2.636   6.740   5.309
 3747SOL    HW212141   2.649   6.588   5.252
 3748SOL     OW12142   6.116   1.141   0.855
 3748SOL    HW112143   6.153   1.089   0.778
 3748SOL    HW212144   6.072   1.224   0.821
 3749SOL     OW12145   1.434   5.775   3.516
 3749SOL    HW112146   1.515   5.792   3.573
 3749SOL    HW212147   1.374   5.855   3.519
 3750SOL     OW12148   1.377   3.967   0.653
 3750SOL    HW112149   1.419   3.998   0.568
 3750SOL    HW212150   1.373   3.868   0.654
 3751SOL     OW12151   0.419   3.533   1.762
 3751SOL    HW112152   0.502   3.560   1.809
 3751SOL    HW212153   0.442   3.483   1.679
 3752SOL     OW12154   5.008   0.346   6.658
 3752SOL    HW112155   5.021   0.308   6.749
 3752SOL    HW212156   4.981   0.273   6.595
 3753SOL     OW12157   6.157   6.752   4.568
 3753SOL    HW112158   6.205   6.671   4.533
 3753SOL    HW212159   6.178   6.762   4.666
 3754SOL     OW12160   2.447   0.875   1.200
 3754SOL    HW112161   2.537   0.874   1.157
 3754SOL    HW212162   2.416   0.781   1.213
 3755SOL     OW12163   4.947   4.377   4.492
 3755SOL    HW112164   4.957   4.370   4.392
 3755SOL    HW212165   4.877   4.312   4.523
 3756SOL     OW12166   2.976   5.267   6.056
 3756SOL    HW112167   2.952   5.362   6.074
 3756SOL    HW212168   2.925   5.207   6.118
 3757SOL     OW12169   5.979   5.499   0.846
 3757SOL    HW112170   5.977   5.599   0.853
 3757SOL    HW212171   5.896   5.468   0.800
 3758SOL     OW12172   2.969   1.545   4.734
 3758SOL    HW112173   2.953   1.610   4.808
 3758SOL    HW212174   2.984   1.594   4.648
 3759SOL     OW12175   4.344   6.935   6.388
 3759SOL    HW112176   4.339   6.864   6.318
 3759SOL    HW212177   4.251   6.969   6.407
 3760SOL     OW12178   1.072   1.440   4.307
 3760SOL    HW112179   0.994   1.469   4.252
 3760SOL    HW212180   1.153   1.434   4.249
 3761SOL     OW12181   0.400   1.046   5.139
 3761SOL    HW112182   0.414   1.055   5.040
 3761SOL    HW212183   0.441   1.125   5.185
 3762SOL     OW12184   1.529   4.735   0.911
 3762SOL    HW112185   1.534   4.835   0.911
 3762SOL    HW212186   1.621   4.696   0.913
 3763SOL     OW12187   0.090   3.592   0.183
 3763SOL    HW112188   0.075   3.494   0.171
 3763SOL    HW212189   0.113   3.633   0.095
 3764SOL     OW12190   1.488   0.258   2.708
 3764SOL    HW112191   1.559   0.293   2.647
 3764SOL    HW212192   1.456   0.331   2.768
 3765SOL     OW12193   5.251   1.309   1.043
 3765SOL    HW112194   5.338   1.340   1.082
 3765SOL    HW212195   5.207   1.386   0.996
 3766SOL     OW12196   1.980   1.691   3.946
 3766SOL    HW112197   1.994   1.767   3.882
 3766SOL    HW212198   1.969   1.726   4.039
 3767SOL     OW12199   2.361   4.448   0.398
 3767SOL    HW112200   2.322   4.369   0.351
 3767SOL    HW212201   2.346   4.440   0.496
 3768SOL     OW12202   0.605   6.627   4.399
 3768SOL    HW112203   0.598   6.716   4.444
 3768SOL    HW212204   0.533   6.620   4.329
 3769SOL     OW12205   5.959   5.711   4.914
 3769SOL    HW112206   5.978   5.740   5.008
 3769SOL    HW212207   5.904   5.627   4.916
 3770SOL     OW12208   1.159   0.500   6.136
 3770SOL    HW112209   1.161   0.407   6.172
 3770SOL    HW212210   1.169   0.565   6.212
 3771SOL     OW12211   5.365   3.175   0.200
 3771SOL    HW112212   5.400   3.089   0.163
 3771SOL    HW212213   5.329   3.160   0.292
 3772SOL     OW12214   0.469   0.861   0.248
 3772SOL    HW112215   0.519   0.931   0.299
 3772SOL    HW212216   0.418   0.904   0.174
 3773SOL     OW12217   6.041   3.630   5.548
 3773SOL    HW112218   6.036   3.687   5.630
 3773SOL    HW212219   6.029   3.534   5.573
 3774SOL     OW12220   6.038   5.589   1.235
 3774SOL    HW112221   6.039   5.682   1.274
 3774SOL    HW212222   5.950   5.572   1.192
 3775SOL     OW12223   4.329   5.047   2.891
 3775SOL    HW112224   4.371   4.962   2.858
 3775SOL    HW212225   4.399   5.117   2.904
 3776SOL     OW12226   4.166   1.609   6.631
 3776SOL    HW112227   4.162   1.689   6.572
 3776SOL    HW212228   4.075   1.569   6.640
 3777SOL     OW12229   3.612   5.230   3.224
 3777SOL    HW112230   3.656   5.141   3.238
 3777SOL    HW212231   3.542   5.222   3.154
 3778SOL     OW12232   2.996   5.227   2.458
 3778SOL    HW112233   2.985   5.325   2.473
 3778SOL    HW212234   2.977   5.206   2.362
 3779SOL     OW12235   0.562   4.817   0.452
 3779SOL    HW112236   0.661   4.809   0.455
 3779SOL    HW212237   0.536   4.912   0.469
 3780SOL     OW12238   5.880   4.890   4.835
 3780SOL    HW112239   5.947   4.822   4.867
 3780SOL    HW212240   5.813   4.907   4.907
 3781SOL     OW12241   0.700   6.825   4.174
 3781SOL    HW112242   0.616   6.866   4.139
 3781SOL    HW212243   0.708   6.731   4.140
 3782SOL     OW12244   2.174   0.312   2.947
 3782SOL    HW112245   2.110   0.292   2.872
 3782SOL    HW212246   2.254   0.253   2.939
 3783SOL     OW12247   5.727   5.187   3.988
 3783SOL    HW112248   5.713   5.239   3.903
 3783SOL    HW212249   5.748   5.251   4.063
 3784SOL     OW12250   5.165   2.802   2.874
 3784SOL    HW112251   5.239   2.759   2.927
 3784SOL    HW212252   5.201   2.832   2.786
 3785SOL     OW12253   1.456   3.464   5.820
 3785SOL    HW112254   1.495   3.523   5.891
 3785SOL    HW212255   1.514   3.466   5.739
 3786SOL     OW12256   2.570   4.861   3.292
 3786SOL    HW112257   2.485   4.884   3.340
 3786SOL    HW212258   2.644   4.921   3.323
 3787SOL     OW12259   6.504   1.655   2.870
 3787SOL    HW112260   6.474   1.728   2.809
 3787SOL    HW212261   6.530   1.575   2.817
 3788SOL     OW12262   0.271   4.704   4.973
 3788SOL    HW112263   0.278   4.792   4.927
 3788SOL    HW212264   0.207   4.645   4.923
 3789SOL     OW12265   0.430   3.806   4.413
 3789SOL    HW112266   0.359   3.761   4.360
 3789SOL    HW212267   0.439   3.761   4.502
 3790SOL     OW12268   1.311   4.437   5.764
 3790SOL    HW112269   1.218   4.451   5.731
 3790SOL    HW212270   1.309   4.389   5.852
 3791SOL     OW12271   5.248   1.152   6.139
 3791SOL    HW112272   5.158   1.191   6.121
 3791SOL    HW212273   5.237   1.057   6.171
 3792SOL     OW12274   1.274   2.234   3.211
 3792SOL    HW112275   1.346   2.224   3.142
 3792SOL    HW212276   1.302   2.302   3.278
 3793SOL     OW12277   4.592   6.542   1.908
 3793SOL    HW112278   4.576   6.639   1.890
 3793SOL    HW212279   4.508   6.500   1.941
 3794SOL     OW12280   1.896   2.351   1.176
 3794SOL    HW112281   1.935   2.265   1.143
 3794SOL    HW212282   1.830   2.331   1.249
 3795SOL     OW12283   4.801   5.912   1.124
 3795SOL    HW112284   4.840   5.860   1.200
 3795SOL    HW212285   4.710   5.944   1.149
 3796SOL     OW12286   3.565   1.959   2.411
 3796SOL    HW112287   3.582   2.022   2.486
 3796SOL    HW212288   3.523   1.875   2.446
 3797SOL     OW12289   1.031   3.471   2.411
 3797SOL    HW112290   1.074   3.556   2.382
 3797SOL    HW212291   0.933   3.487   2.426
 3798SOL     OW12292   2.623   5.327   4.015
 3798SOL    HW112293   2.626   5.383   3.933
 3798SOL    HW212294   2.579   5.378   4.089
 3799SOL     OW12295   6.284   2.575   3.899
 3799SOL    HW112296   6.200   2.526   3.880
 3799SOL    HW212297   6.354   2.551   3.831
 3800SOL     OW12298   5.164   2.412   3.796
 3800SOL    HW112299   5.130   2.503   3.773
 3800SOL    HW212300   5.117   2.379   3.879
 3801SOL     OW12301   5.927   6.552   1.415
 3801SOL    HW112302   5.964   6.554   1.507
 3801SOL    HW212303   5.953   6.635   1.366
 3802SOL     OW12304   1.490   2.155   1.668
 3802SOL    HW112305   1.462   2.106   1.586
 3802SOL    HW212306   1.570   2.110   1.708
 3803SOL     OW12307   4.147   3.289   2.209
 3803SOL    HW112308   4.233   3.309   2.257
 3803SOL    HW212309   4.070   3.318   2.267
 3804SOL     OW12310   4.912   1.034   3.694
 3804SOL    HW112311   4.887   0.938   3.706
 3804SOL    HW212312   4.869   1.070   3.611
 3805SOL     OW12313   1.611   2.680   1.167
 3805SOL    HW112314   1.621   2.779   1.163
 3805SOL    HW212315   1.647   2.639   1.083
 3806SOL     OW12316   3.944   3.633   5.832
 3806SOL    HW112317   3.999   3.617   5.750
 3806SOL    HW212318   3.903   3.724   5.827
 3807SOL     OW12319   1.704   5.774   2.874
 3807SOL    HW112320   1.639   5.848   2.860
 3807SOL    HW212321   1.668   5.710   2.942
 3808SOL     OW12322   4.275   1.001   0.317
 3808SOL    HW112323   4.321   0.919   0.282
 3808SOL    HW212324   4.222   1.043   0.244
 3809SOL     OW12325   5.381   2.243   1.507
 3809SOL    HW112326   5.305   2.237   1.441
 3809SOL    HW212327   5.398   2.339   1.529
 3810SOL     OW12328   4.512   2.606   3.716
 3810SOL    HW112329   4.597   2.657   3.729
 3810SOL    HW212330   4.460   2.605   3.801
 3811SOL     OW12331   0.173   5.623   4.689
 3811SOL    HW112332   0.132   5.532   4.691
 3811SOL    HW212333   0.220   5.641   4.776
 3812SOL     OW12334   4.799   4.945   5.287
 3812SOL    HW112335   4.792   4.994   5.374
 3812SOL    HW212336   4.887   4.899   5.281
 3813SOL     OW12337   4.122   3.077   0.618
 3813SOL    HW112338   4.146   3.172   0.640
 3813SOL    HW212339   4.135   3.020   0.699
 3814SOL     OW12340   5.894   0.209   6.084
 3814SOL    HW112341   5.879   0.152   6.164
 3814SOL    HW212342   5.959   0.281   6.106
 3815SOL     OW12343   3.361   2.022   1.105
 3815SOL    HW112344   3.424   1.950   1.134
 3815SOL    HW212345   3.368   2.034   1.006
 3816SOL     OW12346   1.061   5.593   6.544
 3816SOL    HW112347   0.980   5.649   6.560
 3816SOL    HW212348   1.035   5.496   6.547
 3817SOL     OW12349   4.879   3.709   2.494
 3817SOL    HW112350   4.884   3.800   2.453
 3817SOL    HW212351   4.890   3.639   2.424
 3818SOL     OW12352   6.322   1.060   6.582
 3818SOL    HW112353   6.284   0.969   6.601
 3818SOL    HW212354   6.421   1.059   6.598
 3819SOL     OW12355   5.228   5.341   2.122
 3819SOL    HW112356   5.168   5.404   2.073
 3819SOL    HW212357   5.178   5.256   2.142
 3820SOL     OW12358   5.276   0.168   3.637
 3820SOL    HW112359   5.314   0.084   3.597
 3820SOL    HW212360   5.344   0.208   3.699
 3821SOL     OW12361   2.249   1.663   1.743
 3821SOL    HW112362   2.187   1.710   1.807
 3821SOL    HW212363   2.336   1.712   1.738
 3822SOL     OW12364   2.240   0.295   1.058
 3822SOL    HW112365   2.165   0.260   1.002
 3822SOL    HW212366   2.221   0.274   1.154
 3823SOL     OW12367   3.014   3.519   6.645
 3823SOL    HW112368   3.093   3.571   6.613
 3823SOL    HW212369   2.933   3.546   6.593
 3824SOL     OW12370   0.306   3.286   0.270
 3824SOL    HW112371   0.293   3.211   0.334
 3824SOL    HW212372   0.217   3.316   0.234
 3825SOL     OW12373   0.457   5.372   0.452
 3825SOL    HW112374   0.362   5.385   0.423
 3825SOL    HW212375   0.492   5.458   0.489
 3826SOL     OW12376   1.187   3.886   6.899
 3826SOL    HW112377   1.155   3.976   6.927
 3826SOL    HW212378   1.109   3.824   6.893
 3827SOL     OW12379   1.841   1.514   1.772
 3827SOL    HW112380   1.885   1.562   1.696
 3827SOL    HW212381   1.850   1.416   1.759
 3828SOL     OW12382   3.510   3.589   3.199
 3828SOL    HW112383   3.481   3.681   3.227
 3828SOL    HW212384   3.604   3.573   3.231
 3829SOL     OW12385   1.364   4.814   2.352
 3829SOL    HW112386   1.383   4.907   2.386
 3829SOL    HW212387   1.290   4.818   2.285
 3830SOL     OW12388   0.536   0.810   5.221
 3830SOL    HW112389   0.619   0.838   5.173
 3830SOL    HW212390   0.466   0.880   5.210
 3831SOL     OW12391   4.745   2.371   2.503
 3831SOL    HW112392   4.726   2.273   2.509
 3831SOL    HW212393   4.658   2.422   2.502
 3832SOL     OW12394   6.232   0.724   2.775
 3832SOL    HW112395   6.314   0.668   2.771
 3832SOL    HW212396   6.257   0.820   2.790
 3833SOL     OW12397   0.344   6.330   6.722
 3833SOL    HW112398   0.265   6.384   6.693
 3833SOL    HW212399   0.386   6.287   6.641
 3834SOL     OW12400   3.899   4.552   1.242
 3834SOL    HW112401   3.808   4.572   1.205
 3834SOL    HW212402   3.960   4.629   1.224
 3835SOL     OW12403   3.989   5.606   4.826
 3835SOL    HW112404   4.075   5.648   4.795
 3835SOL    HW212405   3.920   5.614   4.754
 3836SOL     OW12406   1.072   4.257   6.116
 3836SOL    HW112407   1.067   4.250   6.016
 3836SOL    HW212408   1.124   4.180   6.152
 3837SOL     OW12409   4.620   4.581   6.089
 3837SOL    HW112410   4.700   4.529   6.059
 3837SOL    HW212411   4.595   4.552   6.181
 3838SOL     OW12412   0.784   3.676   4.572
 3838SOL    HW112413   0.805   3.602   4.636
 3838SOL    HW212414   0.864   3.735   4.561
 3839SOL     OW12415   5.477   1.034   3.218
 3839SOL    HW112416   5.516   0.985   3.140
 3839SOL    HW212417   5.410   0.975   3.263
 3840SOL     OW12418   2.717   1.000   6.546
 3840SOL    HW112419   2.621   1.027   6.555
 3840SOL    HW212420   2.774   1.064   6.599
 3841SOL     OW12421   6.999   3.226   4.372
 3841SOL    HW112422   6.930   3.191   4.309
 3841SOL    HW212423   6.955   3.286   4.439
 3842SOL     OW12424   2.162   2.670   1.522
 3842SOL    HW112425   2.179   2.587   1.574
 3842SOL    HW212426   2.143   2.646   1.426
 3843SOL     OW12427   5.770   5.001   2.090
 3843SOL    HW112428   5.745   4.907   2.070
 3843SOL    HW212429   5.868   5.007   2.108
 3844SOL     OW12430   0.796   3.092   5.629
 3844SOL    HW112431   0.803   2.996   5.654
 3844SOL    HW212432   0.874   3.142   5.665
 3845SOL     OW12433   2.943   3.800   5.761
 3845SOL    HW112434   2.975   3.726   5.701
 3845SOL    HW212435   2.843   3.795   5.769
 3846SOL     OW12436   6.911   5.337   3.705
 3846SOL    HW112437   6.881   5.430   3.724
 3846SOL    HW212438   6.842   5.272   3.738
 3847SOL     OW12439   5.044   1.688   4.241
 3847SOL    HW112440   5.106   1.731   4.306
 3847SOL    HW212441   5.012   1.756   4.175
 3848SOL     OW12442   4.546   5.481   2.794
 3848SOL    HW112443   4.550   5.494   2.695
 3848SOL    HW212444   4.563   5.385   2.816
 3849SOL     OW12445   1.469   1.090   6.232
 3849SOL    HW112446   1.465   1.187   6.255
 3849SOL    HW212447   1.562   1.066   6.205
 3850SOL     OW12448   2.308   3.434   1.419
 3850SOL    HW112449   2.272   3.351   1.461
 3850SOL    HW212450   2.266   3.448   1.330
 3851SOL     OW12451   1.076   4.819   2.560
 3851SOL    HW112452   1.029   4.828   2.472
 3851SOL    HW212453   1.142   4.744   2.555
 3852SOL     OW12454   4.115   6.481   3.607
 3852SOL    HW112455   4.062   6.524   3.534
 3852SOL    HW212456   4.171   6.550   3.652
 3853SOL     OW12457   1.162   4.313   3.147
 3853SOL    HW112458   1.167   4.252   3.068
 3853SOL    HW212459   1.206   4.400   3.126
 3854SOL     OW12460   1.638   2.887   2.813
 3854SOL    HW112461   1.653   2.961   2.748
 3854SOL    HW212462   1.612   2.804   2.763
 3855SOL     OW12463   5.195   6.176   6.145
 3855SOL    HW112464   5.181   6.122   6.228
 3855SOL    HW212465   5.270   6.241   6.159
 3856SOL     OW12466   6.894   0.356   5.863
 3856SOL    HW112467   6.832   0.278   5.858
 3856SOL    HW212468   6.841   0.440   5.874
 3857SOL     OW12469   0.009   6.470   0.014
 3857SOL    HW112470   6.930   6.457   0.044
 3857SOL    HW212471   0.041   6.386   6.986
 3858SOL     OW12472   1.755   0.935   5.591
 3858SOL    HW112473   1.766   0.836   5.598
 3858SOL    HW212474   1.663   0.960   5.621
 3859SOL     OW12475   6.101   1.364   2.695
 3859SOL    HW112476   6.048   1.290   2.655
 3859SOL    HW212477   6.161   1.403   2.626
 3860SOL     OW12478   2.908   0.484   5.560
 3860SOL    HW112479   2.967   0.565   5.556
 3860SOL    HW212480   2.960   0.403   5.533
 3861SOL     OW12481   4.301   4.684   3.433
 3861SOL    HW112482   4.262   4.650   3.348
 3861SOL    HW212483   4.375   4.747   3.412
 3862SOL     OW12484   0.681   0.509   5.102
 3862SOL    HW112485   0.585   0.491   5.125
 3862SOL    HW212486   0.698   0.607   5.102
 3863SOL     OW12487   5.110   2.653   6.923
 3863SOL    HW112488   5.035   2.594   6.895
 3863SOL    HW212489   5.192   2.631   6.871
 3864SOL     OW12490   2.536   0.439   5.091
 3864SOL    HW112491   2.555   0.387   5.174
 3864SOL    HW212492   2.526   0.535   5.113
 3865SOL     OW12493   3.331   0.072   6.969
 3865SOL    HW112494   3.374   0.106   0.037
 3865SOL    HW212495   3.295   0.150   6.916
 3866SOL     OW12496   3.848   0.959   0.947
 3866SOL    HW112497   3.902   1.008   1.015
 3866SOL    HW212498   3.875   0.862   0.947
 3867SOL     OW12499   1.108   4.600   3.570
 3867SOL    HW112500   1.130   4.524   3.511
 3867SOL    HW212501   1.018   4.638   3.545
 3868SOL     OW12502   3.200   6.975   0.373
 3868SOL    HW112503   3.286   6.943   0.333
 3868SOL    HW212504   3.204   0.058   0.385
 3869SOL     OW12505   5.802   4.026   4.542
 3869SOL    HW112506   5.753   4.062   4.621
 3869SOL    HW212507   5.740   4.018   4.464
 3870SOL     OW12508   4.982   6.057   6.530
 3870SOL    HW112509   4.947   5.986   6.592
 3870SOL    HW212510   4.907   6.090   6.472
 3871SOL     OW12511   3.752   0.409   2.880
 3871SOL    HW112512   3.770   0.478   2.949
 3871SOL    HW212513   3.790   0.321   2.910
 3872SOL     OW12514   3.876   3.033   3.730
 3872SOL    HW112515   3.974   3.038   3.713
 3872SOL    HW212516   3.860   3.021   3.828
 3873SOL     OW12517   6.023   3.002   1.618
 3873SOL    HW112518   6.111   3.042   1.644
 3873SOL    HW212519   6.023   2.905   1.641
 3874SOL     OW12520   4.107   5.825   0.040
 3874SOL    HW112521   4.060   5.739   0.061
 3874SOL    HW212522   4.206   5.810   0.039
 3875SOL     OW12523   1.623   2.979   1.992
 3875SOL    HW112524   1.706   2.931   2.019
 3875SOL    HW212525   1.637   3.078   2.000
 3876SOL     OW12526   4.675   5.309   0.475
 3876SOL    HW112527   4.680   5.284   0.378
 3876SOL    HW212528   4.651   5.228   0.528
 3877SOL     OW12529   6.680   2.917   0.376
 3877SOL    HW112530   6.661   2.832   0.326
 3877SOL    HW212531   6.637   2.913   0.466
 3878SOL     OW12532   3.689   6.924   4.575
 3878SOL    HW112533   3.658   6.933   4.481
 3878SOL    HW212534   3.610   6.932   4.637
 3879SOL     OW12535   5.059   5.870   2.285
 3879SOL    HW112536   5.124   5.940   2.254
 3879SOL    HW212537   5.050   5.875   2.384
 3880SOL     OW12538   5.929   4.675   3.590
 3880SOL    HW112539   5.936   4.675   3.491
 3880SOL    HW212540   5.902   4.584   3.622
 3881SOL     OW12541   1.032   3.920   1.286
 3881SOL    HW112542   1.092   3.882   1.357
 3881SOL    HW212543   1.085   3.980   1.226
 3882SOL     OW12544   0.710   1.606   5.588
 3882SOL    HW112545   0.679   1.576   5.678
 3882SOL    HW212546   0.648   1.675   5.551
 3883SOL     OW12547   4.324   0.895   3.696
 3883SOL    HW112548   4.363   0.986   3.708
 3883SOL    HW212549   4.244   0.884   3.754
 3884SOL     OW12550   0.432   5.335   3.598
 3884SOL    HW112551   0.399   5.362   3.508
 3884SOL    HW212552   0.360   5.349   3.666
 3885SOL     OW12553   6.324   0.512   2.471
 3885SOL    HW112554   6.354   0.564   2.552
 3885SOL    HW212555   6.355   0.417   2.479
 3886SOL     OW12556   6.113   6.145   4.952
 3886SOL    HW112557   6.130   6.217   4.885
 3886SOL    HW212558   6.175   6.068   4.935
 3887SOL     OW12559   0.515   0.396   6.458
 3887SOL    HW112560   0.432   0.410   6.512
 3887SOL    HW212561   0.490   0.382   6.362
 3888SOL     OW12562   0.050   6.920   5.689
 3888SOL    HW112563   0.089   6.829   5.701
 3888SOL    HW212564   0.067   6.952   5.596
 3889SOL     OW12565   6.566   3.188   6.211
 3889SOL    HW112566   6.498   3.205   6.282
 3889SOL    HW212567   6.544   3.103   6.163
 3890SOL     OW12568   5.699   5.654   2.812
 3890SOL    HW112569   5.693   5.754   2.807
 3890SOL    HW212570   5.681   5.625   2.906
 3891SOL     OW12571   5.955   4.403   4.565
 3891SOL    HW112572   5.875   4.460   4.545
 3891SOL    HW212573   5.932   4.340   4.639
 3892SOL     OW12574   0.091   2.256   1.024
 3892SOL    HW112575   0.145   2.186   1.069
 3892SOL    HW212576   0.003   2.265   1.071
 3893SOL     OW12577   3.837   4.693   0.969
 3893SOL    HW112578   3.827   4.593   0.963
 3893SOL    HW212579   3.803   4.724   1.057
 3894SOL     OW12580   2.779   2.242   1.028
 3894SOL    HW112581   2.864   2.190   1.014
 3894SOL    HW212582   2.737   2.214   1.113
 3895SOL     OW12583   1.530   0.481   5.388
 3895SOL    HW112584   1.602   0.463   5.455
 3895SOL    HW212585   1.543   0.571   5.346
 3896SOL     OW12586   0.133   1.354   5.989
 3896SOL    HW112587   0.206   1.304   5.942
 3896SOL    HW212588   0.156   1.451   5.993
 3897SOL     OW12589   3.711   5.897   2.398
 3897SOL    HW112590   3.624   5.942   2.375
 3897SOL    HW212591   3.728   5.824   2.333
 3898SOL     OW12592   3.560   3.531   4.193
 3898SOL    HW112593   3.597   3.512   4.284
 3898SOL    HW212594   3.633   3.522   4.125
 3899SOL     OW12595   5.364   0.544   3.917
 3899SOL    HW112596   5.360   0.462   3.860
 3899SOL    HW212597   5.418   0.526   3.999
 3900SOL     OW12598   5.091   2.981   3.841
 3900SOL    HW112599   5.108   2.942   3.750
 3900SOL    HW212600   5.151   3.060   3.855
 3901SOL     OW12601   3.019   6.604   5.046
 3901SOL    HW112602   2.936   6.553   5.067
 3901SOL    HW212603   2.996   6.686   4.994
 3902SOL     OW12604   6.362   3.725   1.907
 3902SOL    HW112605   6.289   3.794   1.900
 3902SOL    HW212606   6.427   3.754   1.977
 3903SOL     OW12607   4.679   5.178   0.236
 3903SOL    HW112608   4.772   5.174   0.199
 3903SOL    HW212609   4.629   5.096   0.209
 3904SOL     OW12610   1.535   6.745   5.477
 3904SOL    HW112611   1.557   6.698   5.563
 3904SOL    HW212612   1.514   6.677   5.406
 3905SOL     OW12613   5.932   6.859   5.742
 3905SOL    HW112614   5.931   6.947   5.695
 3905SOL    HW212615   5.838   6.825   5.751
 3906SOL     OW12616   3.320   5.388   5.420
 3906SOL    HW112617   3.391   5.376   5.490
 3906SOL    HW212618   3.303   5.486   5.406
 3907SOL     OW12619   6.651   6.743   5.529
 3907SOL    HW112620   6.579   6.736   5.460
 3907SOL    HW212621   6.719   6.672   5.514
 3908SOL     OW12622   1.683   0.829   0.299
 3908SOL    HW112623   1.746   0.838   0.222
 3908SOL    HW212624   1.715   0.886   0.375
 3909SOL     OW12625   0.614   5.192   5.940
 3909SOL    HW112626   0.621   5.205   5.842
 3909SOL    HW212627   0.524   5.154   5.962
 3910SOL     OW12628   3.547   4.155   1.916
 3910SOL    HW112629   3.452   4.143   1.886
 3910SOL    HW212630   3.570   4.252   1.914
 3911SOL     OW12631   4.334   1.602   6.845
 3911SOL    HW112632   4.266   1.596   6.772
 3911SOL    HW212633   4.305   1.669   6.913
 3912SOL     OW12634   3.708   0.893   6.545
 3912SOL    HW112635   3.693   0.991   6.533
 3912SOL    HW212636   3.801   0.877   6.579
 3913SOL     OW12637   2.685   5.793   6.429
 3913SOL    HW112638   2.587   5.793   6.449
 3913SOL    HW212639   2.732   5.733   6.494
 3914SOL     OW12640   4.192   1.107   0.847
 3914SOL    HW112641   4.115   1.159   0.883
 3914SOL    HW212642   4.185   1.012   0.877
 3915SOL     OW12643   4.315   6.103   1.527
 3915SOL    HW112644   4.303   6.138   1.620
 3915SOL    HW212645   4.284   6.008   1.523
 3916SOL     OW12646   1.963   6.329   2.568
 3916SOL    HW112647   1.905   6.402   2.604
 3916SOL    HW212648   2.059   6.351   2.584
 3917SOL     OW12649   1.180   5.178   0.347
 3917SOL    HW112650   1.135   5.267   0.342
 3917SOL    HW212651   1.158   5.124   0.266
 3918SOL     OW12652   4.514   6.083   1.996
 3918SOL    HW112653   4.507   6.163   1.936
 3918SOL    HW212654   4.585   6.021   1.962
 3919SOL     OW12655   3.156   6.601   6.503
 3919SOL    HW112656   3.244   6.608   6.549
 3919SOL    HW212657   3.147   6.675   6.437
 3920SOL     OW12658   2.930   2.121   6.542
 3920SOL    HW112659   3.002   2.146   6.606
 3920SOL    HW212660   2.852   2.183   6.553
 3921SOL     OW12661   0.601   2.906   0.087
 3921SOL    HW112662   0.652   2.964   0.150
 3921SOL    HW212663   0.504   2.929   0.091
 3922SOL     OW12664   5.410   4.994   0.258
 3922SOL    HW112665   5.321   4.952   0.276
 3922SOL    HW212666   5.483   4.939   0.299
 3923SOL     OW12667   6.269   2.047   6.911
 3923SOL    HW112668   6.341   2.092   6.857
 3923SOL    HW212669   6.233   1.970   6.859
 3924SOL     OW12670   0.475   5.107   3.266
 3924SOL    HW112671   0.512   5.131   3.356
 3924SOL    HW212672   0.396   5.165   3.246
 3925SOL     OW12673   4.372   4.652   0.747
 3925SOL    HW112674   4.386   4.568   0.799
 3925SOL    HW212675   4.295   4.703   0.787
 3926SOL     OW12676   0.103   6.491   3.494
 3926SOL    HW112677   0.187   6.532   3.530
 3926SOL    HW212678   0.121   6.397   3.465
 3927SOL     OW12679   0.268   3.430   4.501
 3927SOL    HW112680   0.368   3.431   4.503
 3927SOL    HW212681   0.234   3.392   4.587
 3928SOL     OW12682   3.614   5.570   4.733
 3928SOL    HW112683   3.685   5.562   4.803
 3928SOL    HW212684   3.606   5.484   4.683
 3929SOL     OW12685   0.135   1.997   6.745
 3929SOL    HW112686   0.226   2.038   6.731
 3929SOL    HW212687   0.128   1.913   6.692
 3930SOL     OW12688   1.618   2.145   3.536
 3930SOL    HW112689   1.586   2.057   3.571
 3930SOL    HW212690   1.661   2.132   3.447
 3931SOL     OW12691   2.200   2.115   2.619
 3931SOL    HW112692   2.260   2.038   2.596
 3931SOL    HW212693   2.210   2.137   2.716
 3932SOL     OW12694   1.755   4.337   3.601
 3932SOL    HW112695   1.778   4.341   3.698
 3932SOL    HW212696   1.660   4.307   3.591
 3933SOL     OW12697   2.208   6.839   6.933
 3933SOL    HW112698   2.255   6.927   6.938
 3933SOL    HW212699   2.196   6.802   0.009
 3934SOL     OW12700   0.329   1.466   1.523
 3934SOL    HW112701   0.356   1.371   1.509
 3934SOL    HW212702   0.237   1.470   1.562
 3935SOL     OW12703   1.534   0.868   5.165
 3935SOL    HW112704   1.568   0.923   5.089
 3935SOL    HW212705   1.607   0.851   5.230
 3936SOL     OW12706   0.070   5.886   5.135
 3936SOL    HW112707   0.038   5.812   5.075
 3936SOL    HW212708   0.015   5.887   5.218
 3937SOL     OW12709   0.489   6.742   2.576
 3937SOL    HW112710   0.579   6.698   2.581
 3937SOL    HW212711   0.444   6.717   2.490
 3938SOL     OW12712   6.073   3.017   3.992
 3938SOL    HW112713   6.123   2.936   4.023
 3938SOL    HW212714   6.004   3.042   4.060
 3939SOL     OW12715   3.142   1.549   3.258
 3939SOL    HW112716   3.075   1.622   3.263
 3939SOL    HW212717   3.205   1.566   3.182
 3940SOL     OW12718   3.613   4.932   2.148
 3940SOL    HW112719   3.579   4.852   2.097
 3940SOL    HW212720   3.561   4.942   2.232
 3941SOL     OW12721   6.398   0.726   5.207
 3941SOL    HW112722   6.440   0.717   5.117
 3941SOL    HW212723   6.312   0.674   5.210
 3942SOL     OW12724   0.820   6.391   5.520
 3942SOL    HW112725   0.861   6.480   5.499
 3942SOL    HW212726   0.890   6.320   5.512
 3943SOL     OW12727   0.843   3.318   2.714
 3943SOL    HW112728   0.943   3.317   2.718
 3943SOL    HW212729   0.813   3.323   2.619
 3944SOL     OW12730   5.765   3.833   5.367
 3944SOL    HW112731   5.737   3.852   5.273
 3944SOL    HW212732   5.691   3.858   5.430
 3945SOL     OW12733   0.921   2.169   2.671
 3945SOL    HW112734   0.856   2.233   2.628
 3945SOL    HW212735   0.890   2.148   2.764
 3946SOL     OW12736   6.206   4.129   6.261
 3946SOL    HW112737   6.108   4.132   6.241
 3946SOL    HW212738   6.255   4.193   6.202
 3947SOL     OW12739   6.207   5.374   1.516
 3947SOL    HW112740   6.282   5.433   1.546
 3947SOL    HW212741   6.131   5.382   1.580
 3948SOL     OW12742   0.407   4.619   0.766
 3948SOL    HW112743   0.334   4.686   0.751
 3948SOL    HW212744   0.488   4.666   0.802
 3949SOL     OW12745   5.955   6.724   3.080
 3949SOL    HW112746   6.030   6.716   3.015
 3949SOL    HW212747   5.869   6.733   3.031
 3950SOL     OW12748   2.992   4.153   1.308
 3950SOL    HW112749   3.089   4.151   1.284
 3950SOL    HW212750   2.945   4.219   1.249
 3951SOL     OW12751   0.435   0.520   6.914
 3951SOL    HW112752   0.375   0.504   6.993
 3951SOL    HW212753   0.413   0.608   6.873
 3952SOL     OW12754   5.877   3.315   4.721
 3952SOL    HW112755   5.943   3.298   4.648
 3952SOL    HW212756   5.861   3.413   4.730
 3953SOL     OW12757   3.389   4.502   0.532
 3953SOL    HW112758   3.448   4.519   0.454
 3953SOL    HW212759   3.438   4.447   0.600
 3954SOL     OW12760   5.878   5.206   5.097
 3954SOL    HW112761   5.857   5.297   5.134
 3954SOL    HW212762   5.962   5.211   5.043
 3955SOL     OW12763   4.522   6.615   0.052
 3955SOL    HW112764   4.547   6.665   0.135
 3955SOL    HW212765   4.433   6.647   0.019
 3956SOL     OW12766   1.403   1.877   3.858
 3956SOL    HW112767   1.358   1.933   3.788
 3956SOL    HW212768   1.340   1.808   3.892
 3957SOL     OW12769   4.606   6.886   3.114
 3957SOL    HW112770   4.539   6.895   3.188
 3957SOL    HW212771   4.566   6.916   3.028
 3958SOL     OW12772   5.290   0.249   6.177
 3958SOL    HW112773   5.371   0.290   6.219
 3958SOL    HW212774   5.209   0.305   6.197
 3959SOL     OW12775   3.649   6.641   0.605
 3959SOL    HW112776   3.608   6.577   0.540
 3959SOL    HW212777   3.649   6.733   0.565
 3960SOL     OW12778   5.461   1.758   6.000
 3960SOL    HW112779   5.434   1.808   6.083
 3960SOL    HW212780   5.533   1.692   6.023
 3961SOL     OW12781   5.590   3.047   2.076
 3961SOL    HW112782   5.547   2.963   2.110
 3961SOL    HW212783   5.533   3.086   2.003
 3962SOL     OW12784   1.711   5.611   6.530
 3962SOL    HW112785   1.794   5.603   6.475
 3962SOL    HW212786   1.633   5.577   6.478
 3963SOL     OW12787   4.777   4.527   3.611
 3963SOL    HW112788   4.826   4.543   3.526
 3963SOL    HW212789   4.698   4.467   3.594
 3964SOL     OW12790   4.415   4.880   4.997
 3964SOL    HW112791   4.500   4.933   4.988
 3964SOL    HW212792   4.339   4.943   5.014
 3965SOL     OW12793   4.160   3.729   6.485
 3965SOL    HW112794   4.087   3.789   6.514
 3965SOL    HW212795   4.209   3.694   6.565
 3966SOL     OW12796   6.813   4.708   6.994
 3966SOL    HW112797   6.770   4.670   6.912
 3966SOL    HW212798   6.911   4.720   6.978
 3967SOL     OW12799   1.591   5.033   2.957
 3967SOL    HW112800   1.686   5.004   2.970
 3967SOL    HW212801   1.532   4.988   3.024
 3968SOL     OW12802   6.937   0.495   0.899
 3968SOL    HW112803   6.972   0.569   0.843
 3968SOL    HW212804   6.910   0.419   0.840
 3969SOL     OW12805   1.034   3.754   3.079
 3969SOL    HW112806   0.959   3.725   3.138
 3969SOL    HW212807   1.092   3.820   3.128
 3970SOL     OW12808   4.940   4.958   3.453
 3970SOL    HW112809   4.957   5.051   3.486
 3970SOL    HW212810   4.842   4.938   3.458
 3971SOL     OW12811   2.681   4.988   2.549
 3971SOL    HW112812   2.778   4.970   2.537
 3971SOL    HW212813   2.659   4.987   2.647
 3972SOL     OW12814   1.300   4.833   1.811
 3972SOL    HW112815   1.333   4.834   1.906
 3972SOL    HW212816   1.222   4.896   1.803
 3973SOL     OW12817   2.097   4.020   5.919
 3973SOL    HW112818   2.090   4.089   5.991
 3973SOL    HW212819   2.159   4.052   5.848
 3974SOL     OW12820   1.748   0.689   5.733
 3974SOL    HW112821   1.835   0.646   5.759
 3974SOL    HW212822   1.693   0.703   5.815
 3975SOL     OW12823   5.485   0.367   6.326
 3975SOL    HW112824   5.561   0.417   6.284
 3975SOL    HW212825   5.447   0.421   6.401
 3976SOL     OW12826   1.604   4.623   1.379
 3976SOL    HW112827   1.504   4.629   1.367
 3976SOL    HW212828   1.631   4.527   1.384
 3977SOL     OW12829   3.397   4.266   5.297
 3977SOL    HW112830   3.421   4.252   5.393
 3977SOL    HW212831   3.298   4.278   5.290
 3978SOL     OW12832   5.480   0.852   4.541
 3978SOL    HW112833   5.440   0.833   4.451
 3978SOL    HW212834   5.451   0.782   4.606
 3979SOL     OW12835   2.290   5.948   1.504
 3979SOL    HW112836   2.330   5.856   1.502
 3979SOL    HW212837   2.238   5.959   1.589
 3980SOL     OW12838   6.952   4.051   6.465
 3980SOL    HW112839   0.025   4.017   6.496
 3980SOL    HW212840   6.890   3.975   6.451
 3981SOL     OW12841   1.694   1.899   6.636
 3981SOL    HW112842   1.724   1.890   6.541
 3981SOL    HW212843   1.733   1.826   6.691
 3982SOL     OW12844   1.710   0.702   4.395
 3982SOL    HW112845   1.686   0.781   4.338
 3982SOL    HW212846   1.803   0.672   4.374
 3983SOL     OW12847   4.051   5.743   4.140
 3983SOL    HW112848   4.109   5.785   4.070
 3983SOL    HW212849   4.069   5.645   4.144
 3984SOL     OW12850   1.788   0.656   2.912
 3984SOL    HW112851   1.730   0.614   2.982
 3984SOL    HW212852   1.792   0.595   2.832
 3985SOL     OW12853   2.805   4.618   0.004
 3985SOL    HW112854   2.763   4.557   0.071
 3985SOL    HW212855   2.900   4.636   0.029
 3986SOL     OW12856   0.007   2.167   2.857
 3986SOL    HW112857   0.037   2.076   2.828
 3986SOL    HW212858   0.070   2.203   2.926
 3987SOL     OW12859   2.543   6.413   4.545
 3987SOL    HW112860   2.484   6.479   4.498
 3987SOL    HW212861   2.545   6.434   4.643
 3988SOL     OW12862   3.589   2.892   5.920
 3988SOL    HW112863   3.493   2.880   5.942
 3988SOL    HW212864   3.636   2.803   5.926
 3989SOL     OW12865   6.282   1.950   0.266
 3989SOL    HW112866   6.335   1.990   0.341
 3989SOL    HW212867   6.262   2.021   0.199
 3990SOL     OW12868   5.625   1.511   3.927
 3990SOL    HW112869   5.579   1.492   3.841
 3990SOL    HW212870   5.711   1.460   3.931
 3991SOL     OW12871   5.809   1.819   1.779
 3991SOL    HW112872   5.888   1.818   1.840
 3991SOL    HW212873   5.829   1.763   1.699
 3992SOL     OW12874   4.015   2.304   6.516
 3992SOL    HW112875   4.009   2.356   6.601
 3992SOL    HW212876   4.087   2.343   6.458
 3993SOL     OW12877   0.715   2.516   3.413
 3993SOL    HW112878   0.677   2.608   3.412
 3993SOL    HW212879   0.736   2.488   3.319
 3994SOL     OW12880   0.861   2.818   5.691
 3994SOL    HW112881   0.812   2.813   5.778
 3994SOL    HW212882   0.900   2.728   5.670
 3995SOL     OW12883   2.069   3.542   4.197
 3995SOL    HW112884   2.064   3.452   4.241
 3995SOL    HW212885   2.040   3.613   4.261
 3996SOL     OW12886   1.219   0.562   4.468
 3996SOL    HW112887   1.319   0.567   4.462
 3996SOL    HW212888   1.178   0.610   4.391
 3997SOL     OW12889   4.874   3.034   2.597
 3997SOL    HW112890   4.879   3.015   2.695
 3997SOL    HW212891   4.864   3.132   2.582
 3998SOL     OW12892   4.742   1.471   2.457
 3998SOL    HW112893   4.802   1.518   2.392
 3998SOL    HW212894   4.757   1.509   2.549
 3999SOL     OW12895   5.221   3.520   3.384
 3999SOL    HW112896   5.274   3.436   3.377
 3999SOL    HW212897   5.179   3.541   3.295
 4000SOL     OW12898   3.242   5.571   2.892
 4000SOL    HW112899   3.283   5.575   2.801
 4000SOL    HW212900   3.157   5.517   2.887
 4001SOL     OW12901   1.729   2.148   4.100
 4001SOL    HW112902   1.735   2.074   4.033
 4001SOL    HW212903   1.758   2.234   4.059
 4002SOL     OW12904   2.857   3.034   0.468
 4002SOL    HW112905   2.883   3.002   0.559
 4002SOL    HW212906   2.779   3.096   0.476
 4003SOL     OW12907   2.948   6.935   5.417
 4003SOL    HW112908   3.005   6.983   5.485
 4003SOL    HW212909   3.005   6.871   5.365
 4004SOL     OW12910   6.563   2.368   4.006
 4004SOL    HW112911   6.507   2.308   3.949
 4004SOL    HW212912   6.504   2.426   4.062
 4005SOL     OW12913   4.943   5.356   1.025
 4005SOL    HW112914   5.036   5.360   0.987
 4005SOL    HW212915   4.913   5.449   1.047
 4006SOL     OW12916   4.440   4.904   1.862
 4006SOL    HW112917   4.533   4.939   1.851
 4006SOL    HW212918   4.440   4.831   1.931
 4007SOL     OW12919   0.793   3.224   1.875
 4007SOL    HW112920   0.718   3.220   1.940
 4007SOL    HW212921   0.837   3.134   1.868
 4008SOL     OW12922   3.490   1.634   4.448
 4008SOL    HW112923   3.563   1.678   4.395
 4008SOL    HW212924   3.530   1.572   4.515
 4009SOL     OW12925   4.832   2.989   0.456
 4009SOL    HW112926   4.885   3.034   0.528
 4009SOL    HW212927   4.871   2.899   0.438
 4010SOL     OW12928   1.971   3.877   0.992
 4010SOL    HW112929   2.068   3.884   0.969
 4010SOL    HW212930   1.951   3.934   1.072
 4011SOL     OW12931   1.117   0.565   1.425
 4011SOL    HW112932   1.090   0.529   1.336
 4011SOL    HW212933   1.051   0.537   1.494
 4012SOL     OW12934   4.718   4.607   1.521
 4012SOL    HW112935   4.639   4.638   1.574
 4012SOL    HW212936   4.791   4.578   1.582
 4013SOL     OW12937   2.799   0.142   1.179
 4013SOL    HW112938   2.763   0.054   1.210
 4013SOL    HW212939   2.762   0.215   1.236
 4014SOL     OW12940   4.330   5.655   3.804
 4014SOL    HW112941   4.330   5.598   3.721
 4014SOL    HW212942   4.273   5.735   3.789
 4015SOL     OW12943   4.340   5.413   6.316
 4015SOL    HW112944   4.359   5.327   6.362
 4015SOL    HW212945   4.421   5.441   6.263
 4016SOL     OW12946   1.183   5.629   6.787
 4016SOL    HW112947   1.139   5.608   6.700
 4016SOL    HW212948   1.281   5.611   6.780
 4017SOL     OW12949   0.068   6.923   6.888
 4017SOL    HW112950   6.989   6.895   6.875
 4017SOL    HW212951   0.122   6.846   6.921
 4018SOL     OW12952   5.924   6.525   1.896
 4018SOL    HW112953   5.883   6.476   1.973
 4018SOL    HW212954   5.861   6.595   1.863
 4019SOL     OW12955   5.774   3.765   2.238
 4019SOL    HW112956   5.791   3.856   2.276
 4019SOL    HW212957   5.716   3.773   2.157
 4020SOL     OW12958   6.040   2.213   5.945
 4020SOL    HW112959   6.048   2.117   5.917
 4020SOL    HW212960   5.949   2.228   5.985
 4021SOL     OW12961   3.146   3.750   5.961
 4021SOL    HW112962   3.226   3.810   5.952
 4021SOL    HW212963   3.078   3.776   5.893
 4022SOL     OW12964   4.016   0.117   0.006
 4022SOL    HW112965   4.026   0.075   0.097
 4022SOL    HW212966   4.054   0.209   0.008
 4023SOL     OW12967   6.655   0.740   3.990
 4023SOL    HW112968   6.589   0.740   3.915
 4023SOL    HW212969   6.702   0.652   3.994
 4024SOL     OW12970   2.546   5.016   4.651
 4024SOL    HW112971   2.537   5.023   4.552
 4024SOL    HW212972   2.531   4.921   4.680
 4025SOL     OW12973   0.573   5.967   5.096
 4025SOL    HW112974   0.634   6.040   5.063
 4025SOL    HW212975   0.490   6.008   5.134
 4026SOL     OW12976   6.507   6.572   3.851
 4026SOL    HW112977   6.461   6.526   3.927
 4026SOL    HW212978   6.562   6.648   3.886
 4027SOL     OW12979   3.099   3.577   1.491
 4027SOL    HW112980   3.001   3.573   1.509
 4027SOL    HW212981   3.148   3.529   1.564
 4028SOL     OW12982   2.289   2.739   3.158
 4028SOL    HW112983   2.357   2.693   3.102
 4028SOL    HW212984   2.280   2.834   3.128
 4029SOL     OW12985   2.785   4.329   6.590
 4029SOL    HW112986   2.873   4.311   6.547
 4029SOL    HW212987   2.774   4.272   6.671
 4030SOL     OW12988   1.023   2.035   0.346
 4030SOL    HW112989   1.117   2.005   0.365
 4030SOL    HW212990   0.960   1.983   0.403
 4031SOL     OW12991   4.794   6.345   3.311
 4031SOL    HW112992   4.887   6.380   3.299
 4031SOL    HW212993   4.784   6.310   3.404
 4032SOL     OW12994   6.424   0.334   2.820
 4032SOL    HW112995   6.478   0.257   2.854
 4032SOL    HW212996   6.345   0.348   2.880
 4033SOL     OW12997   2.973   3.255   2.380
 4033SOL    HW112998   2.950   3.230   2.286
 4033SOL    HW212999   2.990   3.353   2.385
 4034SOL     OW13000   6.793   1.818   5.347
 4034SOL    HW113001   6.888   1.832   5.319
 4034SOL    HW213002   6.772   1.721   5.347
 4035SOL     OW13003   6.961   2.547   0.629
 4035SOL    HW113004   7.015   2.618   0.674
 4035SOL    HW213005   6.891   2.514   0.691
 4036SOL     OW13006   4.666   6.618   2.579
 4036SOL    HW113007   4.731   6.671   2.633
 4036SOL    HW213008   4.672   6.646   2.483
 4037SOL     OW13009   2.096   1.456   0.758
 4037SOL    HW113010   2.006   1.497   0.771
 4037SOL    HW213011   2.135   1.434   0.848
 4038SOL     OW13012   4.683   4.389   1.786
 4038SOL    HW113013   4.605   4.328   1.772
 4038SOL    HW213014   4.703   4.395   1.884
 4039SOL     OW13015   5.099   4.611   1.324
 4039SOL    HW113016   5.135   4.573   1.409
 4039SOL    HW213017   5.137   4.562   1.246
 4040SOL     OW13018   3.249   6.997   5.871
 4040SOL    HW113019   3.171   6.979   5.931
 4040SOL    HW213020   3.245   0.076   5.840
 4041SOL     OW13021   2.308   5.604   1.541
 4041SOL    HW113022   2.350   5.615   1.451
 4041SOL    HW213023   2.209   5.589   1.530
 4042SOL     OW13024   6.126   5.361   2.438
 4042SOL    HW113025   6.212   5.412   2.445
 4042SOL    HW213026   6.140   5.268   2.470
 4043SOL     OW13027   4.646   2.249   4.212
 4043SOL    HW113028   4.709   2.240   4.289
 4043SOL    HW213029   4.695   2.230   4.127
 4044SOL     OW13030   4.924   0.434   3.726
 4044SOL    HW113031   4.908   0.525   3.763
 4044SOL    HW213032   4.949   0.440   3.629
 4045SOL     OW13033   2.799   4.797   6.304
 4045SOL    HW113034   2.787   4.777   6.206
 4045SOL    HW213035   2.828   4.714   6.351
 4046SOL     OW13036   0.617   1.404   3.975
 4046SOL    HW113037   0.541   1.392   3.911
 4046SOL    HW213038   0.580   1.431   4.064
 4047SOL     OW13039   2.550   2.583   0.910
 4047SOL    HW113040   2.501   2.556   0.827
 4047SOL    HW213041   2.647   2.598   0.888
 4048SOL     OW13042   5.538   1.469   2.421
 4048SOL    HW113043   5.522   1.396   2.487
 4048SOL    HW213044   5.454   1.521   2.407
 4049SOL     OW13045   6.053   6.174   6.836
 4049SOL    HW113046   6.019   6.181   6.930
 4049SOL    HW213047   6.140   6.223   6.828
 4050SOL     OW13048   2.081   6.532   0.746
 4050SOL    HW113049   2.027   6.473   0.686
 4050SOL    HW213050   2.027   6.559   0.825
 4051SOL     OW13051   3.717   2.829   0.252
 4051SOL    HW113052   3.692   2.776   0.171
 4051SOL    HW213053   3.645   2.820   0.322
 4052SOL     OW13054   0.073   0.414   2.274
 4052SOL    HW113055   0.172   0.425   2.280
 4052SOL    HW213056   0.052   0.341   2.209
 4053SOL     OW13057   3.266   5.466   4.030
 4053SOL    HW113058   3.201   5.524   4.079
 4053SOL    HW213059   3.218   5.388   3.991
 4054SOL     OW13060   0.766   2.921   1.862
 4054SOL    HW113061   0.861   2.949   1.852
 4054SOL    HW213062   0.749   2.840   1.806
 4055SOL     OW13063   3.792   3.713   6.045
 4055SOL    HW113064   3.854   3.772   6.096
 4055SOL    HW213065   3.842   3.636   6.006
 4056SOL     OW13066   3.777   3.413   0.511
 4056SOL    HW113067   3.773   3.428   0.412
 4056SOL    HW213068   3.699   3.457   0.555
 4057SOL     OW13069   5.580   1.905   1.169
 4057SOL    HW113070   5.565   1.938   1.262
 4057SOL    HW213071   5.513   1.833   1.148
 4058SOL     OW13072   1.485   0.563   4.505
 4058SOL    HW113073   1.511   0.489   4.567
 4058SOL    HW213074   1.567   0.609   4.470
 4059SOL     OW13075   1.241   2.897   3.665
 4059SOL    HW113076   1.201   2.815   3.707
 4059SOL    HW213077   1.285   2.872   3.579
 4060SOL     OW13078   4.672   5.904   4.649
 4060SOL    HW113079   4.750   5.922   4.589
 4060SOL    HW213080   4.673   5.807   4.676
 4061SOL     OW13081   3.349   4.882   1.775
 4061SOL    HW113082   3.380   4.962   1.724
 4061SOL    HW213083   3.399   4.875   1.861
 4062SOL     OW13084   3.191   1.821   2.835
 4062SOL    HW113085   3.160   1.912   2.860
 4062SOL    HW213086   3.132   1.784   2.763
 4063SOL     OW13087   5.599   6.974   5.160
 4063SOL    HW113088   5.638   0.021   5.092
 4063SOL    HW213089   5.499   6.976   5.155
 4064SOL     OW13090   1.730   6.610   3.353
 4064SOL    HW113091   1.827   6.602   3.331
 4064SOL    HW213092   1.677   6.558   3.286
 4065SOL     OW13093   0.616   6.427   0.662
 4065SOL    HW113094   0.519   6.444   0.683
 4065SOL    HW213095   0.672   6.451   0.741
 4066SOL     OW13096   5.465   5.362   2.790
 4066SOL    HW113097   5.441   5.418   2.869
 4066SOL    HW213098   5.547   5.397   2.747
 4067SOL     OW13099   6.055   2.919   2.319
 4067SOL    HW113100   6.077   2.830   2.279
 4067SOL    HW213101   5.957   2.937   2.308
 4068SOL     OW13102   3.114   0.782   3.975
 4068SOL    HW113103   3.065   0.844   3.914
 4068SOL    HW213104   3.139   0.831   4.059
 4069SOL     OW13105   3.794   4.701   6.080
 4069SOL    HW113106   3.806   4.620   6.024
 4069SOL    HW213107   3.831   4.781   6.032
 4070SOL     OW13108   0.646   3.766   2.437
 4070SOL    HW113109   0.660   3.864   2.425
 4070SOL    HW213110   0.563   3.750   2.491
 4071SOL     OW13111   1.165   0.486   5.192
 4071SOL    HW113112   1.218   0.571   5.198
 4071SOL    HW213113   1.096   0.485   5.265
 4072SOL     OW13114   1.152   6.117   4.246
 4072SOL    HW113115   1.105   6.100   4.333
 4072SOL    HW213116   1.174   6.214   4.238
 4073SOL     OW13117   2.297   5.315   6.235
 4073SOL    HW113118   2.288   5.398   6.181
 4073SOL    HW213119   2.279   5.235   6.177
 4074SOL     OW13120   0.939   2.911   2.279
 4074SOL    HW113121   0.933   2.893   2.181
 4074SOL    HW213122   0.870   2.978   2.305
 4075SOL     OW13123   4.043   2.248   2.503
 4075SOL    HW113124   4.131   2.290   2.524
 4075SOL    HW213125   4.032   2.243   2.403
 4076SOL     OW13126   2.107   3.337   5.725
 4076SOL    HW113127   2.033   3.403   5.710
 4076SOL    HW213128   2.070   3.244   5.719
 4077SOL     OW13129   3.377   6.814   6.980
 4077SOL    HW113130   3.349   6.908   6.960
 4077SOL    HW213131   3.427   6.813   0.051
 4078SOL     OW13132   6.674   5.138   1.416
 4078SOL    HW113133   6.614   5.203   1.461
 4078SOL    HW213134   6.652   5.045   1.446
 4079SOL     OW13135   0.403   2.145   3.149
 4079SOL    HW113136   0.431   2.073   3.086
 4079SOL    HW213137   0.481   2.175   3.203
 4080SOL     OW13138   2.674   3.425   0.722
 4080SOL    HW113139   2.675   3.464   0.814
 4080SOL    HW213140   2.591   3.453   0.675
 4081SOL     OW13141   1.755   1.773   3.663
 4081SOL    HW113142   1.849   1.799   3.685
 4081SOL    HW213143   1.720   1.711   3.733
 4082SOL     OW13144   1.175   2.037   0.920
 4082SOL    HW113145   1.116   2.107   0.880
 4082SOL    HW213146   1.195   2.061   1.015
 4083SOL     OW13147   5.755   4.071   2.764
 4083SOL    HW113148   5.825   4.000   2.777
 4083SOL    HW213149   5.774   4.147   2.826
 4084SOL     OW13150   4.752   2.268   2.864
 4084SOL    HW113151   4.695   2.228   2.935
 4084SOL    HW213152   4.695   2.294   2.786
 4085SOL     OW13153   2.641   5.901   0.650
 4085SOL    HW113154   2.610   5.881   0.743
 4085SOL    HW213155   2.605   5.990   0.621
 4086SOL     OW13156   6.915   4.980   1.015
 4086SOL    HW113157   7.010   4.962   0.989
 4086SOL    HW213158   6.910   4.992   1.114
 4087SOL     OW13159   2.374   1.440   2.889
 4087SOL    HW113160   2.287   1.446   2.936
 4087SOL    HW213161   2.360   1.401   2.798
 4088SOL     OW13162   6.678   1.260   6.366
 4088SOL    HW113163   6.774   1.234   6.376
 4088SOL    HW213164   6.672   1.360   6.356
 4089SOL     OW13165   6.281   5.128   4.654
 4089SOL    HW113166   6.200   5.185   4.671
 4089SOL    HW213167   6.330   5.113   4.739
 4090SOL     OW13168   2.197   5.750   5.162
 4090SOL    HW113169   2.207   5.801   5.076
 4090SOL    HW213170   2.106   5.768   5.201
 4091SOL     OW13171   0.485   6.102   0.094
 4091SOL    HW113172   0.394   6.142   0.081
 4091SOL    HW213173   0.497   6.077   0.190
 4092SOL     OW13174   5.829   2.393   3.549
 4092SOL    HW113175   5.903   2.360   3.608
 4092SOL    HW213176   5.742   2.356   3.581
 4093SOL     OW13177   5.293   6.761   1.106
 4093SOL    HW113178   5.336   6.713   1.182
 4093SOL    HW213179   5.197   6.778   1.127
 4094SOL     OW13180   1.172   4.607   6.368
 4094SOL    HW113181   1.131   4.652   6.447
 4094SOL    HW213182   1.265   4.577   6.391
 4095SOL     OW13183   0.546   3.515   0.273
 4095SOL    HW113184   0.570   3.426   0.311
 4095SOL    HW213185   0.547   3.510   0.173
 4096SOL     OW13186   3.632   0.738   6.287
 4096SOL    HW113187   3.596   0.809   6.348
 4096SOL    HW213188   3.732   0.738   6.292
 4097SOL     OW13189   5.216   4.508   4.969
 4097SOL    HW113190   5.156   4.449   4.916
 4097SOL    HW213191   5.181   4.518   5.062
 4098SOL     OW13192   1.028   2.613   1.272
 4098SOL    HW113193   1.056   2.639   1.365
 4098SOL    HW213194   0.995   2.519   1.272
 4099SOL     OW13195   3.626   5.288   1.017
 4099SOL    HW113196   3.555   5.219   1.026
 4099SOL    HW213197   3.693   5.259   0.948
 4100SOL     OW13198   0.830   6.998   4.373
 4100SOL    HW113199   0.850   0.070   4.329
 4100SOL    HW213200   0.767   6.946   4.315
 4101SOL     OW13201   0.982   1.078   6.998
 4101SOL    HW113202   0.969   1.060   0.080
 4101SOL    HW213203   0.926   1.015   6.945
 4102SOL     OW13204   1.676   0.304   0.609
 4102SOL    HW113205   1.739   0.227   0.597
 4102SOL    HW213206   1.673   0.330   0.706
 4103SOL     OW13207   0.908   0.483   2.120
 4103SOL    HW113208   0.879   0.397   2.162
 4103SOL    HW213209   0.838   0.514   2.056
 4104SOL     OW13210   0.213   4.947   3.496
 4104SOL    HW113211   0.184   4.852   3.498
 4104SOL    HW213212   0.282   4.963   3.567
 4105SOL     OW13213   6.392   0.379   3.164
 4105SOL    HW113214   6.439   0.462   3.134
 4105SOL    HW213215   6.457   0.303   3.166
 4106SOL     OW13216   0.092   3.098   3.743
 4106SOL    HW113217   0.049   3.013   3.711
 4106SOL    HW213218   0.068   3.114   3.838
 4107SOL     OW13219   1.112   5.668   0.689
 4107SOL    HW113220   1.175   5.591   0.693
 4107SOL    HW213221   1.049   5.664   0.766
 4108SOL     OW13222   6.132   4.922   4.560
 4108SOL    HW113223   6.211   4.872   4.524
 4108SOL    HW213224   6.158   5.017   4.577
 4109SOL     OW13225   5.931   6.925   4.901
 4109SOL    HW113226   5.876   6.860   4.953
 4109SOL    HW213227   5.880   7.011   4.891
 4110SOL     OW13228   4.217   3.801   6.114
 4110SOL    HW113229   4.253   3.806   6.021
 4110SOL    HW213230   4.258   3.724   6.163
 4111SOL     OW13231   5.360   5.259   6.156
 4111SOL    HW113232   5.437   5.196   6.163
 4111SOL    HW213233   5.274   5.208   6.161
 4112SOL     OW13234   4.868   6.185   4.342
 4112SOL    HW113235   4.771   6.204   4.329
 4112SOL    HW213236   4.883   6.086   4.340
 4113SOL     OW13237   5.363   5.766   4.464
 4113SOL    HW113238   5.422   5.828   4.516
 4113SOL    HW213239   5.412   5.735   4.382
 4114SOL     OW13240   4.877   1.990   3.712
 4114SOL    HW113241   4.895   2.076   3.664
 4114SOL    HW213242   4.831   1.927   3.649
 4115SOL     OW13243   3.023   4.809   2.928
 4115SOL    HW113244   3.112   4.834   2.966
 4115SOL    HW213245   2.963   4.777   3.001
 4116SOL     OW13246   4.084   1.491   3.311
 4116SOL    HW113247   4.124   1.458   3.397
 4116SOL    HW213248   4.145   1.466   3.235
 4117SOL     OW13249   1.172   3.253   2.796
 4117SOL    HW113250   1.248   3.195   2.826
 4117SOL    HW213251   1.204   3.313   2.722
 4118SOL     OW13252   5.277   6.720   0.046
 4118SOL    HW113253   5.198   6.756   0.095
 4118SOL    HW213254   5.317   6.792   7.006
 4119SOL     OW13255   3.086   1.626   3.792
 4119SOL    HW113256   3.179   1.595   3.814
 4119SOL    HW213257   3.030   1.547   3.766
 4120SOL     OW13258   2.828   1.433   5.968
 4120SOL    HW113259   2.843   1.357   5.905
 4120SOL    HW213260   2.734   1.429   6.003
 4121SOL     OW13261   6.532   6.923   3.961
 4121SOL    HW113262   6.550   0.001   3.931
 4121SOL    HW213263   6.482   6.925   4.047
 4122SOL     OW13264   1.227   6.638   4.688
 4122SOL    HW113265   1.151   6.702   4.676
 4122SOL    HW213266   1.307   6.671   4.638
 4123SOL     OW13267   4.151   4.797   5.157
 4123SOL    HW113268   4.130   4.699   5.148
 4123SOL    HW213269   4.071   4.851   5.128
 4124SOL     OW13270   6.670   6.728   0.903
 4124SOL    HW113271   6.691   6.630   0.901
 4124SOL    HW213272   6.643   6.757   0.811
 4125SOL     OW13273   4.356   2.272   3.036
 4125SOL    HW113274   4.319   2.335   2.968
 4125SOL    HW213275   4.400   2.195   2.991
 4126SOL     OW13276   1.633   3.480   3.218
 4126SOL    HW113277   1.730   3.473   3.242
 4126SOL    HW213278   1.588   3.392   3.233
 4127SOL     OW13279   5.810   3.599   4.839
 4127SOL    HW113280   5.817   3.650   4.754
 4127SOL    HW213281   5.868   3.642   4.909
 4128SOL     OW13282   0.733   3.514   0.949
 4128SOL    HW113283   0.741   3.517   1.049
 4128SOL    HW213284   0.768   3.427   0.915
 4129SOL     OW13285   3.197   1.029   0.146
 4129SOL    HW113286   3.162   1.116   0.181
 4129SOL    HW213287   3.134   0.994   0.076
 4130SOL     OW13288   6.310   2.649   0.454
 4130SOL    HW113289   6.215   2.677   0.463
 4130SOL    HW213290   6.321   2.556   0.491
 4131SOL     OW13291   0.158   1.648   3.137
 4131SOL    HW113292   0.251   1.666   3.171
 4131SOL    HW213293   0.131   1.555   3.162
 4132SOL     OW13294   4.780   3.957   3.449
 4132SOL    HW113295   4.868   3.917   3.422
 4132SOL    HW213296   4.706   3.907   3.405
 4133SOL     OW13297   3.450   5.921   1.511
 4133SOL    HW113298   3.418   5.893   1.421
 4133SOL    HW213299   3.376   5.908   1.578
 4134SOL     OW13300   1.686   3.788   1.015
 4134SOL    HW113301   1.752   3.862   1.021
 4134SOL    HW213302   1.659   3.774   0.919
 4135SOL     OW13303   0.407   2.658   2.105
 4135SOL    HW113304   0.379   2.664   2.010
 4135SOL    HW213305   0.326   2.657   2.164
 4136SOL     OW13306   1.426   3.781   3.447
 4136SOL    HW113307   1.397   3.799   3.541
 4136SOL    HW213308   1.375   3.703   3.411
 4137SOL     OW13309   1.703   2.959   1.205
 4137SOL    HW113310   1.797   2.933   1.183
 4137SOL    HW213311   1.698   2.988   1.301
 4138SOL     OW13312   3.861   5.536   2.749
 4138SOL    HW113313   3.903   5.465   2.693
 4138SOL    HW213314   3.828   5.610   2.690
 4139SOL     OW13315   1.170   0.979   5.129
 4139SOL    HW113316   1.147   1.002   5.034
 4139SOL    HW213317   1.156   1.059   5.187
 4140SOL     OW13318   3.203   1.076   5.027
 4140SOL    HW113319   3.262   1.126   4.963
 4140SOL    HW213320   3.107   1.088   4.999
 4141SOL     OW13321   5.296   6.592   1.404
 4141SOL    HW113322   5.386   6.610   1.364
 4141SOL    HW213323   5.247   6.525   1.349
 4142SOL     OW13324   6.549   4.620   0.585
 4142SOL    HW113325   6.464   4.650   0.628
 4142SOL    HW213326   6.627   4.665   0.628
 4143SOL     OW13327   5.645   3.013   1.269
 4143SOL    HW113328   5.707   3.090   1.282
 4143SOL    HW213329   5.556   3.047   1.238
 4144SOL     OW13330   5.151   1.601   0.134
 4144SOL    HW113331   5.052   1.586   0.143
 4144SOL    HW213332   5.200   1.518   0.161
 4145SOL     OW13333   0.541   6.236   1.494
 4145SOL    HW113334   0.629   6.199   1.465
 4145SOL    HW213335   0.505   6.182   1.570
 4146SOL     OW13336   6.612   0.227   3.500
 4146SOL    HW113337   6.517   0.203   3.478
 4146SOL    HW213338   6.619   0.327   3.509
 4147SOL     OW13339   4.093   4.726   5.784
 4147SOL    HW113340   4.012   4.674   5.756
 4147SOL    HW213341   4.070   4.781   5.865
 4148SOL     OW13342   2.661   0.760   4.363
 4148SOL    HW113343   2.628   0.721   4.449
 4148SOL    HW213344   2.745   0.713   4.336
 4149SOL     OW13345   0.361   4.498   1.371
 4149SOL    HW113346   0.456   4.530   1.377
 4149SOL    HW213347   0.326   4.482   1.463
 4150SOL     OW13348   0.699   0.957   5.836
 4150SOL    HW113349   0.663   1.047   5.811
 4150SOL    HW213350   0.715   0.954   5.935
 4151SOL     OW13351   2.460   6.318   5.751
 4151SOL    HW113352   2.456   6.288   5.847
 4151SOL    HW213353   2.465   6.417   5.748
 4152SOL     OW13354   3.894   5.684   1.627
 4152SOL    HW113355   3.973   5.736   1.595
 4152SOL    HW213356   3.818   5.698   1.563
 4153SOL     OW13357   5.764   5.056   0.980
 4153SOL    HW113358   5.774   4.957   0.994
 4153SOL    HW213359   5.734   5.098   1.066
 4154SOL     OW13360   6.590   5.046   4.266
 4154SOL    HW113361   6.518   5.032   4.198
 4154SOL    HW213362   6.554   5.030   4.357
 4155SOL     OW13363   0.170   0.692   1.027
 4155SOL    HW113364   0.264   0.701   1.061
 4155SOL    HW213365   0.107   0.733   1.093
 4156SOL     OW13366   6.201   5.573   5.305
 4156SOL    HW113367   6.187   5.542   5.211
 4156SOL    HW213368   6.115   5.566   5.356
 4157SOL     OW13369   5.463   5.647   4.213
 4157SOL    HW113370   5.437   5.573   4.152
 4157SOL    HW213371   5.502   5.723   4.160
 4158SOL     OW13372   0.720   3.095   2.336
 4158SOL    HW113373   0.780   3.143   2.400
 4158SOL    HW213374   0.645   3.052   2.386
 4159SOL     OW13375   1.523   3.227   3.228
 4159SOL    HW113376   1.438   3.189   3.191
 4159SOL    HW213377   1.523   3.219   3.327
 4160SOL     OW13378   5.246   0.208   0.045
 4160SOL    HW113379   5.264   0.237   6.967
 4160SOL    HW213380   5.226   0.288   0.102
 4161SOL     OW13381   0.780   2.128   0.705
 4161SOL    HW113382   0.853   2.061   0.696
 4161SOL    HW213383   0.815   2.208   0.756
 4162SOL     OW13384   6.076   6.058   0.396
 4162SOL    HW113385   6.113   5.999   0.325
 4162SOL    HW213386   5.983   6.085   0.372
 4163SOL     OW13387   5.228   0.686   3.734
 4163SOL    HW113388   5.289   0.667   3.811
 4163SOL    HW213389   5.263   0.641   3.652
 4164SOL     OW13390   1.794   6.727   5.127
 4164SOL    HW113391   1.892   6.738   5.144
 4164SOL    HW213392   1.768   6.633   5.146
 4165SOL     OW13393   4.170   0.282   5.788
 4165SOL    HW113394   4.215   0.286   5.699
 4165SOL    HW213395   4.239   0.265   5.859
 4166SOL     OW13396   5.600   1.199   0.631
 4166SOL    HW113397   5.637   1.106   0.631
 4166SOL    HW213398   5.503   1.197   0.606
 4167SOL     OW13399   3.306   4.025   0.297
 4167SOL    HW113400   3.329   4.091   0.368
 4167SOL    HW213401   3.371   4.032   0.222
 4168SOL     OW13402   0.348   3.979   1.306
 4168SOL    HW113403   0.296   4.062   1.287
 4168SOL    HW213404   0.293   3.917   1.362
 4169SOL     OW13405   6.010   5.108   4.365
 4169SOL    HW113406   6.061   5.186   4.402
 4169SOL    HW213407   5.927   5.094   4.419
 4170SOL     OW13408   4.389   3.401   6.303
 4170SOL    HW113409   4.321   3.342   6.258
 4170SOL    HW213410   4.397   3.487   6.252
 4171SOL     OW13411   6.186   5.860   1.126
 4171SOL    HW113412   6.203   5.822   1.035
 4171SOL    HW213413   6.105   5.919   1.124
 4172SOL     OW13414   1.972   1.746   6.559
 4172SOL    HW113415   2.048   1.693   6.595
 4172SOL    HW213416   1.900   1.684   6.527
 4173SOL     OW13417   5.406   3.479   4.600
 4173SOL    HW113418   5.310   3.476   4.628
 4173SOL    HW213419   5.464   3.485   4.681
 4174SOL     OW13420   4.445   1.113   2.629
 4174SOL    HW113421   4.354   1.071   2.620
 4174SOL    HW213422   4.437   1.198   2.681
 4175SOL     OW13423   1.855   5.025   4.265
 4175SOL    HW113424   1.850   4.991   4.359
 4175SOL    HW213425   1.762   5.035   4.229
 4176SOL     OW13426   4.235   6.306   1.367
 4176SOL    HW113427   4.176   6.265   1.297
 4176SOL    HW213428   4.270   6.234   1.427
 4177SOL     OW13429   6.052   5.087   5.636
 4177SOL    HW113430   6.090   5.129   5.719
 4177SOL    HW213431   6.025   4.993   5.657
 4178SOL     OW13432   4.316   6.522   4.015
 4178SOL    HW113433   4.340   6.426   3.997
 4178SOL    HW213434   4.377   6.559   4.085
 4179SOL     OW13435   5.443   3.483   2.888
 4179SOL    HW113436   5.540   3.459   2.891
 4179SOL    HW213437   5.394   3.432   2.959
 4180SOL     OW13438   3.913   3.704   0.679
 4180SOL    HW113439   3.992   3.763   0.661
 4180SOL    HW213440   3.907   3.633   0.609
 4181SOL     OW13441   3.867   0.673   6.855
 4181SOL    HW113442   3.890   0.622   6.938
 4181SOL    HW213443   3.792   0.736   6.875
 4182SOL     OW13444   0.635   6.062   3.604
 4182SOL    HW113445   0.722   6.015   3.618
 4182SOL    HW213446   0.626   6.088   3.508
 4183SOL     OW13447   3.121   1.656   0.091
 4183SOL    HW113448   3.170   1.627   0.008
 4183SOL    HW213449   3.077   1.577   0.133
 4184SOL     OW13450   3.160   6.881   2.937
 4184SOL    HW113451   3.091   6.942   2.897
 4184SOL    HW213452   3.245   6.930   2.951
 4185SOL     OW13453   1.189   5.056   3.060
 4185SOL    HW113454   1.163   5.128   2.996
 4185SOL    HW213455   1.167   5.085   3.153
 4186SOL     OW13456   2.738   4.829   6.860
 4186SOL    HW113457   2.687   4.885   6.925
 4186SOL    HW213458   2.779   4.751   6.908
 4187SOL     OW13459   3.763   3.777   5.605
 4187SOL    HW113460   3.787   3.843   5.676
 4187SOL    HW213461   3.675   3.803   5.564
 4188SOL     OW13462   5.503   0.948   5.354
 4188SOL    HW113463   5.589   0.898   5.364
 4188SOL    HW213464   5.426   0.885   5.364
 4189SOL     OW13465   3.119   5.133   4.902
 4189SOL    HW113466   3.114   5.232   4.894
 4189SOL    HW213467   3.068   5.104   4.984
 4190SOL     OW13468   1.060   0.691   0.702
 4190SOL    HW113469   1.096   0.783   0.684
 4190SOL    HW213470   0.962   0.697   0.723
 4191SOL     OW13471   5.020   4.307   3.465
 4191SOL    HW113472   5.066   4.284   3.380
 4191SOL    HW213473   4.979   4.398   3.457
 4192SOL     OW13474   0.713   1.070   3.821
 4192SOL    HW113475   0.759   0.982   3.828
 4192SOL    HW213476   0.742   1.130   3.895
 4193SOL     OW13477   6.503   0.655   0.935
 4193SOL    HW113478   6.589   0.701   0.910
 4193SOL    HW213479   6.505   0.561   0.902
 4194SOL     OW13480   5.344   0.264   4.748
 4194SOL    HW113481   5.441   0.278   4.768
 4194SOL    HW213482   5.301   0.217   4.825
 4195SOL     OW13483   4.065   6.263   1.105
 4195SOL    HW113484   3.967   6.247   1.115
 4195SOL    HW213485   4.079   6.345   1.049
 4196SOL     OW13486   6.018   2.431   2.135
 4196SOL    HW113487   5.998   2.377   2.217
 4196SOL    HW213488   6.049   2.370   2.062
 4197SOL     OW13489   4.711   5.053   5.561
 4197SOL    HW113490   4.668   5.071   5.649
 4197SOL    HW213491   4.810   5.044   5.572
 4198SOL     OW13492   6.394   2.052   0.484
 4198SOL    HW113493   6.327   2.109   0.532
 4198SOL    HW213494   6.457   2.011   0.551
 4199SOL     OW13495   1.823   2.045   6.032
 4199SOL    HW113496   1.870   2.106   6.095
 4199SOL    HW213497   1.890   1.986   5.986
 4200SOL     OW13498   3.333   0.588   5.932
 4200SOL    HW113499   3.400   0.653   5.969
 4200SOL    HW213500   3.271   0.559   6.005
 4201SOL     OW13501   6.107   6.666   3.790
 4201SOL    HW113502   6.011   6.691   3.804
 4201SOL    HW213503   6.153   6.739   3.739
 4202SOL     OW13504   3.535   5.675   5.863
 4202SOL    HW113505   3.576   5.739   5.798
 4202SOL    HW213506   3.594   5.596   5.875
 4203SOL     OW13507   3.857   4.843   6.860
 4203SOL    HW113508   3.764   4.832   6.824
 4203SOL    HW213509   3.922   4.837   6.784
 4204SOL     OW13510   4.082   3.666   3.642
 4204SOL    HW113511   4.045   3.597   3.579
 4204SOL    HW213512   4.123   3.740   3.589
 4205SOL     OW13513   4.427   5.781   3.444
 4205SOL    HW113514   4.371   5.832   3.379
 4205SOL    HW213515   4.410   5.683   3.431
 4206SOL     OW13516   6.763   0.320   5.304
 4206SOL    HW113517   6.794   0.226   5.314
 4206SOL    HW213518   6.819   0.380   5.361
 4207SOL     OW13519   1.952   1.642   1.581
 4207SOL    HW113520   2.012   1.722   1.593
 4207SOL    HW213521   1.959   1.610   1.486
 4208SOL     OW13522   7.015   3.024   5.445
 4208SOL    HW113523   0.058   2.966   5.501
 4208SOL    HW213524   0.023   3.012   5.348
 4209SOL     OW13525   6.575   0.624   3.751
 4209SOL    HW113526   6.605   0.573   3.670
 4209SOL    HW213527   6.485   0.591   3.780
 4210SOL     OW13528   3.952   3.035   2.292
 4210SOL    HW113529   4.037   3.081   2.263
 4210SOL    HW213530   3.962   3.002   2.386
 4211SOL     OW13531   4.497   6.457   6.300
 4211SOL    HW113532   4.416   6.506   6.331
 4211SOL    HW213533   4.498   6.454   6.200
 4212SOL     OW13534   6.158   1.941   2.561
 4212SOL    HW113535   6.205   1.854   2.576
 4212SOL    HW213536   6.070   1.941   2.607
 4213SOL     OW13537   1.784   0.361   1.602
 4213SOL    HW113538   1.818   0.435   1.545
 4213SOL    HW213539   1.860   0.304   1.632
 4214SOL     OW13540   1.121   5.245   5.422
 4214SOL    HW113541   1.073   5.161   5.447
 4214SOL    HW213542   1.219   5.228   5.415
 4215SOL     OW13543   5.088   0.037   5.792
 4215SOL    HW113544   5.044   0.007   5.877
 4215SOL    HW213545   5.186   0.049   5.808
 4216SOL     OW13546   1.949   1.608   2.475
 4216SOL    HW113547   1.852   1.624   2.491
 4216SOL    HW213548   1.995   1.696   2.461
 4217SOL     OW13549   1.030   0.386   2.402
 4217SOL    HW113550   0.985   0.460   2.452
 4217SOL    HW213551   1.036   0.305   2.461
 4218SOL     OW13552   4.135   1.081   1.766
 4218SOL    HW113553   4.086   1.122   1.843
 4218SOL    HW213554   4.104   0.986   1.753
 4219SOL     OW13555   3.994   6.057   3.909
 4219SOL    HW113556   4.012   6.115   3.829
 4219SOL    HW213557   3.896   6.046   3.921
 4220SOL     OW13558   6.044   2.730   3.673
 4220SOL    HW113559   6.142   2.746   3.684
 4220SOL    HW213560   6.012   2.775   3.589
 4221SOL     OW13561   5.745   5.426   5.843
 4221SOL    HW113562   5.659   5.394   5.885
 4221SOL    HW213563   5.770   5.365   5.768
 4222SOL     OW13564   0.313   2.381   2.674
 4222SOL    HW113565   0.274   2.423   2.592
 4222SOL    HW213566   0.290   2.284   2.676
 4223SOL     OW13567   3.533   3.176   6.797
 4223SOL    HW113568   3.570   3.096   6.844
 4223SOL    HW213569   3.434   3.181   6.812
 4224SOL     OW13570   4.900   4.343   4.225
 4224SOL    HW113571   4.951   4.274   4.174
 4224SOL    HW213572   4.905   4.431   4.178
 4225SOL     OW13573   3.712   1.536   5.891
 4225SOL    HW113574   3.795   1.512   5.942
 4225SOL    HW213575   3.737   1.569   5.800
 4226SOL     OW13576   1.103   0.785   2.038
 4226SOL    HW113577   1.038   0.770   2.112
 4226SOL    HW213578   1.172   0.713   2.039
 4227SOL     OW13579   4.160   4.725   1.004
 4227SOL    HW113580   4.134   4.759   1.094
 4227SOL    HW213581   4.119   4.782   0.933
 4228SOL     OW13582   0.686   4.432   5.018
 4228SOL    HW113583   0.622   4.382   4.961
 4228SOL    HW213584   0.767   4.376   5.035
 4229SOL     OW13585   5.020   5.364   5.686
 4229SOL    HW113586   4.990   5.345   5.780
 4229SOL    HW213587   5.055   5.458   5.681
 4230SOL     OW13588   1.020   6.301   2.765
 4230SOL    HW113589   1.111   6.300   2.722
 4230SOL    HW213590   0.953   6.336   2.700
 4231SOL     OW13591   5.764   0.232   5.651
 4231SOL    HW113592   5.739   0.215   5.746
 4231SOL    HW213593   5.850   0.186   5.629
 4232SOL     OW13594   0.545   4.990   3.050
 4232SOL    HW113595   0.642   4.982   3.027
 4232SOL    HW213596   0.535   5.041   3.135
 4233SOL     OW13597   6.797   0.903   6.267
 4233SOL    HW113598   6.832   0.970   6.332
 4233SOL    HW213599   6.848   0.910   6.181
 4234SOL     OW13600   2.289   6.407   4.937
 4234SOL    HW113601   2.224   6.459   4.881
 4234SOL    HW213602   2.243   6.328   4.977
 4235SOL     OW13603   5.606   3.484   5.935
 4235SOL    HW113604   5.677   3.533   5.986
 4235SOL    HW213605   5.650   3.426   5.866
 4236SOL     OW13606   6.525   3.573   2.734
 4236SOL    HW113607   6.451   3.627   2.773
 4236SOL    HW213608   6.559   3.509   2.803
 4237SOL     OW13609   5.506   6.326   2.824
 4237SOL    HW113610   5.479   6.259   2.754
 4237SOL    HW213611   5.463   6.414   2.805
 4238SOL     OW13612   2.825   6.056   2.965
 4238SOL    HW113613   2.762   5.978   2.966
 4238SOL    HW213614   2.919   6.023   2.959
 4239SOL     OW13615   5.937   1.946   2.753
 4239SOL    HW113616   5.870   2.020   2.765
 4239SOL    HW213617   6.018   1.965   2.808
 4240SOL     OW13618   2.129   6.149   6.868
 4240SOL    HW113619   2.064   6.198   6.925
 4240SOL    HW213620   2.193   6.214   6.827
 4241SOL     OW13621   6.380   0.622   0.498
 4241SOL    HW113622   6.387   0.537   0.552
 4241SOL    HW213623   6.384   0.600   0.401
 4242SOL     OW13624   2.967   1.395   3.687
 4242SOL    HW113625   2.943   1.300   3.668
 4242SOL    HW213626   3.057   1.415   3.649
 4243SOL     OW13627   6.507   3.086   3.588
 4243SOL    HW113628   6.444   3.036   3.648
 4243SOL    HW213629   6.471   3.085   3.495
 4244SOL     OW13630   4.554   4.287   1.288
 4244SOL    HW113631   4.556   4.187   1.287
 4244SOL    HW213632   4.473   4.318   1.337
 4245SOL     OW13633   0.423   1.355   6.170
 4245SOL    HW113634   0.396   1.280   6.230
 4245SOL    HW213635   0.496   1.408   6.213
 4246SOL     OW13636   6.688   4.104   3.578
 4246SOL    HW113637   6.699   4.107   3.677
 4246SOL    HW213638   6.737   4.025   3.541
 4247SOL     OW13639   2.927   5.883   3.694
 4247SOL    HW113640   2.852   5.864   3.631
 4247SOL    HW213641   2.906   5.844   3.783
 4248SOL     OW13642   2.997   2.194   3.284
 4248SOL    HW113643   2.920   2.236   3.238
 4248SOL    HW213644   3.078   2.199   3.226
 4249SOL     OW13645   5.445   2.562   3.353
 4249SOL    HW113646   5.366   2.519   3.398
 4249SOL    HW213647   5.473   2.506   3.275
 4250SOL     OW13648   6.120   4.687   2.731
 4250SOL    HW113649   6.186   4.755   2.763
 4250SOL    HW213650   6.073   4.721   2.650
 4251SOL     OW13651   5.314   4.403   1.910
 4251SOL    HW113652   5.340   4.487   1.862
 4251SOL    HW213653   5.336   4.324   1.853
 4252SOL     OW13654   5.108   6.879   6.590
 4252SOL    HW113655   5.041   6.878   6.515
 4252SOL    HW213656   5.099   6.796   6.644
 4253SOL     OW13657   3.173   0.282   1.047
 4253SOL    HW113658   3.245   0.212   1.045
 4253SOL    HW213659   3.214   0.370   1.070
 4254SOL     OW13660   1.133   3.613   2.024
 4254SOL    HW113661   1.055   3.598   2.085
 4254SOL    HW213662   1.132   3.707   1.991
 4255SOL     OW13663   6.667   4.139   3.851
 4255SOL    HW113664   6.728   4.178   3.920
 4255SOL    HW213665   6.573   4.142   3.884
 4256SOL     OW13666   1.885   6.358   0.636
 4256SOL    HW113667   1.789   6.357   0.611
 4256SOL    HW213668   1.911   6.269   0.673
 4257SOL     OW13669   2.165   0.736   4.157
 4257SOL    HW113670   2.148   0.811   4.220
 4257SOL    HW213671   2.143   0.764   4.063
 4258SOL     OW13672   4.330   5.961   0.885
 4258SOL    HW113673   4.294   5.878   0.843
 4258SOL    HW213674   4.416   5.987   0.840
 4259SOL     OW13675   2.741   0.555   1.017
 4259SOL    HW113676   2.671   0.541   0.948
 4259SOL    HW213677   2.809   0.482   1.012
 4260SOL     OW13678   5.832   0.215   1.671
 4260SOL    HW113679   5.824   0.250   1.765
 4260SOL    HW213680   5.749   0.237   1.620
 4261SOL     OW13681   2.102   0.072   2.599
 4261SOL    HW113682   2.159   0.002   2.555
 4261SOL    HW213683   2.113   0.158   2.551
 4262SOL     OW13684   0.858   4.832   6.470
 4262SOL    HW113685   0.816   4.893   6.536
 4262SOL    HW213686   0.953   4.814   6.497
 4263SOL     OW13687   3.235   0.234   3.221
 4263SOL    HW113688   3.141   0.261   3.198
 4263SOL    HW213689   3.239   0.198   3.314
 4264SOL     OW13690   6.426   2.316   2.325
 4264SOL    HW113691   6.387   2.227   2.350
 4264SOL    HW213692   6.413   2.380   2.401
 4265SOL     OW13693   4.880   1.510   1.470
 4265SOL    HW113694   4.875   1.539   1.565
 4265SOL    HW213695   4.927   1.579   1.416
 4266SOL     OW13696   1.799   5.322   0.185
 4266SOL    HW113697   1.726   5.280   0.131
 4266SOL    HW213698   1.845   5.391   0.129
 4267SOL     OW13699   1.760   3.048   3.620
 4267SOL    HW113700   1.752   2.969   3.681
 4267SOL    HW213701   1.753   3.132   3.673
 4268SOL     OW13702   1.263   6.231   6.905
 4268SOL    HW113703   1.176   6.182   6.905
 4268SOL    HW213704   1.322   6.194   6.833
 4269SOL     OW13705   2.950   0.513   2.431
 4269SOL    HW113706   3.007   0.488   2.509
 4269SOL    HW213707   2.871   0.450   2.426
 4270SOL     OW13708   4.091   3.365   3.249
 4270SOL    HW113709   4.102   3.459   3.216
 4270SOL    HW213710   4.081   3.364   3.348
 4271SOL     OW13711   6.825   0.944   6.604
 4271SOL    HW113712   6.916   0.976   6.578
 4271SOL    HW213713   6.831   0.849   6.637
 4272SOL     OW13714   6.744   2.402   4.581
 4272SOL    HW113715   6.761   2.354   4.667
 4272SOL    HW213716   6.652   2.440   4.582
 4273SOL     OW13717   4.875   6.785   4.297
 4273SOL    HW113718   4.926   6.860   4.258
 4273SOL    HW213719   4.818   6.819   4.373
 4274SOL     OW13720   1.260   6.037   1.985
 4274SOL    HW113721   1.240   6.129   1.952
 4274SOL    HW213722   1.209   6.021   2.070
 4275SOL     OW13723   6.700   1.861   4.525
 4275SOL    HW113724   6.775   1.823   4.471
 4275SOL    HW213725   6.708   1.831   4.620
 4276SOL     OW13726   1.441   4.903   3.518
 4276SOL    HW113727   1.397   4.992   3.502
 4276SOL    HW213728   1.417   4.871   3.609
 4277SOL     OW13729   6.231   4.719   3.418
 4277SOL    HW113730   6.223   4.778   3.498
 4277SOL    HW213731   6.255   4.626   3.448
 4278SOL     OW13732   6.635   0.209   4.733
 4278SOL    HW113733   6.666   0.229   4.826
 4278SOL    HW213734   6.650   0.113   4.713
 4279SOL     OW13735   3.090   0.516   4.047
 4279SOL    HW113736   3.082   0.607   4.007
 4279SOL    HW213737   3.166   0.467   4.003
 4280SOL     OW13738   4.643   0.527   5.559
 4280SOL    HW113739   4.728   0.547   5.511
 4280SOL    HW213740   4.590   0.460   5.507
 4281SOL     OW13741   0.130   4.695   3.391
 4281SOL    HW113742   0.066   4.721   3.318
 4281SOL    HW213743   0.190   4.622   3.358
 4282SOL     OW13744   3.504   4.046   6.158
 4282SOL    HW113745   3.538   4.140   6.157
 4282SOL    HW213746   3.532   4.001   6.243
 4283SOL     OW13747   1.078   0.665   3.497
 4283SOL    HW113748   1.075   0.763   3.518
 4283SOL    HW213749   1.018   0.616   3.560
 4284SOL     OW13750   3.777   4.853   1.228
 4284SOL    HW113751   3.704   4.912   1.261
 4284SOL    HW213752   3.850   4.909   1.189
 4285SOL     OW13753   1.364   0.752   5.505
 4285SOL    HW113754   1.393   0.663   5.539
 4285SOL    HW213755   1.303   0.739   5.426
 4286SOL     OW13756   4.492   6.476   6.027
 4286SOL    HW113757   4.434   6.523   5.960
 4286SOL    HW213758   4.519   6.387   5.989
 4287SOL     OW13759   5.646   1.579   6.099
 4287SOL    HW113760   5.658   1.547   6.193
 4287SOL    HW213761   5.730   1.623   6.067
 4288SOL     OW13762   6.952   5.878   4.206
 4288SOL    HW113763   6.926   5.973   4.191
 4288SOL    HW213764   6.894   5.819   4.149
 4289SOL     OW13765   6.707   3.056   6.404
 4289SOL    HW113766   6.624   3.025   6.450
 4289SOL    HW213767   6.686   3.134   6.345
 4290SOL     OW13768   1.360   6.513   3.181
 4290SOL    HW113769   1.290   6.535   3.249
 4290SOL    HW213770   1.428   6.586   3.178
 4291SOL     OW13771   4.333   3.575   0.538
 4291SOL    HW113772   4.404   3.569   0.468
 4291SOL    HW213773   4.376   3.578   0.628
 4292SOL     OW13774   5.879   2.877   0.434
 4292SOL    HW113775   5.841   2.814   0.502
 4292SOL    HW213776   5.856   2.971   0.459
 4293SOL     OW13777   2.663   3.221   0.554
 4293SOL    HW113778   2.654   3.277   0.472
 4293SOL    HW213779   2.673   3.280   0.634
 4294SOL     OW13780   2.123   2.389   6.753
 4294SOL    HW113781   2.168   2.385   6.663
 4294SOL    HW213782   2.191   2.375   6.825
 4295SOL     OW13783   3.858   5.629   4.570
 4295SOL    HW113784   3.792   5.604   4.500
 4295SOL    HW213785   3.928   5.688   4.529
 4296SOL     OW13786   3.009   6.856   0.754
 4296SOL    HW113787   2.957   6.942   0.759
 4296SOL    HW213788   2.992   6.812   0.666
 4297SOL     OW13789   4.648   0.417   6.381
 4297SOL    HW113790   4.578   0.356   6.417
 4297SOL    HW213791   4.608   0.475   6.310
 4298SOL     OW13792   3.867   5.382   0.214
 4298SOL    HW113793   3.824   5.330   0.140
 4298SOL    HW213794   3.914   5.319   0.276
 4299SOL     OW13795   1.047   3.040   6.378
 4299SOL    HW113796   1.141   3.034   6.347
 4299SOL    HW213797   0.985   3.016   6.303
 4300SOL     OW13798   3.417   6.762   0.669
 4300SOL    HW113799   3.516   6.748   0.677
 4300SOL    HW213800   3.372   6.673   0.662
 4301SOL     OW13801   3.800   1.567   1.518
 4301SOL    HW113802   3.780   1.663   1.541
 4301SOL    HW213803   3.835   1.562   1.425
 4302SOL     OW13804   1.237   0.031   6.398
 4302SOL    HW113805   1.281   6.986   6.331
 4302SOL    HW213806   1.157   7.002   6.435
 4303SOL     OW13807   0.098   4.056   3.734
 4303SOL    HW113808   0.172   4.059   3.667
 4303SOL    HW213809   0.034   4.131   3.715
 4304SOL     OW13810   3.236   4.045   3.035
 4304SOL    HW113811   3.268   4.106   3.108
 4304SOL    HW213812   3.315   4.011   2.983
 4305SOL     OW13813   0.152   0.232   5.172
 4305SOL    HW113814   0.164   0.213   5.075
 4305SOL    HW213815   0.108   0.154   5.216
 4306SOL     OW13816   5.499   4.372   5.963
 4306SOL    HW113817   5.446   4.324   5.893
 4306SOL    HW213818   5.437   4.412   6.030
 4307SOL     OW13819   4.927   4.140   5.420
 4307SOL    HW113820   4.844   4.195   5.434
 4307SOL    HW213821   4.915   4.051   5.465
 4308SOL     OW13822   6.636   4.814   0.411
 4308SOL    HW113823   6.631   4.731   0.466
 4308SOL    HW213824   6.553   4.867   0.423
 4309SOL     OW13825   1.273   1.312   0.353
 4309SOL    HW113826   1.278   1.225   0.305
 4309SOL    HW213827   1.361   1.332   0.396
 4310SOL     OW13828   1.290   2.618   2.172
 4310SOL    HW113829   1.282   2.611   2.073
 4310SOL    HW213830   1.378   2.582   2.201
 4311SOL     OW13831   1.880   6.081   2.695
 4311SOL    HW113832   1.894   6.059   2.792
 4311SOL    HW213833   1.935   6.160   2.670
 4312SOL     OW13834   2.136   5.277   1.397
 4312SOL    HW113835   2.081   5.199   1.429
 4312SOL    HW213836   2.160   5.263   1.301
 4313SOL     OW13837   4.480   1.242   1.707
 4313SOL    HW113838   4.538   1.250   1.626
 4313SOL    HW213839   4.476   1.331   1.754
 4314SOL     OW13840   6.254   1.208   4.205
 4314SOL    HW113841   6.311   1.183   4.284
 4314SOL    HW213842   6.158   1.192   4.228
 4315SOL     OW13843   2.418   6.309   2.305
 4315SOL    HW113844   2.421   6.247   2.227
 4315SOL    HW213845   2.500   6.367   2.305
 4316SOL     OW13846   5.729   0.587   1.943
 4316SOL    HW113847   5.644   0.573   1.993
 4316SOL    HW213848   5.756   0.683   1.949
 4317SOL     OW13849   5.137   2.472   4.763
 4317SOL    HW113850   5.065   2.426   4.815
 4317SOL    HW213851   5.096   2.541   4.703
 4318SOL     OW13852   0.872   3.199   4.911
 4318SOL    HW113853   0.901   3.177   5.004
 4318SOL    HW213854   0.788   3.148   4.890
 4319SOL     OW13855   2.027   1.550   1.290
 4319SOL    HW113856   2.086   1.630   1.282
 4319SOL    HW213857   1.981   1.533   1.202
 4320SOL     OW13858   5.450   5.259   0.254
 4320SOL    HW113859   5.431   5.161   0.249
 4320SOL    HW213860   5.464   5.285   0.350
 4321SOL     OW13861   0.092   6.532   5.035
 4321SOL    HW113862   0.019   6.490   4.980
 4321SOL    HW213863   0.095   6.630   5.018
 4322SOL     OW13864   6.128   2.510   0.076
 4322SOL    HW113865   6.188   2.587   0.097
 4322SOL    HW213866   6.183   2.431   0.049
 4323SOL     OW13867   4.612   3.760   1.335
 4323SOL    HW113868   4.535   3.697   1.329
 4323SOL    HW213869   4.685   3.729   1.274
 4324SOL     OW13870   5.335   4.238   6.621
 4324SOL    HW113871   5.292   4.148   6.626
 4324SOL    HW213872   5.309   4.283   6.535
 4325SOL     OW13873   2.612   1.011   1.579
 4325SOL    HW113874   2.647   0.918   1.570
 4325SOL    HW213875   2.542   1.013   1.651
 4326SOL     OW13876   4.928   4.839   3.981
 4326SOL    HW113877   4.961   4.790   3.901
 4326SOL    HW213878   4.840   4.801   4.009
 4327SOL     OW13879   5.839   5.921   1.695
 4327SOL    HW113880   5.791   6.007   1.714
 4327SOL    HW213881   5.793   5.846   1.743
 4328SOL     OW13882   4.883   3.913   5.552
 4328SOL    HW113883   4.798   3.865   5.528
 4328SOL    HW213884   4.901   3.900   5.649
 4329SOL     OW13885   4.487   1.304   5.283
 4329SOL    HW113886   4.424   1.247   5.336
 4329SOL    HW213887   4.497   1.393   5.328
 4330SOL     OW13888   2.192   6.467   4.413
 4330SOL    HW113889   2.096   6.456   4.438
 4330SOL    HW213890   2.206   6.432   4.321
 4331SOL     OW13891   5.692   1.256   1.726
 4331SOL    HW113892   5.612   1.232   1.780
 4331SOL    HW213893   5.703   1.355   1.725
 4332SOL     OW13894   5.444   3.669   1.909
 4332SOL    HW113895   5.443   3.698   1.814
 4332SOL    HW213896   5.479   3.575   1.914
 4333SOL     OW13897   3.342   0.921   5.480
 4333SOL    HW113898   3.360   0.971   5.565
 4333SOL    HW213899   3.428   0.881   5.446
 4334SOL     OW13900   1.721   2.753   2.340
 4334SOL    HW113901   1.654   2.683   2.316
 4334SOL    HW213902   1.674   2.835   2.371
 4335SOL     OW13903   3.285   3.662   2.557
 4335SOL    HW113904   3.264   3.669   2.654
 4335SOL    HW213905   3.248   3.741   2.509
 4336SOL     OW13906   2.944   6.386   6.542
 4336SOL    HW113907   3.027   6.437   6.520
 4336SOL    HW213908   2.864   6.436   6.510
 4337SOL     OW13909   0.731   4.498   0.998
 4337SOL    HW113910   0.754   4.453   1.084
 4337SOL    HW213911   0.674   4.577   1.016
 4338SOL     OW13912   6.200   0.234   5.506
 4338SOL    HW113913   6.275   0.297   5.526
 4338SOL    HW213914   6.162   0.253   5.416
 4339SOL     OW13915   5.627   3.134   5.510
 4339SOL    HW113916   5.630   3.148   5.411
 4339SOL    HW213917   5.716   3.102   5.543
 4340SOL     OW13918   6.656   2.935   1.911
 4340SOL    HW113919   6.575   2.933   1.970
 4340SOL    HW213920   6.728   2.879   1.952
 4341SOL     OW13921   0.607   6.022   2.421
 4341SOL    HW113922   0.552   6.105   2.416
 4341SOL    HW213923   0.675   6.022   2.348
 4342SOL     OW13924   5.593   3.867   3.546
 4342SOL    HW113925   5.579   3.957   3.503
 4342SOL    HW213926   5.508   3.815   3.542
 4343SOL     OW13927   2.489   6.357   5.162
 4343SOL    HW113928   2.428   6.375   5.084
 4343SOL    HW213929   2.434   6.347   5.245
 4344SOL     OW13930   0.477   4.522   2.080
 4344SOL    HW113931   0.490   4.522   2.179
 4344SOL    HW213932   0.379   4.523   2.059
 4345SOL     OW13933   3.392   3.679   5.084
 4345SOL    HW113934   3.346   3.757   5.126
 4345SOL    HW213935   3.457   3.711   5.015
 4346SOL     OW13936   2.141   3.399   2.430
 4346SOL    HW113937   2.145   3.417   2.528
 4346SOL    HW213938   2.130   3.485   2.381
 4347SOL     OW13939   6.725   6.749   2.775
 4347SOL    HW113940   6.816   6.789   2.767
 4347SOL    HW213941   6.662   6.799   2.714
 4348SOL     OW13942   6.751   4.585   3.840
 4348SOL    HW113943   6.752   4.685   3.851
 4348SOL    HW213944   6.674   4.546   3.889
 4349SOL     OW13945   6.105   2.278   2.509
 4349SOL    HW113946   6.149   2.192   2.483
 4349SOL    HW213947   6.010   2.277   2.481
 4350SOL     OW13948   3.732   1.182   4.135
 4350SOL    HW113949   3.829   1.204   4.145
 4350SOL    HW213950   3.718   1.135   4.048
 4351SOL     OW13951   1.589   4.999   0.830
 4351SOL    HW113952   1.680   5.031   0.857
 4351SOL    HW213953   1.597   4.926   0.761
 4352SOL     OW13954   6.685   3.636   2.388
 4352SOL    HW113955   6.734   3.641   2.301
 4352SOL    HW213956   6.594   3.596   2.373
 4353SOL     OW13957   4.274   2.849   6.368
 4353SOL    HW113958   4.220   2.848   6.284
 4353SOL    HW213959   4.218   2.880   6.445
 4354SOL     OW13960   2.268   6.912   5.443
 4354SOL    HW113961   2.218   6.825   5.452
 4354SOL    HW213962   2.204   6.988   5.455
 4355SOL     OW13963   1.939   6.891   2.390
 4355SOL    HW113964   1.989   6.805   2.405
 4355SOL    HW213965   1.841   6.872   2.390
 4356SOL     OW13966   5.055   3.951   0.464
 4356SOL    HW113967   4.986   3.965   0.535
 4356SOL    HW213968   5.014   3.900   0.388
 4357SOL     OW13969   6.597   1.292   0.975
 4357SOL    HW113970   6.691   1.317   0.999
 4357SOL    HW213971   6.595   1.257   0.881
 4358SOL     OW13972   0.682   0.045   0.698
 4358SOL    HW113973   0.667   6.964   0.719
 4358SOL    HW213974   0.778   0.068   0.712
 4359SOL     OW13975   1.990   1.545   6.039
 4359SOL    HW113976   1.980   1.489   6.121
 4359SOL    HW213977   2.084   1.579   6.034
 4360SOL     OW13978   1.287   3.294   3.558
 4360SOL    HW113979   1.207   3.243   3.590
 4360SOL    HW213980   1.328   3.245   3.481
 4361SOL     OW13981   2.379   3.361   1.123
 4361SOL    HW113982   2.400   3.310   1.206
 4361SOL    HW213983   2.372   3.297   1.046
 4362SOL     OW13984   6.104   5.740   3.480
 4362SOL    HW113985   6.123   5.704   3.572
 4362SOL    HW213986   6.027   5.690   3.440
 4363SOL     OW13987   5.876   2.092   1.203
 4363SOL    HW113988   5.808   2.074   1.132
 4363SOL    HW213989   5.872   2.189   1.229
 4364SOL     OW13990   2.946   3.552   4.508
 4364SOL    HW113991   2.901   3.544   4.419
 4364SOL    HW213992   2.926   3.470   4.562
 4365SOL     OW13993   2.408   1.036   2.127
 4365SOL    HW113994   2.400   1.120   2.072
 4365SOL    HW213995   2.417   1.060   2.223
 4366SOL     OW13996   5.693   0.184   0.040
 4366SOL    HW113997   5.779   0.172   7.006
 4366SOL    HW213998   5.712   0.193   0.138
 4367SOL     OW13999   2.276   4.269   4.644
 4367SOL    HW114000   2.281   4.169   4.653
 4367SOL    HW214001   2.299   4.312   4.731
 4368SOL     OW14002   3.769   4.721   0.635
 4368SOL    HW114003   3.682   4.696   0.593
 4368SOL    HW214004   3.753   4.782   0.712
 4369SOL     OW14005   4.236   5.428   2.669
 4369SOL    HW114006   4.276   5.461   2.584
 4369SOL    HW214007   4.206   5.505   2.725
 4370SOL     OW14008   3.760   5.284   1.904
 4370SOL    HW114009   3.797   5.377   1.905
 4370SOL    HW214010   3.827   5.221   1.866
 4371SOL     OW14011   0.945   1.793   2.136
 4371SOL    HW114012   0.863   1.743   2.107
 4371SOL    HW214013   0.989   1.834   2.056
 4372SOL     OW14014   2.762   1.853   2.716
 4372SOL    HW114015   2.672   1.818   2.690
 4372SOL    HW214016   2.790   1.925   2.653
 4373SOL     OW14017   6.098   2.115   0.095
 4373SOL    HW114018   6.014   2.150   0.053
 4373SOL    HW214019   6.167   2.100   0.024
 4374SOL     OW14020   0.908   1.520   0.632
 4374SOL    HW114021   0.994   1.560   0.663
 4374SOL    HW214022   0.880   1.447   0.695
 4375SOL     OW14023   4.406   6.942   2.885
 4375SOL    HW114024   4.345   6.963   2.809
 4375SOL    HW214025   4.383   6.852   2.922
 4376SOL     OW14026   0.325   6.817   1.785
 4376SOL    HW114027   0.278   6.755   1.849
 4376SOL    HW214028   0.326   6.909   1.824
 4377SOL     OW14029   5.630   4.687   6.962
 4377SOL    HW114030   5.546   4.699   7.015
 4377SOL    HW214031   5.706   4.667   0.009
 4378SOL     OW14032   2.223   2.808   2.732
 4378SOL    HW114033   2.297   2.768   2.786
 4378SOL    HW214034   2.179   2.880   2.786
 4379SOL     OW14035   1.607   2.508   2.480
 4379SOL    HW114036   1.705   2.489   2.475
 4379SOL    HW214037   1.574   2.539   2.390
 4380SOL     OW14038   1.296   6.866   2.797
 4380SOL    HW114039   1.335   6.937   2.855
 4380SOL    HW214040   1.196   6.870   2.801
 4381SOL     OW14041   1.632   4.501   5.035
 4381SOL    HW114042   1.611   4.546   4.948
 4381SOL    HW214043   1.554   4.445   5.063
 4382SOL     OW14044   6.791   3.212   5.155
 4382SOL    HW114045   6.841   3.236   5.239
 4382SOL    HW214046   6.785   3.292   5.096
 4383SOL     OW14047   0.750   2.815   5.952
 4383SOL    HW114048   0.783   2.863   6.034
 4383SOL    HW214049   0.660   2.776   5.971
 4384SOL     OW14050   6.249   1.774   5.342
 4384SOL    HW114051   6.340   1.808   5.318
 4384SOL    HW214052   6.219   1.816   5.427
 4385SOL     OW14053   6.045   2.494   5.095
 4385SOL    HW114054   6.121   2.443   5.055
 4385SOL    HW214055   6.079   2.575   5.141
 4386SOL     OW14056   2.247   3.138   6.351
 4386SOL    HW114057   2.326   3.129   6.290
 4386SOL    HW214058   2.238   3.233   6.381
 4387SOL     OW14059   6.868   1.392   1.069
 4387SOL    HW114060   6.896   1.471   1.014
 4387SOL    HW214061   6.921   1.389   1.153
 4388SOL     OW14062   5.099   2.450   6.625
 4388SOL    HW114063   5.049   2.377   6.672
 4388SOL    HW214064   5.116   2.424   6.531
 4389SOL     OW14065   6.508   3.265   0.633
 4389SOL    HW114066   6.486   3.204   0.557
 4389SOL    HW214067   6.607   3.273   0.642
 4390SOL     OW14068   3.910   1.056   1.432
 4390SOL    HW114069   3.886   1.000   1.511
 4390SOL    HW214070   3.919   1.152   1.460
 4391SOL     OW14071   1.977   5.644   6.860
 4391SOL    HW114072   1.951   5.735   6.829
 4391SOL    HW214073   2.071   5.646   6.894
 4392SOL     OW14074   6.947   2.789   4.500
 4392SOL    HW114075   6.963   2.698   4.463
 4392SOL    HW214076   6.997   2.857   4.444
 4393SOL     OW14077   5.768   0.776   2.489
 4393SOL    HW114078   5.761   0.769   2.589
 4393SOL    HW214079   5.864   0.791   2.464
 4394SOL     OW14080   6.474   6.036   2.242
 4394SOL    HW114081   6.544   6.070   2.304
 4394SOL    HW214082   6.462   5.937   2.256
 4395SOL     OW14083   2.800   6.605   1.920
 4395SOL    HW114084   2.859   6.532   1.954
 4395SOL    HW214085   2.791   6.598   1.821
 4396SOL     OW14086   2.169   2.274   3.620
 4396SOL    HW114087   2.144   2.347   3.558
 4396SOL    HW214088   2.215   2.201   3.569
 4397SOL     OW14089   6.989   1.419   4.797
 4397SOL    HW114090   7.006   1.517   4.788
 4397SOL    HW214091   0.016   1.385   4.881
 4398SOL     OW14092   0.358   3.872   5.693
 4398SOL    HW114093   0.396   3.951   5.644
 4398SOL    HW214094   0.411   3.791   5.672
 4399SOL     OW14095   2.564   0.264   1.855
 4399SOL    HW114096   2.545   0.271   1.757
 4399SOL    HW214097   2.517   0.185   1.893
 4400SOL     OW14098   3.151   6.329   5.316
 4400SOL    HW114099   3.091   6.257   5.351
 4400SOL    HW214100   3.102   6.416   5.318
 4401SOL     OW14101   4.011   6.745   6.150
 4401SOL    HW114102   3.928   6.797   6.167
 4401SOL    HW214103   4.039   6.757   6.055
 4402SOL     OW14104   2.619   0.452   2.030
 4402SOL    HW114105   2.598   0.376   1.969
 4402SOL    HW214106   2.633   0.535   1.976
 4403SOL     OW14107   1.286   0.382   1.678
 4403SOL    HW114108   1.316   0.471   1.711
 4403SOL    HW214109   1.221   0.342   1.742
 4404SOL     OW14110   1.477   4.897   5.733
 4404SOL    HW114111   1.508   4.801   5.740
 4404SOL    HW214112   1.500   4.933   5.643
 4405SOL     OW14113   1.656   3.826   0.739
 4405SOL    HW114114   1.749   3.855   0.718
 4405SOL    HW214115   1.595   3.906   0.737
 4406SOL     OW14116   0.456   3.585   0.624
 4406SOL    HW114117   0.392   3.593   0.548
 4406SOL    HW214118   0.524   3.658   0.620
 4407SOL     OW14119   6.441   5.198   0.274
 4407SOL    HW114120   6.435   5.182   0.175
 4407SOL    HW214121   6.428   5.295   0.293
 4408SOL     OW14122   3.282   0.778   0.967
 4408SOL    HW114123   3.382   0.787   0.962
 4408SOL    HW214124   3.246   0.757   0.876
 4409SOL     OW14125   4.979   1.198   2.511
 4409SOL    HW114126   5.034   1.240   2.584
 4409SOL    HW214127   5.022   1.113   2.482
 4410SOL     OW14128   1.115   5.045   0.068
 4410SOL    HW114129   1.200   5.045   0.015
 4410SOL    HW214130   1.052   5.113   0.029
 4411SOL     OW14131   3.858   4.108   4.757
 4411SOL    HW114132   3.875   4.010   4.743
 4411SOL    HW214133   3.876   4.157   4.672
 4412SOL     OW14134   4.298   6.220   4.799
 4412SOL    HW114135   4.313   6.180   4.709
 4412SOL    HW214136   4.218   6.177   4.842
 4413SOL     OW14137   6.121   4.893   4.251
 4413SOL    HW114138   6.090   4.961   4.319
 4413SOL    HW214139   6.082   4.804   4.273
 4414SOL     OW14140   3.190   5.222   1.072
 4414SOL    HW114141   3.118   5.153   1.079
 4414SOL    HW214142   3.179   5.274   0.988
 4415SOL     OW14143   4.085   2.620   0.643
 4415SOL    HW114144   4.016   2.668   0.697
 4415SOL    HW214145   4.059   2.621   0.547
 4416SOL     OW14146   3.976   0.929   4.145
 4416SOL    HW114147   3.998   1.024   4.119
 4416SOL    HW214148   3.882   0.924   4.178
 4417SOL     OW14149   5.537   4.144   3.505
 4417SOL    HW114150   5.561   4.192   3.421
 4417SOL    HW214151   5.554   4.204   3.583
 4418SOL     OW14152   6.002   1.915   2.075
 4418SOL    HW114153   6.050   1.993   2.034
 4418SOL    HW214154   6.061   1.872   2.143
 4419SOL     OW14155   5.618   6.129   6.351
 4419SOL    HW114156   5.603   6.091   6.260
 4419SOL    HW214157   5.548   6.199   6.370
 4420SOL     OW14158   5.115   0.821   1.759
 4420SOL    HW114159   5.057   0.764   1.700
 4420SOL    HW214160   5.208   0.786   1.757
 4421SOL     OW14161   2.621   1.235   5.381
 4421SOL    HW114162   2.581   1.305   5.322
 4421SOL    HW214163   2.561   1.155   5.383
 4422SOL     OW14164   2.334   3.835   0.077
 4422SOL    HW114165   2.400   3.760   0.071
 4422SOL    HW214166   2.241   3.797   0.082
 4423SOL     OW14167   0.156   3.152   6.027
 4423SOL    HW114168   0.092   3.205   5.970
 4423SOL    HW214169   0.192   3.075   5.974
 4424SOL     OW14170   5.701   1.237   4.221
 4424SOL    HW114171   5.692   1.179   4.302
 4424SOL    HW214172   5.617   1.234   4.168
 4425SOL     OW14173   2.842   3.957   0.571
 4425SOL    HW114174   2.807   3.887   0.509
 4425SOL    HW214175   2.928   3.993   0.537
 4426SOL     OW14176   6.986   1.638   3.666
 4426SOL    HW114177   6.976   1.662   3.569
 4426SOL    HW214178   6.899   1.649   3.712
 4427SOL     OW14179   0.578   6.420   2.670
 4427SOL    HW114180   0.659   6.366   2.647
 4427SOL    HW214181   0.500   6.390   2.616
 4428SOL     OW14182   3.269   0.560   3.227
 4428SOL    HW114183   3.309   0.643   3.264
 4428SOL    HW214184   3.317   0.535   3.142
 4429SOL     OW14185   2.787   6.786   2.848
 4429SOL    HW114186   2.753   6.715   2.909
 4429SOL    HW214187   2.868   6.753   2.800
 4430SOL     OW14188   4.782   4.085   4.919
 4430SOL    HW114189   4.811   3.992   4.895
 4430SOL    HW214190   4.845   4.123   4.987
 4431SOL     OW14191   2.470   1.219   1.898
 4431SOL    HW114192   2.568   1.205   1.912
 4431SOL    HW214193   2.457   1.290   1.828
 4432SOL     OW14194   2.567   3.173   6.154
 4432SOL    HW114195   2.613   3.244   6.101
 4432SOL    HW214196   2.507   3.121   6.094
 4433SOL     OW14197   5.035   2.039   4.393
 4433SOL    HW114198   4.994   2.117   4.346
 4433SOL    HW214199   5.125   2.020   4.354
 4434SOL     OW14200   5.314   1.535   3.153
 4434SOL    HW114201   5.278   1.448   3.187
 4434SOL    HW214202   5.274   1.610   3.205
 4435SOL     OW14203   5.130   3.121   1.568
 4435SOL    HW114204   5.152   3.218   1.575
 4435SOL    HW214205   5.190   3.078   1.500
 4436SOL     OW14206   4.163   1.375   1.640
 4436SOL    HW114207   4.082   1.353   1.586
 4436SOL    HW214208   4.172   1.309   1.715
 4437SOL     OW14209   6.546   2.214   2.644
 4437SOL    HW114210   6.547   2.150   2.566
 4437SOL    HW214211   6.600   2.176   2.719
 4438SOL     OW14212   5.000   6.693   6.736
 4438SOL    HW114213   5.014   6.594   6.732
 4438SOL    HW214214   4.926   6.719   6.674
 4439SOL     OW14215   0.027   4.350   1.590
 4439SOL    HW114216   6.952   4.313   1.611
 4439SOL    HW214217   0.096   4.279   1.602
 4440SOL     OW14218   2.565   4.551   0.540
 4440SOL    HW114219   2.555   4.487   0.616
 4440SOL    HW214220   2.500   4.527   0.467
 4441SOL     OW14221   0.152   1.929   2.882
 4441SOL    HW114222   0.107   1.918   2.971
 4441SOL    HW214223   0.188   1.841   2.852
 4442SOL     OW14224   2.243   5.201   4.329
 4442SOL    HW114225   2.185   5.153   4.263
 4442SOL    HW214226   2.243   5.151   4.415
 4443SOL     OW14227   0.780   3.573   6.626
 4443SOL    HW114228   0.832   3.501   6.671
 4443SOL    HW214229   0.684   3.567   6.654
 4444SOL     OW14230   3.138   4.232   5.240
 4444SOL    HW114231   3.067   4.302   5.249
 4444SOL    HW214232   3.096   4.147   5.210
 4445SOL     OW14233   1.424   6.718   0.595
 4445SOL    HW114234   1.376   6.710   0.682
 4445SOL    HW214235   1.441   6.814   0.575
 4446SOL     OW14236   5.032   1.069   1.686
 4446SOL    HW114237   4.946   1.097   1.729
 4446SOL    HW214238   5.057   0.978   1.720
 4447SOL     OW14239   5.693   4.145   5.717
 4447SOL    HW114240   5.765   4.180   5.777
 4447SOL    HW214241   5.678   4.048   5.735
 4448SOL     OW14242   2.449   3.926   1.418
 4448SOL    HW114243   2.419   3.889   1.506
 4448SOL    HW214244   2.402   3.878   1.344
 4449SOL     OW14245   5.175   0.869   6.085
 4449SOL    HW114246   5.140   0.786   6.042
 4449SOL    HW214247   5.274   0.863   6.093
 4450SOL     OW14248   3.170   3.244   5.553
 4450SOL    HW114249   3.253   3.231   5.606
 4450SOL    HW214250   3.147   3.342   5.550
 4451SOL     OW14251   6.527   4.608   2.779
 4451SOL    HW114252   6.565   4.542   2.844
 4451SOL    HW214253   6.458   4.563   2.723
 4452SOL     OW14254   5.003   6.338   4.532
 4452SOL    HW114255   5.021   6.424   4.484
 4452SOL    HW214256   4.936   6.284   4.482
 4453SOL     OW14257   1.050   3.219   1.542
 4453SOL    HW114258   1.014   3.219   1.449
 4453SOL    HW214259   1.140   3.263   1.543
 4454SOL     OW14260   1.841   1.914   0.162
 4454SOL    HW114261   1.753   1.875   0.191
 4454SOL    HW214262   1.869   1.985   0.228
 4455SOL     OW14263   4.310   6.191   5.853
 4455SOL    HW114264   4.280   6.187   5.949
 4455SOL    HW214265   4.404   6.159   5.847
 4456SOL     OW14266   3.001   6.444   2.038
 4456SOL    HW114267   3.088   6.462   1.993
 4456SOL    HW214268   2.989   6.345   2.048
 4457SOL     OW14269   4.148   1.007   2.618
 4457SOL    HW114270   4.133   1.037   2.524
 4457SOL    HW214271   4.081   1.050   2.678
 4458SOL     OW14272   1.815   2.349   0.669
 4458SOL    HW114273   1.766   2.364   0.755
 4458SOL    HW214274   1.913   2.357   0.685
 4459SOL     OW14275   4.280   1.104   4.241
 4459SOL    HW114276   4.198   1.100   4.298
 4459SOL    HW214277   4.356   1.059   4.288
 4460SOL     OW14278   2.432   2.747   5.961
 4460SOL    HW114279   2.508   2.808   5.985
 4460SOL    HW214280   2.464   2.678   5.896
 4461SOL     OW14281   1.480   0.172   1.144
 4461SOL    HW114282   1.462   0.150   1.048
 4461SOL    HW214283   1.416   0.242   1.175
 4462SOL     OW14284   5.789   5.201   1.635
 4462SOL    HW114285   5.886   5.224   1.647
 4462SOL    HW214286   5.782   5.111   1.593
 4463SOL     OW14287   5.103   1.103   0.852
 4463SOL    HW114288   5.144   1.163   0.921
 4463SOL    HW214289   5.031   1.048   0.895
 4464SOL     OW14290   0.229   5.512   0.301
 4464SOL    HW114291   0.170   5.589   0.324
 4464SOL    HW214292   0.175   5.428   0.295
 4465SOL     OW14293   3.300   5.682   1.584
 4465SOL    HW114294   3.204   5.709   1.571
 4465SOL    HW214295   3.328   5.705   1.677
 4466SOL     OW14296   1.463   1.900   3.402
 4466SOL    HW114297   1.381   1.894   3.346
 4466SOL    HW214298   1.500   1.808   3.418
 4467SOL     OW14299   1.948   5.803   2.573
 4467SOL    HW114300   1.944   5.872   2.645
 4467SOL    HW214301   1.907   5.718   2.607
 4468SOL     OW14302   2.036   3.730   0.407
 4468SOL    HW114303   2.082   3.769   0.488
 4468SOL    HW214304   1.938   3.746   0.414
 4469SOL     OW14305   3.291   0.346   1.474
 4469SOL    HW114306   3.204   0.363   1.428
 4469SOL    HW214307   3.356   0.419   1.452
 4470SOL     OW14308   6.694   2.280   2.187
 4470SOL    HW114309   6.596   2.296   2.201
 4470SOL    HW214310   6.709   2.184   2.163
 4471SOL     OW14311   0.879   2.247   6.413
 4471SOL    HW114312   0.937   2.296   6.348
 4471SOL    HW214313   0.906   2.271   6.506
 4472SOL     OW14314   1.337   3.441   1.937
 4472SOL    HW114315   1.280   3.519   1.963
 4472SOL    HW214316   1.289   3.356   1.960
 4473SOL     OW14317   5.799   2.506   4.475
 4473SOL    HW114318   5.738   2.572   4.518
 4473SOL    HW214319   5.894   2.531   4.495
 4474SOL     OW14320   2.001   0.657   2.355
 4474SOL    HW114321   2.073   0.690   2.415
 4474SOL    HW214322   1.997   0.714   2.273
 4475SOL     OW14323   1.530   4.043   2.447
 4475SOL    HW114324   1.573   4.095   2.373
 4475SOL    HW214325   1.483   4.106   2.510
 4476SOL     OW14326   5.243   6.958   3.233
 4476SOL    HW114327   5.327   6.985   3.280
 4476SOL    HW214328   5.180   6.916   3.298
 4477SOL     OW14329   1.980   6.537   4.853
 4477SOL    HW114330   1.885   6.534   4.823
 4477SOL    HW214331   2.001   6.454   4.905
 4478SOL     OW14332   3.408   0.040   3.012
 4478SOL    HW114333   3.504   0.061   2.994
 4478SOL    HW214334   3.401   7.001   3.095
 4479SOL     OW14335   0.566   1.489   0.937
 4479SOL    HW114336   0.597   1.527   1.025
 4479SOL    HW214337   0.610   1.538   0.862
 4480SOL     OW14338   1.031   4.554   5.187
 4480SOL    HW114339   0.941   4.591   5.210
 4480SOL    HW214340   1.082   4.623   5.135
 4481SOL     OW14341   3.569   5.972   4.821
 4481SOL    HW114342   3.549   6.039   4.749
 4481SOL    HW214343   3.665   5.945   4.816
 4482SOL     OW14344   1.603   3.107   4.807
 4482SOL    HW114345   1.593   3.191   4.862
 4482SOL    HW214346   1.698   3.076   4.812
 4483SOL     OW14347   5.628   2.713   2.322
 4483SOL    HW114348   5.674   2.674   2.242
 4483SOL    HW214349   5.546   2.762   2.292
 4484SOL     OW14350   2.762   2.238   6.317
 4484SOL    HW114351   2.834   2.306   6.323
 4484SOL    HW214352   2.688   2.262   6.380
 4485SOL     OW14353   5.433   1.745   4.734
 4485SOL    HW114354   5.526   1.726   4.704
 4485SOL    HW214355   5.423   1.843   4.751
 4486SOL     OW14356   5.615   4.789   5.396
 4486SOL    HW114357   5.633   4.810   5.300
 4486SOL    HW214358   5.687   4.828   5.453
 4487SOL     OW14359   2.828   2.844   6.660
 4487SOL    HW114360   2.755   2.836   6.727
 4487SOL    HW214361   2.838   2.939   6.632
 4488SOL     OW14362   0.811   3.345   5.855
 4488SOL    HW114363   0.827   3.444   5.854
 4488SOL    HW214364   0.852   3.305   5.773
 4489SOL     OW14365   5.313   5.452   5.085
 4489SOL    HW114366   5.263   5.420   5.166
 4489SOL    HW214367   5.341   5.547   5.099
 4490SOL     OW14368   6.470   2.442   1.576
 4490SOL    HW114369   6.456   2.343   1.570
 4490SOL    HW214370   6.534   2.462   1.650
 4491SOL     OW14371   6.343   3.232   4.082
 4491SOL    HW114372   6.406   3.290   4.030
 4491SOL    HW214373   6.278   3.189   4.019
 4492SOL     OW14374   5.793   4.769   1.657
 4492SOL    HW114375   5.758   4.697   1.597
 4492SOL    HW214376   5.805   4.853   1.605
 4493SOL     OW14377   4.885   5.252   4.644
 4493SOL    HW114378   4.873   5.298   4.732
 4493SOL    HW214379   4.872   5.154   4.656
 4494SOL     OW14380   0.391   0.756   6.796
 4494SOL    HW114381   0.348   0.844   6.777
 4494SOL    HW214382   0.486   0.758   6.764
 4495SOL     OW14383   3.727   6.489   4.412
 4495SOL    HW114384   3.659   6.473   4.484
 4495SOL    HW214385   3.709   6.429   4.334
 4496SOL     OW14386   5.668   6.498   0.856
 4496SOL    HW114387   5.592   6.450   0.899
 4496SOL    HW214388   5.637   6.586   0.821
 4497SOL     OW14389   5.547   1.805   6.667
 4497SOL    HW114390   5.554   1.762   6.758
 4497SOL    HW214391   5.472   1.870   6.666
 4498SOL     OW14392   0.058   3.323   0.104
 4498SOL    HW114393   0.085   3.338   0.009
 4498SOL    HW214394   0.001   3.241   0.110
 4499SOL     OW14395   5.487   3.841   4.061
 4499SOL    HW114396   5.475   3.742   4.055
 4499SOL    HW214397   5.582   3.864   4.039
 4500SOL     OW14398   2.975   3.126   5.136
 4500SOL    HW114399   3.062   3.103   5.093
 4500SOL    HW214400   2.943   3.049   5.190
 4501SOL     OW14401   6.950   3.344   3.056
 4501SOL    HW114402   6.896   3.296   3.125
 4501SOL    HW214403   6.893   3.416   3.014
 4502SOL     OW14404   0.403   2.902   6.566
 4502SOL    HW114405   0.306   2.926   6.554
 4502SOL    HW214406   0.421   2.886   6.663
 4503SOL     OW14407   3.579   6.763   1.400
 4503SOL    HW114408   3.628   6.850   1.411
 4503SOL    HW214409   3.579   6.713   1.486
 4504SOL     OW14410   6.571   1.199   4.856
 4504SOL    HW114411   6.649   1.153   4.815
 4504SOL    HW214412   6.580   1.197   4.956
 4505SOL     OW14413   6.048   5.293   1.730
 4505SOL    HW114414   6.074   5.197   1.717
 4505SOL    HW214415   6.092   5.329   1.811
 4506SOL     OW14416   4.591   2.670   3.437
 4506SOL    HW114417   4.660   2.738   3.460
 4506SOL    HW214418   4.518   2.672   3.506
 4507SOL     OW14419   5.637   4.710   2.900
 4507SOL    HW114420   5.605   4.701   2.994
 4507SOL    HW214421   5.666   4.804   2.883
 4508SOL     OW14422   1.839   5.570   0.068
 4508SOL    HW114423   1.871   5.575   6.989
 4508SOL    HW214424   1.766   5.638   0.083
 4509SOL     OW14425   4.481   2.257   2.082
 4509SOL    HW114426   4.427   2.221   2.157
 4509SOL    HW214427   4.574   2.220   2.087
 4510SOL     OW14428   3.794   1.534   4.263
 4510SOL    HW114429   3.757   1.582   4.184
 4510SOL    HW214430   3.867   1.588   4.304
 4511SOL     OW14431   5.758   3.586   6.778
 4511SOL    HW114432   5.660   3.586   6.794
 4511SOL    HW214433   5.790   3.680   6.765
 4512SOL     OW14434   2.767   1.514   5.486
 4512SOL    HW114435   2.766   1.518   5.386
 4512SOL    HW214436   2.860   1.492   5.517
 4513SOL     OW14437   0.645   4.705   6.674
 4513SOL    HW114438   0.700   4.653   6.739
 4513SOL    HW214439   0.702   4.731   6.596
 4514SOL     OW14440   3.939   2.049   6.426
 4514SOL    HW114441   3.952   2.074   6.330
 4514SOL    HW214442   3.962   2.126   6.485
 4515SOL     OW14443   0.215   2.015   5.617
 4515SOL    HW114444   0.166   1.995   5.702
 4515SOL    HW214445   0.309   1.980   5.623
 4516SOL     OW14446   1.857   0.093   0.622
 4516SOL    HW114447   1.921   0.032   0.574
 4516SOL    HW214448   1.828   0.049   0.707
 4517SOL     OW14449   4.224   0.831   6.597
 4517SOL    HW114450   4.308   0.792   6.635
 4517SOL    HW214451   4.210   0.922   6.635
 4518SOL     OW14452   0.228   0.193   2.499
 4518SOL    HW114453   0.270   0.102   2.504
 4518SOL    HW214454   0.275   0.247   2.429
 4519SOL     OW14455   6.947   6.945   1.498
 4519SOL    HW114456   6.918   6.940   1.403
 4519SOL    HW214457   6.918   6.863   1.547
 4520SOL     OW14458   4.364   6.432   4.958
 4520SOL    HW114459   4.324   6.361   4.900
 4520SOL    HW214460   4.440   6.393   5.010
 4521SOL     OW14461   6.659   2.205   4.778
 4521SOL    HW114462   6.693   2.218   4.871
 4521SOL    HW214463   6.572   2.155   4.780
 4522SOL     OW14464   5.429   5.771   3.442
 4522SOL    HW114465   5.333   5.775   3.413
 4522SOL    HW214466   5.481   5.713   3.379
 4523SOL     OW14467   1.049   4.510   0.152
 4523SOL    HW114468   0.962   4.509   0.202
 4523SOL    HW214469   1.114   4.570   0.199
 4524SOL     OW14470   6.089   2.681   2.173
 4524SOL    HW114471   6.074   2.585   2.148
 4524SOL    HW214472   6.183   2.691   2.207
 4525SOL     OW14473   4.380   2.086   5.755
 4525SOL    HW114474   4.479   2.102   5.757
 4525SOL    HW214475   4.356   2.017   5.824
 4526SOL     OW14476   6.981   0.024   0.191
 4526SOL    HW114477   6.918   0.029   0.114
 4526SOL    HW214478   0.051   0.068   0.167
 4527SOL     OW14479   6.115   1.157   3.639
 4527SOL    HW114480   6.081   1.177   3.731
 4527SOL    HW214481   6.050   1.096   3.593
 4528SOL     OW14482   4.607   0.549   0.269
 4528SOL    HW114483   4.609   0.605   0.186
 4528SOL    HW214484   4.692   0.562   0.319
 4529SOL     OW14485   1.894   0.465   5.105
 4529SOL    HW114486   1.868   0.369   5.098
 4529SOL    HW214487   1.886   0.508   5.015
 4530SOL     OW14488   1.584   5.096   4.101
 4530SOL    HW114489   1.661   5.069   4.042
 4530SOL    HW214490   1.501   5.101   4.047
 4531SOL     OW14491   0.699   2.931   5.221
 4531SOL    HW114492   0.711   2.832   5.212
 4531SOL    HW214493   0.743   2.962   5.306
 4532SOL     OW14494   6.628   1.382   2.371
 4532SOL    HW114495   6.708   1.323   2.357
 4532SOL    HW214496   6.566   1.373   2.293
 4533SOL     OW14497   1.099   1.913   1.936
 4533SOL    HW114498   1.167   1.881   1.870
 4533SOL    HW214499   1.103   2.013   1.942
 4534SOL     OW14500   4.765   4.235   4.691
 4534SOL    HW114501   4.703   4.306   4.724
 4534SOL    HW214502   4.780   4.168   4.764
 4535SOL     OW14503   3.283   1.106   2.686
 4535SOL    HW114504   3.339   1.182   2.651
 4535SOL    HW214505   3.233   1.136   2.767
 4536SOL     OW14506   4.001   1.665   4.385
 4536SOL    HW114507   3.969   1.737   4.447
 4536SOL    HW214508   4.092   1.636   4.413
 4537SOL     OW14509   4.336   3.533   0.194
 4537SOL    HW114510   4.409   3.540   0.263
 4537SOL    HW214511   4.253   3.498   0.237
 4538SOL     OW14512   1.778   0.187   3.019
 4538SOL    HW114513   1.810   0.248   2.947
 4538SOL    HW214514   1.836   0.196   3.100
 4539SOL     OW14515   3.250   6.540   4.740
 4539SOL    HW114516   3.244   6.567   4.835
 4539SOL    HW214517   3.162   6.557   4.694
 4540SOL     OW14518   2.437   2.182   6.414
 4540SOL    HW114519   2.435   2.237   6.331
 4540SOL    HW214520   2.445   2.242   6.494
 4541SOL     OW14521   5.774   1.866   0.022
 4541SOL    HW114522   5.870   1.855   0.046
 4541SOL    HW214523   5.720   1.795   0.069
 4542SOL     OW14524   6.915   1.567   1.735
 4542SOL    HW114525   6.924   1.580   1.834
 4542SOL    HW214526   6.819   1.563   1.710
 4543SOL     OW14527   4.571   1.862   1.770
 4543SOL    HW114528   4.499   1.927   1.748
 4543SOL    HW214529   4.660   1.907   1.765
 4544SOL     OW14530   3.508   5.753   6.693
 4544SOL    HW114531   3.446   5.753   6.772
 4544SOL    HW214532   3.595   5.795   6.719
 4545SOL     OW14533   5.609   3.168   4.397
 4545SOL    HW114534   5.598   3.153   4.495
 4545SOL    HW214535   5.652   3.088   4.355
 4546SOL     OW14536   1.365   1.270   4.562
 4546SOL    HW114537   1.413   1.296   4.645
 4546SOL    HW214538   1.275   1.313   4.560
 4547SOL     OW14539   6.583   2.236   1.254
 4547SOL    HW114540   6.608   2.202   1.164
 4547SOL    HW214541   6.483   2.235   1.264
 4548SOL     OW14542   1.343   3.464   4.058
 4548SOL    HW114543   1.343   3.557   4.094
 4548SOL    HW214544   1.339   3.466   3.958
 4549SOL     OW14545   6.568   4.354   1.671
 4549SOL    HW114546   6.648   4.297   1.687
 4549SOL    HW214547   6.512   4.314   1.599
 4550SOL     OW14548   0.793   5.188   3.191
 4550SOL    HW114549   0.820   5.194   3.287
 4550SOL    HW214550   0.705   5.141   3.184
 4551SOL     OW14551   6.970   2.873   4.763
 4551SOL    HW114552   6.947   2.970   4.770
 4551SOL    HW214553   6.966   2.845   4.667
 4552SOL     OW14554   6.750   2.835   1.667
 4552SOL    HW114555   6.835   2.866   1.625
 4552SOL    HW214556   6.728   2.893   1.746
 4553SOL     OW14557   3.882   4.510   6.799
 4553SOL    HW114558   3.900   4.598   6.844
 4553SOL    HW214559   3.798   4.471   6.836
 4554SOL     OW14560   6.255   6.442   1.394
 4554SOL    HW114561   6.199   6.425   1.313
 4554SOL    HW214562   6.273   6.541   1.401
 4555SOL     OW14563   2.587   2.028   5.278
 4555SOL    HW114564   2.552   1.988   5.363
 4555SOL    HW214565   2.670   2.080   5.297
 4556SOL     OW14566   5.494   3.075   3.954
 4556SOL    HW114567   5.463   3.059   4.048
 4556SOL    HW214568   5.552   2.999   3.925
 4557SOL     OW14569   5.138   6.222   5.456
 4557SOL    HW114570   5.209   6.283   5.491
 4557SOL    HW214571   5.057   6.228   5.515
 4558SOL     OW14572   6.937   4.423   5.261
 4558SOL    HW114573   6.913   4.426   5.358
 4558SOL    HW214574   6.975   4.511   5.233
 4559SOL     OW14575   0.677   3.635   1.927
 4559SOL    HW114576   0.635   3.685   2.002
 4559SOL    HW214577   0.756   3.584   1.961
 4560SOL     OW14578   5.383   4.228   1.681
 4560SOL    HW114579   5.475   4.217   1.642
 4560SOL    HW214580   5.315   4.196   1.615
 4561SOL     OW14581   2.579   2.148   2.952
 4561SOL    HW114582   2.600   2.050   2.958
 4561SOL    HW214583   2.523   2.175   3.030
 4562SOL     OW14584   2.281   6.511   6.006
 4562SOL    HW114585   2.376   6.543   6.011
 4562SOL    HW214586   2.280   6.411   6.001
 4563SOL     OW14587   0.114   2.732   0.765
 4563SOL    HW114588   0.161   2.674   0.832
 4563SOL    HW214589   0.177   2.756   0.692
 4564SOL     OW14590   6.925   5.671   1.969
 4564SOL    HW114591   7.000   5.665   2.035
 4564SOL    HW214592   6.929   5.759   1.922
 4565SOL     OW14593   0.754   0.907   5.035
 4565SOL    HW114594   0.839   0.855   5.027
 4565SOL    HW214595   0.768   0.984   5.098
 4566SOL     OW14596   6.836   2.816   0.150
 4566SOL    HW114597   6.817   2.723   0.117
 4566SOL    HW214598   6.858   2.812   0.247
 4567SOL     OW14599   6.150   1.249   6.031
 4567SOL    HW114600   6.096   1.168   6.005
 4567SOL    HW214601   6.197   1.284   5.950
 4568SOL     OW14602   1.790   3.023   6.195
 4568SOL    HW114603   1.730   3.100   6.213
 4568SOL    HW214604   1.857   3.014   6.269
 4569SOL     OW14605   1.958   1.704   3.126
 4569SOL    HW114606   1.875   1.728   3.075
 4569SOL    HW214607   2.031   1.682   3.061
 4570SOL     OW14608   6.962   6.737   2.515
 4570SOL    HW114609   7.000   6.750   2.607
 4570SOL    HW214610   6.915   6.820   2.487
 4571SOL     OW14611   4.244   4.326   6.559
 4571SOL    HW114612   4.232   4.231   6.530
 4571SOL    HW214613   4.222   4.387   6.483
 4572SOL     OW14614   2.395   0.235   6.679
 4572SOL    HW114615   2.477   0.288   6.700
 4572SOL    HW214616   2.345   0.215   6.763
 4573SOL     OW14617   6.352   0.056   0.602
 4573SOL    HW114618   6.302   6.986   0.617
 4573SOL    HW214619   6.386   0.058   0.508
 4574SOL     OW14620   5.799   3.723   0.604
 4574SOL    HW114621   5.807   3.701   0.507
 4574SOL    HW214622   5.886   3.706   0.649
 4575SOL     OW14623   5.532   1.123   6.173
 4575SOL    HW114624   5.478   1.144   6.091
 4575SOL    HW214625   5.628   1.140   6.154
 4576SOL     OW14626   2.872   6.274   5.603
 4576SOL    HW114627   2.792   6.230   5.644
 4576SOL    HW214628   2.860   6.373   5.605
 4577SOL     OW14629   1.107   1.912   4.291
 4577SOL    HW114630   1.072   1.887   4.201
 4577SOL    HW214631   1.161   1.996   4.283
 4578SOL     OW14632   0.912   2.983   5.403
 4578SOL    HW114633   0.959   2.906   5.445
 4578SOL    HW214634   0.868   3.038   5.475
 4579SOL     OW14635   3.759   0.482   3.236
 4579SOL    HW114636   3.672   0.438   3.256
 4579SOL    HW214637   3.760   0.573   3.276
 4580SOL     OW14638   5.796   4.636   0.527
 4580SOL    HW114639   5.800   4.551   0.474
 4580SOL    HW214640   5.711   4.639   0.579
 4581SOL     OW14641   2.315   5.202   2.570
 4581SOL    HW114642   2.241   5.162   2.624
 4581SOL    HW214643   2.392   5.224   2.630
 4582SOL     OW14644   4.750   0.433   5.043
 4582SOL    HW114645   4.680   0.382   4.993
 4582SOL    HW214646   4.765   0.521   4.999
 4583SOL     OW14647   2.792   2.454   6.733
 4583SOL    HW114648   2.729   2.459   6.810
 4583SOL    HW214649   2.884   2.481   6.763
 4584SOL     OW14650   0.208   4.122   5.382
 4584SOL    HW114651   0.123   4.089   5.341
 4584SOL    HW214652   0.218   4.220   5.365
 4585SOL     OW14653   2.563   5.939   3.595
 4585SOL    HW114654   2.575   6.028   3.639
 4585SOL    HW214655   2.466   5.918   3.587
 4586SOL     OW14656   4.018   4.766   0.699
 4586SOL    HW114657   4.077   4.742   0.622
 4586SOL    HW214658   3.923   4.752   0.674
 4587SOL     OW14659   3.623   3.829   3.544
 4587SOL    HW114660   3.590   3.920   3.517
 4587SOL    HW214661   3.666   3.835   3.634
 4588SOL     OW14662   2.423   3.498   5.358
 4588SOL    HW114663   2.439   3.480   5.455
 4588SOL    HW214664   2.510   3.516   5.313
 4589SOL     OW14665   6.433   1.083   2.140
 4589SOL    HW114666   6.476   1.044   2.059
 4589SOL    HW214667   6.429   1.014   2.213
 4590SOL     OW14668   4.689   5.437   0.726
 4590SOL    HW114669   4.730   5.357   0.770
 4590SOL    HW214670   4.672   5.417   0.629
 4591SOL     OW14671   1.323   6.959   4.417
 4591SOL    HW114672   1.258   6.885   4.435
 4591SOL    HW214673   1.416   6.926   4.434
 4592SOL     OW14674   2.354   1.565   2.573
 4592SOL    HW114675   2.335   1.467   2.581
 4592SOL    HW214676   2.451   1.583   2.592
 4593SOL     OW14677   5.135   5.939   2.553
 4593SOL    HW114678   5.096   5.882   2.625
 4593SOL    HW214679   5.229   5.910   2.535
 4594SOL     OW14680   2.637   1.415   2.963
 4594SOL    HW114681   2.670   1.400   3.056
 4594SOL    HW214682   2.538   1.407   2.961
 4595SOL     OW14683   4.587   3.251   5.614
 4595SOL    HW114684   4.652   3.326   5.627
 4595SOL    HW214685   4.623   3.168   5.655
 4596SOL     OW14686   6.063   0.385   2.045
 4596SOL    HW114687   6.157   0.402   2.017
 4596SOL    HW214688   6.049   0.415   2.139
 4597SOL     OW14689   3.853   5.470   6.474
 4597SOL    HW114690   3.924   5.477   6.545
 4597SOL    HW214691   3.769   5.511   6.508
 4598SOL     OW14692   1.373   6.041   0.154
 4598SOL    HW114693   1.459   6.086   0.179
 4598SOL    HW214694   1.379   6.005   0.061
 4599SOL     OW14695   1.757   4.817   0.353
 4599SOL    HW114696   1.813   4.866   0.285
 4599SOL    HW214697   1.665   4.857   0.355
 4600SOL     OW14698   1.539   5.551   5.684
 4600SOL    HW114699   1.442   5.571   5.673
 4600SOL    HW214700   1.552   5.492   5.765
 4601SOL     OW14701   2.022   1.441   5.037
 4601SOL    HW114702   2.072   1.354   5.047
 4601SOL    HW214703   2.066   1.512   5.091
 4602SOL     OW14704   2.850   6.267   1.129
 4602SOL    HW114705   2.900   6.237   1.210
 4602SOL    HW214706   2.909   6.259   1.049
 4603SOL     OW14707   3.476   6.242   0.557
 4603SOL    HW114708   3.467   6.150   0.519
 4603SOL    HW214709   3.529   6.238   0.642
 4604SOL     OW14710   4.574   0.204   0.014
 4604SOL    HW114711   4.600   0.126   0.071
 4604SOL    HW214712   4.536   0.277   0.071
 4605SOL     OW14713   2.026   6.626   2.465
 4605SOL    HW114714   2.079   6.545   2.440
 4605SOL    HW214715   1.953   6.601   2.528
 4606SOL     OW14716   0.751   6.663   2.623
 4606SOL    HW114717   0.850   6.671   2.630
 4606SOL    HW214718   0.722   6.573   2.657
 4607SOL     OW14719   1.752   3.455   1.676
 4607SOL    HW114720   1.720   3.367   1.710
 4607SOL    HW214721   1.699   3.482   1.596
 4608SOL     OW14722   0.658   5.699   3.573
 4608SOL    HW114723   0.620   5.754   3.499
 4608SOL    HW214724   0.758   5.694   3.562
 4609SOL     OW14725   4.393   5.160   6.538
 4609SOL    HW114726   4.478   5.205   6.509
 4609SOL    HW214727   4.408   5.116   6.627
 4610SOL     OW14728   5.061   1.874   0.689
 4610SOL    HW114729   4.972   1.913   0.713
 4610SOL    HW214730   5.072   1.874   0.590
 4611SOL     OW14731   0.821   6.272   6.286
 4611SOL    HW114732   0.909   6.318   6.268
 4611SOL    HW214733   0.746   6.335   6.265
 4612SOL     OW14734   1.080   6.408   0.252
 4612SOL    HW114735   1.163   6.454   0.282
 4612SOL    HW214736   1.104   6.325   0.202
 4613SOL     OW14737   1.572   5.521   1.784
 4613SOL    HW114738   1.643   5.589   1.803
 4613SOL    HW214739   1.484   5.555   1.817
 4614SOL     OW14740   6.308   3.282   2.849
 4614SOL    HW114741   6.240   3.284   2.922
 4614SOL    HW214742   6.400   3.274   2.889
 4615SOL     OW14743   1.923   0.780   6.836
 4615SOL    HW114744   2.020   0.774   6.860
 4615SOL    HW214745   1.913   0.795   6.738
 4616SOL     OW14746   6.100   1.192   4.583
 4616SOL    HW114747   6.036   1.236   4.520
 4616SOL    HW214748   6.182   1.164   4.534
 4617SOL     OW14749   0.756   2.201   2.295
 4617SOL    HW114750   0.839   2.153   2.324
 4617SOL    HW214751   0.729   2.267   2.366
 4618SOL     OW14752   2.535   2.741   5.258
 4618SOL    HW114753   2.532   2.839   5.237
 4618SOL    HW214754   2.450   2.698   5.228
 4619SOL     OW14755   3.442   6.553   3.547
 4619SOL    HW114756   3.367   6.549   3.481
 4619SOL    HW214757   3.529   6.532   3.501
 4620SOL     OW14758   2.533   4.958   0.712
 4620SOL    HW114759   2.536   4.991   0.806
 4620SOL    HW214760   2.489   5.027   0.654
 4621SOL     OW14761   4.979   0.375   2.444
 4621SOL    HW114762   5.052   0.329   2.494
 4621SOL    HW214763   5.009   0.467   2.418
 4622SOL     OW14764   3.184   4.717   0.590
 4622SOL    HW114765   3.233   4.635   0.562
 4622SOL    HW214766   3.129   4.697   0.671
 4623SOL     OW14767   5.579   6.141   1.052
 4623SOL    HW114768   5.520   6.185   1.119
 4623SOL    HW214769   5.673   6.171   1.065
 4624SOL     OW14770   3.742   6.658   2.831
 4624SOL    HW114771   3.734   6.606   2.916
 4624SOL    HW214772   3.751   6.755   2.851
 4625SOL     OW14773   1.676   4.362   1.375
 4625SOL    HW114774   1.605   4.306   1.417
 4625SOL    HW214775   1.740   4.393   1.446
 4626SOL     OW14776   5.809   4.333   2.260
 4626SOL    HW114777   5.712   4.341   2.283
 4626SOL    HW214778   5.820   4.280   2.176
 4627SOL     OW14779   1.959   4.706   5.021
 4627SOL    HW114780   2.005   4.617   5.026
 4627SOL    HW214781   1.966   4.741   4.928
 4628SOL     OW14782   5.267   4.181   3.949
 4628SOL    HW114783   5.331   4.113   3.914
 4628SOL    HW214784   5.314   4.242   4.013
 4629SOL     OW14785   2.921   4.933   5.483
 4629SOL    HW114786   2.906   4.930   5.581
 4629SOL    HW214787   2.940   4.842   5.448
 4630SOL     OW14788   2.668   6.252   2.130
 4630SOL    HW114789   2.693   6.324   2.195
 4630SOL    HW214790   2.666   6.290   2.038
 4631SOL     OW14791   1.609   5.850   3.718
 4631SOL    HW114792   1.602   5.770   3.778
 4631SOL    HW214793   1.705   5.874   3.705
 4632SOL     OW14794   3.137   4.847   2.530
 4632SOL    HW114795   3.063   4.799   2.576
 4632SOL    HW214796   3.207   4.874   2.596
 4633SOL     OW14797   5.919   0.583   5.250
 4633SOL    HW114798   5.832   0.574   5.202
 4633SOL    HW214799   5.910   0.545   5.342
 4634SOL     OW14800   2.985   4.085   5.721
 4634SOL    HW114801   2.902   4.138   5.738
 4634SOL    HW214802   2.966   3.987   5.732
 4635SOL     OW14803   5.183   3.584   1.722
 4635SOL    HW114804   5.250   3.638   1.773
 4635SOL    HW214805   5.115   3.547   1.786
 4636SOL     OW14806   2.029   4.359   6.948
 4636SOL    HW114807   1.952   4.318   6.994
 4636SOL    HW214808   1.997   4.429   6.884
 4637SOL     OW14809   0.797   6.173   1.444
 4637SOL    HW114810   0.758   6.199   1.355
 4637SOL    HW214811   0.895   6.193   1.445
 4638SOL     OW14812   4.133   4.583   6.910
 4638SOL    HW114813   4.199   4.519   6.951
 4638SOL    HW214814   4.152   4.592   6.812
 4639SOL     OW14815   3.555   3.411   5.841
 4639SOL    HW114816   3.456   3.399   5.845
 4639SOL    HW214817   3.581   3.490   5.897
 4640SOL     OW14818   4.996   3.924   3.665
 4640SOL    HW114819   5.059   3.848   3.651
 4640SOL    HW214820   4.906   3.890   3.692
 4641SOL     OW14821   2.542   0.401   4.482
 4641SOL    HW114822   2.603   0.322   4.480
 4641SOL    HW214823   2.480   0.397   4.404
 4642SOL     OW14824   1.107   6.865   3.960
 4642SOL    HW114825   1.009   6.848   3.956
 4642SOL    HW214826   1.140   6.851   4.053
 4643SOL     OW14827   6.797   2.079   0.633
 4643SOL    HW114828   6.889   2.112   0.654
 4643SOL    HW214829   6.735   2.157   0.626
 4644SOL     OW14830   0.843   5.302   5.557
 4644SOL    HW114831   0.854   5.203   5.549
 4644SOL    HW214832   0.868   5.345   5.470
 4645SOL     OW14833   0.376   0.271   3.848
 4645SOL    HW114834   0.458   0.237   3.894
 4645SOL    HW214835   0.396   0.289   3.752
 4646SOL     OW14836   2.256   5.679   3.761
 4646SOL    HW114837   2.317   5.606   3.729
 4646SOL    HW214838   2.224   5.658   3.854
 4647SOL     OW14839   2.118   0.060   3.127
 4647SOL    HW114840   2.092   0.155   3.144
 4647SOL    HW214841   2.123   0.044   3.028
 4648SOL     OW14842   3.422   0.917   2.815
 4648SOL    HW114843   3.517   0.898   2.792
 4648SOL    HW214844   3.382   0.977   2.746
 4649SOL     OW14845   4.922   0.758   6.853
 4649SOL    HW114846   4.954   0.714   6.937
 4649SOL    HW214847   4.930   0.694   6.776
 4650SOL     OW14848   4.775   5.611   2.919
 4650SOL    HW114849   4.700   5.596   2.854
 4650SOL    HW214850   4.856   5.561   2.887
 4651SOL     OW14851   6.301   3.208   0.088
 4651SOL    HW114852   6.287   3.173   7.011
 4651SOL    HW214853   6.263   3.301   0.094
 4652SOL     OW14854   6.210   6.232   4.302
 4652SOL    HW114855   6.254   6.145   4.324
 4652SOL    HW214856   6.278   6.297   4.268
 4653SOL     OW14857   5.116   5.797   1.227
 4653SOL    HW114858   5.102   5.883   1.277
 4653SOL    HW214859   5.149   5.817   1.135
 4654SOL     OW14860   0.453   6.749   0.519
 4654SOL    HW114861   0.529   6.688   0.500
 4654SOL    HW214862   0.430   6.800   0.436
 4655SOL     OW14863   6.006   4.123   0.985
 4655SOL    HW114864   5.943   4.105   0.910
 4655SOL    HW214865   5.955   4.130   1.071
 4656SOL     OW14866   1.254   0.382   2.236
 4656SOL    HW114867   1.170   0.384   2.291
 4656SOL    HW214868   1.239   0.431   2.151
 4657SOL     OW14869   4.222   5.797   1.767
 4657SOL    HW114870   4.247   5.824   1.860
 4657SOL    HW214871   4.135   5.839   1.742
 4658SOL     OW14872   3.850   0.757   3.314
 4658SOL    HW114873   3.913   0.745   3.238
 4658SOL    HW214874   3.902   0.768   3.399
 4659SOL     OW14875   3.277   4.372   5.565
 4659SOL    HW114876   3.222   4.395   5.485
 4659SOL    HW214877   3.348   4.441   5.578
 4660SOL     OW14878   0.896   4.705   5.465
 4660SOL    HW114879   0.908   4.678   5.561
 4660SOL    HW214880   0.839   4.787   5.461
 4661SOL     OW14881   2.963   4.417   6.280
 4661SOL    HW114882   3.059   4.389   6.284
 4661SOL    HW214883   2.944   4.456   6.190
 4662SOL     OW14884   3.281   0.125   5.362
 4662SOL    HW114885   3.341   0.199   5.391
 4662SOL    HW214886   3.282   0.118   5.263
 4663SOL     OW14887   0.250   1.571   1.220
 4663SOL    HW114888   0.301   1.573   1.306
 4663SOL    HW214889   0.225   1.664   1.194
 4664SOL     OW14890   1.705   0.852   0.979
 4664SOL    HW114891   1.677   0.760   0.952
 4664SOL    HW214892   1.782   0.881   0.922
 4665SOL     OW14893   3.340   6.316   6.725
 4665SOL    HW114894   3.262   6.259   6.699
 4665SOL    HW214895   3.329   6.346   6.820
 4666SOL     OW14896   2.162   2.741   0.074
 4666SOL    HW114897   2.200   2.648   0.074
 4666SOL    HW214898   2.063   2.737   0.070
 4667SOL     OW14899   6.756   3.591   2.117
 4667SOL    HW114900   6.667   3.547   2.106
 4667SOL    HW214901   6.763   3.669   2.055
 4668SOL     OW14902   4.264   2.279   3.301
 4668SOL    HW114903   4.270   2.183   3.330
 4668SOL    HW214904   4.303   2.289   3.210
 4669SOL     OW14905   4.690   6.240   6.957
 4669SOL    HW114906   4.630   6.241   0.021
 4669SOL    HW214907   4.785   6.235   6.987
 4670SOL     OW14908   2.019   2.473   5.430
 4670SOL    HW114909   1.928   2.432   5.441
 4670SOL    HW214910   2.068   2.467   5.517
 4671SOL     OW14911   6.908   3.063   0.044
 4671SOL    HW114912   6.821   3.112   0.044
 4671SOL    HW214913   6.898   2.976   0.092
 4672SOL     OW14914   2.675   4.702   5.550
 4672SOL    HW114915   2.750   4.646   5.515
 4672SOL    HW214916   2.588   4.666   5.516
 4673SOL     OW14917   4.867   6.913   2.166
 4673SOL    HW114918   4.963   6.934   2.148
 4673SOL    HW214919   4.836   6.964   2.246
 4674SOL     OW14920   5.352   0.703   6.342
 4674SOL    HW114921   5.443   0.717   6.381
 4674SOL    HW214922   5.308   0.625   6.385
 4675SOL     OW14923   2.479   1.334   6.717
 4675SOL    HW114924   2.460   1.429   6.744
 4675SOL    HW214925   2.402   1.299   6.663
 4676SOL     OW14926   6.674   6.470   4.438
 4676SOL    HW114927   6.589   6.417   4.436
 4676SOL    HW214928   6.738   6.432   4.371
 4677SOL     OW14929   2.217   1.310   6.614
 4677SOL    HW114930   2.173   1.224   6.638
 4677SOL    HW214931   2.218   1.321   6.515
 4678SOL     OW14932   2.002   4.303   2.864
 4678SOL    HW114933   2.053   4.218   2.880
 4678SOL    HW214934   2.047   4.379   2.910
 4679SOL     OW14935   3.532   1.229   7.015
 4679SOL    HW114936   3.469   1.163   6.974
 4679SOL    HW214937   3.545   1.207   0.096
 4680SOL     OW14938   2.459   1.333   0.363
 4680SOL    HW114939   2.404   1.321   0.446
 4680SOL    HW214940   2.460   1.248   0.311
 4681SOL     OW14941   4.858   6.264   6.099
 4681SOL    HW114942   4.851   6.233   6.193
 4681SOL    HW214943   4.891   6.358   6.097
 4682SOL     OW14944   4.378   4.307   5.670
 4682SOL    HW114945   4.438   4.356   5.607
 4682SOL    HW214946   4.282   4.328   5.648
 4683SOL     OW14947   3.884   4.898   2.509
 4683SOL    HW114948   3.870   4.995   2.489
 4683SOL    HW214949   3.823   4.871   2.584
 4684SOL     OW14950   6.587   2.028   5.597
 4684SOL    HW114951   6.492   2.040   5.627
 4684SOL    HW214952   6.647   2.037   5.676
 4685SOL     OW14953   0.598   6.311   5.350
 4685SOL    HW114954   0.673   6.329   5.414
 4685SOL    HW214955   0.611   6.367   5.268
 4686SOL     OW14956   4.526   5.114   0.013
 4686SOL    HW114957   4.439   5.099   0.060
 4686SOL    HW214958   4.568   5.199   0.047
 4687SOL     OW14959   6.641   3.936   5.120
 4687SOL    HW114960   6.581   3.997   5.067
 4687SOL    HW214961   6.736   3.963   5.107
 4688SOL     OW14962   6.251   3.807   5.085
 4688SOL    HW114963   6.247   3.770   5.178
 4688SOL    HW214964   6.270   3.734   5.020
 4689SOL     OW14965   6.031   0.236   0.215
 4689SOL    HW114966   5.941   0.201   0.244
 4689SOL    HW214967   6.077   0.278   0.293
 4690SOL     OW14968   0.894   0.635   6.878
 4690SOL    HW114969   0.824   0.564   6.875
 4690SOL    HW214970   0.985   0.592   6.876
 4691SOL     OW14971   2.799   4.875   2.120
 4691SOL    HW114972   2.809   4.786   2.075
 4691SOL    HW214973   2.885   4.900   2.164
 4692SOL     OW14974   5.839   5.491   1.883
 4692SOL    HW114975   5.885   5.409   1.848
 4692SOL    HW214976   5.787   5.466   1.965
 4693SOL     OW14977   1.242   0.854   3.225
 4693SOL    HW114978   1.175   0.917   3.184
 4693SOL    HW214979   1.334   0.882   3.200
 4694SOL     OW14980   2.255   0.065   0.411
 4694SOL    HW114981   2.276   0.135   0.342
 4694SOL    HW214982   2.340   0.024   0.442
 4695SOL     OW14983   2.175   3.708   1.444
 4695SOL    HW114984   2.155   3.619   1.486
 4695SOL    HW214985   2.238   3.759   1.502
 4696SOL     OW14986   0.187   3.949   6.578
 4696SOL    HW114987   0.266   3.934   6.519
 4696SOL    HW214988   0.214   3.935   6.673
 4697SOL     OW14989   2.410   3.158   0.915
 4697SOL    HW114990   2.488   3.185   0.859
 4697SOL    HW214991   2.336   3.125   0.857
 4698SOL     OW14992   4.567   5.983   3.535
 4698SOL    HW114993   4.534   5.918   3.466
 4698SOL    HW214994   4.527   5.960   3.624
 4699SOL     OW14995   1.741   6.751   2.083
 4699SOL    HW114996   1.678   6.791   2.015
 4699SOL    HW214997   1.828   6.800   2.080
 4700SOL     OW14998   6.833   1.756   2.756
 4700SOL    HW114999   6.768   1.684   2.733
 4700SOL    HW215000   6.900   1.721   2.821
 4701SOL     OW15001   2.316   2.294   6.923
 4701SOL    HW115002   2.316   2.194   6.923
 4701SOL    HW215003   2.409   2.327   6.932
 4702SOL     OW15004   5.453   4.805   6.476
 4702SOL    HW115005   5.418   4.869   6.544
 4702SOL    HW215006   5.377   4.769   6.422
 4703SOL     OW15007   0.910   1.466   1.488
 4703SOL    HW115008   0.937   1.553   1.530
 4703SOL    HW215009   0.928   1.391   1.552
 4704SOL     OW15010   1.352   6.861   0.173
 4704SOL    HW115011   1.332   6.959   0.176
 4704SOL    HW215012   1.291   6.813   0.236
 4705SOL     OW15013   3.190   3.408   2.021
 4705SOL    HW115014   3.241   3.450   2.096
 4705SOL    HW215015   3.114   3.354   2.059
 4706SOL     OW15016   3.974   6.851   6.781
 4706SOL    HW115017   3.914   6.895   6.848
 4706SOL    HW215018   4.068   6.884   6.795
 4707SOL     OW15019   1.978   6.131   1.374
 4707SOL    HW115020   1.894   6.183   1.394
 4707SOL    HW215021   1.961   6.034   1.393
 4708SOL     OW15022   1.315   1.972   6.528
 4708SOL    HW115023   1.380   1.986   6.602
 4708SOL    HW215024   1.364   1.960   6.442
 4709SOL     OW15025   4.749   5.668   5.794
 4709SOL    HW115026   4.793   5.757   5.796
 4709SOL    HW215027   4.698   5.658   5.708
 4710SOL     OW15028   3.778   1.198   5.207
 4710SOL    HW115029   3.829   1.192   5.293
 4710SOL    HW215030   3.700   1.259   5.219
 4711SOL     OW15031   5.479   0.967   1.524
 4711SOL    HW115032   5.488   0.921   1.612
 4711SOL    HW215033   5.556   1.031   1.512
 4712SOL     OW15034   3.042   4.378   0.210
 4712SOL    HW115035   2.972   4.374   0.281
 4712SOL    HW215036   3.126   4.333   0.243
 4713SOL     OW15037   3.274   3.144   0.658
 4713SOL    HW115038   3.344   3.156   0.729
 4713SOL    HW215039   3.187   3.118   0.700
 4714SOL     OW15040   1.432   2.600   6.768
 4714SOL    HW115041   1.494   2.606   6.690
 4714SOL    HW215042   1.349   2.551   6.741
 4715SOL     OW15043   6.704   2.943   2.243
 4715SOL    HW115044   6.635   2.932   2.315
 4715SOL    HW215045   6.791   2.970   2.285
 4716SOL     OW15046   4.802   6.157   6.343
 4716SOL    HW115047   4.810   6.250   6.379
 4716SOL    HW215048   4.707   6.127   6.351
 4717SOL     OW15049   0.409   6.820   3.593
 4717SOL    HW115050   0.362   6.734   3.573
 4717SOL    HW215051   0.341   6.893   3.604
 4718SOL     OW15052   5.608   2.378   1.014
 4718SOL    HW115053   5.626   2.454   1.076
 4718SOL    HW215054   5.545   2.314   1.057
 4719SOL     OW15055   5.199   3.381   2.336
 4719SOL    HW115056   5.247   3.411   2.419
 4719SOL    HW215057   5.220   3.285   2.319
 4720SOL     OW15058   2.293   5.555   6.083
 4720SOL    HW115059   2.269   5.481   6.021
 4720SOL    HW215060   2.348   5.623   6.035
 4721SOL     OW15061   6.783   2.576   1.494
 4721SOL    HW115062   6.806   2.662   1.538
 4721SOL    HW215063   6.714   2.592   1.424
 4722SOL     OW15064   0.867   5.743   6.658
 4722SOL    HW115065   0.871   5.791   6.746
 4722SOL    HW215066   0.803   5.790   6.597
 4723SOL     OW15067   1.832   3.838   6.042
 4723SOL    HW115068   1.911   3.780   6.062
 4723SOL    HW215069   1.863   3.917   5.989
 4724SOL     OW15070   5.606   6.189   3.070
 4724SOL    HW115071   5.564   6.234   3.149
 4724SOL    HW215072   5.598   6.248   2.990
 4725SOL     OW15073   6.189   5.942   2.753
 4725SOL    HW115074   6.217   5.967   2.845
 4725SOL    HW215075   6.090   5.951   2.744
 4726SOL     OW15076   1.391   2.301   6.046
 4726SOL    HW115077   1.483   2.339   6.034
 4726SOL    HW215078   1.390   2.206   6.013
 4727SOL     OW15079   1.025   6.128   0.577
 4727SOL    HW115080   1.078   6.092   0.654
 4727SOL    HW215081   1.024   6.062   0.503
 4728SOL     OW15082   5.396   0.699   1.733
 4728SOL    HW115083   5.453   0.778   1.754
 4728SOL    HW215084   5.438   0.616   1.770
 4729SOL     OW15085   2.598   1.659   0.962
 4729SOL    HW115086   2.614   1.604   0.880
 4729SOL    HW215087   2.651   1.621   1.038
 4730SOL     OW15088   3.288   5.954   4.887
 4730SOL    HW115089   3.256   5.860   4.899
 4730SOL    HW215090   3.386   5.958   4.905
 4731SOL     OW15091   4.307   6.950   6.752
 4731SOL    HW115092   4.246   0.009   6.723
 4731SOL    HW215093   4.401   6.971   6.724
 4732SOL     OW15094   1.105   3.106   6.006
 4732SOL    HW115095   1.202   3.104   6.031
 4732SOL    HW215096   1.063   3.188   6.045
 4733SOL     OW15097   1.450   4.391   3.765
 4733SOL    HW115098   1.522   4.329   3.797
 4733SOL    HW215099   1.433   4.374   3.668
 4734SOL     OW15100   4.812   2.450   0.430
 4734SOL    HW115101   4.813   2.487   0.523
 4734SOL    HW215102   4.762   2.513   0.370
 4735SOL     OW15103   0.281   5.634   4.947
 4735SOL    HW115104   0.346   5.637   5.023
 4735SOL    HW215105   0.193   5.598   4.980
 4736SOL     OW15106   0.056   2.170   6.449
 4736SOL    HW115107   0.105   2.101   6.395
 4736SOL    HW215108   0.105   2.187   6.534
 4737SOL     OW15109   2.210   4.456   2.580
 4737SOL    HW115110   2.290   4.495   2.533
 4737SOL    HW215111   2.241   4.387   2.646
 4738SOL     OW15112   0.240   6.232   3.150
 4738SOL    HW115113   0.214   6.238   3.246
 4738SOL    HW215114   0.168   6.274   3.094
 4739SOL     OW15115   4.333   5.958   3.257
 4739SOL    HW115116   4.311   6.042   3.306
 4739SOL    HW215117   4.431   5.956   3.237
 4740SOL     OW15118   1.601   1.045   1.138
 4740SOL    HW115119   1.629   0.964   1.087
 4740SOL    HW215120   1.669   1.117   1.128
 4741SOL     OW15121   3.683   3.562   1.113
 4741SOL    HW115122   3.722   3.653   1.125
 4741SOL    HW215123   3.718   3.501   1.184
 4742SOL     OW15124   3.243   6.885   5.511
 4742SOL    HW115125   3.206   6.847   5.426
 4742SOL    HW215126   3.225   6.983   5.514
 4743SOL     OW15127   1.742   3.717   3.062
 4743SOL    HW115128   1.710   3.734   3.156
 4743SOL    HW215129   1.750   3.804   3.014
 4744SOL     OW15130   1.634   4.527   0.618
 4744SOL    HW115131   1.627   4.480   0.530
 4744SOL    HW215132   1.644   4.460   0.692
 4745SOL     OW15133   3.017   3.418   5.769
 4745SOL    HW115134   2.954   3.412   5.692
 4745SOL    HW215135   2.982   3.483   5.837
 4746SOL     OW15136   5.174   6.048   2.886
 4746SOL    HW115137   5.100   6.017   2.945
 4746SOL    HW215138   5.188   6.146   2.898
 4747SOL     OW15139   1.601   3.810   0.082
 4747SOL    HW115140   1.546   3.872   0.026
 4747SOL    HW215141   1.697   3.817   0.055
 4748SOL     OW15142   2.443   5.657   1.294
 4748SOL    HW115143   2.536   5.625   1.276
 4748SOL    HW215144   2.384   5.632   1.217
 4749SOL     OW15145   2.273   6.180   5.611
 4749SOL    HW115146   2.275   6.081   5.625
 4749SOL    HW215147   2.360   6.220   5.637
 4750SOL     OW15148   0.109   3.941   4.866
 4750SOL    HW115149   0.198   3.899   4.882
 4750SOL    HW215150   0.038   3.892   4.917
 4751SOL     OW15151   4.117   2.006   2.641
 4751SOL    HW115152   4.063   2.079   2.599
 4751SOL    HW215153   4.066   1.920   2.637
 4752SOL     OW15154   4.138   1.070   6.693
 4752SOL    HW115155   4.088   1.052   6.778
 4752SOL    HW215156   4.199   1.148   6.706
 4753SOL     OW15157   6.424   0.220   4.243
 4753SOL    HW115158   6.504   0.242   4.299
 4753SOL    HW215159   6.435   0.128   4.204
 4754SOL     OW15160   5.614   4.233   4.632
 4754SOL    HW115161   5.573   4.286   4.706
 4754SOL    HW215162   5.560   4.245   4.549
 4755SOL     OW15163   3.215   0.595   6.961
 4755SOL    HW115164   3.160   0.595   6.878
 4755SOL    HW215165   3.273   0.677   6.964
 4756SOL     OW15166   5.829   2.953   6.135
 4756SOL    HW115167   5.737   2.947   6.174
 4756SOL    HW215168   5.848   3.048   6.109
 4757SOL     OW15169   2.560   1.789   1.449
 4757SOL    HW115170   2.592   1.763   1.540
 4757SOL    HW215171   2.639   1.813   1.392
 4758SOL     OW15172   1.661   6.930   3.299
 4758SOL    HW115173   1.755   6.948   3.270
 4758SOL    HW215174   1.656   6.839   3.340
 4759SOL     OW15175   6.759   4.930   5.215
 4759SOL    HW115176   6.685   4.982   5.175
 4759SOL    HW215177   6.724   4.842   5.248
 4760SOL     OW15178   2.517   2.103   0.153
 4760SOL    HW115179   2.571   2.091   0.070
 4760SOL    HW215180   2.421   2.081   0.134
 4761SOL     OW15181   1.288   6.446   0.798
 4761SOL    HW115182   1.229   6.374   0.835
 4761SOL    HW215183   1.316   6.422   0.705
 4762SOL     OW15184   1.703   5.044   2.154
 4762SOL    HW115185   1.732   5.023   2.061
 4762SOL    HW215186   1.611   5.008   2.170
 4763SOL     OW15187   5.966   0.312   2.515
 4763SOL    HW115188   5.998   0.398   2.474
 4763SOL    HW215189   6.015   0.295   2.600
 4764SOL     OW15190   4.856   3.885   5.184
 4764SOL    HW115191   4.904   3.835   5.256
 4764SOL    HW215192   4.841   3.825   5.106
 4765SOL     OW15193   4.360   0.575   5.192
 4765SOL    HW115194   4.303   0.560   5.273
 4765SOL    HW215195   4.311   0.543   5.111
 4766SOL     OW15196   5.850   5.669   3.687
 4766SOL    HW115197   5.889   5.598   3.629
 4766SOL    HW215198   5.750   5.665   3.682
 4767SOL     OW15199   3.174   5.280   5.244
 4767SOL    HW115200   3.118   5.199   5.259
 4767SOL    HW215201   3.195   5.323   5.332
 4768SOL     OW15202   4.429   2.004   6.488
 4768SOL    HW115203   4.427   1.947   6.570
 4768SOL    HW215204   4.459   2.096   6.511
 4769SOL     OW15205   4.900   5.964   0.070
 4769SOL    HW115206   4.970   5.971   7.015
 4769SOL    HW215207   4.854   5.875   0.063
 4770SOL     OW15208   6.499   1.802   4.344
 4770SOL    HW115209   6.420   1.748   4.375
 4770SOL    HW215210   6.557   1.823   4.423
 4771SOL     OW15211   2.956   6.145   5.385
 4771SOL    HW115212   2.933   6.210   5.457
 4771SOL    HW215213   2.958   6.052   5.424
 4772SOL     OW15214   4.078   5.122   0.639
 4772SOL    HW115215   4.061   5.207   0.689
 4772SOL    HW215216   4.151   5.070   0.685
 4773SOL     OW15217   6.834   5.282   5.138
 4773SOL    HW115218   6.750   5.251   5.095
 4773SOL    HW215219   6.850   5.229   5.222
 4774SOL     OW15220   1.720   3.225   1.131
 4774SOL    HW115221   1.709   3.132   1.164
 4774SOL    HW215222   1.761   3.223   1.039
 4775SOL     OW15223   5.610   6.540   3.007
 4775SOL    HW115224   5.524   6.566   3.052
 4775SOL    HW215225   5.617   6.585   2.918
 4776SOL     OW15226   1.191   0.011   5.804
 4776SOL    HW115227   1.111   0.057   5.766
 4776SOL    HW215228   1.217   0.055   5.890
 4777SOL     OW15229   1.133   5.090   1.535
 4777SOL    HW115230   1.051   5.032   1.543
 4777SOL    HW215231   1.130   5.160   1.606
 4778SOL     OW15232   6.542   3.336   3.911
 4778SOL    HW115233   6.507   3.398   3.840
 4778SOL    HW215234   6.567   3.390   3.991
 4779SOL     OW15235   5.590   6.943   2.741
 4779SOL    HW115236   5.574   0.011   2.793
 4779SOL    HW215237   5.632   6.966   2.653
 4780SOL     OW15238   5.816   2.081   6.760
 4780SOL    HW115239   5.848   2.117   6.672
 4780SOL    HW215240   5.862   2.128   6.835
 4781SOL     OW15241   2.538   5.745   3.185
 4781SOL    HW115242   2.631   5.763   3.154
 4781SOL    HW215243   2.529   5.648   3.207
 4782SOL     OW15244   6.464   5.540   6.611
 4782SOL    HW115245   6.432   5.456   6.568
 4782SOL    HW215246   6.448   5.618   6.550
 4783SOL     OW15247   4.916   3.641   0.052
 4783SOL    HW115248   4.996   3.582   0.050
 4783SOL    HW215249   4.836   3.591   0.019
 4784SOL     OW15250   6.486   2.675   6.705
 4784SOL    HW115251   6.463   2.654   6.800
 4784SOL    HW215252   6.492   2.590   6.653
 4785SOL     OW15253   0.750   6.320   3.322
 4785SOL    HW115254   0.712   6.406   3.286
 4785SOL    HW215255   0.813   6.282   3.255
 4786SOL     OW15256   2.461   0.165   1.013
 4786SOL    HW115257   2.384   0.229   1.019
 4786SOL    HW215258   2.470   0.116   1.100
 4787SOL     OW15259   3.999   1.147   2.797
 4787SOL    HW115260   3.917   1.142   2.855
 4787SOL    HW215261   4.055   1.224   2.825
 4788SOL     OW15262   6.450   6.198   0.141
 4788SOL    HW115263   6.357   6.223   0.114
 4788SOL    HW215264   6.500   6.166   0.061
 4789SOL     OW15265   5.616   1.630   2.215
 4789SOL    HW115266   5.604   1.569   2.293
 4789SOL    HW215267   5.585   1.585   2.132
 4790SOL     OW15268   5.526   1.558   5.704
 4790SOL    HW115269   5.454   1.607   5.752
 4790SOL    HW215270   5.578   1.503   5.769
 4791SOL     OW15271   0.654   2.819   1.195
 4791SOL    HW115272   0.572   2.784   1.150
 4791SOL    HW215273   0.636   2.911   1.230
 4792SOL     OW15274   2.798   4.781   3.642
 4792SOL    HW115275   2.754   4.866   3.613
 4792SOL    HW215276   2.820   4.787   3.740
 4793SOL     OW15277   2.178   2.832   5.146
 4793SOL    HW115278   2.122   2.891   5.204
 4793SOL    HW215279   2.243   2.888   5.094
 4794SOL     OW15280   5.521   6.951   4.850
 4794SOL    HW115281   5.602   7.006   4.871
 4794SOL    HW215282   5.518   6.931   4.752
 4795SOL     OW15283   6.246   2.243   3.889
 4795SOL    HW115284   6.250   2.148   3.856
 4795SOL    HW215285   6.221   2.244   3.986
 4796SOL     OW15286   4.360   1.026   4.722
 4796SOL    HW115287   4.330   0.942   4.765
 4796SOL    HW215288   4.340   1.104   4.781
 4797SOL     OW15289   0.667   6.840   5.377
 4797SOL    HW115290   0.712   6.847   5.466
 4797SOL    HW215291   0.632   6.747   5.365
 4798SOL     OW15292   0.447   4.104   5.543
 4798SOL    HW115293   0.373   4.117   5.477
 4798SOL    HW215294   0.533   4.089   5.493
 4799SOL     OW15295   3.793   1.912   0.779
 4799SOL    HW115296   3.760   1.854   0.853
 4799SOL    HW215297   3.884   1.946   0.802
 4800SOL     OW15298   2.428   2.824   6.949
 4800SOL    HW115299   2.395   2.769   0.010
 4800SOL    HW215300   2.379   2.798   6.866
 4801SOL     OW15301   3.470   2.928   0.049
 4801SOL    HW115302   3.378   2.910   0.085
 4801SOL    HW215303   3.502   3.017   0.080
 4802SOL     OW15304   0.396   6.655   2.338
 4802SOL    HW115305   0.434   6.571   2.298
 4802SOL    HW215306   0.313   6.680   2.288
 4803SOL     OW15307   0.056   4.655   6.857
 4803SOL    HW115308   0.098   4.718   6.792
 4803SOL    HW215309   0.126   4.621   6.920
 4804SOL     OW15310   6.910   6.180   1.544
 4804SOL    HW115311   6.861   6.168   1.630
 4804SOL    HW215312   6.870   6.122   1.474
 4805SOL     OW15313   5.861   1.048   2.195
 4805SOL    HW115314   5.786   1.101   2.234
 4805SOL    HW215315   5.947   1.076   2.237
 4806SOL     OW15316   1.385   4.176   2.694
 4806SOL    HW115317   1.432   4.224   2.768
 4806SOL    HW215318   1.336   4.242   2.637
 4807SOL     OW15319   0.330   4.769   0.177
 4807SOL    HW115320   0.334   4.725   0.266
 4807SOL    HW215321   0.307   4.700   0.107
 4808SOL     OW15322   4.783   5.718   0.131
 4808SOL    HW115323   4.769   5.673   0.220
 4808SOL    HW215324   4.731   5.669   0.061
 4809SOL     OW15325   3.778   5.228   0.788
 4809SOL    HW115326   3.761   5.168   0.710
 4809SOL    HW215327   3.853   5.291   0.766
 4810SOL     OW15328   1.492   4.315   2.903
 4810SOL    HW115329   1.513   4.246   2.973
 4810SOL    HW215330   1.503   4.406   2.942
 4811SOL     OW15331   3.070   4.075   1.913
 4811SOL    HW115332   3.021   4.136   1.851
 4811SOL    HW215333   3.057   3.980   1.884
 4812SOL     OW15334   0.481   6.285   2.374
 4812SOL    HW115335   0.425   6.349   2.426
 4812SOL    HW215336   0.561   6.333   2.336
 4813SOL     OW15337   5.415   1.526   6.557
 4813SOL    HW115338   5.445   1.518   6.652
 4813SOL    HW215339   5.424   1.438   6.511
 4814SOL     OW15340   0.257   3.263   0.852
 4814SOL    HW115341   0.185   3.328   0.876
 4814SOL    HW215342   0.217   3.173   0.837
 4815SOL     OW15343   5.261   4.039   2.736
 4815SOL    HW115344   5.328   4.026   2.663
 4815SOL    HW215345   5.269   3.965   2.803
 4816SOL     OW15346   2.083   4.978   1.070
 4816SOL    HW115347   2.132   5.007   0.988
 4816SOL    HW215348   2.001   4.927   1.044
 4817SOL     OW15349   2.633   1.821   0.015
 4817SOL    HW115350   2.691   1.740   0.022
 4817SOL    HW215351   2.665   1.891   0.079
 4818SOL     OW15352   0.139   0.355   4.407
 4818SOL    HW115353   0.124   0.352   4.308
 4818SOL    HW215354   0.092   0.434   4.445
 4819SOL     OW15355   2.272   2.184   1.257
 4819SOL    HW115356   2.338   2.110   1.268
 4819SOL    HW215357   2.300   2.262   1.313
 4820SOL     OW15358   6.541   2.521   1.332
 4820SOL    HW115359   6.529   2.435   1.281
 4820SOL    HW215360   6.509   2.509   1.425
 4821SOL     OW15361   0.850   0.206   2.187
 4821SOL    HW115362   0.829   0.134   2.120
 4821SOL    HW215363   0.933   0.180   2.237
 4822SOL     OW15364   1.798   3.560   4.432
 4822SOL    HW115365   1.785   3.529   4.337
 4822SOL    HW215366   1.855   3.495   4.481
 4823SOL     OW15367   1.022   0.625   4.018
 4823SOL    HW115368   1.066   0.672   3.941
 4823SOL    HW215369   1.065   0.655   4.103
 4824SOL     OW15370   5.222   2.045   3.966
 4824SOL    HW115371   5.172   2.125   4.000
 4824SOL    HW215372   5.218   2.043   3.866
 4825SOL     OW15373   2.244   1.788   4.858
 4825SOL    HW115374   2.220   1.861   4.794
 4825SOL    HW215375   2.263   1.827   4.948
 4826SOL     OW15376   0.482   0.947   6.421
 4826SOL    HW115377   0.459   1.043   6.438
 4826SOL    HW215378   0.494   0.933   6.323
 4827SOL     OW15379   6.317   1.921   1.421
 4827SOL    HW115380   6.290   1.946   1.328
 4827SOL    HW215381   6.248   1.861   1.461
 4828SOL     OW15382   5.502   3.424   1.215
 4828SOL    HW115383   5.461   3.349   1.267
 4828SOL    HW215384   5.475   3.417   1.119
 4829SOL     OW15385   4.105   6.470   0.045
 4829SOL    HW115386   4.106   6.527   6.980
 4829SOL    HW215387   4.018   6.480   0.093
 4830SOL     OW15388   4.504   6.464   3.728
 4830SOL    HW115389   4.505   6.448   3.630
 4830SOL    HW215390   4.592   6.501   3.757
 4831SOL     OW15391   0.161   4.654   6.451
 4831SOL    HW115392   0.179   4.731   6.390
 4831SOL    HW215393   0.158   4.569   6.397
 4832SOL     OW15394   3.463   3.272   5.349
 4832SOL    HW115395   3.518   3.320   5.281
 4832SOL    HW215396   3.470   3.173   5.333
 4833SOL     OW15397   5.028   2.078   2.799
 4833SOL    HW115398   4.996   2.168   2.829
 4833SOL    HW215399   4.954   2.031   2.751
 4834SOL     OW15400   4.224   6.587   1.202
 4834SOL    HW115401   4.241   6.676   1.244
 4834SOL    HW215402   4.182   6.525   1.269
 4835SOL     OW15403   0.055   1.141   6.137
 4835SOL    HW115404   0.075   1.217   6.076
 4835SOL    HW215405   0.140   1.098   6.167
 4836SOL     OW15406   4.819   3.074   4.182
 4836SOL    HW115407   4.768   3.013   4.243
 4836SOL    HW215408   4.883   3.128   4.236
 4837SOL     OW15409   5.999   4.522   1.841
 4837SOL    HW115410   6.085   4.511   1.792
 4837SOL    HW215411   6.008   4.485   1.934
 4838SOL     OW15412   0.794   4.654   0.763
 4838SOL    HW115413   0.751   4.599   0.692
 4838SOL    HW215414   0.749   4.636   0.851
 4839SOL     OW15415   1.741   2.467   6.219
 4839SOL    HW115416   1.735   2.545   6.282
 4839SOL    HW215417   1.669   2.474   6.150
 4840SOL     OW15418   0.498   5.709   5.778
 4840SOL    HW115419   0.446   5.769   5.838
 4840SOL    HW215420   0.437   5.641   5.738
 4841SOL     OW15421   2.996   6.175   2.020
 4841SOL    HW115422   2.922   6.109   2.034
 4841SOL    HW215423   3.052   6.146   1.942
 4842SOL     OW15424   3.410   4.930   2.346
 4842SOL    HW115425   3.352   5.006   2.375
 4842SOL    HW215426   3.355   4.864   2.294
 4843SOL     OW15427   6.143   3.097   0.586
 4843SOL    HW115428   6.147   3.071   0.490
 4843SOL    HW215429   6.049   3.091   0.619
 4844SOL     OW15430   6.473   3.242   5.791
 4844SOL    HW115431   6.539   3.299   5.840
 4844SOL    HW215432   6.495   3.243   5.693
 4845SOL     OW15433   5.722   5.441   5.217
 4845SOL    HW115434   5.676   5.511   5.272
 4845SOL    HW215435   5.658   5.404   5.150
 4846SOL     OW15436   0.334   2.675   3.750
 4846SOL    HW115437   0.386   2.591   3.735
 4846SOL    HW215438   0.287   2.701   3.665
 4847SOL     OW15439   2.725   1.078   6.286
 4847SOL    HW115440   2.650   1.144   6.292
 4847SOL    HW215441   2.722   1.015   6.364
 4848SOL     OW15442   1.636   0.722   4.007
 4848SOL    HW115443   1.542   0.705   4.034
 4848SOL    HW215444   1.638   0.781   3.926
 4849SOL     OW15445   1.278   6.660   6.767
 4849SOL    HW115446   1.213   6.697   6.701
 4849SOL    HW215447   1.235   6.587   6.820
 4850SOL     OW15448   4.125   1.713   2.445
 4850SOL    HW115449   4.179   1.751   2.369
 4850SOL    HW215450   4.052   1.777   2.468
 4851SOL     OW15451   4.551   6.034   5.732
 4851SOL    HW115452   4.536   6.086   5.647
 4851SOL    HW215453   4.548   5.937   5.712
 4852SOL     OW15454   1.366   6.257   5.132
 4852SOL    HW115455   1.393   6.290   5.041
 4852SOL    HW215456   1.275   6.215   5.126
 4853SOL     OW15457   3.162   1.224   3.427
 4853SOL    HW115458   3.253   1.196   3.460
 4853SOL    HW215459   3.143   1.317   3.457
 4854SOL     OW15460   4.688   0.135   1.502
 4854SOL    HW115461   4.755   0.117   1.575
 4854SOL    HW215462   4.596   0.120   1.538
 4855SOL     OW15463   6.050   2.610   2.662
 4855SOL    HW115464   6.138   2.605   2.615
 4855SOL    HW215465   6.058   2.670   2.742
 4856SOL     OW15466   1.785   3.774   2.691
 4856SOL    HW115467   1.823   3.840   2.756
 4856SOL    HW215468   1.840   3.691   2.692
 4857SOL     OW15469   2.369   2.214   5.118
 4857SOL    HW115470   2.319   2.291   5.076
 4857SOL    HW215471   2.411   2.245   5.203
 4858SOL     OW15472   0.388   0.558   4.377
 4858SOL    HW115473   0.481   0.524   4.360
 4858SOL    HW215474   0.349   0.592   4.291
 4859SOL     OW15475   6.974   0.708   4.828
 4859SOL    HW115476   0.022   0.700   4.905
 4859SOL    HW215477   0.010   0.729   4.745
 4860SOL     OW15478   4.461   4.708   1.649
 4860SOL    HW115479   4.448   4.641   1.722
 4860SOL    HW215480   4.422   4.796   1.677
 4861SOL     OW15481   5.080   4.979   6.929
 4861SOL    HW115482   4.989   4.987   6.889
 4861SOL    HW215483   5.129   4.903   6.885
 4862SOL     OW15484   2.667   4.685   4.560
 4862SOL    HW115485   2.678   4.692   4.659
 4862SOL    HW215486   2.585   4.631   4.539
 4863SOL     OW15487   6.044   3.718   1.523
 4863SOL    HW115488   6.038   3.770   1.438
 4863SOL    HW215489   5.952   3.694   1.554
 4864SOL     OW15490   4.024   1.467   2.639
 4864SOL    HW115491   4.055   1.553   2.678
 4864SOL    HW215492   3.944   1.435   2.689
 4865SOL     OW15493   2.096   0.147   4.498
 4865SOL    HW115494   2.032   0.222   4.513
 4865SOL    HW215495   2.158   0.140   4.576
 4866SOL     OW15496   6.219   2.606   1.575
 4866SOL    HW115497   6.252   2.699   1.560
 4866SOL    HW215498   6.293   2.541   1.557
 4867SOL     OW15499   3.494   5.447   2.186
 4867SOL    HW115500   3.457   5.504   2.113
 4867SOL    HW215501   3.557   5.380   2.146
 4868SOL     OW15502   6.539   5.125   3.037
 4868SOL    HW115503   6.606   5.061   3.000
 4868SOL    HW215504   6.584   5.190   3.098
 4869SOL     OW15505   1.327   1.168   1.290
 4869SOL    HW115506   1.287   1.103   1.354
 4869SOL    HW215507   1.390   1.121   1.229
 4870SOL     OW15508   0.246   5.945   1.868
 4870SOL    HW115509   0.333   5.940   1.918
 4870SOL    HW215510   0.206   5.854   1.863
 4871SOL     OW15511   1.505   1.297   3.502
 4871SOL    HW115512   1.586   1.295   3.443
 4871SOL    HW215513   1.511   1.375   3.564
 4872SOL     OW15514   6.274   6.349   3.521
 4872SOL    HW115515   6.273   6.311   3.428
 4872SOL    HW215516   6.202   6.419   3.529
 4873SOL     OW15517   6.653   5.668   3.132
 4873SOL    HW115518   6.585   5.737   3.106
 4873SOL    HW215519   6.717   5.707   3.199
 4874SOL     OW15520   6.359   3.724   2.904
 4874SOL    HW115521   6.316   3.677   2.981
 4874SOL    HW215522   6.323   3.817   2.897
 4875SOL     OW15523   6.111   2.463   1.322
 4875SOL    HW115524   6.140   2.534   1.385
 4875SOL    HW215525   6.150   2.481   1.231
 4876SOL     OW15526   5.670   1.900   3.841
 4876SOL    HW115527   5.684   1.812   3.796
 4876SOL    HW215528   5.600   1.891   3.912
 4877SOL     OW15529   1.467   1.988   6.742
 4877SOL    HW115530   1.549   1.963   6.691
 4877SOL    HW215531   1.487   1.987   6.840
 4878SOL     OW15532   6.313   1.704   2.602
 4878SOL    HW115533   6.273   1.717   2.693
 4878SOL    HW215534   6.289   1.614   2.567
 4879SOL     OW15535   4.171   6.709   2.615
 4879SOL    HW115536   4.176   6.654   2.531
 4879SOL    HW215537   4.259   6.708   2.661
 4880SOL     OW15538   5.304   3.112   0.476
 4880SOL    HW115539   5.283   3.026   0.522
 4880SOL    HW215540   5.324   3.182   0.544
 4881SOL     OW15541   1.911   0.816   0.098
 4881SOL    HW115542   1.852   0.814   0.017
 4881SOL    HW215543   2.003   0.846   0.072
 4882SOL     OW15544   5.093   1.336   4.868
 4882SOL    HW115545   5.177   1.391   4.866
 4882SOL    HW215546   5.084   1.291   4.957
 4883SOL     OW15547   4.936   5.081   1.793
 4883SOL    HW115548   5.023   5.053   1.834
 4883SOL    HW215549   4.907   5.168   1.833
 4884SOL     OW15550   2.343   6.495   1.357
 4884SOL    HW115551   2.419   6.550   1.323
 4884SOL    HW215552   2.311   6.533   1.444
 4885SOL     OW15553   2.550   5.213   1.918
 4885SOL    HW115554   2.493   5.271   1.861
 4885SOL    HW215555   2.517   5.217   2.013
 4886SOL     OW15556   0.798   5.290   1.254
 4886SOL    HW115557   0.800   5.385   1.283
 4886SOL    HW215558   0.741   5.281   1.172
 4887SOL     OW15559   0.863   0.223   2.646
 4887SOL    HW115560   0.925   0.299   2.667
 4887SOL    HW215561   0.885   0.144   2.703
 4888SOL     OW15562   2.628   6.969   3.685
 4888SOL    HW115563   2.694   6.899   3.659
 4888SOL    HW215564   2.658   0.042   3.652
 4889SOL     OW15565   0.034   1.427   5.688
 4889SOL    HW115566   0.133   1.411   5.694
 4889SOL    HW215567   7.001   1.355   5.737
 4890SOL     OW15568   0.577   1.075   6.992
 4890SOL    HW115569   0.652   1.010   6.982
 4890SOL    HW215570   0.612   1.162   0.009
 4891SOL     OW15571   1.726   4.288   6.872
 4891SOL    HW115572   1.753   4.249   6.960
 4891SOL    HW215573   1.768   4.378   6.861
 4892SOL     OW15574   3.354   5.842   1.809
 4892SOL    HW115575   3.333   5.930   1.853
 4892SOL    HW215576   3.405   5.784   1.873
 4893SOL     OW15577   7.001   3.171   1.598
 4893SOL    HW115578   6.941   3.126   1.664
 4893SOL    HW215579   0.034   3.245   1.643
 4894SOL     OW15580   2.251   1.427   3.485
 4894SOL    HW115581   2.189   1.504   3.499
 4894SOL    HW215582   2.270   1.383   3.573
 4895SOL     OW15583   1.048   4.623   3.880
 4895SOL    HW115584   1.091   4.587   3.797
 4895SOL    HW215585   1.118   4.663   3.939
 4896SOL     OW15586   1.821   4.860   2.339
 4896SOL    HW115587   1.787   4.930   2.276
 4896SOL    HW215588   1.753   4.787   2.347
 4897SOL     OW15589   1.974   3.748   5.587
 4897SOL    HW115590   1.994   3.749   5.685
 4897SOL    HW215591   2.058   3.729   5.536
 4898SOL     OW15592   4.182   0.762   4.203
 4898SOL    HW115593   4.170   0.742   4.300
 4898SOL    HW215594   4.110   0.825   4.172
 4899SOL     OW15595   5.612   5.707   3.090
 4899SOL    HW115596   5.559   5.791   3.080
 4899SOL    HW215597   5.704   5.729   3.122
 4900SOL     OW15598   2.826   6.653   4.728
 4900SOL    HW115599   2.747   6.696   4.684
 4900SOL    HW215600   2.910   6.688   4.686
 4901SOL     OW15601   3.574   0.836   5.406
 4901SOL    HW115602   3.548   0.824   5.311
 4901SOL    HW215603   3.671   0.815   5.417
 4902SOL     OW15604   2.213   1.635   4.427
 4902SOL    HW115605   2.188   1.732   4.429
 4902SOL    HW215606   2.268   1.613   4.507
 4903SOL     OW15607   3.751   5.795   6.797
 4903SOL    HW115608   3.793   5.712   6.835
 4903SOL    HW215609   3.807   5.874   6.821
 4904SOL     OW15610   2.153   0.014   4.114
 4904SOL    HW115611   2.183   6.938   4.140
 4904SOL    HW215612   2.185   0.081   4.181
 4905SOL     OW15613   4.083   6.751   2.878
 4905SOL    HW115614   4.133   6.736   2.793
 4905SOL    HW215615   4.066   6.663   2.922
 4906SOL     OW15616   5.089   2.405   6.369
 4906SOL    HW115617   5.027   2.470   6.325
 4906SOL    HW215618   5.180   2.413   6.329
 4907SOL     OW15619   4.536   5.392   2.114
 4907SOL    HW115620   4.438   5.408   2.124
 4907SOL    HW215621   4.563   5.311   2.167
 4908SOL     OW15622   5.476   5.284   7.002
 4908SOL    HW115623   5.448   5.281   0.083
 4908SOL    HW215624   5.575   5.279   6.996
 4909SOL     OW15625   6.711   6.993   4.246
 4909SOL    HW115626   6.726   7.002   4.147
 4909SOL    HW215627   6.761   0.048   4.295
 4910SOL     OW15628   5.761   0.568   4.876
 4910SOL    HW115629   5.720   0.598   4.962
 4910SOL    HW215630   5.746   0.638   4.805
 4911SOL     OW15631   1.723   3.800   4.145
 4911SOL    HW115632   1.646   3.835   4.199
 4911SOL    HW215633   1.717   3.700   4.140
 4912SOL     OW15634   5.089   1.254   6.708
 4912SOL    HW115635   4.993   1.266   6.684
 4912SOL    HW215636   5.140   1.223   6.627
 4913SOL     OW15637   3.501   2.644   5.537
 4913SOL    HW115638   3.418   2.655   5.482
 4913SOL    HW215639   3.581   2.664   5.480
 4914SOL     OW15640   3.886   0.592   4.800
 4914SOL    HW115641   3.933   0.637   4.724
 4914SOL    HW215642   3.951   0.575   4.874
 4915SOL     OW15643   3.985   6.487   5.821
 4915SOL    HW115644   3.936   6.403   5.846
 4915SOL    HW215645   4.061   6.464   5.760
 4916SOL     OW15646   1.083   0.126   3.856
 4916SOL    HW115647   1.065   0.217   3.894
 4916SOL    HW215648   1.072   0.057   3.927
 4917SOL     OW15649   2.562   5.268   1.507
 4917SOL    HW115650   2.609   5.181   1.491
 4917SOL    HW215651   2.557   5.319   1.421
 4918SOL     OW15652   5.002   5.449   2.496
 4918SOL    HW115653   4.959   5.363   2.470
 4918SOL    HW215654   5.100   5.445   2.475
 4919SOL     OW15655   2.598   2.726   0.495
 4919SOL    HW115656   2.647   2.800   0.448
 4919SOL    HW215657   2.661   2.652   0.516
 4920SOL     OW15658   5.899   0.935   4.191
 4920SOL    HW115659   5.982   0.958   4.141
 4920SOL    HW215660   5.923   0.906   4.284
 4921SOL     OW15661   1.232   5.157   0.608
 4921SOL    HW115662   1.226   5.157   0.508
 4921SOL    HW215663   1.139   5.159   0.647
 4922SOL     OW15664   2.650   2.303   5.127
 4922SOL    HW115665   2.584   2.312   5.202
 4922SOL    HW215666   2.658   2.206   5.102
 4923SOL     OW15667   4.001   1.722   2.792
 4923SOL    HW115668   3.942   1.734   2.712
 4923SOL    HW215669   3.945   1.700   2.872
 4924SOL     OW15670   3.038   1.498   5.137
 4924SOL    HW115671   3.037   1.562   5.060
 4924SOL    HW215672   2.978   1.421   5.116
 4925SOL     OW15673   6.814   6.986   2.458
 4925SOL    HW115674   6.877   0.048   2.461
 4925SOL    HW215675   6.757   6.993   2.375
 4926SOL     OW15676   5.243   0.955   0.675
 4926SOL    HW115677   5.268   0.863   0.703
 4926SOL    HW215678   5.198   1.002   0.751
 4927SOL     OW15679   3.576   3.858   4.430
 4927SOL    HW115680   3.673   3.837   4.428
 4927SOL    HW215681   3.553   3.902   4.518
 4928SOL     OW15682   1.792   6.744   6.653
 4928SOL    HW115683   1.705   6.703   6.680
 4928SOL    HW215684   1.862   6.720   6.721
 4929SOL     OW15685   0.161   5.759   4.412
 4929SOL    HW115686   0.155   5.676   4.466
 4929SOL    HW215687   0.081   5.767   4.354
 4930SOL     OW15688   5.070   1.067   2.997
 4930SOL    HW115689   5.152   1.017   2.968
 4930SOL    HW215690   4.989   1.013   2.975
 4931SOL     OW15691   0.373   6.411   0.778
 4931SOL    HW115692   0.276   6.389   0.781
 4931SOL    HW215693   0.396   6.472   0.854
 4932SOL     OW15694   2.810   3.186   1.777
 4932SOL    HW115695   2.811   3.096   1.734
 4932SOL    HW215696   2.887   3.241   1.743
 4933SOL     OW15697   2.498   0.337   3.178
 4933SOL    HW115698   2.479   0.287   3.262
 4933SOL    HW215699   2.556   0.416   3.198
 4934SOL     OW15700   2.864   6.043   2.466
 4934SOL    HW115701   2.766   6.047   2.449
 4934SOL    HW215702   2.906   5.978   2.403
 4935SOL     OW15703   1.816   1.575   6.439
 4935SOL    HW115704   1.723   1.568   6.403
 4935SOL    HW215705   1.823   1.523   6.525
 4936SOL     OW15706   2.492   4.564   1.950
 4936SOL    HW115707   2.406   4.613   1.961
 4936SOL    HW215708   2.540   4.560   2.037
 4937SOL     OW15709   6.453   2.939   5.781
 4937SOL    HW115710   6.537   2.924   5.729
 4937SOL    HW215711   6.408   3.022   5.748
 4938SOL     OW15712   2.348   5.320   5.766
 4938SOL    HW115713   2.332   5.387   5.694
 4938SOL    HW215714   2.424   5.350   5.824
 4939SOL     OW15715   6.500   2.262   4.469
 4939SOL    HW115716   6.595   2.263   4.501
 4939SOL    HW215717   6.488   2.186   4.405
 4940SOL     OW15718   6.911   0.974   4.941
 4940SOL    HW115719   6.880   0.985   5.036
 4940SOL    HW215720   6.932   0.878   4.924
 4941SOL     OW15721   5.315   2.602   5.543
 4941SOL    HW115722   5.372   2.597   5.461
 4941SOL    HW215723   5.323   2.517   5.595
 4942SOL     OW15724   5.273   2.811   6.262
 4942SOL    HW115725   5.335   2.794   6.185
 4942SOL    HW215726   5.200   2.744   6.262
 4943SOL     OW15727   4.587   3.783   6.695
 4943SOL    HW115728   4.631   3.763   6.608
 4943SOL    HW215729   4.543   3.873   6.691
 4944SOL     OW15730   2.082   4.517   1.859
 4944SOL    HW115731   2.068   4.509   1.958
 4944SOL    HW215732   2.039   4.601   1.826
 4945SOL     OW15733   0.904   0.193   4.182
 4945SOL    HW115734   0.908   0.291   4.200
 4945SOL    HW215735   0.997   0.158   4.171
 4946SOL     OW15736   1.389   4.664   0.000
 4946SOL    HW115737   1.318   4.718   0.046
 4946SOL    HW215738   1.389   4.571   0.037
 4947SOL     OW15739   2.312   0.963   0.962
 4947SOL    HW115740   2.303   0.944   1.060
 4947SOL    HW215741   2.256   1.043   0.939
 4948SOL     OW15742   1.076   2.387   2.610
 4948SOL    HW115743   1.105   2.387   2.514
 4948SOL    HW215744   1.047   2.295   2.637
 4949SOL     OW15745   5.062   6.442   6.089
 4949SOL    HW115746   5.116   6.370   6.134
 4949SOL    HW215747   5.114   6.479   6.013
 4950SOL     OW15748   2.334   5.670   4.270
 4950SOL    HW115749   2.343   5.713   4.360
 4950SOL    HW215750   2.409   5.700   4.210
 4951SOL     OW15751   5.906   1.588   4.935
 4951SOL    HW115752   5.973   1.608   5.007
 4951SOL    HW215753   5.954   1.548   4.856
 4952SOL     OW15754   0.126   0.692   6.198
 4952SOL    HW115755   0.197   0.651   6.255
 4952SOL    HW215756   0.037   0.654   6.222
 4953SOL     OW15757   2.590   5.870   2.613
 4953SOL    HW115758   2.556   5.937   2.678
 4953SOL    HW215759   2.629   5.792   2.662
 4954SOL     OW15760   4.043   3.227   7.007
 4954SOL    HW115761   4.037   3.272   6.918
 4954SOL    HW215762   4.133   3.184   0.002
 4955SOL     OW15763   2.820   6.186   6.692
 4955SOL    HW115764   2.821   6.179   6.791
 4955SOL    HW215765   2.875   6.265   6.664
 4956SOL     OW15766   2.063   6.663   5.190
 4956SOL    HW115767   2.145   6.662   5.133
 4956SOL    HW215768   2.088   6.646   5.285
 4957SOL     OW15769   6.761   2.128   1.841
 4957SOL    HW115770   6.682   2.182   1.812
 4957SOL    HW215771   6.765   2.126   1.941
 4958SOL     OW15772   6.931   4.919   5.733
 4958SOL    HW115773   7.004   4.969   5.686
 4958SOL    HW215774   6.887   4.856   5.669
 4959SOL     OW15775   6.319   1.209   0.201
 4959SOL    HW115776   6.398   1.149   0.215
 4959SOL    HW215777   6.350   1.299   0.171
 4960SOL     OW15778   3.407   4.994   3.793
 4960SOL    HW115779   3.472   4.933   3.747
 4960SOL    HW215780   3.456   5.047   3.863
 4961SOL     OW15781   4.638   1.245   6.039
 4961SOL    HW115782   4.693   1.204   6.111
 4961SOL    HW215783   4.662   1.204   5.951
 4962SOL     OW15784   6.706   1.986   0.372
 4962SOL    HW115785   6.771   1.955   0.303
 4962SOL    HW215786   6.755   2.018   0.453
 4963SOL     OW15787   6.019   5.802   6.808
 4963SOL    HW115788   5.986   5.772   6.718
 4963SOL    HW215789   5.945   5.850   6.856
 4964SOL     OW15790   2.818   6.913   3.964
 4964SOL    HW115791   2.873   6.961   3.895
 4964SOL    HW215792   2.724   6.947   3.961
 4965SOL     OW15793   6.832   0.672   2.990
 4965SOL    HW115794   6.843   0.770   2.979
 4965SOL    HW215795   6.840   0.627   2.901
 4966SOL     OW15796   2.088   6.800   4.858
 4966SOL    HW115797   2.051   6.722   4.908
 4966SOL    HW215798   2.131   6.863   4.923
 4967SOL     OW15799   4.015   5.160   6.291
 4967SOL    HW115800   3.966   5.109   6.220
 4967SOL    HW215801   4.111   5.132   6.291
 4968SOL     OW15802   6.546   2.127   3.820
 4968SOL    HW115803   6.528   2.032   3.843
 4968SOL    HW215804   6.563   2.136   3.722
 4969SOL     OW15805   2.442   0.220   2.657
 4969SOL    HW115806   2.474   0.126   2.646
 4969SOL    HW215807   2.401   0.231   2.748
 4970SOL     OW15808   1.759   2.412   3.260
 4970SOL    HW115809   1.792   2.362   3.340
 4970SOL    HW215810   1.682   2.363   3.219
 4971SOL     OW15811   6.581   5.891   4.181
 4971SOL    HW115812   6.555   5.805   4.139
 4971SOL    HW215813   6.612   5.955   4.111
 4972SOL     OW15814   2.078   3.040   0.332
 4972SOL    HW115815   2.057   3.122   0.384
 4972SOL    HW215816   2.029   2.962   0.371
 4973SOL     OW15817   1.842   0.531   2.649
 4973SOL    HW115818   1.926   0.573   2.615
 4973SOL    HW215819   1.763   0.580   2.612
 4974SOL     OW15820   5.759   4.782   0.954
 4974SOL    HW115821   5.768   4.696   1.004
 4974SOL    HW215822   5.828   4.786   0.882
 4975SOL     OW15823   5.946   4.585   5.830
 4975SOL    HW115824   5.948   4.560   5.733
 4975SOL    HW215825   6.001   4.520   5.882
 4976SOL     OW15826   2.352   0.352   4.016
 4976SOL    HW115827   2.438   0.321   4.058
 4976SOL    HW215828   2.305   0.273   3.976
 4977SOL     OW15829   3.874   4.473   0.493
 4977SOL    HW115830   3.872   4.530   0.574
 4977SOL    HW215831   3.926   4.518   0.421
 4978SOL     OW15832   0.071   4.242   4.785
 4978SOL    HW115833   0.164   4.264   4.755
 4978SOL    HW215834   0.061   4.143   4.792
 4979SOL     OW15835   0.422   0.137   6.110
 4979SOL    HW115836   0.337   0.084   6.106
 4979SOL    HW215837   0.400   0.232   6.132
 4980SOL     OW15838   5.059   6.070   3.302
 4980SOL    HW115839   5.041   6.033   3.211
 4980SOL    HW215840   5.154   6.054   3.327
 4981SOL     OW15841   5.113   6.267   6.641
 4981SOL    HW115842   5.038   6.333   6.638
 4981SOL    HW215843   5.079   6.177   6.615
 4982SOL     OW15844   2.439   1.675   6.136
 4982SOL    HW115845   2.355   1.701   6.184
 4982SOL    HW215846   2.514   1.734   6.165
 4983SOL     OW15847   5.658   2.382   4.720
 4983SOL    HW115848   5.742   2.361   4.671
 4983SOL    HW215849   5.632   2.477   4.703
 4984SOL     OW15850   5.635   4.268   3.720
 4984SOL    HW115851   5.730   4.238   3.723
 4984SOL    HW215852   5.629   4.363   3.751
 4985SOL     OW15853   6.198   6.225   3.279
 4985SOL    HW115854   6.281   6.241   3.227
 4985SOL    HW215855   6.191   6.129   3.303
 4986SOL     OW15856   6.051   4.159   1.815
 4986SOL    HW115857   5.955   4.144   1.792
 4986SOL    HW215858   6.059   4.240   1.873
 4987SOL     OW15859   1.335   0.938   1.047
 4987SOL    HW115860   1.358   0.908   0.955
 4987SOL    HW215861   1.252   0.994   1.045
 4988SOL     OW15862   5.472   0.782   3.364
 4988SOL    HW115863   5.430   0.710   3.418
 4988SOL    HW215864   5.566   0.758   3.342
 4989SOL     OW15865   5.457   0.082   1.694
 4989SOL    HW115866   5.420   7.005   1.700
 4989SOL    HW215867   5.520   0.087   1.616
 4990SOL     OW15868   1.738   1.643   4.937
 4990SOL    HW115869   1.808   1.624   4.868
 4990SOL    HW215870   1.735   1.742   4.956
 4991SOL     OW15871   6.727   4.457   4.788
 4991SOL    HW115872   6.806   4.429   4.734
 4991SOL    HW215873   6.669   4.377   4.807
 4992SOL     OW15874   4.935   0.826   4.535
 4992SOL    HW115875   4.896   0.735   4.517
 4992SOL    HW215876   4.867   0.896   4.513
 4993SOL     OW15877   3.409   5.201   4.568
 4993SOL    HW115878   3.327   5.235   4.522
 4993SOL    HW215879   3.417   5.103   4.554
 4994SOL     OW15880   2.373   0.138   2.938
 4994SOL    HW115881   2.432   0.101   3.010
 4994SOL    HW215882   2.299   0.074   2.921
 4995SOL     OW15883   0.058   2.626   5.851
 4995SOL    HW115884   0.081   2.538   5.893
 4995SOL    HW215885   6.988   2.660   5.891
 4996SOL     OW15886   1.600   1.134   2.389
 4996SOL    HW115887   1.516   1.184   2.370
 4996SOL    HW215888   1.617   1.132   2.487
 4997SOL     OW15889   5.557   2.159   3.395
 4997SOL    HW115890   5.493   2.089   3.364
 4997SOL    HW215891   5.644   2.115   3.419
 4998SOL     OW15892   2.148   4.175   5.219
 4998SOL    HW115893   2.239   4.148   5.187
 4998SOL    HW215894   2.082   4.162   5.145
 4999SOL     OW15895   6.095   4.622   1.028
 4999SOL    HW115896   6.011   4.568   1.029
 4999SOL    HW215897   6.088   4.692   0.957
 5000SOL     OW15898   2.892   6.687   4.111
 5000SOL    HW115899   2.825   6.615   4.095
 5000SOL    HW215900   2.871   6.766   4.053
 5001SOL     OW15901   0.860   4.032   0.451
 5001SOL    HW115902   0.819   3.954   0.404
 5001SOL    HW215903   0.857   4.017   0.550
 5002SOL     OW15904   1.330   3.485   3.777
 5002SOL    HW115905   1.423   3.521   3.778
 5002SOL    HW215906   1.320   3.420   3.702
 5003SOL     OW15907   2.452   6.433   2.891
 5003SOL    HW115908   2.510   6.510   2.919
 5003SOL    HW215909   2.484   6.398   2.803
 5004SOL     OW15910   3.190   4.899   5.840
 5004SOL    HW115911   3.236   4.810   5.838
 5004SOL    HW215912   3.188   4.933   5.934
 5005SOL     OW15913   3.282   2.620   0.291
 5005SOL    HW115914   3.191   2.631   0.251
 5005SOL    HW215915   3.274   2.583   0.384
 5006SOL     OW15916   5.062   6.772   0.187
 5006SOL    HW115917   5.059   6.871   0.194
 5006SOL    HW215918   5.038   6.731   0.275
 5007SOL     OW15919   1.507   0.221   6.993
 5007SOL    HW115920   1.504   0.213   0.077
 5007SOL    HW215921   1.496   0.131   6.952
 5008SOL     OW15922   6.189   0.008   3.273
 5008SOL    HW115923   6.170   6.948   3.335
 5008SOL    HW215924   6.170   6.995   3.179
 5009SOL     OW15925   1.687   6.014   1.021
 5009SOL    HW115926   1.737   5.928   1.027
 5009SOL    HW215927   1.752   6.089   1.008
 5010SOL     OW15928   3.437   3.372   2.882
 5010SOL    HW115929   3.440   3.357   2.783
 5010SOL    HW215930   3.422   3.285   2.929
 5011SOL     OW15931   1.890   3.951   2.937
 5011SOL    HW115932   1.895   4.047   2.966
 5011SOL    HW215933   1.980   3.908   2.948
 5012SOL     OW15934   4.822   4.136   6.637
 5012SOL    HW115935   4.860   4.044   6.633
 5012SOL    HW215936   4.887   4.196   6.685
 5013SOL     OW15937   4.792   1.573   6.789
 5013SOL    HW115938   4.750   1.562   6.879
 5013SOL    HW215939   4.887   1.604   6.800
 5014SOL     OW15940   5.088   4.216   0.787
 5014SOL    HW115941   5.089   4.219   0.687
 5014SOL    HW215942   5.134   4.132   0.818
 5015SOL     OW15943   4.636   2.342   3.814
 5015SOL    HW115944   4.686   2.263   3.850
 5015SOL    HW215945   4.563   2.310   3.754
 5016SOL     OW15946   2.432   2.437   0.695
 5016SOL    HW115947   2.408   2.340   0.687
 5016SOL    HW215948   2.380   2.489   0.627
 5017SOL     OW15949   1.555   1.967   6.995
 5017SOL    HW115950   1.643   2.012   7.010
 5017SOL    HW215951   1.488   2.001   0.046
 5018SOL     OW15952   0.321   4.155   1.888
 5018SOL    HW115953   0.325   4.197   1.978
 5018SOL    HW215954   0.349   4.059   1.894
 5019SOL     OW15955   1.492   4.720   6.468
 5019SOL    HW115956   1.496   4.712   6.568
 5019SOL    HW215957   1.481   4.630   6.428
 5020SOL     OW15958   4.707   6.675   6.031
 5020SOL    HW115959   4.734   6.707   5.940
 5020SOL    HW215960   4.624   6.620   6.024
 5021SOL     OW15961   1.400   2.021   5.959
 5021SOL    HW115962   1.488   1.974   5.966
 5021SOL    HW215963   1.376   2.032   5.863
 5022SOL     OW15964   1.622   0.849   0.598
 5022SOL    HW115965   1.674   0.764   0.585
 5022SOL    HW215966   1.551   0.855   0.528
 5023SOL     OW15967   6.323   2.926   0.683
 5023SOL    HW115968   6.256   2.864   0.722
 5023SOL    HW215969   6.281   2.981   0.611
 5024SOL     OW15970   5.921   5.981   2.708
 5024SOL    HW115971   5.950   6.053   2.645
 5024SOL    HW215972   5.823   5.990   2.728
 5025SOL     OW15973   3.757   1.842   2.284
 5025SOL    HW115974   3.798   1.909   2.222
 5025SOL    HW215975   3.676   1.882   2.327
 5026SOL     OW15976   6.081   6.018   6.597
 5026SOL    HW115977   6.049   6.041   6.689
 5026SOL    HW215978   6.140   6.091   6.563
 5027SOL     OW15979   1.027   6.669   2.559
 5027SOL    HW115980   1.040   6.607   2.481
 5027SOL    HW215981   0.995   6.758   2.525
 5028SOL     OW15982   0.362   6.702   3.262
 5028SOL    HW115983   0.412   6.629   3.215
 5028SOL    HW215984   0.343   6.674   3.356
 5029SOL     OW15985   0.487   3.114   3.284
 5029SOL    HW115986   0.560   3.081   3.344
 5029SOL    HW215987   0.442   3.193   3.326
 5030SOL     OW15988   6.438   0.749   6.176
 5030SOL    HW115989   6.490   0.797   6.104
 5030SOL    HW215990   6.462   0.787   6.265
 5031SOL     OW15991   6.041   0.497   4.813
 5031SOL    HW115992   6.096   0.569   4.856
 5031SOL    HW215993   5.945   0.509   4.839
 5032SOL     OW15994   1.368   3.126   0.860
 5032SOL    HW115995   1.398   3.110   0.954
 5032SOL    HW215996   1.448   3.140   0.802
 5033SOL     OW15997   2.615   6.070   6.552
 5033SOL    HW115998   2.690   6.100   6.612
 5033SOL    HW215999   2.643   5.988   6.502
 5034SOL     OW16000   6.011   1.166   3.037
 5034SOL    HW116001   5.916   1.175   3.007
 5034SOL    HW216002   6.033   1.069   3.048
 5035SOL     OW16003   6.976   4.182   0.330
 5035SOL    HW116004   6.896   4.232   0.297
 5035SOL    HW216005   6.975   4.089   0.292
 5036SOL     OW16006   0.319   4.907   6.920
 5036SOL    HW116007   0.373   4.936   6.999
 5036SOL    HW216008   0.376   4.905   6.839
 5037SOL     OW16009   5.588   2.462   2.493
 5037SOL    HW116010   5.564   2.418   2.407
 5037SOL    HW216011   5.640   2.545   2.474
 5038SOL     OW16012   2.045   3.776   5.832
 5038SOL    HW116013   2.058   3.873   5.851
 5038SOL    HW216014   2.091   3.722   5.903
 5039SOL     OW16015   3.034   3.672   5.547
 5039SOL    HW116016   3.037   3.750   5.486
 5039SOL    HW216017   3.079   3.594   5.504
 5040SOL     OW16018   1.802   4.587   6.200
 5040SOL    HW116019   1.857   4.536   6.133
 5040SOL    HW216020   1.839   4.679   6.211
 5041SOL     OW16021   1.778   1.855   1.366
 5041SOL    HW116022   1.753   1.761   1.344
 5041SOL    HW216023   1.749   1.915   1.292
 5042SOL     OW16024   5.776   3.043   1.025
 5042SOL    HW116025   5.834   2.971   0.988
 5042SOL    HW216026   5.728   3.010   1.106
 5043SOL     OW16027   2.875   1.180   5.835
 5043SOL    HW116028   2.810   1.123   5.887
 5043SOL    HW216029   2.846   1.184   5.740
 5044SOL     OW16030   6.541   6.359   2.233
 5044SOL    HW116031   6.467   6.313   2.183
 5044SOL    HW216032   6.544   6.324   2.326
 5045SOL     OW16033   5.710   3.135   0.493
 5045SOL    HW116034   5.762   3.202   0.440
 5045SOL    HW216035   5.704   3.166   0.588
 5046SOL     OW16036   3.532   4.207   4.395
 5046SOL    HW116037   3.611   4.154   4.365
 5046SOL    HW216038   3.549   4.243   4.487
 5047SOL     OW16039   0.189   3.142   2.482
 5047SOL    HW116040   0.149   3.216   2.536
 5047SOL    HW216041   0.251   3.089   2.540
 5048SOL     OW16042   0.468   1.091   1.849
 5048SOL    HW116043   0.424   1.107   1.937
 5048SOL    HW216044   0.556   1.138   1.847
 5049SOL     OW16045   6.227   2.124   4.628
 5049SOL    HW116046   6.199   2.046   4.572
 5049SOL    HW216047   6.304   2.097   4.686
 5050SOL     OW16048   0.989   1.021   1.933
 5050SOL    HW116049   1.032   0.937   1.967
 5050SOL    HW216050   1.048   1.099   1.952
 5051SOL     OW16051   4.147   3.350   0.620
 5051SOL    HW116052   4.215   3.420   0.601
 5051SOL    HW216053   4.098   3.373   0.704
 5052SOL     OW16054   2.533   5.622   5.910
 5052SOL    HW116055   2.572   5.637   6.001
 5052SOL    HW216056   2.606   5.617   5.842
 5053SOL     OW16057   2.087   4.031   3.857
 5053SOL    HW116058   2.085   4.102   3.787
 5053SOL    HW216059   1.994   4.010   3.886
 5054SOL     OW16060   3.902   5.540   5.310
 5054SOL    HW116061   3.813   5.573   5.279
 5054SOL    HW216062   3.957   5.516   5.230
 5055SOL     OW16063   1.424   6.860   5.763
 5055SOL    HW116064   1.464   6.883   5.674
 5055SOL    HW216065   1.350   6.925   5.783
 5056SOL     OW16066   6.173   3.834   0.490
 5056SOL    HW116067   6.250   3.830   0.426
 5056SOL    HW216068   6.204   3.811   0.582
 5057SOL     OW16069   0.229   5.389   5.128
 5057SOL    HW116070   0.322   5.357   5.106
 5057SOL    HW216071   0.168   5.367   5.053
 5058SOL     OW16072   2.550   3.265   5.544
 5058SOL    HW116073   2.569   3.175   5.504
 5058SOL    HW216074   2.634   3.319   5.543
 5059SOL     OW16075   5.433   3.224   3.633
 5059SOL    HW116076   5.360   3.288   3.656
 5059SOL    HW216077   5.506   3.232   3.701
 5060SOL     OW16078   0.315   2.510   5.612
 5060SOL    HW116079   0.242   2.494   5.545
 5060SOL    HW216080   0.361   2.597   5.591
 5061SOL     OW16081   3.389   3.211   3.452
 5061SOL    HW116082   3.331   3.130   3.445
 5061SOL    HW216083   3.478   3.185   3.489
 5062SOL     OW16084   5.706   0.901   3.156
 5062SOL    HW116085   5.720   0.942   3.245
 5062SOL    HW216086   5.792   0.861   3.124
 5063SOL     OW16087   1.433   0.008   2.162
 5063SOL    HW116088   1.416   0.056   2.248
 5063SOL    HW216089   1.355   6.966   2.139
 5064SOL     OW16090   4.280   4.218   1.677
 5064SOL    HW116091   4.357   4.223   1.740
 5064SOL    HW216092   4.291   4.286   1.604
 5065SOL     OW16093   1.162   1.912   3.332
 5065SOL    HW116094   1.166   1.908   3.232
 5065SOL    HW216095   1.104   1.989   3.360
 5066SOL     OW16096   3.638   4.506   1.197
 5066SOL    HW116097   3.626   4.425   1.139
 5066SOL    HW216098   3.582   4.581   1.161
 5067SOL     OW16099   2.856   1.231   2.292
 5067SOL    HW116100   2.842   1.153   2.353
 5067SOL    HW216101   2.921   1.207   2.220
 5068SOL     OW16102   3.101   4.831   0.354
 5068SOL    HW116103   3.136   4.809   0.445
 5068SOL    HW216104   3.129   4.924   0.329
 5069SOL     OW16105   1.652   2.289   5.891
 5069SOL    HW116106   1.640   2.246   5.801
 5069SOL    HW216107   1.716   2.234   5.945
 5070SOL     OW16108   5.033   4.947   4.457
 5070SOL    HW116109   4.975   5.028   4.459
 5070SOL    HW216110   4.981   4.868   4.491
 5071SOL     OW16111   3.922   1.891   3.732
 5071SOL    HW116112   3.925   1.983   3.771
 5071SOL    HW216113   3.843   1.883   3.672
 5072SOL     OW16114   1.211   1.013   1.495
 5072SOL    HW116115   1.116   0.988   1.514
 5072SOL    HW216116   1.268   0.931   1.503
 5073SOL     OW16117   1.288   4.437   0.766
 5073SOL    HW116118   1.325   4.424   0.674
 5073SOL    HW216119   1.274   4.347   0.809
 5074SOL     OW16120   3.112   2.114   1.949
 5074SOL    HW116121   3.026   2.165   1.947
 5074SOL    HW216122   3.121   2.069   2.038
 5075SOL     OW16123   1.489   2.227   6.455
 5075SOL    HW116124   1.561   2.257   6.518
 5075SOL    HW216125   1.521   2.147   6.404
 5076SOL     OW16126   5.579   0.105   0.958
 5076SOL    HW116127   5.640   0.028   0.937
 5076SOL    HW216128   5.562   0.108   1.057
 5077SOL     OW16129   1.674   4.174   5.735
 5077SOL    HW116130   1.731   4.095   5.710
 5077SOL    HW216131   1.721   4.227   5.806
 5078SOL     OW16132   0.401   0.840   4.083
 5078SOL    HW116133   0.495   0.806   4.088
 5078SOL    HW216134   0.340   0.767   4.052
 5079SOL     OW16135   2.409   2.705   4.928
 5079SOL    HW116136   2.412   2.803   4.944
 5079SOL    HW216137   2.476   2.659   4.987
 5080SOL     OW16138   6.202   6.469   5.795
 5080SOL    HW116139   6.217   6.392   5.734
 5080SOL    HW216140   6.290   6.506   5.825
 5081SOL     OW16141   2.447   3.909   5.920
 5081SOL    HW116142   2.388   3.864   5.987
 5081SOL    HW216143   2.396   3.980   5.872
 5082SOL     OW16144   4.907   6.327   1.088
 5082SOL    HW116145   4.949   6.244   1.053
 5082SOL    HW216146   4.978   6.390   1.119
 5083SOL     OW16147   2.751   0.688   2.809
 5083SOL    HW116148   2.736   0.787   2.817
 5083SOL    HW216149   2.665   0.640   2.829
 5084SOL     OW16150   0.891   4.893   3.706
 5084SOL    HW116151   0.880   4.795   3.721
 5084SOL    HW216152   0.988   4.916   3.705
 5085SOL     OW16153   6.546   2.602   5.420
 5085SOL    HW116154   6.630   2.586   5.368
 5085SOL    HW216155   6.547   2.695   5.456
 5086SOL     OW16156   1.840   5.362   3.111
 5086SOL    HW116157   1.854   5.288   3.176
 5086SOL    HW216158   1.793   5.327   3.030
 5087SOL     OW16159   1.142   5.267   2.105
 5087SOL    HW116160   1.050   5.250   2.142
 5087SOL    HW216161   1.180   5.349   2.146
 5088SOL     OW16162   6.161   6.815   4.020
 5088SOL    HW116163   6.153   6.760   3.937
 5088SOL    HW216164   6.175   6.754   4.099
 5089SOL     OW16165   6.324   4.428   3.534
 5089SOL    HW116166   6.397   4.486   3.568
 5089SOL    HW216167   6.345   4.398   3.441
 5090SOL     OW16168   1.894   3.271   2.453
 5090SOL    HW116169   1.854   3.238   2.367
 5090SOL    HW216170   1.993   3.281   2.442
 5091SOL     OW16171   0.008   1.399   1.555
 5091SOL    HW116172   6.982   1.476   1.602
 5091SOL    HW216173   7.008   1.315   1.607
 5092SOL     OW16174   3.258   3.416   3.349
 5092SOL    HW116175   3.246   3.489   3.417
 5092SOL    HW216176   3.322   3.348   3.384
 5093SOL     OW16177   3.077   1.011   0.494
 5093SOL    HW116178   3.089   1.110   0.486
 5093SOL    HW216179   3.151   0.964   0.445
 5094SOL     OW16180   2.492   5.345   6.426
 5094SOL    HW116181   2.557   5.388   6.363
 5094SOL    HW216182   2.419   5.302   6.373
 5095SOL     OW16183   6.771   2.478   2.666
 5095SOL    HW116184   6.808   2.428   2.587
 5095SOL    HW216185   6.780   2.421   2.748
 5096SOL     OW16186   4.334   4.774   6.464
 5096SOL    HW116187   4.284   4.812   6.387
 5096SOL    HW216188   4.426   4.814   6.467
 5097SOL     OW16189   0.902   0.188   6.554
 5097SOL    HW116190   0.877   0.166   6.648
 5097SOL    HW216191   0.966   0.120   6.519
 5098SOL     OW16192   2.880   0.686   2.216
 5098SOL    HW116193   2.926   0.623   2.153
 5098SOL    HW216194   2.913   0.671   2.309
 5099SOL     OW16195   0.608   0.163   1.027
 5099SOL    HW116196   0.701   0.135   1.005
 5099SOL    HW216197   0.550   0.082   1.034
 5100SOL     OW16198   3.018   5.836   4.329
 5100SOL    HW116199   2.956   5.868   4.401
 5100SOL    HW216200   3.097   5.897   4.323
 5101SOL     OW16201   4.049   0.037   6.445
 5101SOL    HW116202   4.066   0.081   6.534
 5101SOL    HW216203   3.960   7.007   6.448
 5102SOL     OW16204   5.742   6.250   4.075
 5102SOL    HW116205   5.670   6.317   4.055
 5102SOL    HW216206   5.825   6.298   4.103
 5103SOL     OW16207   0.078   1.121   4.311
 5103SOL    HW116208   0.055   1.219   4.315
 5103SOL    HW216209   0.109   1.090   4.401
 5104SOL     OW16210   1.809   5.753   2.099
 5104SOL    HW116211   1.729   5.808   2.123
 5104SOL    HW216212   1.880   5.765   2.168
 5105SOL     OW16213   2.805   2.378   0.040
 5105SOL    HW116214   2.733   2.317   0.011
 5105SOL    HW216215   2.769   2.471   0.047
 5106SOL     OW16216   4.332   1.959   0.519
 5106SOL    HW116217   4.413   1.938   0.464
 5106SOL    HW216218   4.257   1.986   0.458
 5107SOL     OW16219   4.184   2.239   1.454
 5107SOL    HW116220   4.136   2.216   1.369
 5107SOL    HW216221   4.270   2.285   1.432
 5108SOL     OW16222   3.941   4.000   5.050
 5108SOL    HW116223   3.940   3.964   4.957
 5108SOL    HW216224   3.872   4.071   5.059
 5109SOL     OW16225   0.877   2.145   6.720
 5109SOL    HW116226   0.847   2.051   6.736
 5109SOL    HW216227   0.797   2.206   6.720
 5110SOL     OW16228   0.767   0.080   6.263
 5110SOL    HW116229   0.725   0.024   6.192
 5110SOL    HW216230   0.757   0.177   6.239
 5111SOL     OW16231   1.079   0.505   4.748
 5111SOL    HW116232   1.139   0.521   4.671
 5111SOL    HW216233   1.127   0.453   4.819
 5112SOL     OW16234   1.541   0.109   3.165
 5112SOL    HW116235   1.620   0.162   3.134
 5112SOL    HW216236   1.572   0.024   3.207
 5113SOL     OW16237   1.886   6.184   0.991
 5113SOL    HW116238   1.874   6.262   1.052
 5113SOL    HW216239   1.984   6.170   0.974
 5114SOL     OW16240   4.102   0.149   6.679
 5114SOL    HW116241   4.142   0.233   6.642
 5114SOL    HW216242   4.045   0.172   6.758
 5115SOL     OW16243   1.378   5.206   3.547
 5115SOL    HW116244   1.364   5.260   3.630
 5115SOL    HW216245   1.467   5.229   3.508
 5116SOL     OW16246   0.886   6.433   6.962
 5116SOL    HW116247   0.836   6.440   0.033
 5116SOL    HW216248   0.833   6.378   6.898
 5117SOL     OW16249   1.741   4.444   4.574
 5117SOL    HW116250   1.689   4.359   4.569
 5117SOL    HW216251   1.821   4.431   4.631
 5118SOL     OW16252   5.335   0.723   0.071
 5118SOL    HW116253   5.288   0.656   0.129
 5118SOL    HW216254   5.270   0.758   0.003
 5119SOL     OW16255   5.618   0.473   2.560
 5119SOL    HW116256   5.583   0.526   2.637
 5119SOL    HW216257   5.544   0.458   2.494
 5120SOL     OW16258   4.010   0.194   4.116
 5120SOL    HW116259   3.917   0.230   4.109
 5120SOL    HW216260   4.073   0.253   4.065
 5121SOL     OW16261   3.056   3.048   6.891
 5121SOL    HW116262   3.011   3.103   6.821
 5121SOL    HW216263   3.094   2.966   6.849
 5122SOL     OW16264   3.363   6.334   3.717
 5122SOL    HW116265   3.399   6.419   3.677
 5122SOL    HW216266   3.439   6.277   3.747
 5123SOL     OW16267   4.030   2.069   4.400
 5123SOL    HW116268   3.933   2.086   4.379
 5123SOL    HW216269   4.070   2.010   4.331
 5124SOL     OW16270   2.200   5.584   4.662
 5124SOL    HW116271   2.222   5.652   4.732
 5124SOL    HW216272   2.284   5.552   4.619
 5125SOL     OW16273   6.102   3.748   3.954
 5125SOL    HW116274   6.098   3.825   4.018
 5125SOL    HW216275   6.085   3.663   4.003
 5126SOL     OW16276   6.330   5.525   5.586
 5126SOL    HW116277   6.290   5.507   5.496
 5126SOL    HW216278   6.265   5.499   5.657
 5127SOL     OW16279   0.847   3.775   0.319
 5127SOL    HW116280   0.895   3.693   0.288
 5127SOL    HW216281   0.748   3.760   0.317
 5128SOL     OW16282   6.901   0.610   6.326
 5128SOL    HW116283   6.887   0.697   6.373
 5128SOL    HW216284   6.832   0.600   6.253
 5129SOL     OW16285   6.381   0.086   2.613
 5129SOL    HW116286   6.346   0.175   2.641
 5129SOL    HW216287   6.430   0.095   2.526
 5130SOL     OW16288   0.039   5.431   4.017
 5130SOL    HW116289   0.066   5.518   3.976
 5130SOL    HW216290   0.121   5.377   4.037
 5131SOL     OW16291   2.320   4.742   4.232
 5131SOL    HW116292   2.399   4.683   4.252
 5131SOL    HW216293   2.353   4.832   4.202
 5132SOL     OW16294   3.652   2.694   0.023
 5132SOL    HW116295   3.613   2.776   6.997
 5132SOL    HW216296   3.745   2.680   7.006
 5133SOL     OW16297   2.200   5.536   0.044
 5133SOL    HW116298   2.142   5.583   0.111
 5133SOL    HW216299   2.169   5.442   0.033
 5134SOL     OW16300   0.661   3.462   2.956
 5134SOL    HW116301   0.710   3.404   3.021
 5134SOL    HW216302   0.674   3.427   2.863
 5135SOL     OW16303   5.628   3.133   4.709
 5135SOL    HW116304   5.716   3.179   4.697
 5135SOL    HW216305   5.643   3.035   4.715
 5136SOL     OW16306   4.501   0.831   5.991
 5136SOL    HW116307   4.566   0.878   6.051
 5136SOL    HW216308   4.537   0.829   5.898
 5137SOL     OW16309   5.013   3.217   5.436
 5137SOL    HW116310   5.056   3.127   5.442
 5137SOL    HW216311   4.967   3.238   5.522
 5138SOL     OW16312   3.246   3.080   5.336
 5138SOL    HW116313   3.148   3.096   5.323
 5138SOL    HW216314   3.290   3.165   5.364
 5139SOL     OW16315   1.087   0.559   3.218
 5139SOL    HW116316   1.130   0.471   3.236
 5139SOL    HW216317   1.088   0.615   3.301
 5140SOL     OW16318   4.242   2.777   0.128
 5140SOL    HW116319   4.302   2.805   0.053
 5140SOL    HW216320   4.166   2.841   0.136
 5141SOL     OW16321   6.916   3.596   0.600
 5141SOL    HW116322   6.990   3.652   0.637
 5141SOL    HW216323   6.883   3.638   0.515
 5142SOL     OW16324   6.169   0.270   3.633
 5142SOL    HW116325   6.084   0.257   3.583
 5142SOL    HW216326   6.245   0.276   3.568
 5143SOL     OW16327   6.787   4.492   3.579
 5143SOL    HW116328   6.779   4.524   3.673
 5143SOL    HW216329   6.699   4.505   3.532
 5144SOL     OW16330   0.501   4.638   6.193
 5144SOL    HW116331   0.436   4.596   6.129
 5144SOL    HW216332   0.474   4.616   6.287
 5145SOL     OW16333   2.898   4.923   5.769
 5145SOL    HW116334   2.832   4.925   5.844
 5145SOL    HW216335   2.989   4.905   5.806
 5146SOL     OW16336   3.559   4.081   5.560
 5146SOL    HW116337   3.613   4.048   5.483
 5146SOL    HW216338   3.468   4.038   5.557
 5147SOL     OW16339   6.842   5.199   2.869
 5147SOL    HW116340   6.889   5.157   2.791
 5147SOL    HW216341   6.778   5.132   2.908
 5148SOL     OW16342   6.755   6.064   1.346
 5148SOL    HW116343   6.765   5.967   1.369
 5148SOL    HW216344   6.658   6.085   1.334
 5149SOL     OW16345   6.301   5.631   2.714
 5149SOL    HW116346   6.287   5.608   2.810
 5149SOL    HW216347   6.306   5.731   2.704
 5150SOL     OW16348   2.352   5.566   2.833
 5150SOL    HW116349   2.268   5.533   2.876
 5150SOL    HW216350   2.334   5.653   2.787
 5151SOL     OW16351   6.255   2.348   0.872
 5151SOL    HW116352   6.330   2.320   0.813
 5151SOL    HW216353   6.193   2.270   0.887
 5152SOL     OW16354   2.638   4.736   0.217
 5152SOL    HW116355   2.697   4.734   0.136
 5152SOL    HW216356   2.667   4.809   0.278
 5153SOL     OW16357   1.856   0.572   0.252
 5153SOL    HW116358   1.905   0.517   0.184
 5153SOL    HW216359   1.838   0.663   0.213
 5154SOL     OW16360   0.838   3.015   6.166
 5154SOL    HW116361   0.869   3.099   6.120
 5154SOL    HW216362   0.771   3.039   6.236
 5155SOL     OW16363   4.527   6.814   1.860
 5155SOL    HW116364   4.430   6.834   1.847
 5155SOL    HW216365   4.568   6.883   1.920
 5156SOL     OW16366   5.738   3.694   6.111
 5156SOL    HW116367   5.778   3.605   6.132
 5156SOL    HW216368   5.789   3.765   6.160
 5157SOL     OW16369   3.647   2.050   3.312
 5157SOL    HW116370   3.635   2.099   3.399
 5157SOL    HW216371   3.743   2.029   3.298
 5158SOL     OW16372   3.543   1.203   1.654
 5158SOL    HW116373   3.490   1.160   1.728
 5158SOL    HW216374   3.535   1.302   1.663
 5159SOL     OW16375   6.918   3.669   4.488
 5159SOL    HW116376   6.903   3.698   4.394
 5159SOL    HW216377   6.984   3.730   4.532
 5160SOL     OW16378   6.981   5.320   3.106
 5160SOL    HW116379   6.965   5.290   3.012
 5160SOL    HW216380   6.901   5.299   3.162
 5161SOL     OW16381   1.387   3.751   5.692
 5161SOL    HW116382   1.484   3.772   5.679
 5161SOL    HW216383   1.378   3.669   5.749
 5162SOL     OW16384   1.175   5.422   3.012
 5162SOL    HW116385   1.208   5.403   2.919
 5162SOL    HW216386   1.092   5.368   3.030
 5163SOL     OW16387   3.442   6.378   6.980
 5163SOL    HW116388   3.523   6.338   6.938
 5163SOL    HW216389   3.393   6.308   0.015
 5164SOL     OW16390   4.090   2.562   0.158
 5164SOL    HW116391   4.160   2.626   0.128
 5164SOL    HW216392   4.027   2.608   0.220
 5165SOL     OW16393   6.161   4.526   6.222
 5165SOL    HW116394   6.094   4.515   6.295
 5165SOL    HW216395   6.248   4.487   6.251
 5166SOL     OW16396   0.548   5.472   2.671
 5166SOL    HW116397   0.498   5.409   2.731
 5166SOL    HW216398   0.509   5.468   2.579
 5167SOL     OW16399   6.649   6.364   6.493
 5167SOL    HW116400   6.630   6.297   6.421
 5167SOL    HW216401   6.745   6.391   6.488
 5168SOL     OW16402   5.718   4.218   2.004
 5168SOL    HW116403   5.755   4.181   1.918
 5168SOL    HW216404   5.621   4.197   2.011
 5169SOL     OW16405   3.623   1.470   4.606
 5169SOL    HW116406   3.652   1.388   4.557
 5169SOL    HW216407   3.703   1.514   4.647
 5170SOL     OW16408   0.756   4.319   5.764
 5170SOL    HW116409   0.710   4.394   5.811
 5170SOL    HW216410   0.831   4.285   5.822
 5171SOL     OW16411   1.248   6.129   4.650
 5171SOL    HW116412   1.211   6.216   4.615
 5171SOL    HW216413   1.174   6.064   4.664
 5172SOL     OW16414   1.146   2.011   2.303
 5172SOL    HW116415   1.101   2.024   2.215
 5172SOL    HW216416   1.218   1.942   2.293
 5173SOL     OW16417   4.960   4.764   5.958
 5173SOL    HW116418   4.951   4.731   6.053
 5173SOL    HW216419   5.056   4.778   5.937
 5174SOL     OW16420   2.376   4.805   3.707
 5174SOL    HW116421   2.457   4.830   3.760
 5174SOL    HW216422   2.394   4.722   3.655
 5175SOL     OW16423   2.277   3.360   0.224
 5175SOL    HW116424   2.199   3.406   0.181
 5175SOL    HW216425   2.256   3.341   0.320
 5176SOL     OW16426   4.722   3.021   6.515
 5176SOL    HW116427   4.792   3.060   6.455
 5176SOL    HW216428   4.754   3.022   6.609
 5177SOL     OW16429   5.283   0.450   0.205
 5177SOL    HW116430   5.372   0.439   0.162
 5177SOL    HW216431   5.294   0.468   0.303
 5178SOL     OW16432   0.979   4.443   2.210
 5178SOL    HW116433   0.915   4.401   2.274
 5178SOL    HW216434   1.061   4.386   2.203
 5179SOL     OW16435   3.834   6.372   3.821
 5179SOL    HW116436   3.908   6.318   3.782
 5179SOL    HW216437   3.822   6.455   3.767
 5180SOL     OW16438   2.944   3.082   1.032
 5180SOL    HW116439   2.854   3.044   1.008
 5180SOL    HW216440   2.991   3.110   0.948
 5181SOL     OW16441   6.246   1.596   2.130
 5181SOL    HW116442   6.252   1.695   2.125
 5181SOL    HW216443   6.179   1.563   2.063
 5182SOL     OW16444   3.940   4.349   1.686
 5182SOL    HW116445   3.842   4.351   1.708
 5182SOL    HW216446   3.951   4.320   1.590
 5183SOL     OW16447   4.546   1.514   3.043
 5183SOL    HW116448   4.545   1.590   2.977
 5183SOL    HW216449   4.506   1.545   3.129
 5184SOL     OW16450   0.336   2.162   4.512
 5184SOL    HW116451   0.243   2.127   4.503
 5184SOL    HW216452   0.342   2.252   4.468
 5185SOL     OW16453   5.683   0.992   2.724
 5185SOL    HW116454   5.641   0.962   2.639
 5185SOL    HW216455   5.617   1.046   2.777
 5186SOL     OW16456   6.350   3.338   1.147
 5186SOL    HW116457   6.372   3.419   1.202
 5186SOL    HW216458   6.291   3.278   1.200
 5187SOL     OW16459   0.840   6.805   3.921
 5187SOL    HW116460   0.767   6.762   3.867
 5187SOL    HW216461   0.809   6.819   4.015
 5188SOL     OW16462   0.536   5.749   0.908
 5188SOL    HW116463   0.524   5.843   0.877
 5188SOL    HW216464   0.446   5.707   0.923
 5189SOL     OW16465   4.494   4.852   0.574
 5189SOL    HW116466   4.461   4.859   0.480
 5189SOL    HW216467   4.456   4.769   0.616
 5190SOL     OW16468   0.088   2.654   4.302
 5190SOL    HW116469   0.154   2.722   4.271
 5190SOL    HW216470   0.071   2.587   4.230
 5191SOL     OW16471   4.206   0.456   1.720
 5191SOL    HW116472   4.133   0.408   1.769
 5191SOL    HW216473   4.295   0.425   1.754
 5192SOL     OW16474   2.793   5.777   3.005
 5192SOL    HW116475   2.892   5.792   3.004
 5192SOL    HW216476   2.766   5.727   2.923
 5193SOL     OW16477   4.800   4.580   4.910
 5193SOL    HW116478   4.879   4.519   4.903
 5193SOL    HW216479   4.720   4.535   4.872
 5194SOL     OW16480   4.753   1.866   0.172
 5194SOL    HW116481   4.713   1.905   0.090
 5194SOL    HW216482   4.845   1.903   0.185
 5195SOL     OW16483   6.010   6.258   4.677
 5195SOL    HW116484   5.934   6.307   4.719
 5195SOL    HW216485   6.096   6.302   4.704
 5196SOL     OW16486   3.402   4.847   0.840
 5196SOL    HW116487   3.358   4.856   0.751
 5196SOL    HW216488   3.472   4.775   0.836
 5197SOL     OW16489   2.245   5.508   5.044
 5197SOL    HW116490   2.253   5.600   5.082
 5197SOL    HW216491   2.330   5.483   4.998
 5198SOL     OW16492   3.689   6.642   3.110
 5198SOL    HW116493   3.712   6.554   3.152
 5198SOL    HW216494   3.591   6.657   3.118
 5199SOL     OW16495   1.374   5.763   0.530
 5199SOL    HW116496   1.471   5.783   0.546
 5199SOL    HW216497   1.342   5.698   0.599
 5200SOL     OW16498   1.388   2.193   5.177
 5200SOL    HW116499   1.351   2.132   5.246
 5200SOL    HW216500   1.350   2.285   5.189
 5201SOL     OW16501   0.148   6.492   4.161
 5201SOL    HW116502   0.129   6.458   4.253
 5201SOL    HW216503   0.245   6.476   4.139
 5202SOL     OW16504   6.064   4.262   5.595
 5202SOL    HW116505   6.013   4.231   5.675
 5202SOL    HW216506   6.146   4.205   5.584
 5203SOL     OW16507   2.291   1.423   6.381
 5203SOL    HW116508   2.334   1.508   6.412
 5203SOL    HW216509   2.357   1.372   6.325
 5204SOL     OW16510   4.372   6.261   6.812
 5204SOL    HW116511   4.388   6.328   6.740
 5204SOL    HW216512   4.399   6.299   6.900
 5205SOL     OW16513   0.310   5.779   0.658
 5205SOL    HW116514   0.314   5.877   0.677
 5205SOL    HW216515   0.241   5.736   0.715
 5206SOL     OW16516   0.605   5.128   0.458
 5206SOL    HW116517   0.660   5.089   0.384
 5206SOL    HW216518   0.554   5.207   0.422
 5207SOL     OW16519   1.385   6.962   3.527
 5207SOL    HW116520   1.311   0.005   3.560
 5207SOL    HW216521   1.365   6.867   3.550
 5208SOL     OW16522   5.071   2.313   0.083
 5208SOL    HW116523   5.122   2.376   0.141
 5208SOL    HW216524   5.003   2.264   0.137
 5209SOL     OW16525   5.485   0.069   2.015
 5209SOL    HW116526   5.576   0.052   1.977
 5209SOL    HW216527   5.416   0.061   1.943
 5210SOL     OW16528   4.547   3.114   0.528
 5210SOL    HW116529   4.497   3.107   0.614
 5210SOL    HW216530   4.632   3.061   0.534
 5211SOL     OW16531   4.019   2.490   5.814
 5211SOL    HW116532   4.068   2.403   5.825
 5211SOL    HW216533   3.940   2.477   5.755
 5212SOL     OW16534   0.857   2.844   0.566
 5212SOL    HW116535   0.861   2.943   0.554
 5212SOL    HW216536   0.950   2.807   0.559
 5213SOL     OW16537   4.179   3.969   0.358
 5213SOL    HW116538   4.091   3.933   0.326
 5213SOL    HW216539   4.248   3.957   0.287
 5214SOL     OW16540   4.762   2.531   6.574
 5214SOL    HW116541   4.854   2.531   6.536
 5214SOL    HW216542   4.762   2.581   6.661
 5215SOL     OW16543   1.008   4.863   4.314
 5215SOL    HW116544   0.988   4.869   4.217
 5215SOL    HW216545   1.106   4.851   4.328
 5216SOL     OW16546   4.037   4.716   1.513
 5216SOL    HW116547   3.948   4.756   1.532
 5216SOL    HW216548   4.070   4.668   1.594
 5217SOL     OW16549   3.643   5.321   4.609
 5217SOL    HW116550   3.714   5.254   4.627
 5217SOL    HW216551   3.557   5.275   4.588
 5218SOL     OW16552   0.783   0.724   1.507
 5218SOL    HW116553   0.786   0.760   1.414
 5218SOL    HW216554   0.823   0.633   1.508
 5219SOL     OW16555   3.546   1.326   5.033
 5219SOL    HW116556   3.532   1.342   5.131
 5219SOL    HW216557   3.576   1.411   4.989
 5220SOL     OW16558   1.401   6.038   2.417
 5220SOL    HW116559   1.482   6.079   2.458
 5220SOL    HW216560   1.403   5.939   2.431
 5221SOL     OW16561   6.069   1.798   3.207
 5221SOL    HW116562   5.971   1.783   3.207
 5221SOL    HW216563   6.115   1.718   3.169
 5222SOL     OW16564   3.839   6.612   2.568
 5222SOL    HW116565   3.810   6.624   2.662
 5222SOL    HW216566   3.936   6.588   2.565
 5223SOL     OW16567   6.387   2.384   0.478
 5223SOL    HW116568   6.469   2.327   0.469
 5223SOL    HW216569   6.306   2.331   0.454
 5224SOL     OW16570   6.191   2.834   4.783
 5224SOL    HW116571   6.115   2.895   4.761
 5224SOL    HW216572   6.171   2.742   4.749
 5225SOL     OW16573   0.035   0.755   3.856
 5225SOL    HW116574   0.046   0.707   3.943
 5225SOL    HW216575   0.049   0.853   3.871
 5226SOL     OW16576   6.660   6.872   4.640
 5226SOL    HW116577   6.611   6.926   4.571
 5226SOL    HW216578   6.743   6.835   4.600
 5227SOL     OW16579   0.227   3.211   5.525
 5227SOL    HW116580   0.324   3.190   5.543
 5227SOL    HW216581   0.175   3.126   5.518
 5228SOL     OW16582   0.011   2.306   0.519
 5228SOL    HW116583   6.989   2.397   0.540
 5228SOL    HW216584   0.011   2.251   0.602
 5229SOL     OW16585   2.723   6.572   0.297
 5229SOL    HW116586   2.639   6.518   0.292
 5229SOL    HW216587   2.771   6.551   0.382
 5230SOL     OW16588   0.526   5.990   1.943
 5230SOL    HW116589   0.553   6.086   1.945
 5230SOL    HW216590   0.607   5.933   1.927
 5231SOL     OW16591   4.889   2.522   4.411
 5231SOL    HW116592   4.869   2.575   4.328
 5231SOL    HW216593   4.953   2.572   4.468
 5232SOL     OW16594   1.613   3.593   6.311
 5232SOL    HW116595   1.672   3.666   6.347
 5232SOL    HW216596   1.669   3.528   6.259
 5233SOL     OW16597   4.119   1.321   2.427
 5233SOL    HW116598   4.045   1.363   2.373
 5233SOL    HW216599   4.115   1.356   2.521
 5234SOL     OW16600   2.683   1.801   6.172
 5234SOL    HW116601   2.764   1.754   6.139
 5234SOL    HW216602   2.704   1.848   6.258
 5235SOL     OW16603   1.787   2.445   0.902
 5235SOL    HW116604   1.798   2.532   0.853
 5235SOL    HW216605   1.837   2.449   0.988
 5236SOL     OW16606   4.306   5.127   1.730
 5236SOL    HW116607   4.390   5.166   1.692
 5236SOL    HW216608   4.330   5.052   1.792
 5237SOL     OW16609   0.999   0.723   4.894
 5237SOL    HW116610   1.008   0.638   4.841
 5237SOL    HW216611   0.986   0.700   4.990
 5238SOL     OW16612   0.846   4.756   0.355
 5238SOL    HW116613   0.851   4.806   0.269
 5238SOL    HW216614   0.844   4.822   0.431
 5239SOL     OW16615   3.559   3.000   5.279
 5239SOL    HW116616   3.554   3.017   5.181
 5239SOL    HW216617   3.491   2.932   5.305
 5240SOL     OW16618   3.275   2.161   5.651
 5240SOL    HW116619   3.319   2.230   5.594
 5240SOL    HW216620   3.200   2.119   5.601
 5241SOL     OW16621   0.164   5.112   4.659
 5241SOL    HW116622   0.204   5.200   4.685
 5241SOL    HW216623   0.220   5.069   4.589
 5242SOL     OW16624   6.583   6.767   0.034
 5242SOL    HW116625   6.522   6.738   6.976
 5242SOL    HW216626   6.603   6.689   0.093
 5243SOL     OW16627   1.849   5.485   1.616
 5243SOL    HW116628   1.848   5.509   1.713
 5243SOL    HW216629   1.761   5.510   1.575
 5244SOL     OW16630   3.017   5.180   6.773
 5244SOL    HW116631   3.062   5.136   6.851
 5244SOL    HW216632   2.950   5.117   6.733
 5245SOL     OW16633   4.368   4.463   0.030
 5245SOL    HW116634   4.354   4.385   0.091
 5245SOL    HW216635   4.429   4.436   6.971
 5246SOL     OW16636   6.134   3.323   1.486
 5246SOL    HW116637   6.159   3.275   1.402
 5246SOL    HW216638   6.201   3.396   1.503
 5247SOL     OW16639   2.282   0.750   6.582
 5247SOL    HW116640   2.373   0.755   6.624
 5247SOL    HW216641   2.288   0.700   6.496
 5248SOL     OW16642   5.988   2.217   3.014
 5248SOL    HW116643   5.989   2.222   3.114
 5248SOL    HW216644   6.016   2.305   2.976
 5249SOL     OW16645   0.565   5.376   6.145
 5249SOL    HW116646   0.594   5.297   6.091
 5249SOL    HW216647   0.548   5.454   6.085
 5250SOL     OW16648   2.086   5.911   6.406
 5250SOL    HW116649   2.117   5.828   6.452
 5250SOL    HW216650   2.166   5.962   6.373
 5251SOL     OW16651   0.397   3.326   6.974
 5251SOL    HW116652   0.365   3.263   0.029
 5251SOL    HW216653   0.497   3.323   6.970
 5252SOL     OW16654   1.937   6.497   0.400
 5252SOL    HW116655   1.883   6.568   0.445
 5252SOL    HW216656   1.942   6.416   0.458
 5253SOL     OW16657   6.189   4.549   4.652
 5253SOL    HW116658   6.093   4.564   4.630
 5253SOL    HW216659   6.202   4.560   4.751
 5254SOL     OW16660   4.671   0.723   2.580
 5254SOL    HW116661   4.687   0.625   2.591
 5254SOL    HW216662   4.693   0.749   2.486
 5255SOL     OW16663   5.559   2.043   5.329
 5255SOL    HW116664   5.512   1.960   5.300
 5255SOL    HW216665   5.627   2.069   5.261
 5256SOL     OW16666   4.275   2.000   3.656
 5256SOL    HW116667   4.374   2.000   3.670
 5256SOL    HW216668   4.235   1.921   3.701
 5257SOL     OW16669   5.313   6.878   1.762
 5257SOL    HW116670   5.231   6.934   1.754
 5257SOL    HW216671   5.311   6.805   1.693
 5258SOL     OW16672   6.263   3.259   1.815
 5258SOL    HW116673   6.334   3.328   1.829
 5258SOL    HW216674   6.294   3.193   1.747
 5259SOL     OW16675   4.798   6.279   2.117
 5259SOL    HW116676   4.741   6.359   2.097
 5259SOL    HW216677   4.875   6.306   2.175
 5260SOL     OW16678   4.469   3.298   0.939
 5260SOL    HW116679   4.566   3.317   0.945
 5260SOL    HW216680   4.454   3.223   0.875
 5261SOL     OW16681   0.741   3.734   6.409
 5261SOL    HW116682   0.653   3.686   6.409
 5261SOL    HW216683   0.809   3.681   6.459
 5262SOL     OW16684   2.557   0.992   3.605
 5262SOL    HW116685   2.505   0.912   3.637
 5262SOL    HW216686   2.565   1.058   3.679
 5263SOL     OW16687   2.391   1.582   3.743
 5263SOL    HW116688   2.459   1.592   3.671
 5263SOL    HW216689   2.378   1.485   3.764
 5264SOL     OW16690   6.998   2.570   1.881
 5264SOL    HW116691   6.909   2.604   1.850
 5264SOL    HW216692   0.053   2.597   1.815
 5265SOL     OW16693   6.416   3.774   3.965
 5265SOL    HW116694   6.327   3.818   3.972
 5265SOL    HW216695   6.479   3.833   3.915
 5266SOL     OW16696   2.821   5.845   0.209
 5266SOL    HW116697   2.896   5.798   0.256
 5266SOL    HW216698   2.837   5.943   0.209
 5267SOL     OW16699   5.486   3.237   5.199
 5267SOL    HW116700   5.411   3.194   5.149
 5267SOL    HW216701   5.572   3.194   5.175
 5268SOL     OW16702   5.901   1.204   6.964
 5268SOL    HW116703   5.924   1.262   6.885
 5268SOL    HW216704   5.904   1.108   6.937
 5269SOL     OW16705   1.352   6.287   3.020
 5269SOL    HW116706   1.262   6.249   3.043
 5269SOL    HW216707   1.370   6.366   3.078
 5270SOL     OW16708   6.190   0.889   1.013
 5270SOL    HW116709   6.165   0.970   0.961
 5270SOL    HW216710   6.223   0.818   0.950
 5271SOL     OW16711   6.589   5.727   5.488
 5271SOL    HW116712   6.603   5.721   5.390
 5271SOL    HW216713   6.494   5.702   5.510
 5272SOL     OW16714   2.867   5.585   1.787
 5272SOL    HW116715   2.913   5.497   1.777
 5272SOL    HW216716   2.800   5.579   1.861
 5273SOL     OW16717   6.756   3.016   3.967
 5273SOL    HW116718   6.659   3.013   3.992
 5273SOL    HW216719   6.790   3.110   3.974
 5274SOL     OW16720   6.479   6.618   2.970
 5274SOL    HW116721   6.485   6.702   2.916
 5274SOL    HW216722   6.417   6.554   2.925
 5275SOL     OW16723   3.657   2.117   1.536
 5275SOL    HW116724   3.718   2.139   1.460
 5275SOL    HW216725   3.570   2.165   1.523
 5276SOL     OW16726   2.058   0.020   1.105
 5276SOL    HW116727   2.073   6.983   1.022
 5276SOL    HW216728   2.005   6.981   1.170
 5277SOL     OW16729   1.331   1.508   2.281
 5277SOL    HW116730   1.378   1.502   2.369
 5277SOL    HW216731   1.242   1.551   2.294
 5278SOL     OW16732   6.062   0.036   3.941
 5278SOL    HW116733   6.072   6.963   3.987
 5278SOL    HW216734   6.006   0.025   3.859
 5279SOL     OW16735   2.293   5.076   6.098
 5279SOL    HW116736   2.291   5.002   6.165
 5279SOL    HW216737   2.387   5.104   6.081
 5280SOL     OW16738   2.582   6.167   4.685
 5280SOL    HW116739   2.614   6.188   4.778
 5280SOL    HW216740   2.606   6.242   4.624
 5281SOL     OW16741   0.016   2.597   2.663
 5281SOL    HW116742   0.018   2.582   2.564
 5281SOL    HW216743   6.953   2.550   2.702
 5282SOL     OW16744   2.884   2.072   4.012
 5282SOL    HW116745   2.940   2.012   4.069
 5282SOL    HW216746   2.814   2.017   3.966
 5283SOL     OW16747   4.348   6.917   1.262
 5283SOL    HW116748   4.312   6.848   1.325
 5283SOL    HW216749   4.288   6.997   1.263
 5284SOL     OW16750   4.896   3.477   3.342
 5284SOL    HW116751   4.967   3.479   3.272
 5284SOL    HW216752   4.920   3.540   3.415
 5285SOL     OW16753   2.567   4.901   3.902
 5285SOL    HW116754   2.626   4.833   3.945
 5285SOL    HW216755   2.491   4.923   3.962
 5286SOL     OW16756   1.565   4.560   0.325
 5286SOL    HW116757   1.584   4.651   0.359
 5286SOL    HW216758   1.649   4.506   0.324
 5287SOL     OW16759   2.781   6.541   0.875
 5287SOL    HW116760   2.755   6.523   0.970
 5287SOL    HW216761   2.878   6.565   0.872
 5288SOL     OW16762   3.402   0.327   1.745
 5288SOL    HW116763   3.359   0.336   1.655
 5288SOL    HW216764   3.368   0.399   1.806
 5289SOL     OW16765   1.941   4.808   6.270
 5289SOL    HW116766   1.936   4.775   6.364
 5289SOL    HW216767   1.955   4.907   6.271
 5290SOL     OW16768   1.637   5.799   5.067
 5290SOL    HW116769   1.553   5.823   5.019
 5290SOL    HW216770   1.657   5.702   5.054
 5291SOL     OW16771   2.589   5.166   6.085
 5291SOL    HW116772   2.596   5.259   6.119
 5291SOL    HW216773   2.576   5.103   6.162
 5292SOL     OW16774   6.101   3.143   6.431
 5292SOL    HW116775   6.099   3.088   6.515
 5292SOL    HW216776   6.016   3.129   6.380
 5293SOL     OW16777   0.396   0.463   5.089
 5293SOL    HW116778   0.329   0.479   5.161
 5293SOL    HW216779   0.372   0.518   5.008
 5294SOL     OW16780   4.648   3.633   5.649
 5294SOL    HW116781   4.736   3.609   5.609
 5294SOL    HW216782   4.633   3.732   5.642
 5295SOL     OW16783   5.849   0.779   2.817
 5295SOL    HW116784   5.920   0.805   2.882
 5295SOL    HW216785   5.774   0.846   2.821
 5296SOL     OW16786   1.927   5.212   6.902
 5296SOL    HW116787   1.866   5.139   6.872
 5296SOL    HW216788   1.915   5.292   6.844
 5297SOL     OW16789   2.220   2.054   1.780
 5297SOL    HW116790   2.247   1.982   1.844
 5297SOL    HW216791   2.301   2.100   1.745
 5298SOL     OW16792   0.669   5.551   1.036
 5298SOL    HW116793   0.684   5.566   1.133
 5298SOL    HW216794   0.617   5.627   0.998
 5299SOL     OW16795   2.903   2.410   0.584
 5299SOL    HW116796   2.895   2.509   0.569
 5299SOL    HW216797   2.901   2.391   0.682
 5300SOL     OW16798   0.448   5.722   2.904
 5300SOL    HW116799   0.438   5.682   2.995
 5300SOL    HW216800   0.546   5.727   2.881
 5301SOL     OW16801   4.762   1.597   0.277
 5301SOL    HW116802   4.735   1.693   0.276
 5301SOL    HW216803   4.684   1.540   0.305
 5302SOL     OW16804   5.469   4.707   3.151
 5302SOL    HW116805   5.447   4.799   3.181
 5302SOL    HW216806   5.532   4.665   3.216
 5303SOL     OW16807   0.084   6.107   3.974
 5303SOL    HW116808   0.043   6.051   3.902
 5303SOL    HW216809   0.038   6.196   3.977
 5304SOL     OW16810   6.343   2.031   5.705
 5304SOL    HW116811   6.344   1.956   5.771
 5304SOL    HW216812   6.301   2.111   5.748
 5305SOL     OW16813   1.771   6.548   4.475
 5305SOL    HW116814   1.716   6.606   4.415
 5305SOL    HW216815   1.796   6.599   4.557
 5306SOL     OW16816   1.006   5.676   5.204
 5306SOL    HW116817   0.920   5.725   5.194
 5306SOL    HW216818   0.988   5.579   5.217
 5307SOL     OW16819   4.154   6.612   6.819
 5307SOL    HW116820   4.157   6.656   6.729
 5307SOL    HW216821   4.226   6.650   6.877
 5308SOL     OW16822   0.615   6.881   4.520
 5308SOL    HW116823   0.690   6.945   4.508
 5308SOL    HW216824   0.641   6.810   4.586
 5309SOL     OW16825   3.227   3.925   2.441
 5309SOL    HW116826   3.214   3.947   2.345
 5309SOL    HW216827   3.280   3.997   2.486
 5310SOL     OW16828   5.347   2.692   1.860
 5310SOL    HW116829   5.307   2.784   1.849
 5310SOL    HW216830   5.292   2.639   1.924
 5311SOL     OW16831   0.055   5.965   1.043
 5311SOL    HW116832   0.008   6.053   1.053
 5311SOL    HW216833   0.010   5.911   0.972
 5312SOL     OW16834   6.797   3.838   2.614
 5312SOL    HW116835   6.823   3.823   2.519
 5312SOL    HW216836   6.699   3.857   2.619
 5313SOL     OW16837   1.052   5.876   0.232
 5313SOL    HW116838   1.086   5.865   0.326
 5313SOL    HW216839   1.059   5.972   0.205
 5314SOL     OW16840   3.733   4.942   0.358
 5314SOL    HW116841   3.707   4.948   0.262
 5314SOL    HW216842   3.653   4.920   0.414
 5315SOL     OW16843   4.161   4.377   1.237
 5315SOL    HW116844   4.065   4.357   1.217
 5315SOL    HW216845   4.214   4.376   1.152
 5316SOL     OW16846   6.636   5.250   4.948
 5316SOL    HW116847   6.552   5.295   4.915
 5316SOL    HW216848   6.697   5.234   4.871
 5317SOL     OW16849   6.327   1.315   4.776
 5317SOL    HW116850   6.417   1.281   4.801
 5317SOL    HW216851   6.274   1.242   4.733
 5318SOL     OW16852   0.434   1.940   5.730
 5318SOL    HW116853   0.420   1.857   5.785
 5318SOL    HW216854   0.453   2.017   5.791
 5319SOL     OW16855   4.896   6.849   6.953
 5319SOL    HW116856   4.946   6.784   6.896
 5319SOL    HW216857   4.837   6.798   0.000
 5320SOL     OW16858   5.437   5.207   6.571
 5320SOL    HW116859   5.447   5.283   6.506
 5320SOL    HW216860   5.526   5.165   6.587
 5321SOL     OW16861   0.815   5.032   2.450
 5321SOL    HW116862   0.875   5.053   2.528
 5321SOL    HW216863   0.720   5.049   2.476
 5322SOL     OW16864   3.855   6.485   6.067
 5322SOL    HW116865   3.793   6.530   6.131
 5322SOL    HW216866   3.924   6.550   6.036
 5323SOL     OW16867   3.496   2.898   1.206
 5323SOL    HW116868   3.558   2.909   1.284
 5323SOL    HW216869   3.453   2.986   1.184
 5324SOL     OW16870   3.699   2.599   1.723
 5324SOL    HW116871   3.791   2.613   1.689
 5324SOL    HW216872   3.693   2.511   1.769
 5325SOL     OW16873   6.077   6.541   3.506
 5325SOL    HW116874   6.008   6.540   3.434
 5325SOL    HW216875   6.038   6.579   3.590
 5326SOL     OW16876   6.063   5.006   2.159
 5326SOL    HW116877   6.088   4.911   2.142
 5326SOL    HW216878   6.140   5.055   2.201
 5327SOL     OW16879   0.811   5.782   5.797
 5327SOL    HW116880   0.874   5.860   5.803
 5327SOL    HW216881   0.835   5.725   5.719
 5328SOL     OW16882   4.081   2.697   5.666
 5328SOL    HW116883   4.066   2.670   5.571
 5328SOL    HW216884   4.066   2.619   5.727
 5329SOL     OW16885   0.179   3.590   6.638
 5329SOL    HW116886   0.222   3.501   6.620
 5329SOL    HW216887   0.147   3.629   6.551
 5330SOL     OW16888   3.326   4.660   0.147
 5330SOL    HW116889   3.237   4.639   0.106
 5330SOL    HW216890   3.317   4.740   0.205
 5331SOL     OW16891   5.843   1.000   0.762
 5331SOL    HW116892   5.911   0.929   0.781
 5331SOL    HW216893   5.822   1.049   0.847
 5332SOL     OW16894   6.421   4.164   6.943
 5332SOL    HW116895   6.442   4.261   6.946
 5332SOL    HW216896   6.327   4.149   6.974
 5333SOL     OW16897   1.385   0.456   3.767
 5333SOL    HW116898   1.299   0.455   3.715
 5333SOL    HW216899   1.373   0.406   3.852
 5334SOL     OW16900   4.027   5.190   5.302
 5334SOL    HW116901   4.065   5.236   5.221
 5334SOL    HW216902   4.097   5.131   5.343
 5335SOL     OW16903   0.465   5.223   2.439
 5335SOL    HW116904   0.407   5.190   2.364
 5335SOL    HW216905   0.485   5.147   2.501
 5336SOL     OW16906   2.115   2.361   3.307
 5336SOL    HW116907   2.113   2.437   3.372
 5336SOL    HW216908   2.093   2.395   3.216
 5337SOL     OW16909   5.713   4.995   1.468
 5337SOL    HW116910   5.622   4.963   1.495
 5337SOL    HW216911   5.712   5.023   1.372
 5338SOL     OW16912   5.488   1.019   6.872
 5338SOL    HW116913   5.414   1.074   6.910
 5338SOL    HW216914   5.528   0.962   6.944
 5339SOL     OW16915   5.857   1.433   3.126
 5339SOL    HW116916   5.798   1.513   3.116
 5339SOL    HW216917   5.809   1.352   3.092
 5340SOL     OW16918   5.532   3.908   1.018
 5340SOL    HW116919   5.532   3.930   0.920
 5340SOL    HW216920   5.512   3.810   1.030
 5341SOL     OW16921   3.293   4.846   5.100
 5341SOL    HW116922   3.296   4.937   5.141
 5341SOL    HW216923   3.204   4.832   5.057
 5342SOL     OW16924   5.058   6.601   4.446
 5342SOL    HW116925   4.996   6.622   4.370
 5342SOL    HW216926   5.106   6.684   4.473
 5343SOL     OW16927   3.880   3.320   4.883
 5343SOL    HW116928   3.962   3.291   4.933
 5343SOL    HW216929   3.830   3.387   4.938
 5344SOL     OW16930   0.755   1.431   0.315
 5344SOL    HW116931   0.837   1.405   0.366
 5344SOL    HW216932   0.753   1.530   0.303
 5345SOL     OW16933   5.011   0.631   6.606
 5345SOL    HW116934   4.975   0.642   6.513
 5345SOL    HW216935   5.018   0.534   6.627
 5346SOL     OW16936   2.708   5.415   4.363
 5346SOL    HW116937   2.611   5.418   4.339
 5346SOL    HW216938   2.728   5.487   4.429
 5347SOL     OW16939   6.617   3.698   3.487
 5347SOL    HW116940   6.572   3.775   3.443
 5347SOL    HW216941   6.662   3.728   3.571
 5348SOL     OW16942   6.932   0.901   5.627
 5348SOL    HW116943   6.845   0.851   5.624
 5348SOL    HW216944   6.995   0.853   5.687
 5349SOL     OW16945   2.346   3.550   0.812
 5349SOL    HW116946   2.424   3.598   0.852
 5349SOL    HW216947   2.375   3.506   0.727
 5350SOL     OW16948   2.247   6.361   5.309
 5350SOL    HW116949   2.161   6.316   5.333
 5350SOL    HW216950   2.309   6.360   5.388
 5351SOL     OW16951   0.403   5.489   2.171
 5351SOL    HW116952   0.379   5.517   2.264
 5351SOL    HW216953   0.440   5.396   2.172
 5352SOL     OW16954   2.400   4.546   2.938
 5352SOL    HW116955   2.311   4.535   2.982
 5352SOL    HW216956   2.392   4.613   2.864
 5353SOL     OW16957   4.004   5.489   3.866
 5353SOL    HW116958   3.972   5.555   3.934
 5353SOL    HW216959   3.928   5.430   3.840
 5354SOL     OW16960   2.169   4.789   0.283
 5354SOL    HW116961   2.162   4.889   0.278
 5354SOL    HW216962   2.119   4.756   0.363
 5355SOL     OW16963   6.025   4.638   4.293
 5355SOL    HW116964   5.983   4.564   4.241
 5355SOL    HW216965   6.066   4.600   4.376
 5356SOL     OW16966   6.946   3.759   2.298
 5356SOL    HW116967   6.993   3.687   2.349
 5356SOL    HW216968   6.932   3.728   2.204
 5357SOL     OW16969   4.109   4.785   1.271
 5357SOL    HW116970   4.105   4.885   1.265
 5357SOL    HW216971   4.078   4.756   1.362
 5358SOL     OW16972   4.675   2.010   1.057
 5358SOL    HW116973   4.599   1.947   1.071
 5358SOL    HW216974   4.707   2.043   1.146
 5359SOL     OW16975   2.002   2.003   6.554
 5359SOL    HW116976   1.995   1.905   6.541
 5359SOL    HW216977   1.911   2.042   6.568
 5360SOL     OW16978   5.583   5.621   3.654
 5360SOL    HW116979   5.563   5.655   3.562
 5360SOL    HW216980   5.543   5.683   3.721
 5361SOL     OW16981   2.131   6.759   4.167
 5361SOL    HW116982   2.098   6.811   4.246
 5361SOL    HW216983   2.054   6.736   4.107
 5362SOL     OW16984   6.318   6.390   2.843
 5362SOL    HW116985   6.376   6.313   2.815
 5362SOL    HW216986   6.250   6.408   2.772
 5363SOL     OW16987   5.323   6.386   5.524
 5363SOL    HW116988   5.258   6.459   5.500
 5363SOL    HW216989   5.402   6.391   5.462
 5364SOL     OW16990   6.477   6.938   1.826
 5364SOL    HW116991   6.434   0.012   1.815
 5364SOL    HW216992   6.574   6.944   1.802
 5365SOL     OW16993   3.599   2.880   2.217
 5365SOL    HW116994   3.516   2.933   2.233
 5365SOL    HW216995   3.667   2.937   2.171
 5366SOL     OW16996   7.010   6.897   2.103
 5366SOL    HW116997   6.916   6.922   2.126
 5366SOL    HW216998   0.008   6.905   2.005
 5367SOL     OW16999   6.500   6.316   1.320
 5367SOL    HW117000   6.460   6.238   1.273
 5367SOL    HW217001   6.427   6.376   1.353
 5368SOL     OW17002   6.404   6.687   2.568
 5368SOL    HW117003   6.462   6.768   2.570
 5368SOL    HW217004   6.308   6.714   2.570
 5369SOL     OW17005   2.578   5.963   0.920
 5369SOL    HW117006   2.552   5.993   1.011
 5369SOL    HW217007   2.561   6.036   0.854
 5370SOL     OW17008   4.459   3.595   1.112
 5370SOL    HW117009   4.434   3.596   1.208
 5370SOL    HW217010   4.377   3.591   1.055
 5371SOL     OW17011   6.536   5.087   5.213
 5371SOL    HW117012   6.541   5.185   5.195
 5371SOL    HW217013   6.442   5.062   5.235
 5372SOL     OW17014   1.428   6.634   2.696
 5372SOL    HW117015   1.372   6.706   2.738
 5372SOL    HW217016   1.503   6.610   2.758
 5373SOL     OW17017   3.948   6.736   5.881
 5373SOL    HW117018   3.964   6.639   5.860
 5373SOL    HW217019   3.855   6.747   5.916
 5374SOL     OW17020   2.614   4.109   0.734
 5374SOL    HW117021   2.600   4.208   0.731
 5374SOL    HW217022   2.681   4.083   0.664
 5375SOL     OW17023   0.633   5.550   5.946
 5375SOL    HW117024   0.704   5.537   5.876
 5375SOL    HW217025   0.572   5.624   5.918
 5376SOL     OW17026   1.442   2.418   1.677
 5376SOL    HW117027   1.532   2.457   1.695
 5376SOL    HW217028   1.451   2.319   1.666
 5377SOL     OW17029   1.218   0.082   3.275
 5377SOL    HW117030   1.161   0.002   3.292
 5377SOL    HW217031   1.313   0.062   3.297
 5378SOL     OW17032   6.491   0.297   1.435
 5378SOL    HW117033   6.557   0.224   1.417
 5378SOL    HW217034   6.418   0.262   1.493
 5379SOL     OW17035   1.470   3.343   4.923
 5379SOL    HW117036   1.448   3.436   4.954
 5379SOL    HW217037   1.394   3.282   4.945
 5380SOL     OW17038   2.674   6.860   1.180
 5380SOL    HW117039   2.770   6.833   1.189
 5380SOL    HW217040   2.642   6.837   1.088
 5381SOL     OW17041   6.323   6.216   2.104
 5381SOL    HW117042   6.369   6.157   2.171
 5381SOL    HW217043   6.264   6.160   2.046
 5382SOL     OW17044   3.168   2.065   2.619
 5382SOL    HW117045   3.118   1.978   2.614
 5382SOL    HW217046   3.196   2.094   2.528
 5383SOL     OW17047   1.514   2.589   4.549
 5383SOL    HW117048   1.565   2.666   4.588
 5383SOL    HW217049   1.432   2.623   4.503
 5384SOL     OW17050   4.669   5.678   4.796
 5384SOL    HW117051   4.713   5.693   4.884
 5384SOL    HW217052   4.653   5.580   4.782
 5385SOL     OW17053   5.794   3.394   5.370
 5385SOL    HW117054   5.697   3.397   5.343
 5385SOL    HW217055   5.841   3.474   5.333
 5386SOL     OW17056   5.776   1.507   4.269
 5386SOL    HW117057   5.705   1.441   4.246
 5386SOL    HW217058   5.736   1.599   4.278
 5387SOL     OW17059   2.819   6.803   3.600
 5387SOL    HW117060   2.833   6.712   3.640
 5387SOL    HW217061   2.907   6.840   3.571
 5388SOL     OW17062   1.689   6.634   2.837
 5388SOL    HW117063   1.712   6.729   2.857
 5388SOL    HW217064   1.772   6.584   2.810
 5389SOL     OW17065   3.862   1.546   4.721
 5389SOL    HW117066   3.934   1.512   4.782
 5389SOL    HW217067   3.883   1.640   4.694
 5390SOL     OW17068   5.247   4.085   3.591
 5390SOL    HW117069   5.296   4.059   3.508
 5390SOL    HW217070   5.300   4.058   3.671
 5391SOL     OW17071   3.255   1.887   6.935
 5391SOL    HW117072   3.175   1.857   6.988
 5391SOL    HW217073   3.230   1.897   6.839
 5392SOL     OW17074   5.440   3.772   1.625
 5392SOL    HW117075   5.470   3.684   1.590
 5392SOL    HW217076   5.387   3.820   1.556
 5393SOL     OW17077   4.569   0.904   5.038
 5393SOL    HW117078   4.475   0.917   5.070
 5393SOL    HW217079   4.599   0.986   4.989
 5394SOL     OW17080   0.754   5.816   1.247
 5394SOL    HW117081   0.680   5.881   1.266
 5394SOL    HW217082   0.809   5.850   1.170
 5395SOL     OW17083   4.980   0.775   0.923
 5395SOL    HW117084   5.064   0.747   0.876
 5395SOL    HW217085   5.001   0.795   1.019
 5396SOL     OW17086   5.369   5.442   1.529
 5396SOL    HW117087   5.329   5.351   1.514
 5396SOL    HW217088   5.345   5.502   1.453
 5397SOL     OW17089   6.983   2.285   1.704
 5397SOL    HW117090   6.929   2.227   1.766
 5397SOL    HW217091   0.049   2.316   1.751
 5398SOL     OW17092   3.361   2.008   3.876
 5398SOL    HW117093   3.269   2.045   3.889
 5398SOL    HW217094   3.365   1.958   3.790
 5399SOL     OW17095   2.608   0.272   6.058
 5399SOL    HW117096   2.587   0.187   6.105
 5399SOL    HW217097   2.672   0.254   5.983
 5400SOL     OW17098   2.959   3.338   0.670
 5400SOL    HW117099   2.998   3.373   0.585
 5400SOL    HW217100   2.862   3.362   0.674
 5401SOL     OW17101   5.854   4.014   2.332
 5401SOL    HW117102   5.792   3.998   2.409
 5401SOL    HW217103   5.822   4.093   2.280
 5402SOL     OW17104   2.718   6.458   0.630
 5402SOL    HW117105   2.738   6.485   0.724
 5402SOL    HW217106   2.803   6.430   0.585
 5403SOL     OW17107   5.044   3.396   6.519
 5403SOL    HW117108   5.062   3.443   6.432
 5403SOL    HW217109   5.129   3.359   6.555
 5404SOL     OW17110   1.026   0.499   1.185
 5404SOL    HW117111   0.928   0.519   1.189
 5404SOL    HW217112   1.066   0.540   1.103
 5405SOL     OW17113   5.825   5.536   6.901
 5405SOL    HW117114   5.875   5.594   6.837
 5405SOL    HW217115   5.834   5.440   6.874
 5406SOL     OW17116   2.033   0.982   4.823
 5406SOL    HW117117   2.068   1.004   4.732
 5406SOL    HW217118   2.098   1.013   4.893
 5407SOL     OW17119   3.323   1.275   0.643
 5407SOL    HW117120   3.316   1.291   0.742
 5407SOL    HW217121   3.232   1.255   0.606
 5408SOL     OW17122   3.389   1.189   4.835
 5408SOL    HW117123   3.452   1.218   4.906
 5408SOL    HW217124   3.333   1.266   4.805
 5409SOL     OW17125   6.716   1.514   2.693
 5409SOL    HW117126   6.721   1.536   2.596
 5409SOL    HW217127   6.775   1.436   2.713
 5410SOL     OW17128   0.795   2.514   6.560
 5410SOL    HW117129   0.713   2.491   6.613
 5410SOL    HW217130   0.870   2.535   6.622
 5411SOL     OW17131   4.945   4.769   6.243
 5411SOL    HW117132   4.929   4.677   6.280
 5411SOL    HW217133   4.896   4.836   6.299
 5412SOL     OW17134   2.568   1.462   6.008
 5412SOL    HW117135   2.583   1.480   5.910
 5412SOL    HW217136   2.539   1.546   6.053
 5413SOL     OW17137   0.840   6.841   6.617
 5413SOL    HW117138   0.743   6.829   6.638
 5413SOL    HW217139   0.894   6.821   6.699
 5414SOL     OW17140   6.271   4.511   5.097
 5414SOL    HW117141   6.329   4.570   5.154
 5414SOL    HW217142   6.204   4.464   5.155
 5415SOL     OW17143   2.959   6.395   0.531
 5415SOL    HW117144   3.005   6.410   0.619
 5415SOL    HW217145   2.960   6.298   0.509
 5416SOL     OW17146   2.641   4.795   5.178
 5416SOL    HW117147   2.560   4.736   5.167
 5416SOL    HW217148   2.720   4.750   5.134
 5417SOL     OW17149   3.991   0.259   4.861
 5417SOL    HW117150   3.923   0.237   4.792
 5417SOL    HW217151   3.991   0.189   4.932
 5418SOL     OW17152   5.300   5.836   4.808
 5418SOL    HW117153   5.250   5.893   4.875
 5418SOL    HW217154   5.235   5.781   4.757
 5419SOL     OW17155   4.034   6.084   0.414
 5419SOL    HW117156   4.091   6.036   0.481
 5419SOL    HW217157   3.967   6.021   0.376
 5420SOL     OW17158   2.443   1.620   0.576
 5420SOL    HW117159   2.519   1.659   0.525
 5420SOL    HW217160   2.362   1.679   0.567
 5421SOL     OW17161   3.454   5.119   1.647
 5421SOL    HW117162   3.461   5.203   1.700
 5421SOL    HW217163   3.418   5.139   1.557
 5422SOL     OW17164   1.786   5.532   4.767
 5422SOL    HW117165   1.744   5.481   4.692
 5422SOL    HW217166   1.877   5.494   4.786
 5423SOL     OW17167   5.720   5.125   0.371
 5423SOL    HW117168   5.633   5.136   0.420
 5423SOL    HW217169   5.706   5.063   0.293
 5424SOL     OW17170   5.019   4.128   4.116
 5424SOL    HW117171   5.100   4.147   4.061
 5424SOL    HW217172   5.047   4.098   4.207
 5425SOL     OW17173   6.507   2.602   4.596
 5425SOL    HW117174   6.501   2.673   4.666
 5425SOL    HW217175   6.418   2.593   4.551
 5426SOL     OW17176   4.295   5.478   2.386
 5426SOL    HW117177   4.240   5.424   2.322
 5426SOL    HW217178   4.250   5.565   2.404
 5427SOL     OW17179   5.349   2.823   0.337
 5427SOL    HW117180   5.361   2.730   0.300
 5427SOL    HW217181   5.426   2.880   0.308
 5428SOL     OW17182   4.946   6.667   2.329
 5428SOL    HW117183   4.918   6.761   2.311
 5428SOL    HW217184   4.961   6.619   2.243
 5429SOL     OW17185   1.642   6.942   5.087
 5429SOL    HW117186   1.716   6.874   5.093
 5429SOL    HW217187   1.601   6.955   5.177
 5430SOL     OW17188   1.936   2.809   4.925
 5430SOL    HW117189   2.032   2.789   4.945
 5430SOL    HW217190   1.888   2.827   5.011
 5431SOL     OW17191   3.353   3.808   6.548
 5431SOL    HW117192   3.299   3.755   6.613
 5431SOL    HW217193   3.333   3.906   6.559
 5432SOL     OW17194   4.733   5.496   6.361
 5432SOL    HW117195   4.811   5.545   6.399
 5432SOL    HW217196   4.649   5.545   6.385
 5433SOL     OW17197   1.069   6.967   1.245
 5433SOL    HW117198   1.125   0.009   1.304
 5433SOL    HW217199   0.973   6.970   1.276
 5434SOL     OW17200   4.542   1.141   4.560
 5434SOL    HW117201   4.465   1.119   4.620
 5434SOL    HW217202   4.534   1.089   4.475
 5435SOL     OW17203   6.295   3.821   0.749
 5435SOL    HW117204   6.225   3.824   0.821
 5435SOL    HW217205   6.334   3.729   0.744
 5436SOL     OW17206   6.430   4.524   3.971
 5436SOL    HW117207   6.407   4.437   4.016
 5436SOL    HW217208   6.365   4.594   3.999
 5437SOL     OW17209   3.639   5.154   5.524
 5437SOL    HW117210   3.576   5.082   5.553
 5437SOL    HW217211   3.606   5.242   5.557
 5438SOL     OW17212   4.811   5.231   2.155
 5438SOL    HW117213   4.813   5.259   2.059
 5438SOL    HW217214   4.779   5.136   2.161
 5439SOL     OW17215   0.795   3.562   6.965
 5439SOL    HW117216   0.729   3.632   6.992
 5439SOL    HW217217   0.747   3.477   6.945
 5440SOL     OW17218   6.232   6.629   4.206
 5440SOL    HW117219   6.292   6.574   4.148
 5440SOL    HW217220   6.285   6.670   4.280
 5441SOL     OW17221   5.258   3.314   3.096
 5441SOL    HW117222   5.254   3.255   3.178
 5441SOL    HW217223   5.235   3.260   3.015
 5442SOL     OW17224   4.461   6.934   3.347
 5442SOL    HW117225   4.421   6.843   3.356
 5442SOL    HW217226   4.501   6.962   3.434
 5443SOL     OW17227   4.497   6.311   3.949
 5443SOL    HW117228   4.593   6.285   3.945
 5443SOL    HW217229   4.471   6.354   3.863
 5444SOL     OW17230   6.645   1.130   4.156
 5444SOL    HW117231   6.632   1.229   4.164
 5444SOL    HW217232   6.679   1.108   4.065
 5445SOL     OW17233   5.582   4.558   3.355
 5445SOL    HW117234   5.507   4.493   3.340
 5445SOL    HW217235   5.609   4.556   3.451
 5446SOL     OW17236   5.880   4.842   4.553
 5446SOL    HW117237   5.974   4.871   4.537
 5446SOL    HW217238   5.852   4.865   4.646
 5447SOL     OW17239   1.720   1.598   1.273
 5447SOL    HW117240   1.715   1.539   1.353
 5447SOL    HW217241   1.721   1.541   1.190
 5448SOL     OW17242   4.684   4.786   3.785
 5448SOL    HW117243   4.740   4.839   3.849
 5448SOL    HW217244   4.738   4.710   3.748
 5449SOL     OW17245   2.228   0.930   1.443
 5449SOL    HW117246   2.288   0.931   1.364
 5449SOL    HW217247   2.235   1.017   1.492
 5450SOL     OW17248   3.304   6.539   1.404
 5450SOL    HW117249   3.297   6.464   1.469
 5450SOL    HW217250   3.388   6.528   1.349
 5451SOL     OW17251   1.462   6.123   3.812
 5451SOL    HW117252   1.536   6.088   3.753
 5451SOL    HW217253   1.374   6.100   3.771
 5452SOL     OW17254   2.503   4.474   1.402
 5452SOL    HW117255   2.450   4.389   1.403
 5452SOL    HW217256   2.469   4.535   1.473
 5453SOL     OW17257   5.480   4.070   1.988
 5453SOL    HW117258   5.423   4.075   2.071
 5453SOL    HW217259   5.433   4.115   1.913
 5454SOL     OW17260   5.491   5.784   1.459
 5454SOL    HW117261   5.551   5.713   1.495
 5454SOL    HW217262   5.456   5.840   1.535
 5455SOL     OW17263   0.231   2.057   3.672
 5455SOL    HW117264   0.192   1.988   3.733
 5455SOL    HW217265   0.168   2.073   3.595
 5456SOL     OW17266   3.316   1.683   6.374
 5456SOL    HW117267   3.340   1.780   6.371
 5456SOL    HW217268   3.393   1.628   6.341
 5457SOL     OW17269   6.900   2.024   0.949
 5457SOL    HW117270   6.895   1.972   0.864
 5457SOL    HW217271   6.995   2.049   0.968
 5458SOL     OW17272   6.983   4.548   0.820
 5458SOL    HW117273   6.887   4.520   0.816
 5458SOL    HW217274   7.001   4.590   0.909
 5459SOL     OW17275   2.248   5.125   4.784
 5459SOL    HW117276   2.204   5.070   4.855
 5459SOL    HW217277   2.329   5.170   4.822
 5460SOL     OW17278   2.784   6.974   2.220
 5460SOL    HW117279   2.821   6.924   2.298
 5460SOL    HW217280   2.859   7.013   2.167
 5461SOL     OW17281   0.958   1.160   4.667
 5461SOL    HW117282   0.965   1.061   4.682
 5461SOL    HW217283   0.880   1.179   4.607
 5462SOL     OW17284   5.185   6.019   6.371
 5462SOL    HW117285   5.175   5.922   6.350
 5462SOL    HW217286   5.121   6.044   6.444
 5463SOL     OW17287   0.383   1.505   6.826
 5463SOL    HW117288   0.401   1.411   6.799
 5463SOL    HW217289   0.330   1.506   6.911
 5464SOL     OW17290   6.089   6.161   5.250
 5464SOL    HW117291   6.176   6.193   5.286
 5464SOL    HW217292   6.097   6.143   5.152
 5465SOL     OW17293   6.831   0.280   3.112
 5465SOL    HW117294   6.890   0.355   3.139
 5465SOL    HW217295   6.741   0.291   3.155
 5466SOL     OW17296   6.388   2.682   5.791
 5466SOL    HW117297   6.395   2.646   5.884
 5466SOL    HW217298   6.398   2.781   5.793
 5467SOL     OW17299   5.528   3.968   2.917
 5467SOL    HW117300   5.609   4.011   2.877
 5467SOL    HW217301   5.519   3.875   2.883
 5468SOL     OW17302   7.009   2.495   4.572
 5468SOL    HW117303   6.910   2.488   4.556
 5468SOL    HW217304   0.042   2.441   4.503
 5469SOL     OW17305   3.389   5.919   5.921
 5469SOL    HW117306   3.363   5.919   6.018
 5469SOL    HW217307   3.440   5.835   5.901
 5470SOL     OW17308   3.606   5.152   4.124
 5470SOL    HW117309   3.626   5.107   4.037
 5470SOL    HW217310   3.687   5.148   4.183
 5471SOL     OW17311   5.511   0.520   2.143
 5471SOL    HW117312   5.573   0.582   2.191
 5471SOL    HW217313   5.486   0.444   2.203
 5472SOL     OW17314   3.056   3.885   6.891
 5472SOL    HW117315   3.104   3.928   6.967
 5472SOL    HW217316   3.085   3.926   6.805
 5473SOL     OW17317   1.743   3.421   0.350
 5473SOL    HW117318   1.689   3.488   0.301
 5473SOL    HW217319   1.708   3.411   0.443
 5474SOL     OW17320   0.740   5.808   4.417
 5474SOL    HW117321   0.792   5.726   4.444
 5474SOL    HW217322   0.660   5.781   4.364
 5475SOL     OW17323   1.506   1.793   0.682
 5475SOL    HW117324   1.592   1.844   0.694
 5475SOL    HW217325   1.479   1.752   0.770
 5476SOL     OW17326   2.191   4.889   5.195
 5476SOL    HW117327   2.140   4.836   5.127
 5476SOL    HW217328   2.216   4.830   5.272
 5477SOL     OW17329   2.056   3.749   3.364
 5477SOL    HW117330   2.091   3.681   3.428
 5477SOL    HW217331   2.057   3.712   3.271
 5478SOL     OW17332   4.630   6.469   5.504
 5478SOL    HW117333   4.667   6.548   5.456
 5478SOL    HW217334   4.656   6.385   5.456
 5479SOL     OW17335   4.312   1.661   4.731
 5479SOL    HW117336   4.231   1.606   4.752
 5479SOL    HW217337   4.392   1.602   4.725
 5480SOL     OW17338   5.656   4.882   4.998
 5480SOL    HW117339   5.590   4.953   4.973
 5480SOL    HW217340   5.608   4.801   5.030
 5481SOL     OW17341   4.848   1.295   4.738
 5481SOL    HW117342   4.920   1.291   4.808
 5481SOL    HW217343   4.795   1.379   4.749
 5482SOL     OW17344   3.840   4.013   2.568
 5482SOL    HW117345   3.846   3.940   2.501
 5482SOL    HW217346   3.758   4.069   2.551
 5483SOL     OW17347   0.061   1.818   5.250
 5483SOL    HW117348   0.147   1.843   5.203
 5483SOL    HW217349   0.009   1.755   5.192
 5484SOL     OW17350   6.009   0.763   3.824
 5484SOL    HW117351   6.075   0.689   3.821
 5484SOL    HW217352   5.947   0.749   3.903
 5485SOL     OW17353   2.998   0.093   4.876
 5485SOL    HW117354   3.007   0.176   4.820
 5485SOL    HW217355   3.018   0.115   4.971
 5486SOL     OW17356   1.502   6.222   4.574
 5486SOL    HW117357   1.419   6.166   4.576
 5486SOL    HW217358   1.529   6.245   4.668
 5487SOL     OW17359   5.349   3.067   6.401
 5487SOL    HW117360   5.314   2.980   6.433
 5487SOL    HW217361   5.323   3.139   6.465
 5488SOL     OW17362   5.113   1.187   1.263
 5488SOL    HW117363   5.147   1.239   1.184
 5488SOL    HW217364   5.160   1.218   1.346
 5489SOL     OW17365   0.941   4.771   0.993
 5489SOL    HW117366   1.031   4.731   0.977
 5489SOL    HW217367   0.888   4.769   0.908
 5490SOL     OW17368   3.552   0.339   0.999
 5490SOL    HW117369   3.485   0.269   0.973
 5490SOL    HW217370   3.631   0.335   0.938
 5491SOL     OW17371   2.100   3.624   6.615
 5491SOL    HW117372   2.087   3.527   6.634
 5491SOL    HW217373   2.077   3.643   6.519
 5492SOL     OW17374   0.773   1.896   6.754
 5492SOL    HW117375   0.790   1.854   6.665
 5492SOL    HW217376   0.789   1.829   6.826
 5493SOL     OW17377   4.021   3.633   4.169
 5493SOL    HW117378   4.068   3.620   4.082
 5493SOL    HW217379   3.991   3.544   4.205
 5494SOL     OW17380   6.750   2.698   6.792
 5494SOL    HW117381   6.830   2.700   6.732
 5494SOL    HW217382   6.667   2.689   6.737
 5495SOL     OW17383   3.931   2.440   1.399
 5495SOL    HW117384   3.945   2.371   1.327
 5495SOL    HW217385   3.929   2.394   1.488
 5496SOL     OW17386   2.761   0.173   3.615
 5496SOL    HW117387   2.760   0.262   3.660
 5496SOL    HW217388   2.789   0.185   3.520
 5497SOL     OW17389   0.222   2.381   3.999
 5497SOL    HW117390   0.272   2.309   4.047
 5497SOL    HW217391   0.133   2.394   4.043
 5498SOL     OW17392   5.092   6.731   1.487
 5498SOL    HW117393   5.025   6.656   1.487
 5498SOL    HW217394   5.179   6.698   1.451
 5499SOL     OW17395   0.386   1.091   3.948
 5499SOL    HW117396   0.391   1.003   3.995
 5499SOL    HW217397   0.447   1.156   3.993
 5500SOL     OW17398   1.766   0.096   0.053
 5500SOL    HW117399   1.696   0.164   0.069
 5500SOL    HW217400   1.751   0.053   6.979
 5501SOL     OW17401   3.777   0.177   0.885
 5501SOL    HW117402   3.852   0.242   0.899
 5501SOL    HW217403   3.809   0.085   0.909
 5502SOL     OW17404   5.649   4.023   6.947
 5502SOL    HW117405   5.699   3.996   0.014
 5502SOL    HW217406   5.562   3.974   6.943
 5503SOL     OW17407   6.793   5.548   3.831
 5503SOL    HW117408   6.790   5.587   3.923
 5503SOL    HW217409   6.700   5.521   3.803
 5504SOL     OW17410   4.130   1.447   4.831
 5504SOL    HW117411   4.176   1.377   4.775
 5504SOL    HW217412   4.146   1.427   4.927
 5505SOL     OW17413   1.745   5.410   4.485
 5505SOL    HW117414   1.689   5.340   4.442
 5505SOL    HW217415   1.710   5.501   4.462
 5506SOL     OW17416   1.251   1.765   6.026
 5506SOL    HW117417   1.309   1.750   6.105
 5506SOL    HW217418   1.285   1.843   5.973
 5507SOL     OW17419   2.471   0.238   3.412
 5507SOL    HW117420   2.483   0.281   3.502
 5507SOL    HW217421   2.415   0.156   3.421
 5508SOL     OW17422   2.093   1.069   6.678
 5508SOL    HW117423   2.106   1.059   6.777
 5508SOL    HW217424   2.068   0.981   6.639
 5509SOL     OW17425   1.149   6.271   0.973
 5509SOL    HW117426   1.058   6.232   0.959
 5509SOL    HW217427   1.149   6.326   1.057
 5510SOL     OW17428   5.151   6.348   0.799
 5510SOL    HW117429   5.222   6.280   0.818
 5510SOL    HW217430   5.067   6.301   0.773
 5511SOL     OW17431   2.565   0.652   4.128
 5511SOL    HW117432   2.589   0.561   4.162
 5511SOL    HW217433   2.591   0.721   4.195
 5512SOL     OW17434   5.782   2.129   1.519
 5512SOL    HW117435   5.879   2.142   1.537
 5512SOL    HW217436   5.729   2.186   1.582
 5513SOL     OW17437   4.071   4.503   6.097
 5513SOL    HW117438   4.148   4.463   6.048
 5513SOL    HW217439   3.989   4.499   6.039
 5514SOL     OW17440   4.775   6.369   2.433
 5514SOL    HW117441   4.761   6.467   2.416
 5514SOL    HW217442   4.738   6.345   2.522
 5515SOL     OW17443   0.084   4.844   1.490
 5515SOL    HW117444   0.037   4.759   1.513
 5515SOL    HW217445   0.127   4.836   1.400
 5516SOL     OW17446   1.366   3.764   6.364
 5516SOL    HW117447   1.382   3.719   6.452
 5516SOL    HW217448   1.442   3.743   6.302
 5517SOL     OW17449   1.961   3.241   2.176
 5517SOL    HW117450   2.022   3.270   2.102
 5517SOL    HW217451   2.015   3.213   2.255
 5518SOL     OW17452   5.917   6.536   6.273
 5518SOL    HW117453   5.940   6.438   6.271
 5518SOL    HW217454   5.915   6.572   6.180
 5519SOL     OW17455   5.426   3.154   2.815
 5519SOL    HW117456   5.410   3.058   2.836
 5519SOL    HW217457   5.338   3.200   2.799
 5520SOL     OW17458   6.787   5.516   2.249
 5520SOL    HW117459   6.719   5.449   2.278
 5520SOL    HW217460   6.746   5.579   2.183
 5521SOL     OW17461   4.524   6.789   1.572
 5521SOL    HW117462   4.537   6.762   1.667
 5521SOL    HW217463   4.497   6.886   1.568
 5522SOL     OW17464   0.317   5.202   0.899
 5522SOL    HW117465   0.344   5.207   0.803
 5522SOL    HW217466   0.397   5.215   0.957
 5523SOL     OW17467   3.740   0.006   1.987
 5523SOL    HW117468   3.683   0.078   1.947
 5523SOL    HW217469   3.765   0.031   2.080
 5524SOL     OW17470   5.277   5.194   5.075
 5524SOL    HW117471   5.303   5.291   5.072
 5524SOL    HW217472   5.177   5.186   5.074
 5525SOL     OW17473   6.737   2.986   6.809
 5525SOL    HW117474   6.714   2.898   6.849
 5525SOL    HW217475   6.836   2.999   6.810
 5526SOL     OW17476   5.320   4.708   4.829
 5526SOL    HW117477   5.408   4.681   4.790
 5526SOL    HW217478   5.283   4.631   4.881
 5527SOL     OW17479   6.700   3.804   4.592
 5527SOL    HW117480   6.780   3.751   4.563
 5527SOL    HW217481   6.716   3.840   4.684
 5528SOL     OW17482   1.167   2.101   7.015
 5528SOL    HW117483   1.075   2.125   0.029
 5528SOL    HW217484   1.170   2.096   6.915
 5529SOL     OW17485   1.880   0.441   4.370
 5529SOL    HW117486   1.805   0.375   4.367
 5529SOL    HW217487   1.929   0.439   4.283
 5530SOL     OW17488   6.925   2.456   2.139
 5530SOL    HW117489   6.833   2.416   2.141
 5530SOL    HW217490   6.952   2.471   2.044
 5531SOL     OW17491   3.962   3.087   2.567
 5531SOL    HW117492   4.032   3.145   2.608
 5531SOL    HW217493   3.897   3.058   2.638
 5532SOL     OW17494   1.363   2.156   0.560
 5532SOL    HW117495   1.367   2.068   0.513
 5532SOL    HW217496   1.269   2.190   0.560
 5533SOL     OW17497   3.473   0.794   3.307
 5533SOL    HW117498   3.543   0.790   3.378
 5533SOL    HW217499   3.512   0.835   3.224
 5534SOL     OW17500   0.601   1.500   5.828
 5534SOL    HW117501   0.513   1.543   5.846
 5534SOL    HW217502   0.667   1.530   5.897
 5535SOL     OW17503   0.517   3.389   4.428
 5535SOL    HW117504   0.575   3.320   4.473
 5535SOL    HW217505   0.572   3.470   4.408
 5536SOL     OW17506   2.723   1.018   4.401
 5536SOL    HW117507   2.790   1.017   4.475
 5536SOL    HW217508   2.716   0.927   4.361
 5537SOL     OW17509   2.671   0.665   3.561
 5537SOL    HW117510   2.593   0.702   3.511
 5537SOL    HW217511   2.647   0.577   3.601
 5538SOL     OW17512   3.076   0.315   5.439
 5538SOL    HW117513   3.055   0.353   5.348
 5538SOL    HW217514   3.169   0.281   5.440
 5539SOL     OW17515   1.651   3.199   0.195
 5539SOL    HW117516   1.620   3.253   0.117
 5539SOL    HW217517   1.692   3.260   0.263
 5540SOL     OW17518   5.839   3.974   3.438
 5540SOL    HW117519   5.769   3.918   3.483
 5540SOL    HW217520   5.901   4.012   3.506
 5541SOL     OW17521   5.806   0.805   6.215
 5541SOL    HW117522   5.771   0.872   6.279
 5541SOL    HW217523   5.903   0.823   6.197
 5542SOL     OW17524   6.649   5.326   6.444
 5542SOL    HW117525   6.588   5.294   6.517
 5542SOL    HW217526   6.697   5.408   6.474
 5543SOL     OW17527   3.471   5.286   5.919
 5543SOL    HW117528   3.446   5.271   6.015
 5543SOL    HW217529   3.451   5.203   5.866
 5544SOL     OW17530   5.525   6.435   5.925
 5544SOL    HW117531   5.616   6.472   5.943
 5544SOL    HW217532   5.479   6.492   5.856
 5545SOL     OW17533   4.133   1.561   3.007
 5545SOL    HW117534   4.036   1.575   2.990
 5545SOL    HW217535   4.179   1.650   3.013
 5546SOL     OW17536   0.928   6.706   4.727
 5546SOL    HW117537   0.933   6.768   4.805
 5546SOL    HW217538   0.832   6.689   4.705
 5547SOL     OW17539   3.477   0.606   4.171
 5547SOL    HW117540   3.416   0.639   4.099
 5547SOL    HW217541   3.443   0.636   4.260
 5548SOL     OW17542   5.507   3.709   5.450
 5548SOL    HW117543   5.473   3.789   5.400
 5548SOL    HW217544   5.531   3.637   5.385
 5549SOL     OW17545   4.826   4.002   0.614
 5549SOL    HW117546   4.818   4.102   0.612
 5549SOL    HW217547   4.822   3.971   0.709
 5550SOL     OW17548   2.517   4.826   2.389
 5550SOL    HW117549   2.420   4.840   2.369
 5550SOL    HW217550   2.545   4.889   2.461
 5551SOL     OW17551   2.262   5.578   3.252
 5551SOL    HW117552   2.168   5.546   3.245
 5551SOL    HW217553   2.266   5.676   3.236
 5552SOL     OW17554   6.508   0.476   6.804
 5552SOL    HW117555   6.467   0.481   6.713
 5552SOL    HW217556   6.438   0.448   6.870
 5553SOL     OW17557   4.978   6.625   0.394
 5553SOL    HW117558   4.933   6.543   0.429
 5553SOL    HW217559   4.987   6.692   0.467
 5554SOL     OW17560   4.445   1.691   6.041
 5554SOL    HW117561   4.500   1.760   6.088
 5554SOL    HW217562   4.363   1.735   6.002
 5555SOL     OW17563   1.596   4.180   3.800
 5555SOL    HW117564   1.677   4.231   3.831
 5555SOL    HW217565   1.624   4.089   3.769
 5556SOL     OW17566   6.744   1.413   3.282
 5556SOL    HW117567   6.771   1.491   3.226
 5556SOL    HW217568   6.753   1.437   3.378
 5557SOL     OW17569   3.391   6.692   3.062
 5557SOL    HW117570   3.317   6.726   3.005
 5557SOL    HW217571   3.377   6.595   3.081
 5558SOL     OW17572   4.113   3.404   5.947
 5558SOL    HW117573   4.056   3.334   5.904
 5558SOL    HW217574   4.069   3.493   5.938
 5559SOL     OW17575   1.617   0.287   2.124
 5559SOL    HW117576   1.529   0.320   2.091
 5559SOL    HW217577   1.666   0.361   2.169
 5560SOL     OW17578   1.024   6.438   2.060
 5560SOL    HW117579   0.950   6.505   2.053
 5560SOL    HW217580   1.051   6.429   2.156
 5561SOL     OW17581   0.885   1.786   3.789
 5561SOL    HW117582   0.836   1.822   3.710
 5561SOL    HW217583   0.871   1.687   3.796
 5562SOL     OW17584   3.807   2.326   6.828
 5562SOL    HW117585   3.893   2.334   6.879
 5562SOL    HW217586   3.812   2.381   6.744
 5563SOL     OW17587   4.024   5.479   2.198
 5563SOL    HW117588   3.974   5.402   2.238
 5563SOL    HW217589   3.976   5.511   2.116
 5564SOL     OW17590   4.513   0.650   1.350
 5564SOL    HW117591   4.526   0.571   1.291
 5564SOL    HW217592   4.429   0.640   1.402
 5565SOL     OW17593   4.485   1.663   6.336
 5565SOL    HW117594   4.388   1.642   6.322
 5565SOL    HW217595   4.505   1.661   6.434
 5566SOL     OW17596   1.345   5.050   6.942
 5566SOL    HW117597   1.432   5.062   6.894
 5566SOL    HW217598   1.307   4.960   6.920
 5567SOL     OW17599   0.283   2.907   1.252
 5567SOL    HW117600   0.320   2.887   1.343
 5567SOL    HW217601   0.185   2.924   1.259
 5568SOL     OW17602   4.112   1.780   4.069
 5568SOL    HW117603   4.172   1.850   4.108
 5568SOL    HW217604   4.152   1.689   4.086
 5569SOL     OW17605   1.403   1.577   2.818
 5569SOL    HW117606   1.332   1.507   2.819
 5569SOL    HW217607   1.489   1.537   2.786
 5570SOL     OW17608   6.317   4.722   4.478
 5570SOL    HW117609   6.368   4.671   4.409
 5570SOL    HW217610   6.275   4.657   4.542
 5571SOL     OW17611   6.897   5.837   0.849
 5571SOL    HW117612   6.889   5.863   0.753
 5571SOL    HW217613   6.809   5.849   0.894
 5572SOL     OW17614   1.227   2.039   5.394
 5572SOL    HW117615   1.203   1.942   5.391
 5572SOL    HW217616   1.250   2.065   5.488
 5573SOL     OW17617   2.176   4.248   5.524
 5573SOL    HW117618   2.248   4.290   5.579
 5573SOL    HW217619   2.189   4.149   5.522
 5574SOL     OW17620   6.558   1.893   2.694
 5574SOL    HW117621   6.647   1.846   2.694
 5574SOL    HW217622   6.508   1.869   2.611
 5575SOL     OW17623   6.969   1.136   0.967
 5575SOL    HW117624   6.926   1.218   1.006
 5575SOL    HW217625   6.920   1.109   0.884
 5576SOL     OW17626   1.458   5.258   1.971
 5576SOL    HW117627   1.384   5.212   2.021
 5576SOL    HW217628   1.512   5.313   2.035
 5577SOL     OW17629   2.705   3.513   5.333
 5577SOL    HW117630   2.729   3.416   5.330
 5577SOL    HW217631   2.756   3.562   5.262
 5578SOL     OW17632   3.435   3.895   0.577
 5578SOL    HW117633   3.421   3.800   0.547
 5578SOL    HW217634   3.512   3.935   0.525
 5579SOL     OW17635   1.122   3.565   5.952
 5579SOL    HW117636   1.028   3.564   5.919
 5579SOL    HW217637   1.170   3.483   5.920
 5580SOL     OW17638   5.112   2.752   5.911
 5580SOL    HW117639   5.130   2.656   5.935
 5580SOL    HW217640   5.174   2.781   5.839
 5581SOL     OW17641   1.711   0.141   2.368
 5581SOL    HW117642   1.648   0.201   2.320
 5581SOL    HW217643   1.704   0.049   2.331
 5582SOL     OW17644   3.199   3.644   4.477
 5582SOL    HW117645   3.207   3.739   4.505
 5582SOL    HW217646   3.106   3.611   4.496
 5583SOL     OW17647   3.946   0.450   2.448
 5583SOL    HW117648   4.015   0.441   2.376
 5583SOL    HW217649   3.993   0.461   2.536
 5584SOL     OW17650   5.795   4.317   3.992
 5584SOL    HW117651   5.814   4.415   4.003
 5584SOL    HW217652   5.834   4.285   3.906
 5585SOL     OW17653   4.780   6.241   3.939
 5585SOL    HW117654   4.841   6.248   4.017
 5585SOL    HW217655   4.754   6.145   3.925
 5586SOL     OW17656   6.900   2.352   6.749
 5586SOL    HW117657   6.942   2.442   6.743
 5586SOL    HW217658   6.963   2.289   6.795
 5587SOL     OW17659   3.933   5.821   2.728
 5587SOL    HW117660   3.969   5.874   2.651
 5587SOL    HW217661   3.834   5.837   2.736
 5588SOL     OW17662   2.125   6.245   2.869
 5588SOL    HW117663   2.147   6.293   2.954
 5588SOL    HW217664   2.179   6.160   2.864
 5589SOL     OW17665   6.013   3.950   5.431
 5589SOL    HW117666   5.928   3.904   5.403
 5589SOL    HW217667   6.047   4.006   5.355
 5590SOL     OW17668   6.320   5.662   4.384
 5590SOL    HW117669   6.284   5.599   4.316
 5590SOL    HW217670   6.277   5.752   4.373
 5591SOL     OW17671   5.321   1.386   0.240
 5591SOL    HW117672   5.412   1.418   0.266
 5591SOL    HW217673   5.330   1.315   0.171
 5592SOL     OW17674   6.711   4.956   2.925
 5592SOL    HW117675   6.796   4.908   2.946
 5592SOL    HW217676   6.649   4.895   2.876
 5593SOL     OW17677   0.079   3.026   6.544
 5593SOL    HW117678   0.073   3.095   6.472
 5593SOL    HW217679   0.040   3.062   6.629
 5594SOL     OW17680   3.530   0.665   6.615
 5594SOL    HW117681   3.577   0.584   6.651
 5594SOL    HW217682   3.596   0.739   6.603
 5595SOL     OW17683   6.539   0.433   5.497
 5595SOL    HW117684   6.579   0.354   5.452
 5595SOL    HW217685   6.448   0.452   5.459
 5596SOL     OW17686   4.824   0.498   3.036
 5596SOL    HW117687   4.806   0.596   3.022
 5596SOL    HW217688   4.744   0.445   3.006
 5597SOL     OW17689   6.028   2.471   5.680
 5597SOL    HW117690   6.100   2.520   5.730
 5597SOL    HW217691   5.959   2.537   5.650
 5598SOL     OW17692   5.915   3.329   4.067
 5598SOL    HW117693   5.897   3.337   3.969
 5598SOL    HW217694   5.977   3.403   4.095
 5599SOL     OW17695   0.984   3.048   1.785
 5599SOL    HW117696   1.072   3.000   1.783
 5599SOL    HW217697   0.978   3.108   1.705
 5600SOL     OW17698   2.154   0.441   2.545
 5600SOL    HW117699   2.076   0.422   2.486
 5600SOL    HW217700   2.235   0.394   2.511
 5601SOL     OW17701   2.514   1.331   6.255
 5601SOL    HW117702   2.554   1.383   6.180
 5601SOL    HW217703   2.565   1.349   6.339
 5602SOL     OW17704   0.160   0.497   1.910
 5602SOL    HW117705   0.076   0.518   1.960
 5602SOL    HW217706   0.155   0.536   1.818
 5603SOL     OW17707   5.655   2.376   0.287
 5603SOL    HW117708   5.732   2.438   0.271
 5603SOL    HW217709   5.659   2.341   0.380
 5604SOL     OW17710   6.378   2.606   5.112
 5604SOL    HW117711   6.350   2.605   5.016
 5604SOL    HW217712   6.396   2.513   5.142
 5605SOL     OW17713   0.596   0.980   4.549
 5605SOL    HW117714   0.680   0.949   4.505
 5605SOL    HW217715   0.580   0.927   4.633
 5606SOL     OW17716   5.315   0.247   0.925
 5606SOL    HW117717   5.236   0.214   0.873
 5606SOL    HW217718   5.393   0.186   0.910
 5607SOL     OW17719   5.820   1.317   3.927
 5607SOL    HW117720   5.916   1.289   3.925
 5607SOL    HW217721   5.777   1.278   4.009
 5608SOL     OW17722   6.854   0.980   2.852
 5608SOL    HW117723   6.761   0.947   2.835
 5608SOL    HW217724   6.851   1.073   2.888
 5609SOL     OW17725   4.273   5.433   2.038
 5609SOL    HW117726   4.199   5.473   2.092
 5609SOL    HW217727   4.244   5.425   1.943
 5610SOL     OW17728   5.124   4.723   1.594
 5610SOL    HW117729   5.050   4.657   1.599
 5610SOL    HW217730   5.098   4.799   1.534
 5611SOL     OW17731   0.851   5.198   3.438
 5611SOL    HW117732   0.930   5.249   3.471
 5611SOL    HW217733   0.771   5.220   3.495
 5612SOL     OW17734   4.534   2.939   6.296
 5612SOL    HW117735   4.594   2.984   6.362
 5612SOL    HW217736   4.448   2.913   6.341
 5613SOL     OW17737   5.353   5.727   5.144
 5613SOL    HW117738   5.285   5.798   5.161
 5613SOL    HW217739   5.393   5.741   5.053
 5614SOL     OW17740   5.221   2.832   4.748
 5614SOL    HW117741   5.236   2.897   4.673
 5614SOL    HW217742   5.296   2.767   4.752
 5615SOL     OW17743   6.563   1.424   4.162
 5615SOL    HW117744   6.536   1.417   4.258
 5615SOL    HW217745   6.549   1.518   4.131
 5616SOL     OW17746   2.468   2.390   5.314
 5616SOL    HW117747   2.484   2.371   5.410
 5616SOL    HW217748   2.419   2.477   5.305
 5617SOL     OW17749   2.257   5.033   5.646
 5617SOL    HW117750   2.299   5.117   5.613
 5617SOL    HW217751   2.170   5.018   5.600
 5618SOL     OW17752   6.836   4.877   4.173
 5618SOL    HW117753   6.752   4.921   4.206
 5618SOL    HW217754   6.904   4.876   4.246
 5619SOL     OW17755   4.079   3.749   4.517
 5619SOL    HW117756   4.162   3.696   4.497
 5619SOL    HW217757   4.063   3.815   4.444
 5620SOL     OW17758   4.072   3.883   6.905
 5620SOL    HW117759   4.049   3.790   6.874
 5620SOL    HW217760   4.055   3.948   6.832
 5621SOL     OW17761   1.643   2.966   6.965
 5621SOL    HW117762   1.645   2.866   6.957
 5621SOL    HW217763   1.601   2.992   0.036
 5622SOL     OW17764   3.986   0.296   6.000
 5622SOL    HW117765   4.046   0.305   5.921
 5622SOL    HW217766   4.023   0.228   6.063
 5623SOL     OW17767   4.833   6.404   4.764
 5623SOL    HW117768   4.803   6.498   4.745
 5623SOL    HW217769   4.912   6.382   4.706
 5624SOL     OW17770   0.427   4.428   3.841
 5624SOL    HW117771   0.449   4.491   3.766
 5624SOL    HW217772   0.329   4.431   3.860
 5625SOL     OW17773   0.187   6.684   5.741
 5625SOL    HW117774   0.262   6.635   5.784
 5625SOL    HW217775   0.165   6.642   5.653
 5626SOL     OW17776   2.745   6.423   4.104
 5626SOL    HW117777   2.747   6.345   4.167
 5626SOL    HW217778   2.721   6.392   4.012
 5627SOL     OW17779   0.651   5.445   6.604
 5627SOL    HW117780   0.564   5.433   6.653
 5627SOL    HW217781   0.643   5.522   6.541
 5628SOL     OW17782   1.842   2.951   1.736
 5628SOL    HW117783   1.822   2.894   1.816
 5628SOL    HW217784   1.851   2.893   1.655
 5629SOL     OW17785   4.362   3.143   1.741
 5629SOL    HW117786   4.432   3.085   1.781
 5629SOL    HW217787   4.394   3.238   1.740
 5630SOL     OW17788   2.038   4.018   6.632
 5630SOL    HW117789   2.020   3.940   6.693
 5630SOL    HW217790   2.111   4.074   6.671
 5631SOL     OW17791   4.746   1.451   2.098
 5631SOL    HW117792   4.839   1.464   2.133
 5631SOL    HW217793   4.729   1.354   2.084
 5632SOL     OW17794   2.940   2.511   5.582
 5632SOL    HW117795   3.024   2.527   5.632
 5632SOL    HW217796   2.954   2.438   5.515
 5633SOL     OW17797   5.842   4.861   4.263
 5633SOL    HW117798   5.911   4.797   4.228
 5633SOL    HW217799   5.846   4.862   4.363
 5634SOL     OW17800   1.756   4.999   3.906
 5634SOL    HW117801   1.831   4.938   3.932
 5634SOL    HW217802   1.771   5.033   3.813
 5635SOL     OW17803   1.657   6.261   6.958
 5635SOL    HW117804   1.703   6.326   6.898
 5635SOL    HW217805   1.573   6.302   6.994
 5636SOL     OW17806   5.279   6.887   4.975
 5636SOL    HW117807   5.271   6.803   4.921
 5636SOL    HW217808   5.366   6.932   4.953
 5637SOL     OW17809   4.738   6.566   3.117
 5637SOL    HW117810   4.724   6.622   3.199
 5637SOL    HW217811   4.755   6.471   3.143
 5638SOL     OW17812   6.871   3.568   1.034
 5638SOL    HW117813   6.876   3.667   1.045
 5638SOL    HW217814   6.961   3.532   1.010
 5639SOL     OW17815   2.322   0.156   2.175
 5639SOL    HW117816   2.240   0.153   2.231
 5639SOL    HW217817   2.352   0.251   2.163
 5640SOL     OW17818   3.332   0.653   2.583
 5640SOL    HW117819   3.388   0.577   2.550
 5640SOL    HW217820   3.317   0.643   2.682
 5641SOL     OW17821   0.274   4.395   5.381
 5641SOL    HW117822   0.362   4.402   5.335
 5641SOL    HW217823   0.204   4.439   5.324
 5642SOL     OW17824   0.425   5.680   5.162
 5642SOL    HW117825   0.383   5.689   5.253
 5642SOL    HW217826   0.482   5.760   5.144
 5643SOL     OW17827   4.027   0.735   3.500
 5643SOL    HW117828   4.001   0.697   3.589
 5643SOL    HW217829   4.112   0.693   3.469
 5644SOL     OW17830   3.508   6.974   5.135
 5644SOL    HW117831   3.440   0.021   5.098
 5644SOL    HW217832   3.468   6.919   5.208
 5645SOL     OW17833   5.524   4.814   2.656
 5645SOL    HW117834   5.511   4.775   2.747
 5645SOL    HW217835   5.571   4.902   2.664
 5646SOL     OW17836   0.924   5.895   3.545
 5646SOL    HW117837   0.963   5.891   3.637
 5646SOL    HW217838   0.941   5.809   3.498
 5647SOL     OW17839   4.598   0.044   0.717
 5647SOL    HW117840   4.688   0.038   0.674
 5647SOL    HW217841   4.605   0.017   0.813
 5648SOL     OW17842   1.575   6.991   3.717
 5648SOL    HW117843   1.509   6.977   3.791
 5648SOL    HW217844   1.528   6.983   3.629
 5649SOL     OW17845   0.287   0.516   4.634
 5649SOL    HW117846   0.294   0.485   4.540
 5649SOL    HW217847   0.213   0.584   4.641
 5650SOL     OW17848   0.948   5.130   0.718
 5650SOL    HW117849   0.952   5.092   0.810
 5650SOL    HW217850   0.871   5.194   0.712
 5651SOL     OW17851   1.282   1.545   1.619
 5651SOL    HW117852   1.356   1.570   1.556
 5651SOL    HW217853   1.254   1.451   1.602
 5652SOL     OW17854   6.722   0.023   2.189
 5652SOL    HW117855   6.738   0.099   2.126
 5652SOL    HW217856   6.683   6.962   2.139
 5653SOL     OW17857   6.683   6.419   6.910
 5653SOL    HW117858   6.708   6.330   6.948
 5653SOL    HW217859   6.608   6.407   6.845
 5654SOL     OW17860   6.508   0.173   5.464
 5654SOL    HW117861   6.587   0.167   5.403
 5654SOL    HW217862   6.432   0.121   5.426
 5655SOL     OW17863   1.440   4.010   4.815
 5655SOL    HW117864   1.477   4.102   4.818
 5655SOL    HW217865   1.347   4.010   4.854
 5656SOL     OW17866   6.883   3.598   6.598
 5656SOL    HW117867   6.950   3.563   6.663
 5656SOL    HW217868   6.928   3.660   6.533
 5657SOL     OW17869   5.631   1.706   0.570
 5657SOL    HW117870   5.701   1.637   0.594
 5657SOL    HW217871   5.568   1.667   0.503
 5658SOL     OW17872   3.807   4.280   6.413
 5658SOL    HW117873   3.777   4.375   6.418
 5658SOL    HW217874   3.849   4.263   6.323
 5659SOL     OW17875   3.818   3.057   4.845
 5659SOL    HW117876   3.770   3.029   4.928
 5659SOL    HW217877   3.842   3.154   4.851
 5660SOL     OW17878   5.168   0.010   0.785
 5660SOL    HW117879   5.260   6.987   0.793
 5660SOL    HW217880   5.101   6.959   0.816
 5661SOL     OW17881   1.509   5.291   5.074
 5661SOL    HW117882   1.492   5.255   5.166
 5661SOL    HW217883   1.431   5.344   5.044
 5662SOL     OW17884   2.863   6.127   3.547
 5662SOL    HW117885   2.924   6.180   3.606
 5662SOL    HW217886   2.873   6.029   3.568
 5663SOL     OW17887   1.897   3.260   6.988
 5663SOL    HW117888   1.899   3.281   6.891
 5663SOL    HW217889   1.969   3.194   7.009
 5664SOL     OW17890   6.568   3.994   4.445
 5664SOL    HW117891   6.520   3.954   4.367
 5664SOL    HW217892   6.593   3.923   4.509
 5665SOL     OW17893   2.192   1.132   0.261
 5665SOL    HW117894   2.151   1.130   0.352
 5665SOL    HW217895   2.122   1.121   0.191
 5666SOL     OW17896   6.146   6.785   2.572
 5666SOL    HW117897   6.055   6.761   2.606
 5666SOL    HW217898   6.137   6.840   2.490
 5667SOL     OW17899   1.396   5.449   4.464
 5667SOL    HW117900   1.462   5.377   4.441
 5667SOL    HW217901   1.319   5.444   4.400
 5668SOL     OW17902   5.007   2.276   3.982
 5668SOL    HW117903   4.991   2.302   4.077
 5668SOL    HW217904   4.946   2.201   3.957
 5669SOL     OW17905   6.668   3.721   6.674
 5669SOL    HW117906   6.751   3.665   6.680
 5669SOL    HW217907   6.640   3.749   6.765
 5670SOL     OW17908   6.932   2.522   3.787
 5670SOL    HW117909   6.911   2.437   3.836
 5670SOL    HW217910   6.847   2.566   3.760
 5671SOL     OW17911   6.548   6.079   6.476
 5671SOL    HW117912   6.638   6.104   6.511
 5671SOL    HW217913   6.546   6.095   6.377
 5672SOL     OW17914   3.775   4.522   6.516
 5672SOL    HW117915   3.798   4.490   6.608
 5672SOL    HW217916   3.838   4.595   6.490
 5673SOL     OW17917   1.019   0.466   1.848
 5673SOL    HW117918   0.996   0.405   1.923
 5673SOL    HW217919   0.953   0.540   1.843
 5674SOL     OW17920   0.301   4.932   4.841
 5674SOL    HW117921   0.223   4.963   4.787
 5674SOL    HW217922   0.386   4.963   4.797
 5675SOL     OW17923   3.806   2.450   0.117
 5675SOL    HW117924   3.748   2.529   0.096
 5675SOL    HW217925   3.885   2.449   0.056
 5676SOL     OW17926   2.247   2.833   1.849
 5676SOL    HW117927   2.346   2.830   1.834
 5676SOL    HW217928   2.204   2.758   1.799
 5677SOL     OW17929   1.012   1.357   0.429
 5677SOL    HW117930   0.986   1.431   0.491
 5677SOL    HW217931   1.108   1.367   0.404
 5678SOL     OW17932   4.164   6.721   2.263
 5678SOL    HW117933   4.216   6.636   2.275
 5678SOL    HW217934   4.069   6.706   2.290
 5679SOL     OW17935   0.395   1.435   3.790
 5679SOL    HW117936   0.382   1.526   3.751
 5679SOL    HW217937   0.306   1.390   3.802
 5680SOL     OW17938   1.773   5.034   5.604
 5680SOL    HW117939   1.769   4.936   5.625
 5680SOL    HW217940   1.805   5.084   5.684
 5681SOL     OW17941   0.174   4.323   1.054
 5681SOL    HW117942   0.245   4.315   0.983
 5681SOL    HW217943   0.085   4.304   1.014
 5682SOL     OW17944   2.420   4.648   5.131
 5682SOL    HW117945   2.351   4.578   5.111
 5682SOL    HW217946   2.392   4.699   5.213
 5683SOL     OW17947   4.439   1.102   6.391
 5683SOL    HW117948   4.489   1.060   6.315
 5683SOL    HW217949   4.470   1.196   6.404
 5684SOL     OW17950   2.380   3.218   5.770
 5684SOL    HW117951   2.295   3.271   5.760
 5684SOL    HW217952   2.429   3.217   5.683
 5685SOL     OW17953   1.946   2.698   2.171
 5685SOL    HW117954   1.894   2.749   2.239
 5685SOL    HW217955   2.014   2.641   2.218
 5686SOL     OW17956   3.064   1.392   6.138
 5686SOL    HW117957   3.141   1.430   6.086
 5686SOL    HW217958   2.983   1.388   6.080
 5687SOL     OW17959   0.920   5.200   6.990
 5687SOL    HW117960   0.873   5.240   0.053
 5687SOL    HW217961   0.896   5.250   6.907
 5688SOL     OW17962   0.400   2.495   1.342
 5688SOL    HW117963   0.331   2.476   1.412
 5688SOL    HW217964   0.433   2.409   1.304
 5689SOL     OW17965   3.825   1.367   0.475
 5689SOL    HW117966   3.838   1.275   0.436
 5689SOL    HW217967   3.774   1.423   0.410
 5690SOL     OW17968   2.191   6.142   0.249
 5690SOL    HW117969   2.232   6.157   0.339
 5690SOL    HW217970   2.106   6.090   0.259
 5691SOL     OW17971   3.411   0.726   1.723
 5691SOL    HW117972   3.475   0.687   1.656
 5691SOL    HW217973   3.351   0.654   1.757
 5692SOL     OW17974   5.649   3.305   0.734
 5692SOL    HW117975   5.662   3.388   0.789
 5692SOL    HW217976   5.590   3.242   0.784
 5693SOL     OW17977   5.198   2.312   2.400
 5693SOL    HW117978   5.114   2.350   2.362
 5693SOL    HW217979   5.254   2.386   2.436
 5694SOL     OW17980   0.826   1.660   3.277
 5694SOL    HW117981   0.766   1.590   3.315
 5694SOL    HW217982   0.855   1.633   3.185
 5695SOL     OW17983   1.260   2.661   3.164
 5695SOL    HW117984   1.306   2.663   3.075
 5695SOL    HW217985   1.161   2.662   3.150
 5696SOL     OW17986   1.001   1.382   3.161
 5696SOL    HW117987   1.066   1.312   3.131
 5696SOL    HW217988   1.045   1.441   3.229
 5697SOL     OW17989   5.846   2.353   1.344
 5697SOL    HW117990   5.945   2.351   1.363
 5697SOL    HW217991   5.802   2.276   1.390
 5698SOL     OW17992   0.901   4.105   3.925
 5698SOL    HW117993   0.855   4.163   3.992
 5698SOL    HW217994   0.987   4.148   3.897
 5699SOL     OW17995   0.718   2.878   3.328
 5699SOL    HW117996   0.778   2.940   3.278
 5699SOL    HW217997   0.648   2.841   3.265
 5700SOL     OW17998   6.800   6.836   3.217
 5700SOL    HW117999   6.719   6.878   3.258
 5700SOL    HW218000   6.860   6.908   3.182
 5701SOL     OW18001   1.310   0.926   1.883
 5701SOL    HW118002   1.406   0.902   1.897
 5701SOL    HW218003   1.255   0.887   1.957
 5702SOL     OW18004   2.635   5.886   4.742
 5702SOL    HW118005   2.566   5.847   4.802
 5702SOL    HW218006   2.606   5.976   4.711
 5703SOL     OW18007   6.705   4.577   1.615
 5703SOL    HW118008   6.708   4.626   1.702
 5703SOL    HW218009   6.649   4.495   1.625
 5704SOL     OW18010   4.701   4.708   2.542
 5704SOL    HW118011   4.631   4.649   2.502
 5704SOL    HW218012   4.704   4.693   2.641
 5705SOL     OW18013   5.014   0.097   0.113
 5705SOL    HW118014   4.976   0.037   0.042
 5705SOL    HW218015   5.107   0.123   0.088
 5706SOL     OW18016   6.927   4.182   0.922
 5706SOL    HW118017   6.903   4.226   0.836
 5706SOL    HW218018   6.999   4.114   0.905
 5707SOL     OW18019   0.191   6.512   0.268
 5707SOL    HW118020   0.112   6.505   0.207
 5707SOL    HW218021   0.275   6.513   0.214
 5708SOL     OW18022   5.198   6.093   2.132
 5708SOL    HW118023   5.256   6.014   2.112
 5708SOL    HW218024   5.209   6.162   2.060
 5709SOL     OW18025   1.349   0.567   2.479
 5709SOL    HW118026   1.266   0.534   2.433
 5709SOL    HW218027   1.350   0.536   2.573
 5710SOL     OW18028   2.548   2.887   0.754
 5710SOL    HW118029   2.465   2.839   0.784
 5710SOL    HW218030   2.532   2.928   0.664
 5711SOL     OW18031   5.546   0.975   2.492
 5711SOL    HW118032   5.619   0.922   2.449
 5711SOL    HW218033   5.458   0.951   2.451
 5712SOL     OW18034   6.301   0.539   6.268
 5712SOL    HW118035   6.244   0.602   6.320
 5712SOL    HW218036   6.375   0.589   6.223
 5713SOL     OW18037   3.427   2.969   1.741
 5713SOL    HW118038   3.340   2.921   1.736
 5713SOL    HW218039   3.488   2.921   1.804
 5714SOL     OW18040   0.255   5.903   0.321
 5714SOL    HW118041   0.319   5.843   0.273
 5714SOL    HW218042   0.304   5.958   0.388
 5715SOL     OW18043   0.905   0.429   2.887
 5715SOL    HW118044   0.978   0.493   2.913
 5715SOL    HW218045   0.818   0.461   2.925
 5716SOL     OW18046   1.874   4.239   6.497
 5716SOL    HW118047   1.960   4.225   6.546
 5716SOL    HW218048   1.820   4.155   6.502
 5717SOL     OW18049   1.333   4.806   1.257
 5717SOL    HW118050   1.316   4.828   1.352
 5717SOL    HW218051   1.391   4.876   1.216
 5718SOL     OW18052   0.350   2.717   5.269
 5718SOL    HW118053   0.294   2.639   5.299
 5718SOL    HW218054   0.394   2.695   5.182
 5719SOL     OW18055   2.775   1.950   6.375
 5719SOL    HW118056   2.727   2.032   6.345
 5719SOL    HW218057   2.814   1.965   6.466
 5720SOL     OW18058   1.703   5.526   5.043
 5720SOL    HW118059   1.777   5.531   4.975
 5720SOL    HW218060   1.646   5.446   5.024
 5721SOL     OW18061   0.242   3.455   1.200
 5721SOL    HW118062   0.291   3.542   1.204
 5721SOL    HW218063   0.144   3.472   1.208
 5722SOL     OW18064   6.722   1.522   4.984
 5722SOL    HW118065   6.652   1.589   5.010
 5722SOL    HW218066   6.723   1.513   4.884
 5723SOL     OW18067   3.797   3.294   0.762
 5723SOL    HW118068   3.789   3.315   0.665
 5723SOL    HW218069   3.879   3.338   0.799
 5724SOL     OW18070   5.761   2.946   4.912
 5724SOL    HW118071   5.670   2.976   4.941
 5724SOL    HW218072   5.786   2.863   4.962
 5725SOL     OW18073   4.963   5.634   4.349
 5725SOL    HW118074   4.928   5.574   4.277
 5725SOL    HW218075   5.044   5.594   4.390
 5726SOL     OW18076   0.196   4.631   4.569
 5726SOL    HW118077   0.294   4.627   4.588
 5726SOL    HW218078   0.145   4.613   4.653
 5727SOL     OW18079   6.745   1.662   3.828
 5727SOL    HW118080   6.758   1.738   3.891
 5727SOL    HW218081   6.655   1.669   3.785
 5728SOL     OW18082   3.780   0.269   6.567
 5728SOL    HW118083   3.765   0.259   6.469
 5728SOL    HW218084   3.713   0.216   6.618
 5729SOL     OW18085   1.298   1.412   0.755
 5729SOL    HW118086   1.395   1.414   0.729
 5729SOL    HW218087   1.258   1.502   0.742
 5730SOL     OW18088   4.762   4.978   6.036
 5730SOL    HW118089   4.827   4.908   6.006
 5730SOL    HW218090   4.688   4.934   6.088
 5731SOL     OW18091   6.843   6.522   3.772
 5731SOL    HW118092   6.834   6.517   3.673
 5731SOL    HW218093   6.777   6.587   3.809
 5732SOL     OW18094   6.797   5.648   4.829
 5732SOL    HW118095   6.702   5.655   4.798
 5732SOL    HW218096   6.855   5.620   4.753
 5733SOL     OW18097   4.568   6.606   5.151
 5733SOL    HW118098   4.489   6.639   5.202
 5733SOL    HW218099   4.556   6.510   5.129
 5734SOL     OW18100   0.808   6.840   5.595
 5734SOL    HW118101   0.868   6.798   5.663
 5734SOL    HW218102   0.753   6.912   5.638
 5735SOL     OW18103   4.035   2.202   2.239
 5735SOL    HW118104   4.065   2.217   2.145
 5735SOL    HW218105   3.954   2.143   2.239
 5736SOL     OW18106   6.199   4.419   0.184
 5736SOL    HW118107   6.263   4.470   0.241
 5736SOL    HW218108   6.189   4.466   0.096
 5737SOL     OW18109   5.773   6.924   0.954
 5737SOL    HW118110   5.872   6.926   0.944
 5737SOL    HW218111   5.748   6.931   1.050
 5738SOL     OW18112   2.364   3.066   6.016
 5738SOL    HW118113   2.368   3.093   5.919
 5738SOL    HW218114   2.271   3.040   6.040
 5739SOL     OW18115   1.662   0.900   5.994
 5739SOL    HW118116   1.595   0.830   5.968
 5739SOL    HW218117   1.751   0.857   6.009
 5740SOL     OW18118   4.302   3.623   1.644
 5740SOL    HW118119   4.212   3.580   1.631
 5740SOL    HW218120   4.289   3.721   1.660
 5741SOL     OW18121   0.454   4.227   4.457
 5741SOL    HW118122   0.500   4.180   4.381
 5741SOL    HW218123   0.380   4.283   4.421
 5742SOL     OW18124   5.138   6.918   2.136
 5742SOL    HW118125   5.197   6.851   2.091
 5742SOL    HW218126   5.175   6.940   2.227
 5743SOL     OW18127   2.676   5.017   5.353
 5743SOL    HW118128   2.744   4.999   5.424
 5743SOL    HW218129   2.657   4.933   5.302
 5744SOL     OW18130   4.696   0.743   2.070
 5744SOL    HW118131   4.756   0.768   2.146
 5744SOL    HW218132   4.601   0.762   2.096
 5745SOL     OW18133   1.613   0.885   3.799
 5745SOL    HW118134   1.558   0.839   3.730
 5745SOL    HW218135   1.685   0.938   3.754
 5746SOL     OW18136   6.105   6.796   1.580
 5746SOL    HW118137   6.089   6.699   1.600
 5746SOL    HW218138   6.020   6.838   1.548
 5747SOL     OW18139   0.018   4.216   3.011
 5747SOL    HW118140   6.993   4.287   3.068
 5747SOL    HW218141   0.036   4.253   2.919
 5748SOL     OW18142   1.447   5.618   0.299
 5748SOL    HW118143   1.500   5.692   0.259
 5748SOL    HW218144   1.389   5.654   0.372
 5749SOL     OW18145   1.338   7.004   4.778
 5749SOL    HW118146   1.408   0.021   4.715
 5749SOL    HW218147   1.249   7.010   4.735
 5750SOL     OW18148   5.591   6.420   4.528
 5750SOL    HW118149   5.535   6.434   4.446
 5750SOL    HW218150   5.602   6.321   4.543
 5751SOL     OW18151   2.678   2.415   4.555
 5751SOL    HW118152   2.738   2.469   4.495
 5751SOL    HW218153   2.598   2.470   4.579
 5752SOL     OW18154   6.016   0.590   0.108
 5752SOL    HW118155   5.918   0.587   0.089
 5752SOL    HW218156   6.036   0.665   0.170
 5753SOL     OW18157   3.788   3.428   5.338
 5753SOL    HW118158   3.755   3.385   5.422
 5753SOL    HW218159   3.801   3.526   5.354
 5754SOL     OW18160   6.461   4.168   0.982
 5754SOL    HW118161   6.538   4.107   1.001
 5754SOL    HW218162   6.494   4.263   0.978
 5755SOL     OW18163   2.256   2.966   6.574
 5755SOL    HW118164   2.210   2.888   6.532
 5755SOL    HW218165   2.263   3.041   6.508
 5756SOL     OW18166   6.120   6.419   3.902
 5756SOL    HW118167   6.087   6.354   3.834
 5756SOL    HW218168   6.126   6.510   3.860
 5757SOL     OW18169   6.782   6.431   2.705
 5757SOL    HW118170   6.791   6.502   2.773
 5757SOL    HW218171   6.690   6.435   2.665
 5758SOL     OW18172   2.311   0.868   5.011
 5758SOL    HW118173   2.404   0.867   5.047
 5758SOL    HW218174   2.249   0.903   5.081
 5759SOL     OW18175   5.070   0.965   6.309
 5759SOL    HW118176   4.980   0.924   6.328
 5759SOL    HW218177   5.101   0.935   6.219
 5760SOL     OW18178   0.615   4.747   0.982
 5760SOL    HW118179   0.568   4.765   1.068
 5760SOL    HW218180   0.630   4.833   0.934
 5761SOL     OW18181   5.728   6.845   6.256
 5761SOL    HW118182   5.707   6.769   6.318
 5761SOL    HW218183   5.649   6.907   6.250
 5762SOL     OW18184   4.577   5.953   0.170
 5762SOL    HW118185   4.562   5.958   0.269
 5762SOL    HW218186   4.645   5.883   0.149
 5763SOL     OW18187   6.936   1.146   6.404
 5763SOL    HW118188   6.995   1.161   6.325
 5763SOL    HW218189   6.981   1.180   6.486
 5764SOL     OW18190   4.580   4.807   5.529
 5764SOL    HW118191   4.642   4.730   5.543
 5764SOL    HW218192   4.634   4.890   5.511
 5765SOL     OW18193   6.610   3.787   6.944
 5765SOL    HW118194   6.517   3.798   6.979
 5765SOL    HW218195   6.647   3.876   6.920
 5766SOL     OW18196   2.457   2.375   0.301
 5766SOL    HW118197   2.487   2.299   0.244
 5766SOL    HW218198   2.510   2.376   0.386
 5767SOL     OW18199   2.259   0.200   0.691
 5767SOL    HW118200   2.261   0.146   0.607
 5767SOL    HW218201   2.323   0.162   0.757
 5768SOL     OW18202   0.026   6.802   2.778
 5768SOL    HW118203   0.008   6.895   2.811
 5768SOL    HW218204   0.032   6.740   2.856
 5769SOL     OW18205   2.293   6.223   4.285
 5769SOL    HW118206   2.319   6.238   4.380
 5769SOL    HW218207   2.200   6.186   4.281
 5770SOL     OW18208   5.802   0.168   0.335
 5770SOL    HW118209   5.784   0.238   0.405
 5770SOL    HW218210   5.832   0.084   0.380
 5771SOL     OW18211   1.646   6.397   3.200
 5771SOL    HW118212   1.558   6.437   3.224
 5771SOL    HW218213   1.642   6.298   3.212
 5772SOL     OW18214   6.166   2.534   0.721
 5772SOL    HW118215   6.148   2.455   0.779
 5772SOL    HW218216   6.262   2.560   0.727
 5773SOL     OW18217   4.614   1.084   4.153
 5773SOL    HW118218   4.699   1.137   4.158
 5773SOL    HW218219   4.542   1.140   4.111
 5774SOL     OW18220   2.868   5.819   3.997
 5774SOL    HW118221   2.933   5.752   4.033
 5774SOL    HW218222   2.833   5.875   4.072
 5775SOL     OW18223   1.519   0.785   2.049
 5775SOL    HW118224   1.574   0.707   2.018
 5775SOL    HW218225   1.578   0.853   2.093
 5776SOL     OW18226   6.553   1.235   6.036
 5776SOL    HW118227   6.504   1.184   6.107
 5776SOL    HW218228   6.649   1.246   6.063
 5777SOL     OW18229   6.689   0.255   4.993
 5777SOL    HW118230   6.670   0.342   5.038
 5777SOL    HW218231   6.645   0.181   5.044
 5778SOL     OW18232   1.621   0.383   1.821
 5778SOL    HW118233   1.677   0.399   1.740
 5778SOL    HW218234   1.655   0.302   1.870
 5779SOL     OW18235   4.086   1.452   0.502
 5779SOL    HW118236   4.108   1.430   0.597
 5779SOL    HW218237   3.998   1.410   0.477
 5780SOL     OW18238   6.194   5.408   2.981
 5780SOL    HW118239   6.247   5.343   2.927
 5780SOL    HW218240   6.109   5.430   2.933
 5781SOL     OW18241   0.657   4.082   4.625
 5781SOL    HW118242   0.658   4.000   4.682
 5781SOL    HW218243   0.573   4.085   4.572
 5782SOL     OW18244   1.666   0.610   0.838
 5782SOL    HW118245   1.605   0.552   0.784
 5782SOL    HW218246   1.738   0.647   0.779
 5783SOL     OW18247   1.776   1.003   1.369
 5783SOL    HW118248   1.703   1.005   1.301
 5783SOL    HW218249   1.763   0.924   1.429
 5784SOL     OW18250   6.783   6.429   0.141
 5784SOL    HW118251   6.706   6.451   0.081
 5784SOL    HW218252   6.749   6.399   0.230
 5785SOL     OW18253   1.684   1.418   1.498
 5785SOL    HW118254   1.703   1.331   1.545
 5785SOL    HW218255   1.735   1.491   1.544
 5786SOL     OW18256   0.894   4.278   0.353
 5786SOL    HW118257   0.972   4.331   0.385
 5786SOL    HW218258   0.900   4.185   0.388
 5787SOL     OW18259   4.639   2.583   4.763
 5787SOL    HW118260   4.612   2.580   4.860
 5787SOL    HW218261   4.605   2.502   4.717
 5788SOL     OW18262   3.293   0.900   1.219
 5788SOL    HW118263   3.299   0.999   1.215
 5788SOL    HW218264   3.273   0.864   1.128
 5789SOL     OW18265   3.264   3.389   6.132
 5789SOL    HW118266   3.235   3.463   6.193
 5789SOL    HW218267   3.261   3.421   6.038
 5790SOL     OW18268   0.611   4.863   4.541
 5790SOL    HW118269   0.572   4.774   4.516
 5790SOL    HW218270   0.708   4.852   4.561
 5791SOL     OW18271   2.785   2.316   2.441
 5791SOL    HW118272   2.780   2.415   2.451
 5791SOL    HW218273   2.695   2.281   2.416
 5792SOL     OW18274   5.435   3.392   2.169
 5792SOL    HW118275   5.336   3.397   2.182
 5792SOL    HW218276   5.455   3.384   2.071
 5793SOL     OW18277   5.988   0.802   4.481
 5793SOL    HW118278   6.022   0.860   4.555
 5793SOL    HW218279   5.975   0.709   4.515
 5794SOL     OW18280   3.101   0.122   6.330
 5794SOL    HW118281   3.110   0.102   6.427
 5794SOL    HW218282   3.051   0.208   6.318
 5795SOL     OW18283   6.841   6.895   1.251
 5795SOL    HW118284   6.896   6.932   1.176
 5795SOL    HW218285   6.778   6.826   1.214
 5796SOL     OW18286   4.182   0.765   6.332
 5796SOL    HW118287   4.193   0.796   6.427
 5796SOL    HW218288   4.086   0.740   6.316
 5797SOL     OW18289   5.135   1.345   0.479
 5797SOL    HW118290   5.058   1.409   0.480
 5797SOL    HW218291   5.194   1.365   0.401
 5798SOL     OW18292   6.888   4.606   4.354
 5798SOL    HW118293   6.850   4.591   4.445
 5798SOL    HW218294   6.926   4.698   4.347
 5799SOL     OW18295   0.015   0.670   4.118
 5799SOL    HW118296   6.944   0.640   4.078
 5799SOL    HW218297   0.000   0.692   4.215
 5800SOL     OW18298   0.943   6.636   1.822
 5800SOL    HW118299   0.918   6.540   1.812
 5800SOL    HW218300   1.038   6.648   1.792
 5801SOL     OW18301   2.118   2.546   3.497
 5801SOL    HW118302   2.033   2.575   3.541
 5801SOL    HW218303   2.151   2.620   3.437
 5802SOL     OW18304   6.343   3.219   2.564
 5802SOL    HW118305   6.293   3.133   2.555
 5802SOL    HW218306   6.333   3.254   2.657
 5803SOL     OW18307   1.875   5.665   3.418
 5803SOL    HW118308   1.778   5.646   3.431
 5803SOL    HW218309   1.907   5.729   3.488
 5804SOL     OW18310   6.982   5.765   3.196
 5804SOL    HW118311   6.914   5.824   3.154
 5804SOL    HW218312   0.056   5.810   3.197
 5805SOL     OW18313   1.925   2.838   0.453
 5805SOL    HW118314   1.878   2.891   0.524
 5805SOL    HW218315   1.921   2.741   0.477
 5806SOL     OW18316   0.095   4.540   4.820
 5806SOL    HW118317   0.137   4.450   4.830
 5806SOL    HW218318   0.005   4.539   4.864
 5807SOL     OW18319   0.946   5.546   0.901
 5807SOL    HW118320   1.038   5.529   0.936
 5807SOL    HW218321   0.880   5.491   0.953
 5808SOL     OW18322   6.896   6.527   4.638
 5808SOL    HW118323   6.978   6.481   4.604
 5808SOL    HW218324   6.821   6.514   4.572
 5809SOL     OW18325   6.480   1.910   5.317
 5809SOL    HW118326   6.452   1.974   5.389
 5809SOL    HW218327   6.576   1.887   5.330
 5810SOL     OW18328   4.761   1.217   5.370
 5810SOL    HW118329   4.762   1.127   5.416
 5810SOL    HW218330   4.676   1.226   5.317
 5811SOL     OW18331   3.627   1.390   5.301
 5811SOL    HW118332   3.563   1.467   5.298
 5811SOL    HW218333   3.702   1.410   5.364
 5812SOL     OW18334   4.908   3.414   5.952
 5812SOL    HW118335   4.900   3.315   5.966
 5812SOL    HW218336   4.818   3.451   5.928
 5813SOL     OW18337   2.610   0.480   0.769
 5813SOL    HW118338   2.621   0.394   0.719
 5813SOL    HW218339   2.517   0.514   0.756
 5814SOL     OW18340   0.223   3.185   1.988
 5814SOL    HW118341   0.226   3.100   1.934
 5814SOL    HW218342   0.258   3.167   2.079
 5815SOL     OW18343   4.544   1.853   3.985
 5815SOL    HW118344   4.551   1.881   4.081
 5815SOL    HW218345   4.612   1.783   3.965
 5816SOL     OW18346   5.770   4.921   0.185
 5816SOL    HW118347   5.850   4.863   0.200
 5816SOL    HW218348   5.777   4.964   0.095
 5817SOL     OW18349   6.391   4.746   5.356
 5817SOL    HW118350   6.354   4.825   5.306
 5817SOL    HW218351   6.333   4.727   5.435
 5818SOL     OW18352   0.165   5.469   5.379
 5818SOL    HW118353   0.190   5.442   5.286
 5818SOL    HW218354   0.217   5.551   5.405
 5819SOL     OW18355   3.144   5.904   6.984
 5819SOL    HW118356   3.045   5.919   6.990
 5819SOL    HW218357   3.165   5.849   6.903
 5820SOL     OW18358   4.407   4.507   2.695
 5820SOL    HW118359   4.313   4.473   2.696
 5820SOL    HW218360   4.442   4.511   2.788
 5821SOL     OW18361   6.419   0.810   1.468
 5821SOL    HW118362   6.430   0.903   1.434
 5821SOL    HW218363   6.395   0.749   1.392
 5822SOL     OW18364   1.950   2.596   1.760
 5822SOL    HW118365   1.933   2.639   1.672
 5822SOL    HW218366   1.912   2.652   1.834
 5823SOL     OW18367   2.719   0.016   4.781
 5823SOL    HW118368   2.801   0.058   4.743
 5823SOL    HW218369   2.705   0.048   4.875
 5824SOL     OW18370   0.479   6.322   3.680
 5824SOL    HW118371   0.512   6.335   3.773
 5824SOL    HW218372   0.465   6.224   3.663
 5825SOL     OW18373   0.370   5.888   4.588
 5825SOL    HW118374   0.424   5.805   4.573
 5825SOL    HW218375   0.318   5.879   4.673
 5826SOL     OW18376   0.709   6.114   5.806
 5826SOL    HW118377   0.790   6.162   5.841
 5826SOL    HW218378   0.689   6.036   5.864
 5827SOL     OW18379   1.489   3.343   4.656
 5827SOL    HW118380   1.487   3.331   4.756
 5827SOL    HW218381   1.506   3.255   4.612
 5828SOL     OW18382   5.017   1.320   2.881
 5828SOL    HW118383   5.041   1.233   2.923
 5828SOL    HW218384   5.071   1.333   2.797
 5829SOL     OW18385   1.488   0.329   4.645
 5829SOL    HW118386   1.470   0.337   4.743
 5829SOL    HW218387   1.411   0.283   4.601
 5830SOL     OW18388   5.021   0.373   5.906
 5830SOL    HW118389   5.050   0.279   5.889
 5830SOL    HW218390   4.947   0.397   5.844
 5831SOL     OW18391   1.197   1.174   6.024
 5831SOL    HW118392   1.197   1.238   5.948
 5831SOL    HW218393   1.288   1.171   6.065
 5832SOL     OW18394   3.616   4.576   0.373
 5832SOL    HW118395   3.598   4.524   0.289
 5832SOL    HW218396   3.710   4.560   0.403
 5833SOL     OW18397   4.211   3.659   5.171
 5833SOL    HW118398   4.300   3.631   5.207
 5833SOL    HW218399   4.139   3.600   5.208
 5834SOL     OW18400   6.452   4.415   6.652
 5834SOL    HW118401   6.371   4.359   6.632
 5834SOL    HW218402   6.474   4.469   6.571
 5835SOL     OW18403   5.619   1.898   2.816
 5835SOL    HW118404   5.676   1.974   2.786
 5835SOL    HW218405   5.603   1.905   2.915
 5836SOL     OW18406   3.018   0.067   2.055
 5836SOL    HW118407   3.116   0.089   2.054
 5836SOL    HW218408   2.970   0.126   1.990
 5837SOL     OW18409   3.531   3.072   0.431
 5837SOL    HW118410   3.567   3.054   0.340
 5837SOL    HW218411   3.603   3.057   0.499
 5838SOL     OW18412   3.006   1.870   1.398
 5838SOL    HW118413   3.015   1.772   1.418
 5838SOL    HW218414   2.994   1.921   1.483
 5839SOL     OW18415   0.592   2.193   0.524
 5839SOL    HW118416   0.667   2.168   0.586
 5839SOL    HW218417   0.529   2.255   0.572
 5840SOL     OW18418   0.810   4.146   0.088
 5840SOL    HW118419   0.816   4.168   0.186
 5840SOL    HW218420   0.890   4.092   0.062
 5841SOL     OW18421   5.594   0.900   1.763
 5841SOL    HW118422   5.680   0.872   1.719
 5841SOL    HW218423   5.603   0.994   1.794
 5842SOL     OW18424   4.866   2.708   1.660
 5842SOL    HW118425   4.831   2.668   1.575
 5842SOL    HW218426   4.790   2.726   1.721
 5843SOL     OW18427   0.862   4.350   1.973
 5843SOL    HW118428   0.773   4.303   1.972
 5843SOL    HW218429   0.888   4.371   2.067
 5844SOL     OW18430   1.404   5.832   5.962
 5844SOL    HW118431   1.349   5.842   6.045
 5844SOL    HW218432   1.349   5.789   5.891
 5845SOL     OW18433   0.814   0.034   1.988
 5845SOL    HW118434   0.913   0.044   1.975
 5845SOL    HW218435   0.767   0.056   1.902
 5846SOL     OW18436   5.982   3.362   5.576
 5846SOL    HW118437   6.029   3.280   5.543
 5846SOL    HW218438   5.914   3.391   5.508
 5847SOL     OW18439   2.751   2.479   1.742
 5847SOL    HW118440   2.748   2.578   1.729
 5847SOL    HW218441   2.840   2.453   1.781
 5848SOL     OW18442   1.532   5.805   3.229
 5848SOL    HW118443   1.558   5.708   3.229
 5848SOL    HW218444   1.491   5.829   3.317
 5849SOL     OW18445   2.036   0.016   5.379
 5849SOL    HW118446   1.965   0.069   5.424
 5849SOL    HW218447   1.997   6.979   5.303
 5850SOL     OW18448   0.457   3.526   2.330
 5850SOL    HW118449   0.451   3.524   2.430
 5850SOL    HW218450   0.370   3.497   2.291
 5851SOL     OW18451   5.101   3.892   3.956
 5851SOL    HW118452   5.038   3.936   3.892
 5851SOL    HW218453   5.187   3.870   3.909
 5852SOL     OW18454   5.067   6.389   2.487
 5852SOL    HW118455   4.976   6.349   2.470
 5852SOL    HW218456   5.058   6.488   2.499
 5853SOL     OW18457   4.346   5.253   5.369
 5853SOL    HW118458   4.341   5.160   5.333
 5853SOL    HW218459   4.269   5.269   5.431
 5854SOL     OW18460   4.063   3.925   5.509
 5854SOL    HW118461   4.068   3.832   5.544
 5854SOL    HW218462   4.102   3.929   5.417
 5855SOL     OW18463   1.216   1.020   4.511
 5855SOL    HW118464   1.264   1.107   4.506
 5855SOL    HW218465   1.138   1.021   4.447
 5856SOL     OW18466   1.115   6.353   3.809
 5856SOL    HW118467   1.143   6.376   3.717
 5856SOL    HW218468   1.016   6.335   3.810
 5857SOL     OW18469   6.505   3.258   4.912
 5857SOL    HW118470   6.489   3.186   4.844
 5857SOL    HW218471   6.499   3.219   5.004
 5858SOL     OW18472   2.210   2.237   2.949
 5858SOL    HW118473   2.158   2.299   2.890
 5858SOL    HW218474   2.147   2.186   3.007
 5859SOL     OW18475   6.465   6.054   1.193
 5859SOL    HW118476   6.384   6.092   1.150
 5859SOL    HW218477   6.464   5.954   1.185
 5860SOL     OW18478   6.624   5.402   3.156
 5860SOL    HW118479   6.673   5.383   3.241
 5860SOL    HW218480   6.645   5.495   3.126
 5861SOL     OW18481   5.494   1.242   4.014
 5861SOL    HW118482   5.428   1.170   3.993
 5861SOL    HW218483   5.462   1.329   3.977
 5862SOL     OW18484   6.145   5.391   1.055
 5862SOL    HW118485   6.081   5.437   0.993
 5862SOL    HW218486   6.219   5.350   1.002
 5863SOL     OW18487   2.680   1.991   4.849
 5863SOL    HW118488   2.750   1.984   4.921
 5863SOL    HW218489   2.702   2.068   4.789
 5864SOL     OW18490   3.209   3.679   2.824
 5864SOL    HW118491   3.221   3.717   2.916
 5864SOL    HW218492   3.160   3.592   2.831
 5865SOL     OW18493   5.642   0.610   5.110
 5865SOL    HW118494   5.590   0.525   5.113
 5865SOL    HW218495   5.589   0.680   5.063
 5866SOL     OW18496   3.486   3.406   1.461
 5866SOL    HW118497   3.465   3.308   1.461
 5866SOL    HW218498   3.576   3.420   1.420
 5867SOL     OW18499   2.029   3.072   1.404
 5867SOL    HW118500   1.969   3.147   1.377
 5867SOL    HW218501   2.097   3.104   1.469
 5868SOL     OW18502   1.796   1.564   5.825
 5868SOL    HW118503   1.833   1.503   5.755
 5868SOL    HW218504   1.849   1.553   5.909
 5869SOL     OW18505   2.226   5.822   2.719
 5869SOL    HW118506   2.208   5.850   2.625
 5869SOL    HW218507   2.139   5.816   2.769
 5870SOL     OW18508   5.540   6.252   4.960
 5870SOL    HW118509   5.441   6.255   4.973
 5870SOL    HW218510   5.572   6.158   4.973
 5871SOL     OW18511   3.755   3.421   1.762
 5871SOL    HW118512   3.773   3.360   1.840
 5871SOL    HW218513   3.656   3.429   1.748
 5872SOL     OW18514   4.267   6.741   1.450
 5872SOL    HW118515   4.200   6.669   1.465
 5872SOL    HW218516   4.339   6.734   1.519
 5873SOL     OW18517   3.424   6.751   2.231
 5873SOL    HW118518   3.489   6.703   2.291
 5873SOL    HW218519   3.420   6.848   2.257
 5874SOL     OW18520   2.286   4.451   4.910
 5874SOL    HW118521   2.330   4.401   4.985
 5874SOL    HW218522   2.188   4.456   4.927
 5875SOL     OW18523   4.211   1.383   0.263
 5875SOL    HW118524   4.169   1.455   0.209
 5875SOL    HW218525   4.202   1.404   0.360
 5876SOL     OW18526   4.075   3.487   1.656
 5876SOL    HW118527   4.027   3.554   1.712
 5876SOL    HW218528   4.024   3.473   1.571
 5877SOL     OW18529   6.333   6.488   0.975
 5877SOL    HW118530   6.361   6.539   0.893
 5877SOL    HW218531   6.328   6.390   0.953
 5878SOL     OW18532   0.083   5.288   4.325
 5878SOL    HW118533   0.028   5.226   4.381
 5878SOL    HW218534   0.024   5.344   4.268
 5879SOL     OW18535   1.842   4.165   0.070
 5879SOL    HW118536   1.915   4.099   0.054
 5879SOL    HW218537   1.808   4.155   0.164
 5880SOL     OW18538   4.321   4.165   6.823
 5880SOL    HW118539   4.296   4.105   6.899
 5880SOL    HW218540   4.241   4.178   6.763
 5881SOL     OW18541   0.351   6.031   2.794
 5881SOL    HW118542   0.398   5.946   2.821
 5881SOL    HW218543   0.406   6.110   2.821
 5882SOL     OW18544   0.169   6.251   1.153
 5882SOL    HW118545   0.213   6.268   1.241
 5882SOL    HW218546   0.071   6.237   1.167
 5883SOL     OW18547   1.203   0.667   6.348
 5883SOL    HW118548   1.191   0.694   6.444
 5883SOL    HW218549   1.275   0.723   6.307
 5884SOL     OW18550   2.996   1.911   4.716
 5884SOL    HW118551   3.023   1.997   4.758
 5884SOL    HW218552   2.950   1.854   4.785
 5885SOL     OW18553   0.579   0.475   3.313
 5885SOL    HW118554   0.556   0.451   3.407
 5885SOL    HW218555   0.678   0.476   3.301
 5886SOL     OW18556   0.553   1.865   4.944
 5886SOL    HW118557   0.462   1.832   4.967
 5886SOL    HW218558   0.612   1.860   5.024
 5887SOL     OW18559   2.867   1.531   3.453
 5887SOL    HW118560   2.857   1.629   3.472
 5887SOL    HW218561   2.932   1.492   3.517
 5888SOL     OW18562   3.220   0.926   1.850
 5888SOL    HW118563   3.216   0.849   1.914
 5888SOL    HW218564   3.255   0.893   1.762
 5889SOL     OW18565   1.299   6.615   1.387
 5889SOL    HW118566   1.376   6.661   1.432
 5889SOL    HW218567   1.334   6.541   1.329
 5890SOL     OW18568   2.256   1.163   3.943
 5890SOL    HW118569   2.228   1.253   3.974
 5890SOL    HW218570   2.176   1.102   3.941
 5891SOL     OW18571   3.720   3.303   6.152
 5891SOL    HW118572   3.796   3.309   6.087
 5891SOL    HW218573   3.654   3.234   6.120
 5892SOL     OW18574   0.460   5.166   1.870
 5892SOL    HW118575   0.457   5.158   1.970
 5892SOL    HW218576   0.434   5.079   1.829
 5893SOL     OW18577   1.856   4.105   4.525
 5893SOL    HW118578   1.874   4.006   4.524
 5893SOL    HW218579   1.917   4.151   4.461
 5894SOL     OW18580   6.467   4.981   4.507
 5894SOL    HW118581   6.419   5.049   4.562
 5894SOL    HW218582   6.457   4.891   4.550
 5895SOL     OW18583   5.177   3.755   4.177
 5895SOL    HW118584   5.104   3.741   4.243
 5895SOL    HW218585   5.142   3.805   4.098
 5896SOL     OW18586   4.724   0.478   6.998
 5896SOL    HW118587   4.751   0.465   6.903
 5896SOL    HW218588   4.764   0.406   0.038
 5897SOL     OW18589   4.167   0.369   1.454
 5897SOL    HW118590   4.157   0.422   1.538
 5897SOL    HW218591   4.105   0.405   1.385
 5898SOL     OW18592   2.196   6.720   3.208
 5898SOL    HW118593   2.154   6.759   3.127
 5898SOL    HW218594   2.247   6.790   3.257
 5899SOL     OW18595   4.939   6.155   5.871
 5899SOL    HW118596   4.913   6.170   5.966
 5899SOL    HW218597   5.037   6.133   5.866
 5900SOL     OW18598   5.243   4.925   3.089
 5900SOL    HW118599   5.160   4.901   3.039
 5900SOL    HW218600   5.311   4.961   3.024
 5901SOL     OW18601   2.644   0.293   0.577
 5901SOL    HW118602   2.646   0.345   0.493
 5901SOL    HW218603   2.601   0.204   0.560
 5902SOL     OW18604   6.669   2.780   6.077
 5902SOL    HW118605   6.733   2.728   6.134
 5902SOL    HW218606   6.716   2.814   5.996
 5903SOL     OW18607   3.972   4.213   0.000
 5903SOL    HW118608   3.998   4.269   6.937
 5903SOL    HW218609   3.881   4.239   0.031
 5904SOL     OW18610   0.856   3.865   1.874
 5904SOL    HW118611   0.863   3.938   1.805
 5904SOL    HW218612   0.828   3.780   1.829
 5905SOL     OW18613   6.455   5.933   2.807
 5905SOL    HW118614   6.504   5.865   2.751
 5905SOL    HW218615   6.362   5.942   2.773
 5906SOL     OW18616   4.182   2.268   3.686
 5906SOL    HW118617   4.255   2.322   3.643
 5906SOL    HW218618   4.211   2.172   3.692
 5907SOL     OW18619   0.510   4.836   1.220
 5907SOL    HW118620   0.419   4.870   1.245
 5907SOL    HW218621   0.579   4.896   1.259
 5908SOL     OW18622   0.251   2.567   6.342
 5908SOL    HW118623   0.307   2.536   6.418
 5908SOL    HW218624   0.310   2.599   6.268
 5909SOL     OW18625   6.775   5.582   0.607
 5909SOL    HW118626   6.809   5.645   0.677
 5909SOL    HW218627   6.675   5.583   0.607
 5910SOL     OW18628   0.038   3.464   3.830
 5910SOL    HW118629   0.076   3.521   3.757
 5910SOL    HW218630   6.976   3.411   3.795
 5911SOL     OW18631   6.641   6.699   6.281
 5911SOL    HW118632   6.689   6.769   6.333
 5911SOL    HW218633   6.590   6.742   6.207
 5912SOL     OW18634   6.719   0.716   5.633
 5912SOL    HW118635   6.656   0.711   5.556
 5912SOL    HW218636   6.670   0.693   5.717
 5913SOL     OW18637   4.630   3.095   6.101
 5913SOL    HW118638   4.586   3.035   6.169
 5913SOL    HW218639   4.690   3.159   6.148
 5914SOL     OW18640   1.639   5.056   6.859
 5914SOL    HW118641   1.652   5.078   6.763
 5914SOL    HW218642   1.625   4.958   6.870
 5915SOL     OW18643   4.831   5.754   1.348
 5915SOL    HW118644   4.925   5.745   1.379
 5915SOL    HW218645   4.781   5.814   1.410
 5916SOL     OW18646   5.910   6.054   3.623
 5916SOL    HW118647   5.988   6.024   3.678
 5916SOL    HW218648   5.894   5.989   3.549
 5917SOL     OW18649   3.324   3.861   4.246
 5917SOL    HW118650   3.359   3.869   4.339
 5917SOL    HW218651   3.330   3.766   4.216
 5918SOL     OW18652   2.401   4.328   5.138
 5918SOL    HW118653   2.339   4.331   5.217
 5918SOL    HW218654   2.405   4.235   5.103
 5919SOL     OW18655   3.867   2.946   3.388
 5919SOL    HW118656   3.801   2.998   3.443
 5919SOL    HW218657   3.832   2.934   3.296
 5920SOL     OW18658   4.502   0.852   6.652
 5920SOL    HW118659   4.548   0.908   6.721
 5920SOL    HW218660   4.508   0.898   6.563
 5921SOL     OW18661   3.713   5.248   6.411
 5921SOL    HW118662   3.759   5.182   6.351
 5921SOL    HW218663   3.776   5.322   6.432
 5922SOL     OW18664   5.537   3.848   3.202
 5922SOL    HW118665   5.620   3.796   3.219
 5922SOL    HW218666   5.558   3.929   3.147
 5923SOL     OW18667   0.057   1.746   2.058
 5923SOL    HW118668   7.000   1.792   2.007
 5923SOL    HW218669   0.133   1.726   1.996
 5924SOL     OW18670   6.758   0.111   2.745
 5924SOL    HW118671   6.779   0.058   2.663
 5924SOL    HW218672   6.840   0.121   2.800
 5925SOL     OW18673   4.023   6.546   1.894
 5925SOL    HW118674   3.975   6.629   1.864
 5925SOL    HW218675   4.114   6.543   1.852
 5926SOL     OW18676   3.672   5.510   2.359
 5926SOL    HW118677   3.742   5.443   2.335
 5926SOL    HW218678   3.599   5.509   2.290
 5927SOL     OW18679   1.294   4.626   2.574
 5927SOL    HW118680   1.333   4.672   2.494
 5927SOL    HW218681   1.358   4.631   2.651
 5928SOL     OW18682   3.333   6.552   0.939
 5928SOL    HW118683   3.289   6.473   0.980
 5928SOL    HW218684   3.409   6.522   0.882
 5929SOL     OW18685   6.407   0.464   5.940
 5929SOL    HW118686   6.418   0.408   6.022
 5929SOL    HW218687   6.491   0.461   5.886
 5930SOL     OW18688   6.707   3.988   3.292
 5930SOL    HW118689   6.750   3.998   3.202
 5930SOL    HW218690   6.769   3.939   3.353
 5931SOL     OW18691   6.619   6.191   2.466
 5931SOL    HW118692   6.690   6.144   2.519
 5931SOL    HW218693   6.591   6.275   2.512
 5932SOL     OW18694   3.086   6.958   1.339
 5932SOL    HW118695   3.048   6.898   1.269
 5932SOL    HW218696   3.185   6.942   1.345
 5933SOL     OW18697   6.608   4.865   3.601
 5933SOL    HW118698   6.688   4.910   3.640
 5933SOL    HW218699   6.558   4.816   3.672
 5934SOL     OW18700   3.206   3.045   5.019
 5934SOL    HW118701   3.253   2.958   5.035
 5934SOL    HW218702   3.273   3.119   5.018
 5935SOL     OW18703   6.571   5.104   6.295
 5935SOL    HW118704   6.545   5.023   6.348
 5935SOL    HW218705   6.608   5.174   6.357
 5936SOL     OW18706   3.289   2.754   1.475
 5936SOL    HW118707   3.240   2.667   1.479
 5936SOL    HW218708   3.387   2.738   1.487
 5937SOL     OW18709   6.286   3.337   2.092
 5937SOL    HW118710   6.276   3.316   1.995
 5937SOL    HW218711   6.217   3.288   2.145
 5938SOL     OW18712   6.206   5.688   3.240
 5938SOL    HW118713   6.163   5.706   3.328
 5938SOL    HW218714   6.250   5.598   3.243
 5939SOL     OW18715   2.409   6.467   3.381
 5939SOL    HW118716   2.358   6.545   3.416
 5939SOL    HW218717   2.464   6.427   3.455
 5940SOL     OW18718   4.580   5.369   2.521
 5940SOL    HW118719   4.549   5.285   2.565
 5940SOL    HW218720   4.501   5.423   2.493
 5941SOL     OW18721   5.652   3.860   1.975
 5941SOL    HW118722   5.631   3.802   1.897
 5941SOL    HW218723   5.584   3.933   1.983
 5942SOL     OW18724   5.393   3.915   6.982
 5942SOL    HW118725   5.405   3.888   6.887
 5942SOL    HW218726   5.326   3.989   6.988
 5943SOL     OW18727   3.430   4.354   5.954
 5943SOL    HW118728   3.473   4.285   5.897
 5943SOL    HW218729   3.439   4.444   5.910
 5944SOL     OW18730   0.065   2.223   0.256
 5944SOL    HW118731   0.073   2.124   0.265
 5944SOL    HW218732   0.034   2.263   0.343
 5945SOL     OW18733   6.658   4.721   5.316
 5945SOL    HW118734   6.665   4.649   5.248
 5945SOL    HW218735   6.562   4.734   5.341
 5946SOL     OW18736   3.541   3.650   5.983
 5946SOL    HW118737   3.493   3.640   6.070
 5946SOL    HW218738   3.636   3.675   6.000
 5947SOL     OW18739   3.683   3.199   2.464
 5947SOL    HW118740   3.651   3.210   2.370
 5947SOL    HW218741   3.759   3.134   2.467
 5948SOL     OW18742   4.306   4.992   2.354
 5948SOL    HW118743   4.224   4.939   2.330
 5948SOL    HW218744   4.318   5.067   2.289
 5949SOL     OW18745   5.213   3.887   1.385
 5949SOL    HW118746   5.295   3.862   1.333
 5949SOL    HW218747   5.185   3.810   1.442
 5950SOL     OW18748   5.177   1.521   5.249
 5950SOL    HW118749   5.151   1.436   5.295
 5950SOL    HW218750   5.269   1.511   5.210
 5951SOL     OW18751   1.343   5.136   3.989
 5951SOL    HW118752   1.282   5.095   4.056
 5951SOL    HW218753   1.300   5.134   3.899
 5952SOL     OW18754   5.256   5.180   2.890
 5952SOL    HW118755   5.300   5.260   2.849
 5952SOL    HW218756   5.322   5.130   2.945
 5953SOL     OW18757   6.675   3.781   5.450
 5953SOL    HW118758   6.674   3.718   5.372
 5953SOL    HW218759   6.609   3.854   5.434
 5954SOL     OW18760   6.612   5.437   5.580
 5954SOL    HW118761   6.540   5.419   5.513
 5954SOL    HW218762   6.643   5.532   5.570
 5955SOL     OW18763   4.773   5.536   2.603
 5955SOL    HW118764   4.717   5.456   2.584
 5955SOL    HW218765   4.861   5.528   2.555
 5956SOL     OW18766   4.620   1.942   4.250
 5956SOL    HW118767   4.538   1.984   4.290
 5956SOL    HW218768   4.679   1.908   4.324
 5957SOL     OW18769   2.959   1.069   4.573
 5957SOL    HW118770   2.978   1.121   4.490
 5957SOL    HW218771   2.961   1.130   4.652
 5958SOL     OW18772   4.491   6.328   2.968
 5958SOL    HW118773   4.565   6.297   2.909
 5958SOL    HW218774   4.403   6.304   2.928
 5959SOL     OW18775   4.292   2.825   5.445
 5959SOL    HW118776   4.316   2.870   5.531
 5959SOL    HW218777   4.193   2.830   5.431
 5960SOL     OW18778   4.076   5.556   5.083
 5960SOL    HW118779   4.043   5.597   4.998
 5960SOL    HW218780   4.148   5.613   5.122
 5961SOL     OW18781   4.345   2.096   2.759
 5961SOL    HW118782   4.404   2.094   2.678
 5961SOL    HW218783   4.252   2.071   2.733
 5962SOL     OW18784   5.734   6.494   6.673
 5962SOL    HW118785   5.747   6.555   6.595
 5962SOL    HW218786   5.778   6.406   6.655
 5963SOL     OW18787   3.296   3.644   6.313
 5963SOL    HW118788   3.296   3.704   6.393
 5963SOL    HW218789   3.381   3.592   6.310
 5964SOL     OW18790   1.501   6.191   5.353
 5964SOL    HW118791   1.463   6.102   5.377
 5964SOL    HW218792   1.452   6.229   5.275
 5965SOL     OW18793   2.043   1.786   0.376
 5965SOL    HW118794   1.953   1.765   0.416
 5965SOL    HW218795   2.043   1.880   0.343
 5966SOL     OW18796   2.177   5.813   5.620
 5966SOL    HW118797   2.116   5.735   5.632
 5966SOL    HW218798   2.258   5.802   5.678
 5967SOL     OW18799   2.918   0.285   5.950
 5967SOL    HW118800   2.881   0.209   5.897
 5967SOL    HW218801   3.018   0.279   5.952
 5968SOL     OW18802   5.516   1.801   0.248
 5968SOL    HW118803   5.432   1.821   0.197
 5968SOL    HW218804   5.496   1.732   0.318
 5969SOL     OW18805   5.846   0.398   6.336
 5969SOL    HW118806   5.817   0.302   6.334
 5969SOL    HW218807   5.899   0.418   6.253
 5970SOL     OW18808   0.145   3.945   2.980
 5970SOL    HW118809   0.098   3.979   3.062
 5970SOL    HW218810   0.087   3.960   2.900
 5971SOL     OW18811   0.214   1.405   2.218
 5971SOL    HW118812   0.152   1.386   2.142
 5971SOL    HW218813   0.247   1.500   2.211
 5972SOL     OW18814   5.485   5.698   5.933
 5972SOL    HW118815   5.493   5.701   5.833
 5972SOL    HW218816   5.536   5.620   5.969
 5973SOL     OW18817   1.422   3.156   1.729
 5973SOL    HW118818   1.343   3.205   1.767
 5973SOL    HW218819   1.506   3.200   1.760
 5974SOL     OW18820   5.746   5.948   6.675
 5974SOL    HW118821   5.799   5.882   6.622
 5974SOL    HW218822   5.660   5.966   6.627
 5975SOL     OW18823   4.494   0.225   1.125
 5975SOL    HW118824   4.585   0.182   1.130
 5975SOL    HW218825   4.443   0.186   1.049
 5976SOL     OW18826   4.141   2.573   6.098
 5976SOL    HW118827   4.059   2.545   6.048
 5976SOL    HW218828   4.140   2.672   6.112
 5977SOL     OW18829   1.304   5.995   0.418
 5977SOL    HW118830   1.318   6.004   0.319
 5977SOL    HW218831   1.340   5.907   0.450
 5978SOL     OW18832   3.909   5.436   1.714
 5978SOL    HW118833   3.890   5.529   1.681
 5978SOL    HW218834   4.007   5.422   1.718
 5979SOL     OW18835   6.011   0.568   2.730
 5979SOL    HW118836   5.944   0.628   2.686
 5979SOL    HW218837   6.086   0.623   2.766
 5980SOL     OW18838   3.752   4.076   1.702
 5980SOL    HW118839   3.713   4.022   1.628
 5980SOL    HW218840   3.685   4.142   1.734
 5981SOL     OW18841   5.885   1.881   1.414
 5981SOL    HW118842   5.900   1.939   1.334
 5981SOL    HW218843   5.828   1.930   1.480
 5982SOL     OW18844   6.248   2.186   1.794
 5982SOL    HW118845   6.316   2.174   1.721
 5982SOL    HW218846   6.294   2.203   1.881
 5983SOL     OW18847   1.323   1.150   3.652
 5983SOL    HW118848   1.392   1.205   3.606
 5983SOL    HW218849   1.353   1.130   3.746
 5984SOL     OW18850   5.875   6.012   3.351
 5984SOL    HW118851   5.776   6.006   3.364
 5984SOL    HW218852   5.904   6.106   3.367
 5985SOL     OW18853   6.868   3.233   4.130
 5985SOL    HW118854   6.824   3.323   4.128
 5985SOL    HW218855   6.955   3.237   4.079
 5986SOL     OW18856   3.223   4.108   4.464
 5986SOL    HW118857   3.295   4.171   4.492
 5986SOL    HW218858   3.183   4.139   4.378
 5987SOL     OW18859   5.679   0.142   3.915
 5987SOL    HW118860   5.707   0.237   3.918
 5987SOL    HW218861   5.753   0.086   3.877
 5988SOL     OW18862   4.251   0.564   5.444
 5988SOL    HW118863   4.331   0.580   5.501
 5988SOL    HW218864   4.168   0.577   5.498
 5989SOL     OW18865   2.357   5.970   6.255
 5989SOL    HW118866   2.327   6.065   6.269
 5989SOL    HW218867   2.435   5.968   6.191
 5990SOL     OW18868   3.094   3.395   0.903
 5990SOL    HW118869   3.055   3.359   0.819
 5990SOL    HW218870   3.056   3.485   0.922
 5991SOL     OW18871   3.808   5.234   6.986
 5991SOL    HW118872   3.765   5.284   6.911
 5991SOL    HW218873   3.770   5.142   6.991
 5992SOL     OW18874   3.621   0.235   1.886
 5992SOL    HW118875   3.622   0.283   1.973
 5992SOL    HW218876   3.546   0.270   1.829
 5993SOL     OW18877   3.365   4.728   5.986
 5993SOL    HW118878   3.345   4.695   6.078
 5993SOL    HW218879   3.436   4.799   5.990
 5994SOL     OW18880   6.985   2.568   1.141
 5994SOL    HW118881   0.056   2.533   1.103
 5994SOL    HW218882   6.921   2.493   1.153
 5995SOL     OW18883   4.926   3.374   2.318
 5995SOL    HW118884   5.024   3.381   2.336
 5995SOL    HW218885   4.893   3.459   2.277
 5996SOL     OW18886   0.891   6.161   0.937
 5996SOL    HW118887   0.879   6.175   0.839
 5996SOL    HW218888   0.855   6.240   0.987
 5997SOL     OW18889   0.139   5.353   2.532
 5997SOL    HW118890   0.199   5.284   2.491
 5997SOL    HW218891   0.062   5.308   2.577
 5998SOL     OW18892   6.087   1.574   3.068
 5998SOL    HW118893   6.140   1.501   3.023
 5998SOL    HW218894   5.999   1.537   3.098
 5999SOL     OW18895   2.780   2.800   1.705
 5999SOL    HW118896   2.813   2.763   1.618
 5999SOL    HW218897   2.857   2.835   1.757
 6000SOL     OW18898   2.406   6.748   0.630
 6000SOL    HW118899   2.417   6.663   0.682
 6000SOL    HW218900   2.464   6.744   0.548
 6001SOL     OW18901   0.159   4.815   6.664
 6001SOL    HW118902   0.258   4.831   6.674
 6001SOL    HW218903   0.143   4.760   6.582
 6002SOL     OW18904   6.004   0.440   0.510
 6002SOL    HW118905   6.035   0.535   0.521
 6002SOL    HW218906   6.083   0.379   0.515
 6003SOL     OW18907   5.558   2.105   4.392
 6003SOL    HW118908   5.650   2.088   4.426
 6003SOL    HW218909   5.504   2.151   4.463
 6004SOL     OW18910   6.857   3.683   3.021
 6004SOL    HW118911   6.782   3.628   3.057
 6004SOL    HW218912   6.928   3.692   3.091
 6005SOL     OW18913   5.063   5.281   4.318
 6005SOL    HW118914   4.986   5.332   4.280
 6005SOL    HW218915   5.121   5.343   4.370
 6006SOL     OW18916   2.564   0.805   5.109
 6006SOL    HW118917   2.565   0.801   5.209
 6006SOL    HW218918   2.649   0.765   5.074
 6007SOL     OW18919   5.394   3.559   6.124
 6007SOL    HW118920   5.421   3.651   6.154
 6007SOL    HW218921   5.463   3.522   6.063
 6008SOL     OW18922   2.676   4.435   5.270
 6008SOL    HW118923   2.728   4.498   5.212
 6008SOL    HW218924   2.635   4.363   5.213
 6009SOL     OW18925   2.126   0.777   3.473
 6009SOL    HW118926   2.225   0.784   3.463
 6009SOL    HW218927   2.088   0.865   3.502
 6010SOL     OW18928   1.188   5.117   4.286
 6010SOL    HW118929   1.207   5.152   4.377
 6010SOL    HW218930   1.090   5.118   4.270
 6011SOL     OW18931   5.451   2.912   2.965
 6011SOL    HW118932   5.438   2.816   2.988
 6011SOL    HW218933   5.529   2.921   2.902
 6012SOL     OW18934   5.917   0.698   0.838
 6012SOL    HW118935   6.011   0.663   0.844
 6012SOL    HW218936   5.855   0.623   0.814
 6013SOL     OW18937   5.230   1.357   2.697
 6013SOL    HW118938   5.319   1.331   2.659
 6013SOL    HW218939   5.237   1.449   2.736
 6014SOL     OW18940   3.794   3.635   3.207
 6014SOL    HW118941   3.776   3.703   3.136
 6014SOL    HW218942   3.808   3.546   3.164
 6015SOL     OW18943   6.383   3.776   4.281
 6015SOL    HW118944   6.414   3.698   4.226
 6015SOL    HW218945   6.340   3.844   4.221
 6016SOL     OW18946   6.152   1.894   5.570
 6016SOL    HW118947   6.221   1.952   5.612
 6016SOL    HW218948   6.067   1.945   5.561
 6017SOL     OW18949   5.831   5.080   3.321
 6017SOL    HW118950   5.928   5.058   3.305
 6017SOL    HW218951   5.803   5.041   3.409
 6018SOL     OW18952   3.850   0.525   6.004
 6018SOL    HW118953   3.764   0.502   5.956
 6018SOL    HW218954   3.909   0.445   6.004
 6019SOL     OW18955   0.968   2.657   4.402
 6019SOL    HW118956   0.906   2.719   4.354
 6019SOL    HW218957   1.033   2.617   4.338
 6020SOL     OW18958   0.891   4.728   1.246
 6020SOL    HW118959   0.900   4.753   1.150
 6020SOL    HW218960   0.861   4.633   1.254
 6021SOL     OW18961   4.331   0.196   2.729
 6021SOL    HW118962   4.245   0.247   2.723
 6021SOL    HW218963   4.318   0.104   2.693
 6022SOL     OW18964   5.483   1.850   3.624
 6022SOL    HW118965   5.571   1.897   3.629
 6022SOL    HW218966   5.458   1.815   3.714
 6023SOL     OW18967   5.707   0.850   1.347
 6023SOL    HW118968   5.628   0.896   1.389
 6023SOL    HW218969   5.783   0.914   1.340
 6024SOL     OW18970   2.180   4.753   2.575
 6024SOL    HW118971   2.084   4.766   2.600
 6024SOL    HW218972   2.195   4.658   2.546
 6025SOL     OW18973   3.823   1.512   3.351
 6025SOL    HW118974   3.923   1.513   3.342
 6025SOL    HW218975   3.798   1.496   3.446
 6026SOL     OW18976   6.983   4.324   5.747
 6026SOL    HW118977   6.998   4.327   5.846
 6026SOL    HW218978   0.055   4.329   5.700
 6027SOL     OW18979   0.976   3.160   5.188
 6027SOL    HW118980   0.938   3.102   5.260
 6027SOL    HW218981   1.070   3.183   5.210
 6028SOL     OW18982   6.741   4.654   0.235
 6028SOL    HW118983   6.764   4.681   0.142
 6028SOL    HW218984   6.678   4.720   0.275
 6029SOL     OW18985   2.361   0.172   4.946
 6029SOL    HW118986   2.333   0.264   4.919
 6029SOL    HW218987   2.461   0.170   4.956
 6030SOL     OW18988   3.771   5.186   2.862
 6030SOL    HW118989   3.862   5.182   2.904
 6030SOL    HW218990   3.711   5.120   2.907
 6031SOL     OW18991   3.074   5.696   4.662
 6031SOL    HW118992   3.110   5.648   4.582
 6031SOL    HW218993   2.985   5.736   4.640
 6032SOL     OW18994   2.420   4.754   2.720
 6032SOL    HW118995   2.418   4.816   2.799
 6032SOL    HW218996   2.344   4.776   2.659
 6033SOL     OW18997   2.357   2.473   3.056
 6033SOL    HW118998   2.447   2.477   3.100
 6033SOL    HW218999   2.337   2.379   3.029
 6034SOL     OW19000   1.322   0.006   5.520
 6034SOL    HW119001   1.297   0.082   5.580
 6034SOL    HW219002   1.324   0.038   5.425
 6035SOL     OW19003   0.754   1.601   2.028
 6035SOL    HW119004   0.688   1.573   2.098
 6035SOL    HW219005   0.717   1.581   1.937
 6036SOL     OW19006   4.944   5.022   3.052
 6036SOL    HW119007   4.898   4.949   3.102
 6036SOL    HW219008   4.955   4.995   2.956
 6037SOL     OW19009   4.095   6.376   0.379
 6037SOL    HW119010   4.072   6.291   0.427
 6037SOL    HW219011   4.106   6.357   0.281
 6038SOL     OW19012   1.830   2.559   5.794
 6038SOL    HW119013   1.783   2.474   5.816
 6038SOL    HW219014   1.787   2.602   5.714
 6039SOL     OW19015   3.161   2.986   2.763
 6039SOL    HW119016   3.111   3.064   2.722
 6039SOL    HW219017   3.176   3.003   2.860
 6040SOL     OW19018   1.606   1.560   0.575
 6040SOL    HW119019   1.588   1.476   0.625
 6040SOL    HW219020   1.551   1.635   0.613
 6041SOL     OW19021   3.158   0.712   5.541
 6041SOL    HW119022   3.206   0.796   5.516
 6041SOL    HW219023   3.075   0.735   5.592
 6042SOL     OW19024   4.364   6.887   2.409
 6042SOL    HW119025   4.287   6.841   2.365
 6042SOL    HW219026   4.448   6.836   2.391
 6043SOL     OW19027   1.280   5.589   5.659
 6043SOL    HW119028   1.252   5.644   5.580
 6043SOL    HW219029   1.228   5.504   5.660
 6044SOL     OW19030   1.599   2.651   1.677
 6044SOL    HW119031   1.637   2.645   1.584
 6044SOL    HW219032   1.560   2.742   1.691
 6045SOL     OW19033   6.335   4.313   2.251
 6045SOL    HW119034   6.240   4.282   2.248
 6045SOL    HW219035   6.382   4.271   2.328
 6046SOL     OW19036   3.378   2.466   0.779
 6046SOL    HW119037   3.474   2.440   0.786
 6046SOL    HW219038   3.322   2.403   0.834
 6047SOL     OW19039   5.313   1.697   1.906
 6047SOL    HW119040   5.220   1.678   1.939
 6047SOL    HW219041   5.330   1.644   1.823
 6048SOL     OW19042   4.698   4.999   5.018
 6048SOL    HW119043   4.731   4.974   5.109
 6048SOL    HW219044   4.769   5.049   4.969
 6049SOL     OW19045   4.808   3.358   0.174
 6049SOL    HW119046   4.735   3.297   0.142
 6049SOL    HW219047   4.892   3.305   0.187
 6050SOL     OW19048   3.481   5.559   6.128
 6050SOL    HW119049   3.567   5.557   6.179
 6050SOL    HW219050   3.493   5.614   6.045
 6051SOL     OW19051   1.845   7.004   4.143
 6051SOL    HW119052   1.805   0.077   4.161
 6051SOL    HW219053   1.934   0.000   4.098
 6052SOL     OW19054   5.588   1.338   0.356
 6052SOL    HW119055   5.581   1.258   0.297
 6052SOL    HW219056   5.618   1.310   0.447
 6053SOL     OW19057   4.803   1.123   6.239
 6053SOL    HW119058   4.883   1.123   6.180
 6053SOL    HW219059   4.802   1.206   6.294
 6054SOL     OW19060   2.734   2.855   0.288
 6054SOL    HW119061   2.806   2.917   0.320
 6054SOL    HW219062   2.655   2.909   0.260
 6055SOL     OW19063   4.976   6.824   5.565
 6055SOL    HW119064   4.973   6.886   5.643
 6055SOL    HW219065   5.048   6.852   5.502
 6056SOL     OW19066   4.949   3.716   4.644
 6056SOL    HW119067   4.922   3.794   4.701
 6056SOL    HW219068   4.921   3.632   4.690
 6057SOL     OW19069   6.409   2.003   3.057
 6057SOL    HW119070   6.443   1.910   3.074
 6057SOL    HW219071   6.325   1.999   3.003
 6058SOL     OW19072   4.607   3.847   1.605
 6058SOL    HW119073   4.608   3.820   1.509
 6058SOL    HW219074   4.518   3.887   1.627
 6059SOL     OW19075   5.125   4.919   5.630
 6059SOL    HW119076   5.167   4.951   5.715
 6059SOL    HW219077   5.067   4.990   5.592
 6060SOL     OW19078   2.799   3.366   6.473
 6060SOL    HW119079   2.750   3.408   6.396
 6060SOL    HW219080   2.895   3.353   6.448
 6061SOL     OW19081   3.777   2.918   0.982
 6061SOL    HW119082   3.833   2.844   1.018
 6061SOL    HW219083   3.712   2.881   0.916
 6062SOL     OW19084   2.890   1.279   5.306
 6062SOL    HW119085   2.799   1.289   5.346
 6062SOL    HW219086   2.957   1.273   5.380
 6063SOL     OW19087   4.568   2.434   6.235
 6063SOL    HW119088   4.581   2.530   6.209
 6063SOL    HW219089   4.523   2.429   6.324
 6064SOL     OW19090   1.064   6.279   1.536
 6064SOL    HW119091   1.039   6.365   1.581
 6064SOL    HW219092   1.110   6.299   1.450
 6065SOL     OW19093   0.826   6.945   2.773
 6065SOL    HW119094   0.750   6.897   2.728
 6065SOL    HW219095   0.790   0.004   2.828
 6066SOL     OW19096   4.501   1.459   5.925
 6066SOL    HW119097   4.484   1.533   5.990
 6066SOL    HW219098   4.550   1.385   5.971
 6067SOL     OW19099   5.738   0.774   5.474
 6067SOL    HW119100   5.793   0.696   5.504
 6067SOL    HW219101   5.647   0.767   5.514
 6068SOL     OW19102   4.837   2.958   4.831
 6068SOL    HW119103   4.741   2.940   4.853
 6068SOL    HW219104   4.872   3.031   4.890
 6069SOL     OW19105   6.194   3.111   4.979
 6069SOL    HW119106   6.114   3.059   4.950
 6069SOL    HW219107   6.263   3.109   4.907
 6070SOL     OW19108   3.055   1.812   0.917
 6070SOL    HW119109   3.058   1.712   0.912
 6070SOL    HW219110   3.104   1.843   0.999
 6071SOL     OW19111   5.752   5.818   4.740
 6071SOL    HW119112   5.833   5.812   4.799
 6071SOL    HW219113   5.780   5.820   4.645
 6072SOL     OW19114   6.579   6.751   1.345
 6072SOL    HW119115   6.637   6.750   1.426
 6072SOL    HW219116   6.483   6.750   1.372
 6073SOL     OW19117   5.552   3.068   0.874
 6073SOL    HW119118   5.532   2.986   0.821
 6073SOL    HW219119   5.637   3.055   0.925
 6074SOL     OW19120   1.091   6.484   2.344
 6074SOL    HW119121   1.100   6.387   2.368
 6074SOL    HW219122   1.180   6.528   2.350
 6075SOL     OW19123   5.183   0.756   5.708
 6075SOL    HW119124   5.156   0.815   5.632
 6075SOL    HW219125   5.252   0.802   5.763
 6076SOL     OW19126   3.409   5.652   4.304
 6076SOL    HW119127   3.435   5.576   4.243
 6076SOL    HW219128   3.410   5.737   4.252
 6077SOL     OW19129   6.253   5.574   0.732
 6077SOL    HW119130   6.200   5.511   0.674
 6077SOL    HW219131   6.215   5.573   0.824
 6078SOL     OW19132   4.788   5.538   0.345
 6078SOL    HW119133   4.734   5.503   0.421
 6078SOL    HW219134   4.865   5.477   0.328
 6079SOL     OW19135   4.504   3.859   6.034
 6079SOL    HW119136   4.590   3.848   5.985
 6079SOL    HW219137   4.432   3.883   5.969
 6080SOL     OW19138   0.137   6.405   0.927
 6080SOL    HW119139   0.112   6.502   0.920
 6080SOL    HW219140   0.171   6.386   1.019
 6081SOL     OW19141   6.513   2.839   5.167
 6081SOL    HW119142   6.463   2.752   5.174
 6081SOL    HW219143   6.592   2.837   5.228
 6082SOL     OW19144   2.042   1.707   3.367
 6082SOL    HW119145   1.998   1.699   3.278
 6082SOL    HW219146   2.004   1.639   3.430
 6083SOL     OW19147   6.194   5.879   0.191
 6083SOL    HW119148   6.286   5.910   0.216
 6083SOL    HW219149   6.199   5.833   0.102
 6084SOL     OW19150   0.516   6.919   3.245
 6084SOL    HW119151   0.463   6.834   3.246
 6084SOL    HW219152   0.558   6.933   3.334
 6085SOL     OW19153   0.171   6.232   0.452
 6085SOL    HW119154   0.100   6.167   0.422
 6085SOL    HW219155   0.164   6.316   0.399
 6086SOL     OW19156   3.340   1.064   5.713
 6086SOL    HW119157   3.246   1.041   5.739
 6086SOL    HW219158   3.400   1.053   5.793
 6087SOL     OW19159   3.727   5.724   1.391
 6087SOL    HW119160   3.641   5.682   1.361
 6087SOL    HW219161   3.710   5.820   1.414
 6088SOL     OW19162   5.673   6.127   4.568
 6088SOL    HW119163   5.713   6.158   4.654
 6088SOL    HW219164   5.600   6.061   4.588
 6089SOL     OW19165   5.146   3.109   2.296
 6089SOL    HW119166   5.051   3.085   2.275
 6089SOL    HW219167   5.178   3.055   2.374
 6090SOL     OW19168   2.516   5.953   5.082
 6090SOL    HW119169   2.546   6.016   5.010
 6090SOL    HW219170   2.453   6.000   5.144
 6091SOL     OW19171   1.886   1.166   0.069
 6091SOL    HW119172   1.927   1.086   0.026
 6091SOL    HW219173   1.915   1.248   0.021
 6092SOL     OW19174   4.088   6.852   2.019
 6092SOL    HW119175   4.011   6.826   1.961
 6092SOL    HW219176   4.095   6.788   2.096
 6093SOL     OW19177   2.045   3.348   1.887
 6093SOL    HW119178   2.102   3.270   1.861
 6093SOL    HW219179   2.104   3.423   1.918
 6094SOL     OW19180   1.969   6.446   2.081
 6094SOL    HW119181   1.870   6.428   2.081
 6094SOL    HW219182   2.018   6.360   2.094
 6095SOL     OW19183   5.521   4.384   0.744
 6095SOL    HW119184   5.517   4.410   0.841
 6095SOL    HW219185   5.484   4.292   0.733
 6096SOL     OW19186   5.603   6.764   4.050
 6096SOL    HW119187   5.681   6.819   4.077
 6096SOL    HW219188   5.557   6.729   4.132
 6097SOL     OW19189   2.293   5.832   2.051
 6097SOL    HW119190   2.248   5.774   1.983
 6097SOL    HW219191   2.245   5.823   2.138
 6098SOL     OW19192   0.504   1.357   4.823
 6098SOL    HW119193   0.597   1.393   4.810
 6098SOL    HW219194   0.448   1.382   4.744
 6099SOL     OW19195   5.565   6.343   0.268
 6099SOL    HW119196   5.518   6.264   0.307
 6099SOL    HW219197   5.498   6.403   0.225
 6100SOL     OW19198   5.417   6.195   0.830
 6100SOL    HW119199   5.479   6.146   0.892
 6100SOL    HW219200   5.424   6.156   0.738
 6101SOL     OW19201   6.345   3.803   3.596
 6101SOL    HW119202   6.385   3.858   3.669
 6101SOL    HW219203   6.370   3.842   3.508
 6102SOL     OW19204   3.462   6.166   3.299
 6102SOL    HW119205   3.442   6.168   3.397
 6102SOL    HW219206   3.411   6.091   3.257
 6103SOL     OW19207   6.493   1.923   1.143
 6103SOL    HW119208   6.544   1.905   1.227
 6103SOL    HW219209   6.425   1.851   1.128
 6104SOL     OW19210   5.699   0.850   5.754
 6104SOL    HW119211   5.646   0.930   5.726
 6104SOL    HW219212   5.731   0.862   5.848
 6105SOL     OW19213   3.272   6.158   0.042
 6105SOL    HW119214   3.293   6.076   7.004
 6105SOL    HW219215   3.177   6.186   0.024
 6106SOL     OW19216   1.355   3.708   6.627
 6106SOL    HW119217   1.306   3.650   6.692
 6106SOL    HW219218   1.383   3.793   6.673
 6107SOL     OW19219   4.261   5.647   4.762
 6107SOL    HW119220   4.312   5.732   4.748
 6107SOL    HW219221   4.267   5.590   4.680
 6108SOL     OW19222   2.104   3.069   1.764
 6108SOL    HW119223   2.012   3.030   1.772
 6108SOL    HW219224   2.171   2.999   1.789
 6109SOL     OW19225   5.763   1.777   4.811
 6109SOL    HW119226   5.816   1.705   4.855
 6109SOL    HW219227   5.730   1.745   4.723
 6110SOL     OW19228   4.055   4.051   0.698
 6110SOL    HW119229   4.111   4.129   0.669
 6110SOL    HW219230   4.111   3.969   0.698
 6111SOL     OW19231   1.785   4.092   2.707
 6111SOL    HW119232   1.687   4.082   2.722
 6111SOL    HW219233   1.834   4.062   2.789
 6112SOL     OW19234   3.450   0.172   2.440
 6112SOL    HW119235   3.513   0.237   2.482
 6112SOL    HW219236   3.357   0.211   2.440
 6113SOL     OW19237   2.961   1.727   6.533
 6113SOL    HW119238   3.051   1.736   6.576
 6113SOL    HW219239   2.972   1.699   6.438
 6114SOL     OW19240   5.314   4.665   1.795
 6114SOL    HW119241   5.332   4.739   1.860
 6114SOL    HW219242   5.248   4.695   1.727
 6115SOL     OW19243   5.561   0.104   4.178
 6115SOL    HW119244   5.642   0.059   4.215
 6115SOL    HW219245   5.559   0.094   4.079
 6116SOL     OW19246   4.233   1.371   5.816
 6116SOL    HW119247   4.293   1.336   5.744
 6116SOL    HW219248   4.142   1.330   5.807
 6117SOL     OW19249   1.415   1.298   3.097
 6117SOL    HW119250   1.443   1.392   3.116
 6117SOL    HW219251   1.493   1.237   3.109
 6118SOL     OW19252   0.193   0.856   1.906
 6118SOL    HW119253   0.214   0.886   1.999
 6118SOL    HW219254   0.096   0.835   1.899
 6119SOL     OW19255   0.667   4.015   6.758
 6119SOL    HW119256   0.635   3.944   6.696
 6119SOL    HW219257   0.754   3.987   6.799
 6120SOL     OW19258   3.929   6.371   5.446
 6120SOL    HW119259   3.978   6.285   5.430
 6120SOL    HW219260   3.838   6.365   5.404
 6121SOL     OW19261   0.468   3.256   5.360
 6121SOL    HW119262   0.438   3.199   5.436
 6121SOL    HW219263   0.408   3.243   5.281
 6122SOL     OW19264   4.450   5.465   0.445
 6122SOL    HW119265   4.376   5.398   0.445
 6122SOL    HW219266   4.538   5.418   0.455
 6123SOL     OW19267   5.420   6.490   6.499
 6123SOL    HW119268   5.454   6.473   6.592
 6123SOL    HW219269   5.367   6.412   6.468
 6124SOL     OW19270   1.588   6.878   5.975
 6124SOL    HW119271   1.526   6.905   5.901
 6124SOL    HW219272   1.681   6.874   5.941
 6125SOL     OW19273   1.997   4.453   0.831
 6125SOL    HW119274   1.984   4.550   0.807
 6125SOL    HW219275   2.048   4.447   0.917
 6126SOL     OW19276   1.047   6.863   4.468
 6126SOL    HW119277   1.073   6.900   4.557
 6126SOL    HW219278   0.954   6.890   4.447
 6127SOL     OW19279   3.340   0.497   1.028
 6127SOL    HW119280   3.343   0.597   1.027
 6127SOL    HW219281   3.434   0.462   1.030
 6128SOL     OW19282   5.728   3.924   0.378
 6128SOL    HW119283   5.646   3.979   0.393
 6128SOL    HW219284   5.716   3.868   0.296
 6129SOL     OW19285   6.838   3.015   2.916
 6129SOL    HW119286   6.799   2.974   2.834
 6129SOL    HW219287   6.909   3.080   2.890
 6130SOL     OW19288   5.859   2.404   2.645
 6130SOL    HW119289   5.935   2.468   2.636
 6130SOL    HW219290   5.840   2.361   2.556
 6131SOL     OW19291   0.334   1.630   4.808
 6131SOL    HW119292   0.353   1.650   4.904
 6131SOL    HW219293   0.412   1.658   4.752
 6132SOL     OW19294   5.016   1.943   0.239
 6132SOL    HW119295   4.980   2.030   0.273
 6132SOL    HW219296   5.071   1.958   0.157
 6133SOL     OW19297   1.700   3.221   2.059
 6133SOL    HW119298   1.681   3.183   2.149
 6133SOL    HW219299   1.799   3.229   2.046
 6134SOL     OW19300   4.297   4.575   6.674
 6134SOL    HW119301   4.318   4.641   6.602
 6134SOL    HW219302   4.290   4.483   6.634
 6135SOL     OW19303   0.424   0.592   0.553
 6135SOL    HW119304   0.469   0.534   0.621
 6135SOL    HW219305   0.443   0.688   0.574
 6136SOL     OW19306   1.341   2.998   2.018
 6136SOL    HW119307   1.430   2.967   1.984
 6136SOL    HW219308   1.333   2.977   2.115
 6137SOL     OW19309   6.759   3.390   2.803
 6137SOL    HW119310   6.747   3.355   2.710
 6137SOL    HW219311   6.819   3.469   2.801
 6138SOL     OW19312   4.082   6.386   2.653
 6138SOL    HW119313   4.001   6.338   2.620
 6138SOL    HW219314   4.093   6.371   2.752
 6139SOL     OW19315   1.875   6.562   6.089
 6139SOL    HW119316   1.933   6.618   6.030
 6139SOL    HW219317   1.894   6.465   6.073
 6140SOL     OW19318   0.845   6.397   1.742
 6140SOL    HW119319   0.841   6.306   1.785
 6140SOL    HW219320   0.773   6.405   1.674
 6141SOL     OW19321   0.297   6.883   6.636
 6141SOL    HW119322   0.213   6.911   6.682
 6141SOL    HW219323   0.277   6.809   6.572
 6142SOL     OW19324   1.091   6.696   0.159
 6142SOL    HW119325   0.992   6.689   0.146
 6142SOL    HW219326   1.130   6.604   0.169
 6143SOL     OW19327   6.991   3.486   1.270
 6143SOL    HW119328   6.971   3.393   1.300
 6143SOL    HW219329   6.926   3.514   1.200
 6144SOL     OW19330   5.288   4.555   3.339
 6144SOL    HW119331   5.366   4.580   3.280
 6144SOL    HW219332   5.225   4.632   3.345
 6145SOL     OW19333   5.066   5.170   3.226
 6145SOL    HW119334   5.044   5.105   3.153
 6145SOL    HW219335   5.120   5.245   3.188
 6146SOL     OW19336   3.295   5.802   3.889
 6146SOL    HW119337   3.223   5.870   3.892
 6146SOL    HW219338   3.302   5.764   3.797
 6147SOL     OW19339   2.339   1.608   4.033
 6147SOL    HW119340   2.273   1.573   4.099
 6147SOL    HW219341   2.296   1.611   3.942
 6148SOL     OW19342   4.984   6.801   5.100
 6148SOL    HW119343   5.081   6.780   5.115
 6148SOL    HW219344   4.934   6.716   5.086
 6149SOL     OW19345   2.439   6.239   1.285
 6149SOL    HW119346   2.396   6.328   1.297
 6149SOL    HW219347   2.372   6.167   1.303
 6150SOL     OW19348   4.826   5.374   6.999
 6150SOL    HW119349   4.910   5.403   6.953
 6150SOL    HW219350   4.754   5.442   6.984
 6151SOL     OW19351   6.093   4.981   6.448
 6151SOL    HW119352   6.042   5.058   6.485
 6151SOL    HW219353   6.069   4.969   6.351
 6152SOL     OW19354   6.135   5.342   4.454
 6152SOL    HW119355   6.173   5.420   4.505
 6152SOL    HW219356   6.102   5.375   4.365
 6153SOL     OW19357   5.328   4.334   1.126
 6153SOL    HW119358   5.371   4.412   1.081
 6153SOL    HW219359   5.390   4.256   1.126
 6154SOL     OW19360   5.710   2.191   3.060
 6154SOL    HW119361   5.657   2.274   3.076
 6154SOL    HW219362   5.807   2.213   3.051
 6155SOL     OW19363   1.588   1.679   3.442
 6155SOL    HW119364   1.527   1.610   3.480
 6155SOL    HW219365   1.671   1.684   3.498
 6156SOL     OW19366   4.349   4.385   1.470
 6156SOL    HW119367   4.262   4.381   1.422
 6156SOL    HW219368   4.371   4.480   1.492
 6157SOL     OW19369   6.895   1.263   4.573
 6157SOL    HW119370   6.868   1.167   4.577
 6157SOL    HW219371   6.906   1.299   4.666
 6158SOL     OW19372   3.941   2.128   6.161
 6158SOL    HW119373   4.021   2.186   6.148
 6158SOL    HW219374   3.865   2.164   6.106
 6159SOL     OW19375   4.982   2.220   2.160
 6159SOL    HW119376   4.944   2.297   2.212
 6159SOL    HW219377   5.012   2.148   2.223
 6160SOL     OW19378   5.411   1.004   6.591
 6160SOL    HW119379   5.343   0.940   6.627
 6160SOL    HW219380   5.494   0.999   6.648
 6161SOL     OW19381   4.947   1.966   5.276
 6161SOL    HW119382   5.012   1.983   5.351
 6161SOL    HW219383   4.854   1.981   5.309
 6162SOL     OW19384   0.586   6.116   3.321
 6162SOL    HW119385   0.652   6.190   3.309
 6162SOL    HW219386   0.535   6.102   3.236
 6163SOL     OW19387   6.491   6.849   1.094
 6163SOL    HW119388   6.537   6.822   1.178
 6163SOL    HW219389   6.536   6.805   1.016
 6164SOL     OW19390   3.796   3.853   3.020
 6164SOL    HW119391   3.774   3.949   3.035
 6164SOL    HW219392   3.870   3.845   2.953
 6165SOL     OW19393   5.110   1.978   6.982
 6165SOL    HW119394   5.172   2.045   6.941
 6165SOL    HW219395   5.061   1.930   6.909
 6166SOL     OW19396   5.714   1.301   6.676
 6166SOL    HW119397   5.619   1.326   6.695
 6166SOL    HW219398   5.727   1.203   6.693
 6167SOL     OW19399   0.932   5.306   2.992
 6167SOL    HW119400   0.873   5.245   3.045
 6167SOL    HW219401   0.889   5.328   2.905
 6168SOL     OW19402   1.860   3.799   2.091
 6168SOL    HW119403   1.835   3.730   2.159
 6168SOL    HW219404   1.933   3.763   2.033
 6169SOL     OW19405   0.928   2.158   0.087
 6169SOL    HW119406   0.915   2.257   0.093
 6169SOL    HW219407   0.946   2.121   0.178
 6170SOL     OW19408   1.373   4.168   5.364
 6170SOL    HW119409   1.423   4.098   5.313
 6170SOL    HW219410   1.388   4.156   5.462
 6171SOL     OW19411   0.966   3.351   1.294
 6171SOL    HW119412   0.937   3.279   1.232
 6171SOL    HW219413   1.038   3.405   1.251
 6172SOL     OW19414   1.183   2.619   2.730
 6172SOL    HW119415   1.166   2.525   2.701
 6172SOL    HW219416   1.126   2.681   2.676
 6173SOL     OW19417   6.491   5.533   1.917
 6173SOL    HW119418   6.442   5.522   1.830
 6173SOL    HW219419   6.463   5.461   1.980
 6174SOL     OW19420   5.419   4.614   3.697
 6174SOL    HW119421   5.382   4.530   3.656
 6174SOL    HW219422   5.503   4.593   3.747
 6175SOL     OW19423   4.933   0.391   3.431
 6175SOL    HW119424   5.025   0.353   3.421
 6175SOL    HW219425   4.929   0.482   3.389
 6176SOL     OW19426   4.878   3.838   6.277
 6176SOL    HW119427   4.970   3.821   6.313
 6176SOL    HW219428   4.813   3.845   6.352
 6177SOL     OW19429   5.776   0.561   1.402
 6177SOL    HW119430   5.748   0.651   1.368
 6177SOL    HW219431   5.725   0.490   1.354
 6178SOL     OW19432   5.010   5.186   2.797
 6178SOL    HW119433   4.974   5.095   2.775
 6178SOL    HW219434   5.105   5.178   2.827
 6179SOL     OW19435   0.167   4.383   3.615
 6179SOL    HW119436   0.106   4.347   3.686
 6179SOL    HW219437   0.128   4.466   3.576
 6180SOL     OW19438   3.770   4.337   0.187
 6180SOL    HW119439   3.678   4.304   0.164
 6180SOL    HW219440   3.811   4.275   0.254
 6181SOL     OW19441   3.865   6.930   0.931
 6181SOL    HW119442   3.919   6.890   1.005
 6181SOL    HW219443   3.860   6.865   0.855
 6182SOL     OW19444   5.496   3.018   4.944
 6182SOL    HW119445   5.412   3.031   4.996
 6182SOL    HW219446   5.502   3.088   4.873
 6183SOL     OW19447   1.564   2.270   3.180
 6183SOL    HW119448   1.605   2.181   3.197
 6183SOL    HW219449   1.536   2.276   3.084
 6184SOL     OW19450   2.108   6.956   6.550
 6184SOL    HW119451   2.179   6.932   6.484
 6184SOL    HW219452   2.018   6.939   6.512
 6185SOL     OW19453   0.751   3.757   6.082
 6185SOL    HW119454   0.790   3.812   6.156
 6185SOL    HW219455   0.656   3.784   6.066
 6186SOL     OW19456   0.260   0.116   6.835
 6186SOL    HW119457   0.350   0.094   6.873
 6186SOL    HW219458   0.201   0.036   6.841
 6187SOL     OW19459   4.616   4.890   3.406
 6187SOL    HW119460   4.561   4.871   3.488
 6187SOL    HW219461   4.607   4.987   3.383
 6188SOL     OW19462   2.321   0.527   0.921
 6188SOL    HW119463   2.255   0.600   0.942
 6188SOL    HW219464   2.292   0.443   0.965
 6189SOL     OW19465   4.671   4.194   3.339
 6189SOL    HW119466   4.740   4.260   3.365
 6189SOL    HW219467   4.705   4.101   3.354
 6190SOL     OW19468   0.645   4.066   5.854
 6190SOL    HW119469   0.727   4.019   5.821
 6190SOL    HW219470   0.613   4.130   5.784
 6191SOL     OW19471   3.130   2.196   0.235
 6191SOL    HW119472   3.033   2.189   0.256
 6191SOL    HW219473   3.167   2.106   0.215
 6192SOL     OW19474   3.442   2.404   6.013
 6192SOL    HW119475   3.394   2.431   6.096
 6192SOL    HW219476   3.423   2.308   5.992
 6193SOL     OW19477   5.289   0.797   2.154
 6193SOL    HW119478   5.223   0.733   2.115
 6193SOL    HW219479   5.382   0.767   2.129
 6194SOL     OW19480   1.577   6.966   1.929
 6194SOL    HW119481   1.659   0.007   1.928
 6194SOL    HW219482   1.543   6.959   2.022
 6195SOL     OW19483   3.686   6.376   6.429
 6195SOL    HW119484   3.638   6.302   6.382
 6195SOL    HW219485   3.778   6.346   6.453
 6196SOL     OW19486   5.445   3.078   1.632
 6196SOL    HW119487   5.540   3.052   1.647
 6196SOL    HW219488   5.386   3.000   1.653
 6197SOL     OW19489   4.186   4.602   0.246
 6197SOL    HW119490   4.229   4.511   0.243
 6197SOL    HW219491   4.087   4.591   0.249
 6198SOL     OW19492   3.898   6.678   2.315
 6198SOL    HW119493   3.858   6.652   2.403
 6198SOL    HW219494   3.827   6.681   2.245
 6199SOL     OW19495   1.104   1.207   0.643
 6199SOL    HW119496   1.063   1.235   0.556
 6199SOL    HW219497   1.164   1.280   0.677
 6200SOL     OW19498   1.364   1.414   5.773
 6200SOL    HW119499   1.422   1.372   5.843
 6200SOL    HW219500   1.420   1.468   5.711
 6201SOL     OW19501   0.637   3.461   5.155
 6201SOL    HW119502   0.723   3.437   5.200
 6201SOL    HW219503   0.612   3.389   5.090
 6202SOL     OW19504   3.717   1.556   2.463
 6202SOL    HW119505   3.689   1.632   2.522
 6202SOL    HW219506   3.643   1.533   2.401
 6203SOL     OW19507   6.918   6.448   2.470
 6203SOL    HW119508   6.899   6.443   2.568
 6203SOL    HW219509   6.960   6.536   2.448
 6204SOL     OW19510   0.599   5.227   4.458
 6204SOL    HW119511   0.541   5.302   4.428
 6204SOL    HW219512   0.590   5.150   4.395
 6205SOL     OW19513   6.436   5.806   0.350
 6205SOL    HW119514   6.533   5.820   0.369
 6205SOL    HW219515   6.415   5.708   0.350
 6206SOL     OW19516   6.508   1.430   3.715
 6206SOL    HW119517   6.516   1.332   3.731
 6206SOL    HW219518   6.430   1.448   3.656
 6207SOL     OW19519   0.737   4.966   4.880
 6207SOL    HW119520   0.651   4.997   4.841
 6207SOL    HW219521   0.808   5.035   4.866
 6208SOL     OW19522   5.211   2.501   5.987
 6208SOL    HW119523   5.119   2.467   6.003
 6208SOL    HW219524   5.262   2.437   5.929
 6209SOL     OW19525   4.066   5.505   6.617
 6209SOL    HW119526   4.073   5.604   6.632
 6209SOL    HW219527   4.151   5.462   6.647
 6210SOL     OW19528   5.110   3.079   3.427
 6210SOL    HW119529   5.053   3.095   3.508
 6210SOL    HW219530   5.197   3.038   3.455
 6211SOL     OW19531   2.881   6.548   5.656
 6211SOL    HW119532   2.784   6.570   5.672
 6211SOL    HW219533   2.934   6.571   5.737
 6212SOL     OW19534   1.996   5.361   4.397
 6212SOL    HW119535   1.902   5.377   4.426
 6212SOL    HW219536   2.045   5.311   4.468
 6213SOL     OW19537   6.228   0.280   0.500
 6213SOL    HW119538   6.274   0.286   0.411
 6213SOL    HW219539   6.278   0.217   0.560
 6214SOL     OW19540   4.930   5.082   4.127
 6214SOL    HW119541   5.006   5.084   4.193
 6214SOL    HW219542   4.924   4.990   4.088
 6215SOL     OW19543   4.130   1.694   0.415
 6215SOL    HW119544   4.159   1.765   0.480
 6215SOL    HW219545   4.108   1.610   0.465
 6216SOL     OW19546   6.553   1.667   2.479
 6216SOL    HW119547   6.546   1.568   2.462
 6216SOL    HW219548   6.468   1.700   2.519
 6217SOL     OW19549   0.396   3.816   3.082
 6217SOL    HW119550   0.418   3.719   3.094
 6217SOL    HW219551   0.300   3.825   3.055
 6218SOL     OW19552   3.972   5.986   6.845
 6218SOL    HW119553   3.957   6.062   6.908
 6218SOL    HW219554   4.035   5.920   6.886
 6219SOL     OW19555   1.770   2.054   4.512
 6219SOL    HW119556   1.815   2.073   4.425
 6219SOL    HW219557   1.698   2.121   4.528
 6220SOL     OW19558   1.870   1.603   4.629
 6220SOL    HW119559   1.934   1.610   4.706
 6220SOL    HW219560   1.801   1.675   4.637
 6221SOL     OW19561   5.408   5.909   6.649
 6221SOL    HW119562   5.439   5.873   6.737
 6221SOL    HW219563   5.444   6.002   6.637
 6222SOL     OW19564   1.063   6.095   1.715
 6222SOL    HW119565   1.136   6.031   1.690
 6222SOL    HW219566   1.035   6.148   1.635
 6223SOL     OW19567   1.079   5.070   3.966
 6223SOL    HW119568   1.095   5.149   3.906
 6223SOL    HW219569   0.999   5.087   4.023
 6224SOL     OW19570   2.885   1.677   6.062
 6224SOL    HW119571   2.864   1.592   6.014
 6224SOL    HW219572   2.957   1.661   6.129
 6225SOL     OW19573   3.864   3.787   0.035
 6225SOL    HW119574   3.929   3.844   7.001
 6225SOL    HW219575   3.829   3.716   6.990
 6226SOL     OW19576   0.103   1.693   5.515
 6226SOL    HW119577   0.088   1.753   5.593
 6226SOL    HW219578   0.079   1.741   5.430
 6227SOL     OW19579   3.311   6.219   4.987
 6227SOL    HW119580   3.280   6.288   5.051
 6227SOL    HW219581   3.234   6.161   4.959
 6228SOL     OW19582   1.036   2.728   2.512
 6228SOL    HW119583   1.003   2.639   2.480
 6228SOL    HW219584   1.014   2.798   2.444
 6229SOL     OW19585   0.585   2.235   3.377
 6229SOL    HW119586   0.548   2.146   3.402
 6229SOL    HW219587   0.636   2.273   3.455
 6230SOL     OW19588   0.656   1.487   3.373
 6230SOL    HW119589   0.562   1.487   3.407
 6230SOL    HW219590   0.672   1.402   3.322
 6231SOL     OW19591   5.948   6.088   0.769
 6231SOL    HW119592   5.901   6.157   0.715
 6231SOL    HW219593   6.046   6.106   0.770
 6232SOL     OW19594   6.899   0.791   0.699
 6232SOL    HW119595   6.986   0.798   0.746
 6232SOL    HW219596   6.909   0.735   0.617
 6233SOL     OW19597   0.148   1.816   1.336
 6233SOL    HW119598   0.126   1.852   1.426
 6233SOL    HW219599   0.077   1.752   1.307
 6234SOL     OW19600   6.848   1.615   5.643
 6234SOL    HW119601   6.855   1.658   5.554
 6234SOL    HW219602   6.921   1.547   5.653
 6235SOL     OW19603   0.710   6.614   0.926
 6235SOL    HW119604   0.761   6.679   0.982
 6235SOL    HW219605   0.713   6.643   0.830
 6236SOL     OW19606   0.710   3.925   0.942
 6236SOL    HW119607   0.751   3.873   1.016
 6236SOL    HW219608   0.782   3.955   0.879
 6237SOL     OW19609   3.571   0.469   6.300
 6237SOL    HW119610   3.478   0.435   6.287
 6237SOL    HW219611   3.571   0.569   6.302
 6238SOL     OW19612   3.744   4.859   2.760
 6238SOL    HW119613   3.646   4.876   2.749
 6238SOL    HW219614   3.763   4.832   2.855
 6239SOL     OW19615   3.005   0.517   1.810
 6239SOL    HW119616   3.047   0.565   1.733
 6239SOL    HW219617   2.907   0.538   1.813
 6240SOL     OW19618   1.958   2.953   5.318
 6240SOL    HW119619   1.881   2.943   5.254
 6240SOL    HW219620   1.976   3.050   5.334
 6241SOL     OW19621   3.366   6.930   1.380
 6241SOL    HW119622   3.421   6.850   1.405
 6241SOL    HW219623   3.425   7.011   1.378
 6242SOL     OW19624   4.713   0.430   4.052
 6242SOL    HW119625   4.711   0.486   4.135
 6242SOL    HW219626   4.623   0.432   4.009
 6243SOL     OW19627   5.903   6.717   4.463
 6243SOL    HW119628   5.879   6.637   4.409
 6243SOL    HW219629   6.003   6.725   4.468
 6244SOL     OW19630   6.404   2.612   2.047
 6244SOL    HW119631   6.355   2.529   2.021
 6244SOL    HW219632   6.375   2.640   2.139
 6245SOL     OW19633   1.740   4.102   0.354
 6245SOL    HW119634   1.682   4.101   0.273
 6245SOL    HW219635   1.747   4.010   0.392
 6246SOL     OW19636   1.518   1.931   5.441
 6246SOL    HW119637   1.492   1.885   5.526
 6246SOL    HW219638   1.506   2.030   5.452
 6247SOL     OW19639   6.871   5.114   4.348
 6247SOL    HW119640   6.843   5.136   4.254
 6247SOL    HW219641   6.793   5.079   4.399
 6248SOL     OW19642   3.279   3.394   0.282
 6248SOL    HW119643   3.215   3.317   0.281
 6248SOL    HW219644   3.358   3.371   0.338
 6249SOL     OW19645   0.026   3.883   0.620
 6249SOL    HW119646   0.077   3.962   0.655
 6249SOL    HW219647   0.037   3.879   0.520
 6250SOL     OW19648   6.662   0.548   0.007
 6250SOL    HW119649   6.714   0.471   0.043
 6250SOL    HW219650   6.602   0.517   6.949
 6251SOL     OW19651   3.983   5.935   6.593
 6251SOL    HW119652   3.899   5.952   6.541
 6251SOL    HW219653   3.966   5.950   6.690
 6252SOL     OW19654   2.655   5.939   5.605
 6252SOL    HW119655   2.607   5.885   5.673
 6252SOL    HW219656   2.683   5.880   5.529
 6253SOL     OW19657   2.205   4.759   3.947
 6253SOL    HW119658   2.280   4.776   4.011
 6253SOL    HW219659   2.231   4.789   3.856
 6254SOL     OW19660   5.892   1.045   1.262
 6254SOL    HW119661   5.990   1.027   1.250
 6254SOL    HW219662   5.854   1.082   1.177
 6255SOL     OW19663   3.330   0.457   0.587
 6255SOL    HW119664   3.269   0.433   0.663
 6255SOL    HW219665   3.368   0.548   0.603
 6256SOL     OW19666   3.536   5.402   1.774
 6256SOL    HW119667   3.629   5.368   1.789
 6256SOL    HW219668   3.521   5.482   1.831
 6257SOL     OW19669   5.311   1.961   0.818
 6257SOL    HW119670   5.348   2.052   0.799
 6257SOL    HW219671   5.220   1.953   0.778
 6258SOL     OW19672   3.608   0.844   3.574
 6258SOL    HW119673   3.554   0.864   3.656
 6258SOL    HW219674   3.688   0.904   3.572
 6259SOL     OW19675   1.869   2.514   6.812
 6259SOL    HW119676   1.793   2.469   6.859
 6259SOL    HW219677   1.923   2.445   6.763
 6260SOL     OW19678   3.305   5.774   0.217
 6260SOL    HW119679   3.271   5.821   0.299
 6260SOL    HW219680   3.238   5.784   0.143
 6261SOL     OW19681   3.993   1.312   6.851
 6261SOL    HW119682   4.091   1.291   6.842
 6261SOL    HW219683   3.962   1.357   6.767
 6262SOL     OW19684   2.487   6.502   1.651
 6262SOL    HW119685   2.388   6.505   1.642
 6262SOL    HW219686   2.521   6.593   1.678
 6263SOL     OW19687   6.917   0.634   5.279
 6263SOL    HW119688   6.949   0.592   5.364
 6263SOL    HW219689   6.940   0.731   5.279
 6264SOL     OW19690   1.772   0.133   1.957
 6264SOL    HW119691   1.869   0.154   1.973
 6264SOL    HW219692   1.717   0.176   2.028
 6265SOL     OW19693   4.159   3.302   0.340
 6265SOL    HW119694   4.184   3.326   0.433
 6265SOL    HW219695   4.084   3.360   0.309
 6266SOL     OW19696   4.278   1.054   3.980
 6266SOL    HW119697   4.326   0.967   3.964
 6266SOL    HW219698   4.269   1.069   4.079
 6267SOL     OW19699   2.571   6.838   5.857
 6267SOL    HW119700   2.559   6.882   5.768
 6267SOL    HW219701   2.482   6.820   5.898
 6268SOL     OW19702   2.649   0.139   3.048
 6268SOL    HW119703   2.630   0.146   2.950
 6268SOL    HW219704   2.614   0.221   3.094
 6269SOL     OW19705   0.551   6.511   1.575
 6269SOL    HW119706   0.538   6.413   1.565
 6269SOL    HW219707   0.555   6.535   1.672
 6270SOL     OW19708   1.599   0.165   6.132
 6270SOL    HW119709   1.539   0.200   6.204
 6270SOL    HW219710   1.558   0.183   6.042
 6271SOL     OW19711   6.357   1.957   6.472
 6271SOL    HW119712   6.273   1.992   6.429
 6271SOL    HW219713   6.394   2.026   6.534
 6272SOL     OW19714   0.505   2.632   0.066
 6272SOL    HW119715   0.497   2.587   0.155
 6272SOL    HW219716   0.523   2.729   0.079
 6273SOL     OW19717   0.787   6.275   2.575
 6273SOL    HW119718   0.796   6.177   2.591
 6273SOL    HW219719   0.787   6.293   2.477
 6274SOL     OW19720   3.530   6.119   5.792
 6274SOL    HW119721   3.555   6.182   5.865
 6274SOL    HW219722   3.465   6.051   5.827
 6275SOL     OW19723   2.476   6.587   6.528
 6275SOL    HW119724   2.406   6.522   6.499
 6275SOL    HW219725   2.439   6.648   6.597
 6276SOL     OW19726   1.940   4.144   3.596
 6276SOL    HW119727   1.894   4.071   3.546
 6276SOL    HW219728   1.882   4.226   3.595
 6277SOL     OW19729   4.845   3.413   1.413
 6277SOL    HW119730   4.896   3.332   1.383
 6277SOL    HW219731   4.770   3.430   1.349
 6278SOL     OW19732   5.213   6.592   4.987
 6278SOL    HW119733   5.170   6.520   5.041
 6278SOL    HW219734   5.231   6.558   4.895
 6279SOL     OW19735   3.641   6.203   6.878
 6279SOL    HW119736   3.661   6.265   6.802
 6279SOL    HW219737   3.573   6.136   6.850
 6280SOL     OW19738   1.101   1.911   4.559
 6280SOL    HW119739   1.104   1.901   4.460
 6280SOL    HW219740   1.190   1.942   4.592
 6281SOL     OW19741   0.479   5.011   3.901
 6281SOL    HW119742   0.467   5.076   3.977
 6281SOL    HW219743   0.523   4.928   3.935
 6282SOL     OW19744   0.586   5.785   5.532
 6282SOL    HW119745   0.582   5.879   5.498
 6282SOL    HW219746   0.554   5.783   5.626
 6283SOL     OW19747   6.743   3.440   4.980
 6283SOL    HW119748   6.653   3.452   5.020
 6283SOL    HW219749   6.751   3.498   4.899
 6284SOL     OW19750   0.798   5.669   4.691
 6284SOL    HW119751   0.883   5.653   4.641
 6284SOL    HW219752   0.787   5.767   4.709
 6285SOL     OW19753   0.047   3.844   4.617
 6285SOL    HW119754   0.082   3.878   4.704
 6285SOL    HW219755   0.075   3.904   4.543
 6286SOL     OW19756   6.134   2.052   4.283
 6286SOL    HW119757   6.152   1.981   4.214
 6286SOL    HW219758   6.036   2.066   4.292
 6287SOL     OW19759   3.562   5.156   4.834
 6287SOL    HW119760   3.546   5.183   4.928
 6287SOL    HW219761   3.498   5.204   4.773
 6288SOL     OW19762   4.719   4.464   2.364
 6288SOL    HW119763   4.705   4.386   2.425
 6288SOL    HW219764   4.817   4.485   2.359
 6289SOL     OW19765   1.828   5.091   0.890
 6289SOL    HW119766   1.863   5.135   0.973
 6289SOL    HW219767   1.851   4.994   0.892
 6290SOL     OW19768   6.273   4.994   5.212
 6290SOL    HW119769   6.205   5.046   5.264
 6290SOL    HW219770   6.252   4.998   5.115
 6291SOL     OW19771   3.962   3.116   4.592
 6291SOL    HW119772   3.965   3.072   4.682
 6291SOL    HW219773   3.909   3.058   4.530
 6292SOL     OW19774   1.406   1.970   4.582
 6292SOL    HW119775   1.417   1.925   4.671
 6292SOL    HW219776   1.458   2.056   4.581
 6293SOL     OW19777   3.893   0.992   0.674
 6293SOL    HW119778   3.919   1.015   0.767
 6293SOL    HW219779   3.973   0.993   0.614
 6294SOL     OW19780   3.530   7.004   4.025
 6294SOL    HW119781   3.604   6.936   4.023
 6294SOL    HW219782   3.568   0.079   4.005
 6295SOL     OW19783   5.616   4.842   5.916
 6295SOL    HW119784   5.707   4.814   5.946
 6295SOL    HW219785   5.586   4.783   5.840
 6296SOL     OW19786   0.883   6.516   5.894
 6296SOL    HW119787   0.880   6.609   5.858
 6296SOL    HW219788   0.799   6.468   5.869
 6297SOL     OW19789   5.401   1.149   4.335
 6297SOL    HW119790   5.462   1.096   4.276
 6297SOL    HW219791   5.386   1.100   4.421
 6298SOL     OW19792   1.456   3.132   6.840
 6298SOL    HW119793   1.515   3.062   6.880
 6298SOL    HW219794   1.415   3.097   6.755
 6299SOL     OW19795   6.083   2.144   0.906
 6299SOL    HW119796   5.990   2.107   0.901
 6299SOL    HW219797   6.145   2.075   0.943
 6300SOL     OW19798   6.334   0.613   0.199
 6300SOL    HW119799   6.385   0.697   0.179
 6300SOL    HW219800   6.279   0.589   0.120
 6301SOL     OW19801   3.761   6.654   0.324
 6301SOL    HW119802   3.717   6.574   0.365
 6301SOL    HW219803   3.817   6.700   0.392
 6302SOL     OW19804   1.757   0.218   3.549
 6302SOL    HW119805   1.677   0.217   3.489
 6302SOL    HW219806   1.728   0.245   3.641
 6303SOL     OW19807   1.959   1.158   3.485
 6303SOL    HW119808   2.044   1.105   3.485
 6303SOL    HW219809   1.885   1.103   3.523
 6304SOL     OW19810   2.619   0.752   1.466
 6304SOL    HW119811   2.551   0.804   1.414
 6304SOL    HW219812   2.573   0.683   1.521
 6305SOL     OW19813   6.388   6.978   0.311
 6305SOL    HW119814   6.329   6.898   0.317
 6305SOL    HW219815   6.391   7.011   0.216
 6306SOL     OW19816   0.619   4.228   3.841
 6306SOL    HW119817   0.651   4.194   3.929
 6306SOL    HW219818   0.541   4.288   3.855
 6307SOL     OW19819   3.009   4.033   4.964
 6307SOL    HW119820   2.952   3.952   4.980
 6307SOL    HW219821   2.985   4.074   4.876
 6308SOL     OW19822   2.389   1.649   4.638
 6308SOL    HW119823   2.468   1.710   4.637
 6308SOL    HW219824   2.322   1.682   4.705
 6309SOL     OW19825   5.688   4.574   4.994
 6309SOL    HW119826   5.735   4.661   5.005
 6309SOL    HW219827   5.624   4.561   5.070
 6310SOL     OW19828   2.310   6.021   2.901
 6310SOL    HW119829   2.274   5.940   2.854
 6310SOL    HW219830   2.406   6.033   2.878
 6311SOL     OW19831   5.144   1.504   5.986
 6311SOL    HW119832   5.227   1.500   6.043
 6311SOL    HW219833   5.158   1.571   5.913
 6312SOL     OW19834   6.790   6.132   5.406
 6312SOL    HW119835   6.823   6.214   5.359
 6312SOL    HW219836   6.791   6.147   5.504
 6313SOL     OW19837   6.808   5.992   4.491
 6313SOL    HW119838   6.821   6.021   4.396
 6313SOL    HW219839   6.784   6.072   4.547
 6314SOL     OW19840   4.041   6.587   1.444
 6314SOL    HW119841   3.998   6.535   1.518
 6314SOL    HW219842   3.970   6.620   1.382
 6315SOL     OW19843   2.296   2.600   5.267
 6315SOL    HW119844   2.258   2.689   5.239
 6315SOL    HW219845   2.224   2.531   5.265
 6316SOL     OW19846   5.000   2.200   6.723
 6316SOL    HW119847   5.091   2.199   6.765
 6316SOL    HW219848   4.993   2.125   6.658
 6317SOL     OW19849   4.606   4.967   1.440
 6317SOL    HW119850   4.527   4.926   1.394
 6317SOL    HW219851   4.683   4.903   1.437
 6318SOL     OW19852   3.666   0.685   5.746
 6318SOL    HW119853   3.572   0.709   5.771
 6318SOL    HW219854   3.664   0.606   5.685
 6319SOL     OW19855   6.438   1.812   4.702
 6319SOL    HW119856   6.522   1.759   4.706
 6319SOL    HW219857   6.366   1.759   4.656
 6320SOL     OW19858   6.194   6.580   5.427
 6320SOL    HW119859   6.163   6.632   5.507
 6320SOL    HW219860   6.130   6.506   5.408
 6321SOL     OW19861   4.465   4.128   0.949
 6321SOL    HW119862   4.385   4.145   1.006
 6321SOL    HW219863   4.495   4.033   0.962
 6322SOL     OW19864   2.347   2.002   0.879
 6322SOL    HW119865   2.393   1.959   0.956
 6322SOL    HW219866   2.411   2.060   0.829
 6323SOL     OW19867   2.914   2.713   1.463
 6323SOL    HW119868   2.995   2.657   1.479
 6323SOL    HW219869   2.931   2.774   1.386
 6324SOL     OW19870   5.559   0.371   0.239
 6324SOL    HW119871   5.605   0.387   0.326
 6324SOL    HW219872   5.528   0.276   0.236
 6325SOL     OW19873   1.888   3.033   2.644
 6325SOL    HW119874   1.899   2.939   2.613
 6325SOL    HW219875   1.889   3.094   2.565
 6326SOL     OW19876   4.956   5.098   1.523
 6326SOL    HW119877   4.932   5.082   1.619
 6326SOL    HW219878   4.936   5.017   1.469
 6327SOL     OW19879   0.129   0.709   5.039
 6327SOL    HW119880   0.211   0.701   4.982
 6327SOL    HW219881   0.128   0.799   5.083
 6328SOL     OW19882   3.132   3.602   0.495
 6328SOL    HW119883   3.127   3.609   0.594
 6328SOL    HW219884   3.089   3.517   0.465
 6329SOL     OW19885   1.768   2.507   2.963
 6329SOL    HW119886   1.675   2.539   2.945
 6329SOL    HW219887   1.775   2.476   3.058
 6330SOL     OW19888   5.279   0.518   1.556
 6330SOL    HW119889   5.288   0.434   1.609
 6330SOL    HW219890   5.324   0.594   1.604
 6331SOL     OW19891   6.310   2.563   5.544
 6331SOL    HW119892   6.387   2.566   5.481
 6331SOL    HW219893   6.338   2.598   5.633
 6332SOL     OW19894   0.532   3.320   0.721
 6332SOL    HW119895   0.495   3.291   0.810
 6332SOL    HW219896   0.506   3.415   0.704
 6333SOL     OW19897   4.397   5.830   5.045
 6333SOL    HW119898   4.406   5.848   4.947
 6333SOL    HW219899   4.300   5.822   5.069
 6334SOL     OW19900   2.743   0.956   2.423
 6334SOL    HW119901   2.742   0.948   2.323
 6334SOL    HW219902   2.796   0.880   2.461
 6335SOL     OW19903   4.119   0.303   0.491
 6335SOL    HW119904   4.116   0.307   0.391
 6335SOL    HW219905   4.050   0.239   0.524
 6336SOL     OW19906   0.911   2.572   5.994
 6336SOL    HW119907   1.007   2.597   5.985
 6336SOL    HW219908   0.853   2.649   5.968
 6337SOL     OW19909   5.196   4.907   5.369
 6337SOL    HW119910   5.197   4.904   5.469
 6337SOL    HW219911   5.274   4.961   5.337
 6338SOL     OW19912   3.466   1.883   4.102
 6338SOL    HW119913   3.445   1.908   4.007
 6338SOL    HW219914   3.385   1.844   4.145
 6339SOL     OW19915   0.771   3.710   3.599
 6339SOL    HW119916   0.803   3.791   3.649
 6339SOL    HW219917   0.844   3.676   3.540
 6340SOL     OW19918   1.978   5.118   2.463
 6340SOL    HW119919   2.039   5.159   2.395
 6340SOL    HW219920   1.903   5.071   2.416
 6341SOL     OW19921   0.193   3.942   4.354
 6341SOL    HW119922   0.280   3.982   4.382
 6341SOL    HW219923   0.208   3.847   4.325
 6342SOL     OW19924   1.799   0.956   2.449
 6342SOL    HW119925   1.725   1.016   2.419
 6342SOL    HW219926   1.883   1.009   2.458
 6343SOL     OW19927   4.825   1.752   6.485
 6343SOL    HW119928   4.874   1.709   6.410
 6343SOL    HW219929   4.747   1.695   6.511
 6344SOL     OW19930   5.442   2.217   4.605
 6344SOL    HW119931   5.525   2.273   4.614
 6344SOL    HW219932   5.368   2.273   4.568
 6345SOL     OW19933   5.884   2.828   2.594
 6345SOL    HW119934   5.959   2.765   2.573
 6345SOL    HW219935   5.836   2.852   2.509
 6346SOL     OW19936   6.858   5.229   4.070
 6346SOL    HW119937   6.830   5.196   3.980
 6346SOL    HW219938   6.913   5.312   4.060
 6347SOL     OW19939   1.964   0.476   0.972
 6347SOL    HW119940   1.980   0.396   0.914
 6347SOL    HW219941   1.910   0.448   1.052
 6348SOL     OW19942   1.694   3.144   5.807
 6348SOL    HW119943   1.714   3.228   5.858
 6348SOL    HW219944   1.665   3.072   5.871
 6349SOL     OW19945   2.322   0.642   1.279
 6349SOL    HW119946   2.287   0.597   1.361
 6349SOL    HW219947   2.248   0.650   1.211
 6350SOL     OW19948   0.306   5.021   4.456
 6350SOL    HW119949   0.396   5.005   4.415
 6350SOL    HW219950   0.235   4.981   4.398
 6351SOL     OW19951   6.405   3.556   4.109
 6351SOL    HW119952   6.497   3.539   4.146
 6351SOL    HW219953   6.408   3.636   4.050
 6352SOL     OW19954   3.792   6.317   4.749
 6352SOL    HW119955   3.707   6.325   4.801
 6352SOL    HW219956   3.834   6.407   4.738
 6353SOL     OW19957   0.944   6.579   6.228
 6353SOL    HW119958   0.949   6.649   6.157
 6353SOL    HW219959   1.025   6.520   6.221
 6354SOL     OW19960   2.522   5.189   3.001
 6354SOL    HW119961   2.496   5.234   3.087
 6354SOL    HW219962   2.618   5.162   3.005
 6355SOL     OW19963   0.794   5.337   0.211
 6355SOL    HW119964   0.885   5.369   0.236
 6355SOL    HW219965   0.727   5.409   0.231
 6356SOL     OW19966   5.241   5.821   1.734
 6356SOL    HW119967   5.249   5.830   1.833
 6356SOL    HW219968   5.288   5.897   1.689
 6357SOL     OW19969   6.405   3.492   2.460
 6357SOL    HW119970   6.441   3.519   2.549
 6357SOL    HW219971   6.384   3.394   2.460
 6358SOL     OW19972   0.594   2.297   6.456
 6358SOL    HW119973   0.580   2.390   6.489
 6358SOL    HW219974   0.692   2.280   6.445
 6359SOL     OW19975   5.978   0.455   6.753
 6359SOL    HW119976   6.066   0.479   6.712
 6359SOL    HW219977   5.992   0.417   6.844
 6360SOL     OW19978   1.202   4.764   4.057
 6360SOL    HW119979   1.271   4.716   4.111
 6360SOL    HW219980   1.184   4.853   4.098
 6361SOL     OW19981   1.063   6.602   1.488
 6361SOL    HW119982   1.155   6.615   1.451
 6361SOL    HW219983   1.000   6.666   1.446
 6362SOL     OW19984   6.836   6.141   0.020
 6362SOL    HW119985   6.813   6.212   0.086
 6362SOL    HW219986   6.797   6.054   0.051
 6363SOL     OW19987   1.960   5.315   3.897
 6363SOL    HW119988   1.941   5.403   3.854
 6363SOL    HW219989   1.921   5.314   3.989
 6364SOL     OW19990   2.397   1.673   5.599
 6364SOL    HW119991   2.423   1.594   5.655
 6364SOL    HW219992   2.326   1.725   5.646
 6365SOL     OW19993   6.034   0.466   3.824
 6365SOL    HW119994   6.060   0.448   3.920
 6365SOL    HW219995   6.079   0.399   3.765
 6366SOL     OW19996   1.051   5.930   5.829
 6366SOL    HW119997   1.123   5.969   5.888
 6366SOL    HW219998   1.058   5.831   5.829
 6367SOL     OW19999   3.805   1.148   4.532
 6367SOL    HW120000   3.783   1.118   4.624
 6367SOL    HW220001   3.723   1.180   4.486
 6368SOL     OW20002   3.686   4.924   3.440
 6368SOL    HW120003   3.675   4.884   3.532
 6368SOL    HW220004   3.783   4.928   3.416
 6369SOL     OW20005   2.097   5.897   4.291
 6369SOL    HW120006   2.144   5.912   4.378
 6369SOL    HW220007   2.037   5.817   4.299
 6370SOL     OW20008   6.789   3.263   3.788
 6370SOL    HW120009   6.698   3.269   3.829
 6370SOL    HW220010   6.780   3.270   3.688
 6371SOL     OW20011   4.736   4.670   2.825
 6371SOL    HW120012   4.711   4.575   2.803
 6371SOL    HW220013   4.676   4.704   2.897
 6372SOL     OW20014   2.079   0.817   2.158
 6372SOL    HW120015   2.177   0.798   2.152
 6372SOL    HW220016   2.062   0.914   2.143
 6373SOL     OW20017   4.749   4.023   2.418
 6373SOL    HW120018   4.816   3.984   2.355
 6373SOL    HW220019   4.661   3.979   2.406
 6374SOL     OW20020   3.997   3.832   3.348
 6374SOL    HW120021   3.916   3.787   3.312
 6374SOL    HW220022   4.078   3.803   3.298
 6375SOL     OW20023   6.993   1.704   3.414
 6375SOL    HW120024   0.027   1.695   3.328
 6375SOL    HW220025   6.939   1.788   3.412
 6376SOL     OW20026   5.384   2.621   4.820
 6376SOL    HW120027   5.308   2.556   4.814
 6376SOL    HW220028   5.457   2.581   4.876
 6377SOL     OW20029   6.805   2.139   5.469
 6377SOL    HW120030   6.734   2.074   5.497
 6377SOL    HW220031   6.883   2.090   5.430
 6378SOL     OW20032   4.681   4.722   4.111
 6378SOL    HW120033   4.747   4.683   4.174
 6378SOL    HW220034   4.645   4.651   4.051
 6379SOL     OW20035   1.566   4.235   4.822
 6379SOL    HW120036   1.516   4.262   4.904
 6379SOL    HW220037   1.660   4.270   4.827
 6380SOL     OW20038   0.218   1.440   5.403
 6380SOL    HW120039   0.143   1.454   5.467
 6380SOL    HW220040   0.182   1.401   5.318
 6381SOL     OW20041   4.050   3.104   1.884
 6381SOL    HW120042   4.104   3.096   1.968
 6381SOL    HW220043   3.985   3.028   1.879
 6382SOL     OW20044   2.425   2.187   0.612
 6382SOL    HW120045   2.505   2.176   0.671
 6382SOL    HW220046   2.436   2.130   0.531
 6383SOL     OW20047   1.618   2.631   2.729
 6383SOL    HW120048   1.712   2.605   2.752
 6383SOL    HW220049   1.592   2.587   2.643
 6384SOL     OW20050   6.509   3.855   2.654
 6384SOL    HW120051   6.511   3.757   2.670
 6384SOL    HW220052   6.454   3.899   2.725
 6385SOL     OW20053   0.328   4.042   3.567
 6385SOL    HW120054   0.382   4.005   3.643
 6385SOL    HW220055   0.386   4.049   3.485
 6386SOL     OW20056   2.789   4.624   5.811
 6386SOL    HW120057   2.827   4.549   5.756
 6386SOL    HW220058   2.770   4.702   5.752
 6387SOL     OW20059   6.830   1.642   6.074
 6387SOL    HW120060   6.749   1.585   6.069
 6387SOL    HW220061   6.821   1.708   6.148
 6388SOL     OW20062   3.928   6.180   1.850
 6388SOL    HW120063   3.857   6.250   1.840
 6388SOL    HW220064   3.962   6.180   1.943
 6389SOL     OW20065   0.210   5.663   1.963
 6389SOL    HW120066   0.185   5.567   1.951
 6389SOL    HW220067   0.218   5.683   2.061
 6390SOL     OW20068   0.417   0.633   6.007
 6390SOL    HW120069   0.317   0.639   6.008
 6390SOL    HW220070   0.449   0.616   5.914
 6391SOL     OW20071   3.060   6.992   6.070
 6391SOL    HW120072   3.086   0.012   6.160
 6391SOL    HW220073   2.962   6.973   6.069
 6392SOL     OW20074   2.638   5.638   2.783
 6392SOL    HW120075   2.681   5.565   2.836
 6392SOL    HW220076   2.539   5.630   2.789
 6393SOL     OW20077   0.142   6.786   2.312
 6393SOL    HW120078   0.074   6.761   2.381
 6393SOL    HW220079   0.096   6.818   2.230
 6394SOL     OW20080   2.068   5.305   0.706
 6394SOL    HW120081   1.981   5.327   0.662
 6394SOL    HW220082   2.103   5.387   0.753
 6395SOL     OW20083   0.692   2.691   1.743
 6395SOL    HW120084   0.665   2.623   1.811
 6395SOL    HW220085   0.622   2.697   1.672
 6396SOL     OW20086   4.946   3.611   6.652
 6396SOL    HW120087   5.011   3.545   6.616
 6396SOL    HW220088   4.863   3.564   6.683
 6397SOL     OW20089   6.089   1.787   0.975
 6397SOL    HW120090   5.994   1.756   0.963
 6397SOL    HW220091   6.129   1.808   0.885
 6398SOL     OW20092   2.860   6.860   1.657
 6398SOL    HW120093   2.932   6.919   1.621
 6398SOL    HW220094   2.812   6.908   1.730
 6399SOL     OW20095   1.651   6.389   6.370
 6399SOL    HW120096   1.632   6.487   6.370
 6399SOL    HW220097   1.747   6.373   6.349
 6400SOL     OW20098   2.601   6.061   2.419
 6400SOL    HW120099   2.596   5.995   2.495
 6400SOL    HW220100   2.516   6.057   2.366
 6401SOL     OW20101   5.583   5.585   3.341
 6401SOL    HW120102   5.564   5.487   3.349
 6401SOL    HW220103   5.608   5.606   3.247
 6402SOL     OW20104   3.392   2.133   3.518
 6402SOL    HW120105   3.473   2.159   3.570
 6402SOL    HW220106   3.412   2.052   3.463
 6403SOL     OW20107   0.182   5.982   6.549
 6403SOL    HW120108   0.145   5.916   6.484
 6403SOL    HW220109   0.109   6.014   6.610
 6404SOL     OW20110   4.232   0.728   2.643
 6404SOL    HW120111   4.185   0.812   2.619
 6404SOL    HW220112   4.316   0.749   2.694
 6405SOL     OW20113   2.766   0.411   3.754
 6405SOL    HW120114   2.855   0.458   3.750
 6405SOL    HW220115   2.751   0.376   3.846
 6406SOL     OW20116   0.762   2.627   2.593
 6406SOL    HW120117   0.800   2.720   2.590
 6406SOL    HW220118   0.663   2.632   2.603
 6407SOL     OW20119   2.490   6.469   3.947
 6407SOL    HW120120   2.443   6.448   3.861
 6407SOL    HW220121   2.423   6.476   4.021
 6408SOL     OW20122   5.513   1.183   0.114
 6408SOL    HW120123   5.504   1.248   0.039
 6408SOL    HW220124   5.603   1.140   0.111
 6409SOL     OW20125   6.886   4.304   3.410
 6409SOL    HW120126   6.867   4.371   3.482
 6409SOL    HW220127   6.813   4.235   3.408
 6410SOL     OW20128   2.174   1.597   6.612
 6410SOL    HW120129   2.176   1.498   6.624
 6410SOL    HW220130   2.254   1.626   6.560
 6411SOL     OW20131   0.847   3.369   3.165
 6411SOL    HW120132   0.924   3.322   3.121
 6411SOL    HW220133   0.787   3.301   3.208
 6412SOL     OW20134   0.831   2.051   4.592
 6412SOL    HW120135   0.790   2.067   4.683
 6412SOL    HW220136   0.923   2.015   4.603
 6413SOL     OW20137   3.969   4.878   3.825
 6413SOL    HW120138   4.037   4.839   3.887
 6413SOL    HW220139   3.879   4.875   3.868
 6414SOL     OW20140   5.825   1.027   0.497
 6414SOL    HW120141   5.829   0.928   0.486
 6414SOL    HW220142   5.850   1.052   0.590
 6415SOL     OW20143   1.789   3.488   2.858
 6415SOL    HW120144   1.736   3.409   2.889
 6415SOL    HW220145   1.755   3.570   2.904
 6416SOL     OW20146   0.756   1.362   6.758
 6416SOL    HW120147   0.847   1.372   6.798
 6416SOL    HW220148   0.693   1.429   6.799
 6417SOL     OW20149   6.099   5.189   0.665
 6417SOL    HW120150   6.071   5.285   0.659
 6417SOL    HW220151   6.019   5.132   0.682
 6418SOL     OW20152   4.932   3.628   2.205
 6418SOL    HW120153   4.958   3.724   2.209
 6418SOL    HW220154   4.942   3.595   2.111
 6419SOL     OW20155   2.172   4.731   3.331
 6419SOL    HW120156   2.098   4.745   3.265
 6419SOL    HW220157   2.230   4.812   3.333
 6420SOL     OW20158   2.880   5.925   4.617
 6420SOL    HW120159   2.798   5.915   4.673
 6420SOL    HW220160   2.931   6.006   4.647
 6421SOL     OW20161   5.088   0.072   3.054
 6421SOL    HW120162   5.163   0.047   3.116
 6421SOL    HW220163   5.004   0.025   3.083
 6422SOL     OW20164   0.010   1.008   4.062
 6422SOL    HW120165   0.086   1.014   3.998
 6422SOL    HW220166   0.040   1.039   4.153
 6423SOL     OW20167   4.784   5.249   3.159
 6423SOL    HW120168   4.733   5.177   3.206
 6423SOL    HW220169   4.881   5.229   3.162
 6424SOL     OW20170   0.147   5.371   5.762
 6424SOL    HW120171   0.077   5.390   5.693
 6424SOL    HW220172   0.140   5.275   5.790
 6425SOL     OW20173   6.399   6.278   3.110
 6425SOL    HW120174   6.455   6.340   3.166
 6425SOL    HW220175   6.385   6.318   3.020
 6426SOL     OW20176   1.660   5.294   2.876
 6426SOL    HW120177   1.586   5.338   2.825
 6426SOL    HW220178   1.625   5.212   2.921
 6427SOL     OW20179   3.519   3.720   4.847
 6427SOL    HW120180   3.500   3.816   4.827
 6427SOL    HW220181   3.504   3.666   4.765
 6428SOL     OW20182   5.854   3.227   6.061
 6428SOL    HW120183   5.948   3.221   6.026
 6428SOL    HW220184   5.795   3.262   5.989
 6429SOL     OW20185   1.531   1.622   5.669
 6429SOL    HW120186   1.582   1.561   5.608
 6429SOL    HW220187   1.585   1.640   5.751
 6430SOL     OW20188   6.362   0.920   2.907
 6430SOL    HW120189   6.419   0.963   2.837
 6430SOL    HW220190   6.350   0.983   2.984
 6431SOL     OW20191   5.221   6.365   3.924
 6431SOL    HW120192   5.195   6.457   3.955
 6431SOL    HW220193   5.155   6.298   3.957
 6432SOL     OW20194   4.246   4.425   5.874
 6432SOL    HW120195   4.302   4.394   5.797
 6432SOL    HW220196   4.212   4.517   5.856
 6433SOL     OW20197   1.912   5.102   6.291
 6433SOL    HW120198   1.971   5.123   6.369
 6433SOL    HW220199   1.816   5.104   6.319
 6434SOL     OW20200   2.210   4.372   6.561
 6434SOL    HW120201   2.277   4.394   6.632
 6434SOL    HW220202   2.254   4.318   6.489
 6435SOL     OW20203   4.820   6.880   0.452
 6435SOL    HW120204   4.918   6.869   0.470
 6435SOL    HW220205   4.799   6.977   0.445
 6436SOL     OW20206   1.383   3.027   2.881
 6436SOL    HW120207   1.458   2.964   2.900
 6436SOL    HW220208   1.297   2.976   2.872
 6437SOL     OW20209   2.336   1.348   0.604
 6437SOL    HW120210   2.366   1.443   0.601
 6437SOL    HW220211   2.239   1.344   0.628
 6438SOL     OW20212   6.116   4.405   5.978
 6438SOL    HW120213   6.100   4.437   6.071
 6438SOL    HW220214   6.214   4.404   5.959
 6439SOL     OW20215   5.939   1.189   1.857
 6439SOL    HW120216   5.928   1.102   1.904
 6439SOL    HW220217   5.851   1.220   1.822
 6440SOL     OW20218   2.269   1.640   5.914
 6440SOL    HW120219   2.270   1.721   5.855
 6440SOL    HW220220   2.335   1.652   5.988
 6441SOL     OW20221   6.760   6.565   1.939
 6441SOL    HW120222   6.707   6.544   1.856
 6441SOL    HW220223   6.747   6.661   1.963
 6442SOL     OW20224   2.561   1.228   4.437
 6442SOL    HW120225   2.629   1.301   4.433
 6442SOL    HW220226   2.607   1.139   4.441
 6443SOL     OW20227   3.967   2.123   5.659
 6443SOL    HW120228   3.956   2.025   5.649
 6443SOL    HW220229   4.008   2.143   5.748
 6444SOL     OW20230   5.361   2.566   3.992
 6444SOL    HW120231   5.289   2.625   3.957
 6444SOL    HW220232   5.449   2.594   3.953
 6445SOL     OW20233   4.110   3.280   5.025
 6445SOL    HW120234   4.104   3.345   5.101
 6445SOL    HW220235   4.201   3.284   4.985
 6446SOL     OW20236   1.090   1.618   6.448
 6446SOL    HW120237   1.065   1.539   6.504
 6446SOL    HW220238   1.083   1.594   6.351
 6447SOL     OW20239   5.306   5.293   3.509
 6447SOL    HW120240   5.233   5.350   3.470
 6447SOL    HW220241   5.268   5.238   3.584
 6448SOL     OW20242   3.850   5.732   2.234
 6448SOL    HW120243   3.882   5.642   2.205
 6448SOL    HW220244   3.882   5.801   2.169
 6449SOL     OW20245   3.344   5.818   1.304
 6449SOL    HW120246   3.245   5.809   1.290
 6449SOL    HW220247   3.382   5.727   1.323
 6450SOL     OW20248   0.609   4.121   0.605
 6450SOL    HW120249   0.663   4.164   0.677
 6450SOL    HW220250   0.512   4.131   0.625
 6451SOL     OW20251   1.842   0.800   4.605
 6451SOL    HW120252   1.915   0.733   4.596
 6451SOL    HW220253   1.769   0.780   4.539
 6452SOL     OW20254   4.365   5.833   4.184
 6452SOL    HW120255   4.434   5.879   4.240
 6452SOL    HW220256   4.281   5.823   4.236
 6453SOL     OW20257   2.164   6.271   1.579
 6453SOL    HW120258   2.117   6.243   1.495
 6453SOL    HW220259   2.159   6.370   1.589
 6454SOL     OW20260   1.460   2.339   2.944
 6454SOL    HW120261   1.441   2.437   2.940
 6454SOL    HW220262   1.434   2.296   2.858
 6455SOL     OW20263   6.721   2.951   3.703
 6455SOL    HW120264   6.663   3.019   3.658
 6455SOL    HW220265   6.724   2.969   3.801
 6456SOL     OW20266   0.859   0.595   3.673
 6456SOL    HW120267   0.803   0.528   3.721
 6456SOL    HW220268   0.811   0.627   3.592
 6457SOL     OW20269   4.845   1.788   1.048
 6457SOL    HW120270   4.900   1.786   0.965
 6457SOL    HW220271   4.774   1.857   1.040
 6458SOL     OW20272   1.132   6.535   4.190
 6458SOL    HW120273   1.145   6.489   4.278
 6458SOL    HW220274   1.042   6.511   4.154
 6459SOL     OW20275   6.126   3.180   1.221
 6459SOL    HW120276   6.127   3.094   1.271
 6459SOL    HW220277   6.115   3.162   1.123
 6460SOL     OW20278   6.110   6.175   5.766
 6460SOL    HW120279   6.013   6.196   5.779
 6460SOL    HW220280   6.137   6.102   5.829
 6461SOL     OW20281   2.330   4.607   5.867
 6461SOL    HW120282   2.282   4.687   5.903
 6461SOL    HW220283   2.372   4.557   5.943
 6462SOL     OW20284   2.227   2.437   4.425
 6462SOL    HW120285   2.316   2.446   4.380
 6462SOL    HW220286   2.174   2.520   4.412
 6463SOL     OW20287   6.095   2.962   6.635
 6463SOL    HW120288   6.037   3.003   6.705
 6463SOL    HW220289   6.190   2.961   6.667
 6464SOL     OW20290   0.603   5.509   4.888
 6464SOL    HW120291   0.521   5.561   4.911
 6464SOL    HW220292   0.670   5.570   4.846
 6465SOL     OW20293   0.168   2.975   3.051
 6465SOL    HW120294   0.128   3.043   2.989
 6465SOL    HW220295   0.265   2.995   3.064
 6466SOL     OW20296   1.346   1.090   6.544
 6466SOL    HW120297   1.300   1.093   6.455
 6466SOL    HW220298   1.285   1.127   6.614
 6467SOL     OW20299   3.273   1.486   0.420
 6467SOL    HW120300   3.272   1.412   0.488
 6467SOL    HW220301   3.182   1.528   0.414
 6468SOL     OW20302   3.141   6.416   0.239
 6468SOL    HW120303   3.142   6.350   0.314
 6468SOL    HW220304   3.227   6.467   0.238
 6469SOL     OW20305   4.801   1.101   4.524
 6469SOL    HW120306   4.709   1.131   4.551
 6469SOL    HW220307   4.866   1.175   4.541
 6470SOL     OW20308   6.155   3.371   0.367
 6470SOL    HW120309   6.218   3.304   0.408
 6470SOL    HW220310   6.061   3.346   0.390
 6471SOL     OW20311   6.555   6.761   5.786
 6471SOL    HW120312   6.595   6.738   5.697
 6471SOL    HW220313   6.464   6.801   5.773
 6472SOL     OW20314   0.151   5.704   1.438
 6472SOL    HW120315   0.148   5.784   1.378
 6472SOL    HW220316   0.089   5.716   1.515
 6473SOL     OW20317   3.238   1.026   4.141
 6473SOL    HW120318   3.215   1.066   4.230
 6473SOL    HW220319   3.334   0.999   4.141
 6474SOL     OW20320   2.692   4.250   6.134
 6474SOL    HW120321   2.748   4.313   6.080
 6474SOL    HW220322   2.655   4.298   6.213
 6475SOL     OW20323   5.895   5.148   3.687
 6475SOL    HW120324   5.824   5.140   3.758
 6475SOL    HW220325   5.867   5.096   3.606
 6476SOL     OW20326   3.977   3.498   1.398
 6476SOL    HW120327   3.902   3.497   1.332
 6476SOL    HW220328   4.046   3.564   1.368
 6477SOL     OW20329   6.059   4.903   1.183
 6477SOL    HW120330   6.138   4.900   1.244
 6477SOL    HW220331   6.089   4.904   1.088
 6478SOL     OW20332   3.446   0.574   1.461
 6478SOL    HW120333   3.531   0.536   1.496
 6478SOL    HW220334   3.465   0.635   1.384
 6479SOL     OW20335   4.329   5.412   3.926
 6479SOL    HW120336   4.315   5.511   3.929
 6479SOL    HW220337   4.273   5.372   3.854
 6480SOL     OW20338   2.712   1.629   6.571
 6480SOL    HW120339   2.669   1.685   6.642
 6480SOL    HW220340   2.804   1.662   6.553
 6481SOL     OW20341   3.456   2.083   2.188
 6481SOL    HW120342   3.503   2.049   2.269
 6481SOL    HW220343   3.522   2.128   2.128
 6482SOL     OW20344   6.599   0.790   6.419
 6482SOL    HW120345   6.679   0.814   6.364
 6482SOL    HW220346   6.582   0.862   6.486
 6483SOL     OW20347   1.199   6.283   1.877
 6483SOL    HW120348   1.137   6.328   1.941
 6483SOL    HW220349   1.146   6.237   1.806
 6484SOL     OW20350   3.468   6.859   1.107
 6484SOL    HW120351   3.467   6.796   1.030
 6484SOL    HW220352   3.401   6.829   1.175
 6485SOL     OW20353   1.852   5.151   3.704
 6485SOL    HW120354   1.930   5.166   3.644
 6485SOL    HW220355   1.869   5.193   3.793
 6486SOL     OW20356   2.573   4.638   3.490
 6486SOL    HW120357   2.589   4.714   3.426
 6486SOL    HW220358   2.647   4.634   3.557
 6487SOL     OW20359   0.461   6.501   4.968
 6487SOL    HW120360   0.538   6.479   5.028
 6487SOL    HW220361   0.409   6.577   5.007
 6488SOL     OW20362   3.521   6.500   4.579
 6488SOL    HW120363   3.451   6.449   4.530
 6488SOL    HW220364   3.484   6.534   4.666
 6489SOL     OW20365   3.347   2.553   6.457
 6489SOL    HW120366   3.277   2.504   6.406
 6489SOL    HW220367   3.332   2.541   6.555
 6490SOL     OW20368   4.215   0.506   6.848
 6490SOL    HW120369   4.133   0.561   6.865
 6490SOL    HW220370   4.293   0.567   6.830
 6491SOL     OW20371   4.040   0.737   0.600
 6491SOL    HW120372   4.137   0.761   0.605
 6491SOL    HW220373   3.985   0.816   0.627
 6492SOL     OW20374   4.071   5.139   0.031
 6492SOL    HW120375   4.071   5.052   0.081
 6492SOL    HW220376   3.985   5.187   0.049
 6493SOL     OW20377   1.063   4.959   5.218
 6493SOL    HW120378   1.142   4.967   5.158
 6493SOL    HW220379   1.090   4.915   5.303
 6494SOL     OW20380   6.926   0.506   3.733
 6494SOL    HW120381   6.885   0.504   3.642
 6494SOL    HW220382   6.996   0.578   3.737
 6495SOL     OW20383   5.323   0.236   4.483
 6495SOL    HW120384   5.353   0.324   4.447
 6495SOL    HW220385   5.328   0.238   4.583
 6496SOL     OW20386   6.562   0.588   3.061
 6496SOL    HW120387   6.657   0.595   3.032
 6496SOL    HW220388   6.524   0.680   3.075
 6497SOL     OW20389   1.418   1.685   0.927
 6497SOL    HW120390   1.476   1.616   0.972
 6497SOL    HW220391   1.322   1.664   0.945
 6498SOL     OW20392   1.938   3.634   3.712
 6498SOL    HW120393   2.006   3.687   3.762
 6498SOL    HW220394   1.984   3.579   3.642
 6499SOL     OW20395   5.260   3.066   5.079
 6499SOL    HW120396   5.212   2.980   5.063
 6499SOL    HW220397   5.209   3.141   5.035
 6500SOL     OW20398   6.842   4.220   4.033
 6500SOL    HW120399   6.902   4.169   4.094
 6500SOL    HW220400   6.794   4.291   4.084
 6501SOL     OW20401   6.310   1.684   6.758
 6501SOL    HW120402   6.253   1.636   6.825
 6501SOL    HW220403   6.281   1.779   6.752
 6502SOL     OW20404   6.724   2.097   1.467
 6502SOL    HW120405   6.646   2.095   1.405
 6502SOL    HW220406   6.766   2.188   1.466
 6503SOL     OW20407   4.963   1.054   3.299
 6503SOL    HW120408   4.875   1.062   3.346
 6503SOL    HW220409   4.950   1.074   3.202
 6504SOL     OW20410   4.073   6.114   5.468
 6504SOL    HW120411   4.002   6.059   5.424
 6504SOL    HW220412   4.130   6.158   5.398
 6505SOL     OW20413   5.496   6.090   0.369
 6505SOL    HW120414   5.527   6.133   0.454
 6505SOL    HW220415   5.564   6.024   0.337
 6506SOL     OW20416   6.504   2.489   2.562
 6506SOL    HW120417   6.536   2.406   2.608
 6506SOL    HW220418   6.561   2.566   2.589
 6507SOL     OW20419   2.043   5.027   5.508
 6507SOL    HW120420   2.076   5.053   5.417
 6507SOL    HW220421   1.946   5.049   5.517
 6508SOL     OW20422   1.361   0.513   2.769
 6508SOL    HW120423   1.315   0.601   2.780
 6508SOL    HW220424   1.350   0.459   2.853
 6509SOL     OW20425   3.596   1.939   4.515
 6509SOL    HW120426   3.498   1.950   4.532
 6509SOL    HW220427   3.645   1.939   4.602
 6510SOL     OW20428   6.553   5.614   0.047
 6510SOL    HW120429   6.483   5.581   6.999
 6510SOL    HW220430   6.630   5.551   0.048
 6511SOL     OW20431   4.504   1.549   4.088
 6511SOL    HW120432   4.585   1.490   4.088
 6511SOL    HW220433   4.508   1.610   4.009
 6512SOL     OW20434   4.589   6.277   1.794
 6512SOL    HW120435   4.641   6.359   1.818
 6512SOL    HW220436   4.602   6.256   1.697
 6513SOL     OW20437   2.726   5.416   2.899
 6513SOL    HW120438   2.672   5.351   2.847
 6513SOL    HW220439   2.728   5.388   2.995
 6514SOL     OW20440   6.283   1.327   3.956
 6514SOL    HW120441   6.302   1.424   3.942
 6514SOL    HW220442   6.303   1.302   4.051
 6515SOL     OW20443   0.123   4.281   4.173
 6515SOL    HW120444   0.049   4.234   4.221
 6515SOL    HW220445   0.178   4.334   4.238
 6516SOL     OW20446   0.459   3.396   1.536
 6516SOL    HW120447   0.459   3.354   1.446
 6516SOL    HW220448   0.543   3.370   1.584
 6517SOL     OW20449   6.496   0.415   0.732
 6517SOL    HW120450   6.580   0.454   0.695
 6517SOL    HW220451   6.513   0.321   0.762
 6518SOL     OW20452   0.046   0.505   6.913
 6518SOL    HW120453   0.084   0.576   6.972
 6518SOL    HW220454   0.034   0.421   6.965
 6519SOL     OW20455   1.441   1.940   3.120
 6519SOL    HW120456   1.476   2.002   3.189
 6519SOL    HW220457   1.512   1.922   3.052
 6520SOL     OW20458   5.600   5.597   2.284
 6520SOL    HW120459   5.551   5.558   2.361
 6520SOL    HW220460   5.668   5.663   2.317
 6521SOL     OW20461   2.032   2.523   4.125
 6521SOL    HW120462   2.033   2.601   4.189
 6521SOL    HW220463   2.057   2.555   4.034
 6522SOL     OW20464   3.460   5.212   6.470
 6522SOL    HW120465   3.471   5.174   6.562
 6522SOL    HW220466   3.550   5.221   6.427
 6523SOL     OW20467   4.162   1.082   6.191
 6523SOL    HW120468   4.173   0.995   6.142
 6523SOL    HW220469   4.248   1.106   6.237
 6524SOL     OW20470   2.831   4.172   1.526
 6524SOL    HW120471   2.789   4.088   1.559
 6524SOL    HW220472   2.909   4.150   1.467
 6525SOL     OW20473   2.610   4.989   2.808
 6525SOL    HW120474   2.690   5.029   2.853
 6525SOL    HW220475   2.529   5.005   2.864
 6526SOL     OW20476   2.034   0.096   6.783
 6526SOL    HW120477   1.962   0.147   6.736
 6526SOL    HW220478   2.080   0.036   6.718
 6527SOL     OW20479   0.909   2.321   4.604
 6527SOL    HW120480   0.881   2.225   4.593
 6527SOL    HW220481   0.976   2.345   4.534
 6528SOL     OW20482   6.933   0.901   5.365
 6528SOL    HW120483   6.995   0.964   5.319
 6528SOL    HW220484   6.958   0.895   5.462
 6529SOL     OW20485   1.320   1.185   2.528
 6529SOL    HW120486   1.277   1.146   2.446
 6529SOL    HW220487   1.311   1.121   2.604
 6530SOL     OW20488   6.360   3.822   0.295
 6530SOL    HW120489   6.452   3.849   0.322
 6530SOL    HW220490   6.360   3.789   0.201
 6531SOL     OW20491   5.599   2.809   5.359
 6531SOL    HW120492   5.581   2.804   5.260
 6531SOL    HW220493   5.672   2.875   5.376
 6532SOL     OW20494   0.016   1.043   0.483
 6532SOL    HW120495   6.997   1.046   0.577
 6532SOL    HW220496   0.116   1.030   0.486
 6533SOL     OW20497   4.624   6.852   1.252
 6533SOL    HW120498   4.524   6.863   1.246
 6533SOL    HW220499   4.666   6.940   1.274
 6534SOL     OW20500   3.296   4.592   1.337
 6534SOL    HW120501   3.359   4.517   1.355
 6534SOL    HW220502   3.338   4.656   1.273
 6535SOL     OW20503   5.925   4.095   4.076
 6535SOL    HW120504   5.879   4.164   4.019
 6535SOL    HW220505   5.876   4.087   4.163
 6536SOL     OW20506   1.050   1.268   5.468
 6536SOL    HW120507   0.999   1.291   5.385
 6536SOL    HW220508   1.142   1.236   5.444
 6537SOL     OW20509   6.518   5.489   0.307
 6537SOL    HW120510   6.517   5.546   0.224
 6537SOL    HW220511   6.607   5.444   0.315
 6538SOL     OW20512   2.654   3.990   6.796
 6538SOL    HW120513   2.668   3.984   6.895
 6538SOL    HW220514   2.699   3.912   6.751
 6539SOL     OW20515   4.034   0.559   5.595
 6539SOL    HW120516   4.059   0.604   5.681
 6539SOL    HW220517   3.977   0.480   5.613
 6540SOL     OW20518   4.251   1.895   5.893
 6540SOL    HW120519   4.161   1.915   5.932
 6540SOL    HW220520   4.247   1.812   5.838
 6541SOL     OW20521   4.884   2.100   5.007
 6541SOL    HW120522   4.960   2.038   4.991
 6541SOL    HW220523   4.879   2.122   5.104
 6542SOL     OW20524   5.719   3.907   3.932
 6542SOL    HW120525   5.738   3.849   3.853
 6542SOL    HW220526   5.801   3.957   3.958
 6543SOL     OW20527   5.765   3.291   5.786
 6543SOL    HW120528   5.832   3.349   5.739
 6543SOL    HW220529   5.750   3.207   5.732
 6544SOL     OW20530   0.608   6.186   2.861
 6544SOL    HW120531   0.650   6.123   2.795
 6544SOL    HW220532   0.655   6.274   2.856
 6545SOL     OW20533   4.176   2.379   0.718
 6545SOL    HW120534   4.262   2.346   0.678
 6545SOL    HW220535   4.163   2.476   0.694
 6546SOL     OW20536   3.048   4.652   0.151
 6546SOL    HW120537   3.047   4.559   0.186
 6546SOL    HW220538   3.073   4.716   0.224
 6547SOL     OW20539   4.928   1.258   5.563
 6547SOL    HW120540   4.867   1.263   5.484
 6547SOL    HW220541   4.923   1.343   5.615
 6548SOL     OW20542   1.221   3.752   0.145
 6548SOL    HW120543   1.138   3.705   0.176
 6548SOL    HW220544   1.213   3.771   0.047
 6549SOL     OW20545   4.707   0.832   1.695
 6549SOL    HW120546   4.792   0.786   1.670
 6549SOL    HW220547   4.728   0.912   1.751
 6550SOL     OW20548   0.379   6.651   4.259
 6550SOL    HW120549   0.333   6.628   4.345
 6550SOL    HW220550   0.350   6.743   4.230
 6551SOL     OW20551   2.125   5.007   2.657
 6551SOL    HW120552   2.176   4.929   2.620
 6551SOL    HW220553   2.063   5.042   2.587
 6552SOL     OW20554   1.978   6.613   6.323
 6552SOL    HW120555   1.930   6.692   6.361
 6552SOL    HW220556   1.935   6.586   6.237
 6553SOL     OW20557   0.529   2.485   3.657
 6553SOL    HW120558   0.459   2.414   3.670
 6553SOL    HW220559   0.552   2.490   3.560
 6554SOL     OW20560   0.131   1.338   5.025
 6554SOL    HW120561   0.225   1.352   5.059
 6554SOL    HW220562   0.077   1.293   5.097
 6555SOL     OW20563   6.288   2.314   2.751
 6555SOL    HW120564   6.364   2.269   2.704
 6555SOL    HW220565   6.206   2.306   2.695
 6556SOL     OW20566   5.553   4.553   4.747
 6556SOL    HW120567   5.618   4.577   4.675
 6556SOL    HW220568   5.600   4.549   4.835
 6557SOL     OW20569   3.264   6.763   1.991
 6557SOL    HW120570   3.170   6.797   1.996
 6557SOL    HW220571   3.304   6.760   2.083
 6558SOL     OW20572   6.922   4.932   6.622
 6558SOL    HW120573   6.928   5.032   6.618
 6558SOL    HW220574   7.011   4.894   6.645
 6559SOL     OW20575   1.145   3.765   6.172
 6559SOL    HW120576   1.222   3.740   6.231
 6559SOL    HW220577   1.134   3.695   6.101
 6560SOL     OW20578   4.408   5.182   1.218
 6560SOL    HW120579   4.397   5.241   1.299
 6560SOL    HW220580   4.505   5.179   1.193
 6561SOL     OW20581   3.976   3.926   1.428
 6561SOL    HW120582   4.010   3.978   1.505
 6561SOL    HW220583   3.889   3.882   1.453
 6562SOL     OW20584   6.084   3.875   0.942
 6562SOL    HW120585   6.070   3.971   0.967
 6562SOL    HW220586   6.150   3.833   1.004
 6563SOL     OW20587   5.834   6.392   0.366
 6563SOL    HW120588   5.818   6.478   0.413
 6563SOL    HW220589   5.747   6.358   0.329
 6564SOL     OW20590   6.898   4.422   3.139
 6564SOL    HW120591   6.915   4.370   3.223
 6564SOL    HW220592   6.895   4.520   3.161
 6565SOL     OW20593   6.475   2.565   3.722
 6565SOL    HW120594   6.479   2.507   3.641
 6565SOL    HW220595   6.568   2.596   3.745
 6566SOL     OW20596   3.625   6.312   2.422
 6566SOL    HW120597   3.562   6.259   2.478
 6566SOL    HW220598   3.714   6.317   2.466
 6567SOL     OW20599   4.056   1.256   2.010
 6567SOL    HW120600   4.017   1.345   1.986
 6567SOL    HW220601   3.989   1.202   2.062
 6568SOL     OW20602   4.185   1.298   3.523
 6568SOL    HW120603   4.159   1.204   3.500
 6568SOL    HW220604   4.247   1.333   3.454
 6569SOL     OW20605   2.908   3.681   6.433
 6569SOL    HW120606   2.960   3.700   6.350
 6569SOL    HW220607   2.819   3.641   6.408
 6570SOL     OW20608   3.564   0.436   2.125
 6570SOL    HW120609   3.471   0.433   2.160
 6570SOL    HW220610   3.629   0.415   2.198
 6571SOL     OW20611   2.816   6.069   1.820
 6571SOL    HW120612   2.769   6.021   1.746
 6571SOL    HW220613   2.790   6.028   1.908
 6572SOL     OW20614   6.397   4.857   6.139
 6572SOL    HW120615   6.428   4.939   6.091
 6572SOL    HW220616   6.378   4.879   6.234
 6573SOL     OW20617   2.310   1.335   2.381
 6573SOL    HW120618   2.410   1.333   2.390
 6573SOL    HW220619   2.284   1.413   2.324
 6574SOL     OW20620   3.053   5.866   2.967
 6574SOL    HW120621   3.093   5.846   2.877
 6574SOL    HW220622   3.125   5.897   3.029
 6575SOL     OW20623   1.200   0.162   2.648
 6575SOL    HW120624   1.291   0.188   2.678
 6575SOL    HW220625   1.161   0.097   2.714
 6576SOL     OW20626   2.713   5.739   6.134
 6576SOL    HW120627   2.798   5.752   6.082
 6576SOL    HW220628   2.736   5.719   6.229
 6577SOL     OW20629   0.426   1.029   4.335
 6577SOL    HW120630   0.384   0.943   4.306
 6577SOL    HW220631   0.505   1.009   4.393
 6578SOL     OW20632   1.426   4.946   3.131
 6578SOL    HW120633   1.337   4.982   3.102
 6578SOL    HW220634   1.446   4.977   3.223
 6579SOL     OW20635   6.621   3.668   5.177
 6579SOL    HW120636   6.551   3.609   5.139
 6579SOL    HW220637   6.605   3.762   5.147
 6580SOL     OW20638   0.198   1.964   0.441
 6580SOL    HW120639   0.169   1.929   0.531
 6580SOL    HW220640   0.297   1.961   0.435
 6581SOL     OW20641   2.585   0.958   6.907
 6581SOL    HW120642   2.601   1.056   6.899
 6581SOL    HW220643   2.512   0.941   6.973
 6582SOL     OW20644   1.021   1.523   1.952
 6582SOL    HW120645   1.093   1.591   1.965
 6582SOL    HW220646   0.939   1.551   2.002
 6583SOL     OW20647   4.228   0.927   5.058
 6583SOL    HW120648   4.238   0.877   5.144
 6583SOL    HW220649   4.248   1.024   5.074
 6584SOL     OW20650   4.808   1.969   0.796
 6584SOL    HW120651   4.733   1.925   0.746
 6584SOL    HW220652   4.778   1.990   0.889
 6585SOL     OW20653   6.169   7.015   0.134
 6585SOL    HW120654   6.132   6.979   0.049
 6585SOL    HW220655   6.124   0.086   0.156
 6586SOL     OW20656   0.329   1.673   5.840
 6586SOL    HW120657   0.319   1.602   5.770
 6586SOL    HW220658   0.263   1.657   5.914
 6587SOL     OW20659   1.989   6.371   5.069
 6587SOL    HW120660   2.012   6.453   5.122
 6587SOL    HW220661   2.059   6.301   5.083
 6588SOL     OW20662   0.695   3.957   1.591
 6588SOL    HW120663   0.693   3.860   1.618
 6588SOL    HW220664   0.783   3.977   1.549
 6589SOL     OW20665   4.744   0.864   0.401
 6589SOL    HW120666   4.733   0.962   0.381
 6589SOL    HW220667   4.733   0.849   0.499
 6590SOL     OW20668   0.859   0.859   5.642
 6590SOL    HW120669   0.837   0.904   5.728
 6590SOL    HW220670   0.776   0.848   5.587
 6591SOL     OW20671   5.459   5.553   2.026
 6591SOL    HW120672   5.504   5.562   2.115
 6591SOL    HW220673   5.504   5.481   1.973
 6592SOL     OW20674   6.492   0.284   3.941
 6592SOL    HW120675   6.418   0.219   3.926
 6592SOL    HW220676   6.558   0.277   3.867
 6593SOL     OW20677   2.568   2.032   2.167
 6593SOL    HW120678   2.507   1.954   2.148
 6593SOL    HW220679   2.559   2.057   2.263
 6594SOL     OW20680   3.350   2.305   6.916
 6594SOL    HW120681   3.377   2.352   7.000
 6594SOL    HW220682   3.264   2.256   6.932
 6595SOL     OW20683   0.590   3.769   0.013
 6595SOL    HW120684   0.521   3.697   0.008
 6595SOL    HW220685   0.581   3.830   6.949
 6596SOL     OW20686   2.886   6.381   4.527
 6596SOL    HW120687   2.811   6.366   4.462
 6596SOL    HW220688   2.860   6.452   4.592
 6597SOL     OW20689   1.862   5.233   1.678
 6597SOL    HW120690   1.854   5.320   1.630
 6597SOL    HW220691   1.914   5.245   1.762
 6598SOL     OW20692   1.399   6.489   4.444
 6598SOL    HW120693   1.462   6.418   4.476
 6598SOL    HW220694   1.443   6.542   4.372
 6599SOL     OW20695   4.775   6.531   5.763
 6599SOL    HW120696   4.760   6.515   5.665
 6599SOL    HW220697   4.711   6.476   5.816
 6600SOL     OW20698   5.371   5.161   5.678
 6600SOL    HW120699   5.312   5.118   5.746
 6600SOL    HW220700   5.467   5.141   5.700
 6601SOL     OW20701   0.792   1.481   5.003
 6601SOL    HW120702   0.868   1.532   4.961
 6601SOL    HW220703   0.732   1.545   5.051
 6602SOL     OW20704   0.610   0.812   2.317
 6602SOL    HW120705   0.645   0.887   2.261
 6602SOL    HW220706   0.518   0.788   2.288
 6603SOL     OW20707   6.802   2.692   4.052
 6603SOL    HW120708   6.777   2.627   4.124
 6603SOL    HW220709   6.890   2.734   4.074
 6604SOL     OW20710   2.104   0.101   1.838
 6604SOL    HW120711   2.204   0.108   1.835
 6604SOL    HW220712   2.070   0.144   1.922
 6605SOL     OW20713   5.790   3.809   1.137
 6605SOL    HW120714   5.772   3.724   1.185
 6605SOL    HW220715   5.707   3.837   1.087
 6606SOL     OW20716   6.957   5.918   1.844
 6606SOL    HW120717   0.016   5.969   1.801
 6606SOL    HW220718   6.889   5.981   1.879
 6607SOL     OW20719   1.653   3.124   2.306
 6607SOL    HW120720   1.624   3.040   2.353
 6607SOL    HW220721   1.617   3.203   2.354
 6608SOL     OW20722   6.268   6.219   1.083
 6608SOL    HW120723   6.197   6.270   1.131
 6608SOL    HW220724   6.231   6.183   0.997
 6609SOL     OW20725   4.322   0.946   5.683
 6609SOL    HW120726   4.382   1.022   5.658
 6609SOL    HW220727   4.376   0.863   5.691
 6610SOL     OW20728   3.070   0.369   6.659
 6610SOL    HW120729   2.978   0.370   6.618
 6610SOL    HW220730   3.090   0.458   6.698
 6611SOL     OW20731   5.861   3.059   3.738
 6611SOL    HW120732   5.899   3.013   3.818
 6611SOL    HW220733   5.798   2.997   3.691
 6612SOL     OW20734   6.178   2.150   6.375
 6612SOL    HW120735   6.228   2.232   6.402
 6612SOL    HW220736   6.193   2.132   6.278
 6613SOL     OW20737   6.835   5.983   4.828
 6613SOL    HW120738   6.898   6.031   4.888
 6613SOL    HW220739   6.886   5.936   4.756
 6614SOL     OW20740   5.087   6.599   0.770
 6614SOL    HW120741   5.108   6.502   0.780
 6614SOL    HW220742   5.172   6.652   0.772
 6615SOL     OW20743   1.320   5.077   2.470
 6615SOL    HW120744   1.273   5.161   2.442
 6615SOL    HW220745   1.315   5.068   2.569
 6616SOL     OW20746   4.125   1.239   5.555
 6616SOL    HW120747   4.122   1.337   5.574
 6616SOL    HW220748   4.079   1.189   5.628
 6617SOL     OW20749   4.154   5.075   3.111
 6617SOL    HW120750   4.102   5.157   3.087
 6617SOL    HW220751   4.150   5.010   3.035
 6618SOL     OW20752   1.492   2.884   2.387
 6618SOL    HW120753   1.405   2.878   2.337
 6618SOL    HW220754   1.475   2.925   2.477
 6619SOL     OW20755   6.310   0.108   3.801
 6619SOL    HW120756   6.264   0.158   3.726
 6619SOL    HW220757   6.244   0.092   3.875
 6620SOL     OW20758   1.766   2.898   5.143
 6620SOL    HW120759   1.693   2.831   5.134
 6620SOL    HW220760   1.727   2.990   5.143
 6621SOL     OW20761   2.693   2.805   6.069
 6621SOL    HW120762   2.732   2.827   6.159
 6621SOL    HW220763   2.757   2.834   5.998
 6622SOL     OW20764   6.003   6.792   1.300
 6622SOL    HW120765   6.023   6.878   1.348
 6622SOL    HW220766   6.001   6.809   1.201
 6623SOL     OW20767   2.966   2.949   6.098
 6623SOL    HW120768   2.960   2.946   5.999
 6623SOL    HW220769   3.057   2.981   6.125
 6624SOL     OW20770   1.121   5.369   5.667
 6624SOL    HW120771   1.046   5.380   5.733
 6624SOL    HW220772   1.084   5.352   5.576
 6625SOL     OW20773   4.790   2.124   5.748
 6625SOL    HW120774   4.799   2.153   5.843
 6625SOL    HW220775   4.824   2.197   5.688
 6626SOL     OW20776   4.989   5.130   5.548
 6626SOL    HW120777   4.994   5.187   5.629
 6626SOL    HW220778   4.999   5.186   5.466
 6627SOL     OW20779   2.207   6.561   4.712
 6627SOL    HW120780   2.119   6.581   4.757
 6627SOL    HW220781   2.209   6.605   4.622
 6628SOL     OW20782   4.581   4.427   4.815
 6628SOL    HW120783   4.552   4.452   4.722
 6628SOL    HW220784   4.511   4.457   4.880
 6629SOL     OW20785   4.379   5.791   0.081
 6629SOL    HW120786   4.447   5.860   0.106
 6629SOL    HW220787   4.371   5.723   0.154
 6630SOL     OW20788   4.063   0.840   1.787
 6630SOL    HW120789   4.096   0.776   1.717
 6630SOL    HW220790   4.085   0.805   1.878
 6631SOL     OW20791   2.780   5.857   3.438
 6631SOL    HW120792   2.690   5.897   3.456
 6631SOL    HW220793   2.832   5.920   3.380
 6632SOL     OW20794   0.241   6.381   1.430
 6632SOL    HW120795   0.288   6.457   1.386
 6632SOL    HW220796   0.155   6.414   1.469
 6633SOL     OW20797   0.517   4.296   6.650
 6633SOL    HW120798   0.550   4.214   6.697
 6633SOL    HW220799   0.596   4.352   6.624
 6634SOL     OW20800   5.433   2.282   3.904
 6634SOL    HW120801   5.442   2.269   4.003
 6634SOL    HW220802   5.348   2.332   3.885
 6635SOL     OW20803   4.255   4.664   3.164
 6635SOL    HW120804   4.199   4.698   3.089
 6635SOL    HW220805   4.348   4.701   3.154
 6636SOL     OW20806   4.612   2.655   5.695
 6636SOL    HW120807   4.520   2.618   5.677
 6636SOL    HW220808   4.630   2.652   5.793
 6637SOL     OW20809   1.487   0.022   6.534
 6637SOL    HW120810   1.407   0.051   6.482
 6637SOL    HW220811   1.560   7.011   6.471
 6638SOL     OW20812   3.323   3.595   4.088
 6638SOL    HW120813   3.274   3.522   4.137
 6638SOL    HW220814   3.422   3.581   4.099
 6639SOL     OW20815   5.422   4.605   6.664
 6639SOL    HW120816   5.514   4.570   6.683
 6639SOL    HW220817   5.429   4.681   6.599
 6640SOL     OW20818   1.444   1.357   4.832
 6640SOL    HW120819   1.436   1.316   4.923
 6640SOL    HW220820   1.534   1.401   4.824
 6641SOL     OW20821   1.949   1.723   7.015
 6641SOL    HW120822   1.927   1.640   0.051
 6641SOL    HW220823   1.890   1.798   0.030
 6642SOL     OW20824   2.844   5.342   6.561
 6642SOL    HW120825   2.932   5.344   6.608
 6642SOL    HW220826   2.791   5.423   6.587
 6643SOL     OW20827   5.995   5.281   0.151
 6643SOL    HW120828   5.900   5.309   0.134
 6643SOL    HW220829   6.003   5.247   0.245
 6644SOL     OW20830   2.438   5.325   2.147
 6644SOL    HW120831   2.513   5.356   2.205
 6644SOL    HW220832   2.352   5.330   2.198
 6645SOL     OW20833   6.740   5.290   0.351
 6645SOL    HW120834   6.748   5.279   0.450
 6645SOL    HW220835   6.669   5.229   0.315
 6646SOL     OW20836   4.256   0.034   5.045
 6646SOL    HW120837   4.349   0.068   5.034
 6646SOL    HW220838   4.253   6.952   5.023
 6647SOL     OW20839   4.350   0.862   1.930
 6647SOL    HW120840   4.366   0.797   1.856
 6647SOL    HW220841   4.421   0.933   1.929
 6648SOL     OW20842   4.253   6.624   3.103
 6648SOL    HW120843   4.182   6.562   3.069
 6648SOL    HW220844   4.337   6.611   3.050
 6649SOL     OW20845   5.168   0.867   6.919
 6649SOL    HW120846   5.219   0.833   6.840
 6649SOL    HW220847   5.070   0.861   6.900
 6650SOL     OW20848   3.381   1.555   5.353
 6650SOL    HW120849   3.318   1.629   5.377
 6650SOL    HW220850   3.328   1.474   5.328
 6651SOL     OW20851   2.103   1.774   5.497
 6651SOL    HW120852   2.103   1.859   5.444
 6651SOL    HW220853   2.013   1.731   5.490
 6652SOL     OW20854   0.770   4.258   0.761
 6652SOL    HW120855   0.853   4.217   0.723
 6652SOL    HW220856   0.795   4.324   0.832
 6653SOL     OW20857   3.081   3.204   2.621
 6653SOL    HW120858   3.031   3.208   2.535
 6653SOL    HW220859   3.167   3.255   2.612
 6654SOL     OW20860   1.462   3.822   1.445
 6654SOL    HW120861   1.497   3.892   1.507
 6654SOL    HW220862   1.472   3.852   1.350
 6655SOL     OW20863   0.866   0.155   3.387
 6655SOL    HW120864   0.920   0.072   3.404
 6655SOL    HW220865   0.774   0.129   3.359
 6656SOL     OW20866   5.707   1.670   3.683
 6656SOL    HW120867   5.655   1.586   3.700
 6656SOL    HW220868   5.759   1.660   3.598
 6657SOL     OW20869   5.777   5.844   6.237
 6657SOL    HW120870   5.698   5.887   6.193
 6657SOL    HW220871   5.826   5.913   6.292
 6658SOL     OW20872   6.766   1.015   4.692
 6658SOL    HW120873   6.750   0.922   4.659
 6658SOL    HW220874   6.814   1.011   4.779
 6659SOL     OW20875   2.145   2.178   0.460
 6659SOL    HW120876   2.237   2.144   0.440
 6659SOL    HW220877   2.145   2.278   0.455
 6660SOL     OW20878   1.026   5.142   1.195
 6660SOL    HW120879   1.046   5.095   1.281
 6660SOL    HW220880   0.964   5.219   1.212
 6661SOL     OW20881   0.955   6.460   5.198
 6661SOL    HW120882   0.994   6.529   5.138
 6661SOL    HW220883   0.960   6.491   5.293
 6662SOL     OW20884   1.291   1.055   0.214
 6662SOL    HW120885   1.339   0.968   0.224
 6662SOL    HW220886   1.194   1.042   0.237
 6663SOL     OW20887   6.943   4.561   4.062
 6663SOL    HW120888   6.856   4.587   4.020
 6663SOL    HW220889   6.948   4.599   4.154
 6664SOL     OW20890   2.376   6.272   0.104
 6664SOL    HW120891   2.352   6.298   0.010
 6664SOL    HW220892   2.305   6.213   0.142
 6665SOL     OW20893   1.879   6.450   4.162
 6665SOL    HW120894   1.869   6.544   4.130
 6665SOL    HW220895   1.866   6.446   4.261
 6666SOL     OW20896   6.089   6.910   5.166
 6666SOL    HW120897   6.031   6.828   5.165
 6666SOL    HW220898   6.035   6.988   5.135
 6667SOL     OW20899   6.552   6.078   6.948
 6667SOL    HW120900   6.618   6.004   6.959
 6667SOL    HW220901   6.465   6.042   6.914
 6668SOL     OW20902   6.825   5.498   1.370
 6668SOL    HW120903   6.920   5.500   1.340
 6668SOL    HW220904   6.767   5.465   1.295
 6669SOL     OW20905   1.568   3.203   3.488
 6669SOL    HW120906   1.596   3.295   3.513
 6669SOL    HW220907   1.635   3.137   3.521
 6670SOL     OW20908   3.464   2.025   5.385
 6670SOL    HW120909   3.406   2.102   5.357
 6670SOL    HW220910   3.426   1.983   5.468
 6671SOL     OW20911   5.972   5.759   0.730
 6671SOL    HW120912   5.874   5.778   0.739
 6671SOL    HW220913   6.003   5.785   0.638
 6672SOL     OW20914   6.571   1.536   6.327
 6672SOL    HW120915   6.493   1.495   6.374
 6672SOL    HW220916   6.574   1.634   6.347
 6673SOL     OW20917   5.678   5.528   4.376
 6673SOL    HW120918   5.606   5.544   4.308
 6673SOL    HW220919   5.746   5.602   4.370
 6674SOL     OW20920   0.811   4.989   6.048
 6674SOL    HW120921   0.767   5.054   5.986
 6674SOL    HW220922   0.782   5.007   6.142
 6675SOL     OW20923   4.798   3.696   1.707
 6675SOL    HW120924   4.717   3.750   1.687
 6675SOL    HW220925   4.871   3.757   1.738
 6676SOL     OW20926   6.813   3.447   5.549
 6676SOL    HW120927   6.873   3.495   5.613
 6676SOL    HW220928   6.825   3.485   5.457
 6677SOL     OW20929   1.151   1.775   6.750
 6677SOL    HW120930   1.075   1.712   6.736
 6677SOL    HW220931   1.128   1.863   6.708
 6678SOL     OW20932   3.258   3.259   6.777
 6678SOL    HW120933   3.159   3.259   6.790
 6678SOL    HW220934   3.280   3.295   6.686
 6679SOL     OW20935   2.636   1.217   3.760
 6679SOL    HW120936   2.674   1.153   3.827
 6679SOL    HW220937   2.662   1.310   3.784
 6680SOL     OW20938   4.530   6.697   6.749
 6680SOL    HW120939   4.597   6.624   6.766
 6680SOL    HW220940   4.510   6.745   6.834
 6681SOL     OW20941   4.288   5.768   1.498
 6681SOL    HW120942   4.335   5.686   1.466
 6681SOL    HW220943   4.255   5.753   1.591
 6682SOL     OW20944   0.440   4.461   2.725
 6682SOL    HW120945   0.419   4.508   2.811
 6682SOL    HW220946   0.532   4.487   2.695
 6683SOL     OW20947   5.914   2.770   5.733
 6683SOL    HW120948   5.975   2.740   5.805
 6683SOL    HW220949   5.938   2.724   5.647
 6684SOL     OW20950   2.899   0.281   1.895
 6684SOL    HW120951   2.971   0.347   1.872
 6684SOL    HW220952   2.839   0.320   1.965
 6685SOL     OW20953   6.214   3.625   5.789
 6685SOL    HW120954   6.278   3.617   5.712
 6685SOL    HW220955   6.246   3.569   5.865
 6686SOL     OW20956   5.211   5.954   4.117
 6686SOL    HW120957   5.200   5.943   4.216
 6686SOL    HW220958   5.308   5.949   4.094
 6687SOL     OW20959   1.083   3.198   0.162
 6687SOL    HW120960   1.095   3.271   0.229
 6687SOL    HW220961   1.157   3.199   0.096
 6688SOL     OW20962   0.206   3.926   2.580
 6688SOL    HW120963   0.127   3.935   2.641
 6688SOL    HW220964   0.290   3.948   2.630
 6689SOL     OW20965   4.819   2.976   0.187
 6689SOL    HW120966   4.907   2.959   0.143
 6689SOL    HW220967   4.833   2.993   0.285
 6690SOL     OW20968   2.059   0.639   0.709
 6690SOL    HW120969   2.117   0.589   0.644
 6690SOL    HW220970   1.997   0.575   0.755
 6691SOL     OW20971   2.641   6.459   1.113
 6691SOL    HW120972   2.712   6.393   1.140
 6691SOL    HW220973   2.612   6.511   1.192
 6692SOL     OW20974   3.764   4.231   5.007
 6692SOL    HW120975   3.774   4.228   4.908
 6692SOL    HW220976   3.669   4.208   5.032
 6693SOL     OW20977   4.153   3.917   5.243
 6693SOL    HW120978   4.176   3.824   5.212
 6693SOL    HW220979   4.080   3.954   5.186
 6694SOL     OW20980   3.914   5.979   1.036
 6694SOL    HW120981   3.988   6.007   0.975
 6694SOL    HW220982   3.925   6.023   1.125
 6695SOL     OW20983   3.457   1.548   0.200
 6695SOL    HW120984   3.431   1.627   0.145
 6695SOL    HW220985   3.384   1.527   0.265
 6696SOL     OW20986   2.011   2.846   5.577
 6696SOL    HW120987   1.951   2.768   5.565
 6696SOL    HW220988   2.045   2.876   5.487
 6697SOL     OW20989   4.307   2.147   2.279
 6697SOL    HW120990   4.285   2.056   2.244
 6697SOL    HW220991   4.223   2.197   2.300
 6698SOL     OW20992   2.988   2.856   1.237
 6698SOL    HW120993   3.081   2.877   1.266
 6698SOL    HW220994   2.966   2.906   1.153
 6699SOL     OW20995   2.577   4.995   6.307
 6699SOL    HW120996   2.650   4.930   6.284
 6699SOL    HW220997   2.595   5.034   6.397
 6700SOL     OW20998   0.101   6.854   0.837
 6700SOL    HW120999   0.022   6.862   0.776
 6700SOL    HW221000   0.121   6.943   0.878
 6701SOL     OW21001   5.697   2.964   1.661
 6701SOL    HW121002   5.795   2.983   1.669
 6701SOL    HW221003   5.680   2.869   1.685
 6702SOL     OW21004   2.949   1.604   1.788
 6702SOL    HW121005   2.900   1.552   1.718
 6702SOL    HW221006   2.972   1.694   1.752
 6703SOL     OW21007   6.397   2.194   6.652
 6703SOL    HW121008   6.351   2.219   6.567
 6703SOL    HW221009   6.429   2.277   6.698
 6704SOL     OW21010   3.496   2.144   3.121
 6704SOL    HW121011   3.553   2.115   3.045
 6704SOL    HW221012   3.543   2.125   3.208
 6705SOL     OW21013   6.512   2.759   1.195
 6705SOL    HW121014   6.489   2.757   1.097
 6705SOL    HW221015   6.496   2.669   1.234
 6706SOL     OW21016   1.120   3.895   1.958
 6706SOL    HW121017   1.163   3.958   2.022
 6706SOL    HW221018   1.021   3.907   1.961
 6707SOL     OW21019   6.758   5.988   3.740
 6707SOL    HW121020   6.852   5.954   3.730
 6707SOL    HW221021   6.715   5.994   3.650
 6708SOL     OW21022   6.955   5.220   1.701
 6708SOL    HW121023   6.920   5.140   1.653
 6708SOL    HW221024   0.022   5.253   1.656
 6709SOL     OW21025   2.951   0.021   2.900
 6709SOL    HW121026   2.885   6.976   2.945
 6709SOL    HW221027   2.973   0.097   2.960
 6710SOL     OW21028   3.771   1.094   6.248
 6710SOL    HW121029   3.764   1.030   6.171
 6710SOL    HW221030   3.837   1.059   6.314
 6711SOL     OW21031   5.072   5.300   6.322
 6711SOL    HW121032   5.082   5.206   6.289
 6711SOL    HW221033   5.060   5.361   6.243
 6712SOL     OW21034   4.762   4.702   0.153
 6712SOL    HW121035   4.683   4.644   0.172
 6712SOL    HW221036   4.736   4.774   0.089
 6713SOL     OW21037   2.196   0.784   2.532
 6713SOL    HW121038   2.272   0.849   2.529
 6713SOL    HW221039   2.142   0.800   2.615
 6714SOL     OW21040   5.990   1.403   6.155
 6714SOL    HW121041   6.066   1.352   6.116
 6714SOL    HW221042   6.001   1.408   6.255
 6715SOL     OW21043   6.687   6.791   6.595
 6715SOL    HW121044   6.683   6.876   6.648
 6715SOL    HW221045   6.596   6.770   6.559
 6716SOL     OW21046   0.457   5.739   1.481
 6716SOL    HW121047   0.485   5.828   1.447
 6716SOL    HW221048   0.359   5.727   1.466
 6717SOL     OW21049   4.259   2.753   6.687
 6717SOL    HW121050   4.160   2.763   6.671
 6717SOL    HW221051   4.308   2.762   6.600
 6718SOL     OW21052   5.401   6.939   6.893
 6718SOL    HW121053   5.435   6.879   6.821
 6718SOL    HW221054   5.324   6.993   6.859
 6719SOL     OW21055   2.082   0.216   0.022
 6719SOL    HW121056   1.994   0.202   0.067
 6719SOL    HW221057   2.075   0.190   6.941
 6720SOL     OW21058   0.614   6.705   3.770
 6720SOL    HW121059   0.556   6.764   3.714
 6720SOL    HW221060   0.655   6.634   3.712
 6721SOL     OW21061   6.695   0.474   6.199
 6721SOL    HW121062   6.740   0.442   6.283
 6721SOL    HW221063   6.630   0.405   6.167
 6722SOL     OW21064   0.020   3.190   1.076
 6722SOL    HW121065   6.938   3.212   1.073
 6722SOL    HW221066   0.073   3.270   1.051
 6723SOL     OW21067   2.498   6.709   3.132
 6723SOL    HW121068   2.554   6.739   3.210
 6723SOL    HW221069   2.436   6.636   3.162
 6724SOL     OW21070   1.598   3.653   5.978
 6724SOL    HW121071   1.663   3.708   5.925
 6724SOL    HW221072   1.549   3.713   6.042
 6725SOL     OW21073   0.718   3.600   1.264
 6725SOL    HW121074   0.645   3.656   1.302
 6725SOL    HW221075   0.771   3.559   1.339
 6726SOL     OW21076   0.775   1.875   5.167
 6726SOL    HW121077   0.821   1.938   5.105
 6726SOL    HW221078   0.713   1.925   5.227
 6727SOL     OW21079   6.106   3.923   5.711
 6727SOL    HW121080   6.176   3.994   5.707
 6727SOL    HW221081   6.053   3.924   5.626
 6728SOL     OW21082   4.386   1.179   3.071
 6728SOL    HW121083   4.363   1.098   3.126
 6728SOL    HW221084   4.303   1.216   3.029
 6729SOL     OW21085   0.219   1.333   2.486
 6729SOL    HW121086   0.204   1.323   2.387
 6729SOL    HW221087   0.317   1.345   2.504
 6730SOL     OW21088   2.653   6.217   6.952
 6730SOL    HW121089   2.632   6.119   6.958
 6730SOL    HW221090   2.624   6.262   0.021
 6731SOL     OW21091   0.766   6.108   1.768
 6731SOL    HW121092   0.673   6.086   1.736
 6731SOL    HW221093   0.833   6.061   1.711
 6732SOL     OW21094   5.511   4.703   5.642
 6732SOL    HW121095   5.573   4.734   5.569
 6732SOL    HW221096   5.555   4.628   5.692
 6733SOL     OW21097   4.013   4.806   0.072
 6733SOL    HW121098   3.942   4.819   0.004
 6733SOL    HW221099   4.081   4.741   0.037
 6734SOL     OW21100   6.202   2.295   5.003
 6734SOL    HW121101   6.260   2.336   4.932
 6734SOL    HW221102   6.217   2.196   5.004
 6735SOL     OW21103   6.971   4.062   4.239
 6735SOL    HW121104   6.897   4.092   4.299
 6735SOL    HW221105   0.017   4.002   4.290
 6736SOL     OW21106   3.509   3.779   6.866
 6736SOL    HW121107   3.531   3.755   6.960
 6736SOL    HW221108   3.433   3.722   6.834
 6737SOL     OW21109   2.061   2.404   0.750
 6737SOL    HW121110   2.106   2.432   0.835
 6737SOL    HW221111   2.062   2.304   0.743
 6738SOL     OW21112   1.692   5.086   2.563
 6738SOL    HW121113   1.667   5.161   2.502
 6738SOL    HW221114   1.621   5.015   2.559
 6739SOL     OW21115   3.872   5.915   5.727
 6739SOL    HW121116   3.884   5.963   5.814
 6739SOL    HW221117   3.961   5.900   5.685
 6740SOL     OW21118   1.669   1.173   4.087
 6740SOL    HW121119   1.610   1.253   4.101
 6740SOL    HW221120   1.738   1.194   4.018
 6741SOL     OW21121   4.338   1.142   5.419
 6741SOL    HW121122   4.283   1.205   5.473
 6741SOL    HW221123   4.296   1.052   5.419
 6742SOL     OW21124   6.511   6.185   2.826
 6742SOL    HW121125   6.605   6.171   2.858
 6742SOL    HW221126   6.478   6.101   2.784
 6743SOL     OW21127   4.165   5.008   0.419
 6743SOL    HW121128   4.125   5.052   0.499
 6743SOL    HW221129   4.096   4.998   0.347
 6744SOL     OW21130   5.475   5.354   5.888
 6744SOL    HW121131   5.463   5.262   5.851
 6744SOL    HW221132   5.447   5.355   5.984
 6745SOL     OW21133   0.281   0.484   2.794
 6745SOL    HW121134   0.267   0.469   2.892
 6745SOL    HW221135   0.366   0.440   2.764
 6746SOL     OW21136   1.199   1.198   2.998
 6746SOL    HW121137   1.282   1.230   3.044
 6746SOL    HW221138   1.146   1.141   3.060
 6747SOL     OW21139   5.312   0.735   5.346
 6747SOL    HW121140   5.262   0.662   5.299
 6747SOL    HW221141   5.354   0.699   5.429
 6748SOL     OW21142   1.407   0.463   3.482
 6748SOL    HW121143   1.408   0.495   3.576
 6748SOL    HW221144   1.471   0.387   3.472
 6749SOL     OW21145   2.564   6.107   0.208
 6749SOL    HW121146   2.477   6.139   0.171
 6749SOL    HW221147   2.566   6.007   0.206
 6750SOL     OW21148   4.232   2.033   5.536
 6750SOL    HW121149   4.183   2.119   5.520
 6750SOL    HW221150   4.297   2.046   5.611
 6751SOL     OW21151   4.508   0.678   3.728
 6751SOL    HW121152   4.456   0.611   3.781
 6751SOL    HW221153   4.456   0.764   3.724
 6752SOL     OW21154   0.541   2.756   3.130
 6752SOL    HW121155   0.551   2.775   3.032
 6752SOL    HW221156   0.544   2.657   3.145
 6753SOL     OW21157   4.247   0.855   6.062
 6753SOL    HW121158   4.336   0.845   6.017
 6753SOL    HW221159   4.254   0.824   6.157
 6754SOL     OW21160   0.010   1.531   6.635
 6754SOL    HW121161   0.066   1.448   6.645
 6754SOL    HW221162   6.943   1.521   6.691
 6755SOL     OW21163   4.377   0.521   3.282
 6755SOL    HW121164   4.374   0.454   3.356
 6755SOL    HW221165   4.387   0.612   3.320
 6756SOL     OW21166   4.019   5.291   5.058
 6756SOL    HW121167   3.929   5.278   5.019
 6756SOL    HW221168   4.042   5.389   5.058
 6757SOL     OW21169   4.491   0.490   1.094
 6757SOL    HW121170   4.404   0.537   1.110
 6757SOL    HW221171   4.479   0.392   1.111
 6758SOL     OW21172   0.105   3.024   0.860
 6758SOL    HW121173   0.085   2.927   0.852
 6758SOL    HW221174   0.061   3.061   0.942
 6759SOL     OW21175   0.889   5.126   4.203
 6759SOL    HW121176   0.812   5.069   4.233
 6759SOL    HW221177   0.856   5.218   4.183
 6760SOL     OW21178   6.712   4.874   3.348
 6760SOL    HW121179   6.671   4.887   3.439
 6760SOL    HW221180   6.727   4.963   3.305
 6761SOL     OW21181   6.059   1.836   6.215
 6761SOL    HW121182   6.108   1.761   6.260
 6761SOL    HW221183   6.124   1.892   6.163
 6762SOL     OW21184   6.849   5.616   3.392
 6762SOL    HW121185   6.896   5.527   3.397
 6762SOL    HW221186   6.907   5.682   3.345
 6763SOL     OW21187   0.197   5.304   3.749
 6763SOL    HW121188   0.108   5.350   3.752
 6763SOL    HW221189   0.226   5.279   3.842
 6764SOL     OW21190   2.840   5.011   6.673
 6764SOL    HW121191   2.753   5.022   6.624
 6764SOL    HW221192   2.828   4.943   6.746
 6765SOL     OW21193   4.906   4.713   4.254
 6765SOL    HW121194   4.920   4.715   4.353
 6765SOL    HW221195   4.986   4.752   4.208
 6766SOL     OW21196   4.894   6.623   6.236
 6766SOL    HW121197   4.976   6.587   6.193
 6766SOL    HW221198   4.821   6.629   6.169
 6767SOL     OW21199   0.815   2.490   0.434
 6767SOL    HW121200   0.874   2.500   0.514
 6767SOL    HW221201   0.734   2.549   0.444
 6768SOL     OW21202   0.401   6.550   3.518
 6768SOL    HW121203   0.386   6.455   3.542
 6768SOL    HW221204   0.492   6.579   3.549
 6769SOL     OW21205   2.909   6.933   5.752
 6769SOL    HW121206   2.949   6.842   5.741
 6769SOL    HW221207   2.979   7.002   5.732
 6770SOL     OW21208   6.121   1.963   2.976
 6770SOL    HW121209   6.094   1.911   3.056
 6770SOL    HW221210   6.100   2.060   2.990
 6771SOL     OW21211   3.334   1.298   2.293
 6771SOL    HW121212   3.240   1.323   2.316
 6771SOL    HW221213   3.343   1.198   2.291
 6772SOL     OW21214   4.737   1.913   2.267
 6772SOL    HW121215   4.709   1.932   2.173
 6772SOL    HW221216   4.660   1.928   2.329
 6773SOL     OW21217   0.284   6.304   1.691
 6773SOL    HW121218   0.302   6.311   1.593
 6773SOL    HW221219   0.204   6.360   1.714
 6774SOL     OW21220   2.057   2.749   4.368
 6774SOL    HW121221   1.996   2.733   4.446
 6774SOL    HW221222   2.086   2.845   4.368
 6775SOL     OW21223   0.741   2.090   3.210
 6775SOL    HW121224   0.691   2.146   3.277
 6775SOL    HW221225   0.839   2.091   3.232
 6776SOL     OW21226   4.366   3.614   1.346
 6776SOL    HW121227   4.346   3.533   1.402
 6776SOL    HW221228   4.289   3.677   1.350
 6777SOL     OW21229   4.435   5.739   0.563
 6777SOL    HW121230   4.445   5.652   0.515
 6777SOL    HW221231   4.464   5.813   0.503
 6778SOL     OW21232   6.115   3.845   2.108
 6778SOL    HW121233   6.015   3.850   2.117
 6778SOL    HW221234   6.140   3.868   2.014
 6779SOL     OW21235   5.376   4.869   6.066
 6779SOL    HW121236   5.331   4.816   5.993
 6779SOL    HW221237   5.474   4.853   6.063
 6780SOL     OW21238   1.231   3.741   2.605
 6780SOL    HW121239   1.307   3.677   2.598
 6780SOL    HW221240   1.156   3.711   2.546
 6781SOL     OW21241   6.727   1.867   4.041
 6781SOL    HW121242   6.676   1.932   3.985
 6781SOL    HW221243   6.789   1.917   4.101
 6782SOL     OW21244   0.864   1.364   2.916
 6782SOL    HW121245   0.768   1.385   2.933
 6782SOL    HW221246   0.921   1.404   2.989
 6783SOL     OW21247   1.029   3.282   5.594
 6783SOL    HW121248   0.986   3.350   5.534
 6783SOL    HW221249   1.116   3.318   5.626
 6784SOL     OW21250   2.088   4.593   1.299
 6784SOL    HW121251   2.040   4.518   1.344
 6784SOL    HW221252   2.095   4.671   1.361
 6785SOL     OW21253   5.814   4.896   5.575
 6785SOL    HW121254   5.823   4.995   5.560
 6785SOL    HW221255   5.895   4.862   5.622
 6786SOL     OW21256   0.210   3.364   6.384
 6786SOL    HW121257   0.261   3.360   6.298
 6786SOL    HW221258   0.119   3.325   6.370
 6787SOL     OW21259   3.359   1.898   1.456
 6787SOL    HW121260   3.368   1.997   1.454
 6787SOL    HW221261   3.404   1.859   1.376
 6788SOL     OW21262   0.544   4.164   2.573
 6788SOL    HW121263   0.548   4.263   2.588
 6788SOL    HW221264   0.567   4.117   2.658
 6789SOL     OW21265   6.957   4.307   3.777
 6789SOL    HW121266   6.941   4.280   3.872
 6789SOL    HW221267   6.870   4.304   3.727
 6790SOL     OW21268   0.319   4.566   7.000
 6790SOL    HW121269   0.372   4.630   6.945
 6790SOL    HW221270   0.326   4.474   6.961
 6791SOL     OW21271   4.427   1.959   2.503
 6791SOL    HW121272   4.412   1.864   2.478
 6791SOL    HW221273   4.355   2.016   2.464
 6792SOL     OW21274   4.869   0.012   5.207
 6792SOL    HW121275   4.871   0.028   5.306
 6792SOL    HW221276   4.898   6.934   5.187
 6793SOL     OW21277   3.422   0.752   6.902
 6793SOL    HW121278   3.481   0.685   6.947
 6793SOL    HW221279   3.439   0.750   6.804
 6794SOL     OW21280   5.101   1.183   5.105
 6794SOL    HW121281   5.082   1.241   5.185
 6794SOL    HW221282   5.026   1.119   5.092
 6795SOL     OW21283   0.840   6.842   0.386
 6795SOL    HW121284   0.939   6.846   0.401
 6795SOL    HW221285   0.797   6.795   0.463
 6796SOL     OW21286   5.706   0.221   2.625
 6796SOL    HW121287   5.677   0.316   2.612
 6796SOL    HW221288   5.789   0.204   2.571
 6797SOL     OW21289   6.304   1.602   0.721
 6797SOL    HW121290   6.227   1.548   0.686
 6797SOL    HW221291   6.285   1.699   0.709
 6798SOL     OW21292   6.250   0.417   1.125
 6798SOL    HW121293   6.230   0.325   1.158
 6798SOL    HW221294   6.164   0.466   1.108
 6799SOL     OW21295   5.492   0.131   2.461
 6799SOL    HW121296   5.571   0.168   2.510
 6799SOL    HW221297   5.490   0.169   2.368
 6800SOL     OW21298   2.173   2.455   1.689
 6800SOL    HW121299   2.094   2.506   1.722
 6800SOL    HW221300   2.217   2.408   1.765
 6801SOL     OW21301   0.717   6.511   3.624
 6801SOL    HW121302   0.816   6.499   3.616
 6801SOL    HW221303   0.674   6.421   3.636
 6802SOL     OW21304   3.717   5.985   1.496
 6802SOL    HW121305   3.619   5.964   1.505
 6802SOL    HW221306   3.741   6.057   1.562
 6803SOL     OW21307   4.067   4.305   6.761
 6803SOL    HW121308   4.008   4.384   6.775
 6803SOL    HW221309   4.126   4.322   6.682
 6804SOL     OW21310   3.494   5.041   2.974
 6804SOL    HW121311   3.439   5.121   2.949
 6804SOL    HW221312   3.482   4.970   2.906
 6805SOL     OW21313   0.737   5.010   6.638
 6805SOL    HW121314   0.652   5.041   6.596
 6805SOL    HW221315   0.724   5.000   6.737
 6806SOL     OW21316   6.811   0.954   4.318
 6806SOL    HW121317   6.773   0.994   4.234
 6806SOL    HW221318   6.898   0.998   4.339
 6807SOL     OW21319   3.839   4.042   3.443
 6807SOL    HW121320   3.885   4.116   3.492
 6807SOL    HW221321   3.906   3.974   3.414
 6808SOL     OW21322   6.066   1.376   5.337
 6808SOL    HW121323   6.053   1.284   5.301
 6808SOL    HW221324   6.156   1.410   5.308
 6809SOL     OW21325   6.467   3.545   0.682
 6809SOL    HW121326   6.533   3.470   0.674
 6809SOL    HW221327   6.420   3.558   0.595
 6810SOL     OW21328   3.241   1.037   2.430
 6810SOL    HW121329   3.207   0.945   2.415
 6810SOL    HW221330   3.261   1.050   2.527
 6811SOL     OW21331   6.176   3.002   2.561
 6811SOL    HW121332   6.080   3.009   2.588
 6811SOL    HW221333   6.182   2.975   2.465
 6812SOL     OW21334   3.288   4.027   4.987
 6812SOL    HW121335   3.194   4.061   4.978
 6812SOL    HW221336   3.300   3.987   5.078
 6813SOL     OW21337   5.349   3.485   2.548
 6813SOL    HW121338   5.316   3.578   2.567
 6813SOL    HW221339   5.442   3.490   2.513
 6814SOL     OW21340   4.594   1.620   6.606
 6814SOL    HW121341   4.655   1.589   6.679
 6814SOL    HW221342   4.544   1.542   6.569
 6815SOL     OW21343   2.390   6.232   6.473
 6815SOL    HW121344   2.325   6.180   6.528
 6815SOL    HW221345   2.483   6.199   6.489
 6816SOL     OW21346   6.679   1.566   5.298
 6816SOL    HW121347   6.591   1.563   5.251
 6816SOL    HW221348   6.743   1.503   5.252
 6817SOL     OW21349   2.394   2.633   4.041
 6817SOL    HW121350   2.337   2.604   3.965
 6817SOL    HW221351   2.369   2.726   4.068
 6818SOL     OW21352   2.024   6.923   0.387
 6818SOL    HW121353   2.063   6.836   0.358
 6818SOL    HW221354   2.097   6.990   0.402
 6819SOL     OW21355   4.669   0.963   2.712
 6819SOL    HW121356   4.660   0.877   2.662
 6819SOL    HW221357   4.589   1.021   2.694
 6820SOL     OW21358   0.969   5.774   1.661
 6820SOL    HW121359   0.996   5.789   1.756
 6820SOL    HW221360   0.918   5.853   1.628
 6821SOL     OW21361   4.726   3.044   5.702
 6821SOL    HW121362   4.662   2.993   5.759
 6821SOL    HW221363   4.818   3.039   5.743
 6822SOL     OW21364   6.379   2.653   6.146
 6822SOL    HW121365   6.349   2.713   6.220
 6822SOL    HW221366   6.470   2.682   6.115
 6823SOL     OW21367   5.593   4.217   6.678
 6823SOL    HW121368   5.494   4.214   6.664
 6823SOL    HW221369   5.623   4.311   6.692
 6824SOL     OW21370   1.796   1.695   0.439
 6824SOL    HW121371   1.749   1.734   0.359
 6824SOL    HW221372   1.743   1.617   0.474
 6825SOL     OW21373   6.594   0.181   0.455
 6825SOL    HW121374   6.614   0.102   0.397
 6825SOL    HW221375   6.658   0.182   0.532
 6826SOL     OW21376   1.082   3.803   3.900
 6826SOL    HW121377   1.017   3.848   3.838
 6826SOL    HW221378   1.120   3.870   3.963
 6827SOL     OW21379   5.094   5.629   5.698
 6827SOL    HW121380   5.177   5.666   5.657
 6827SOL    HW221381   5.028   5.703   5.712
 6828SOL     OW21382   3.781   1.472   2.739
 6828SOL    HW121383   3.722   1.399   2.771
 6828SOL    HW221384   3.757   1.496   2.645
 6829SOL     OW21385   5.073   6.518   5.558
 6829SOL    HW121386   5.071   6.480   5.651
 6829SOL    HW221387   5.033   6.610   5.559
 6830SOL     OW21388   5.707   0.646   3.505
 6830SOL    HW121389   5.652   0.563   3.508
 6830SOL    HW221390   5.732   0.666   3.410
 6831SOL     OW21391   1.553   1.085   5.848
 6831SOL    HW121392   1.583   1.014   5.912
 6831SOL    HW221393   1.480   1.048   5.790
 6832SOL     OW21394   2.498   3.842   0.513
 6832SOL    HW121395   2.409   3.854   0.558
 6832SOL    HW221396   2.565   3.809   0.580
 6833SOL     OW21397   2.584   4.796   6.574
 6833SOL    HW121398   2.635   4.776   6.659
 6833SOL    HW221399   2.636   4.763   6.496
 6834SOL     OW21400   5.802   7.004   1.241
 6834SOL    HW121401   5.806   6.971   1.335
 6834SOL    HW221402   5.727   0.053   1.231
 6835SOL     OW21403   3.659   1.319   4.371
 6835SOL    HW121404   3.656   1.265   4.287
 6835SOL    HW221405   3.694   1.410   4.351
 6836SOL     OW21406   2.132   4.038   6.344
 6836SOL    HW121407   2.105   4.007   6.435
 6836SOL    HW221408   2.201   4.111   6.353
 6837SOL     OW21409   0.585   2.038   2.743
 6837SOL    HW121410   0.671   2.003   2.705
 6837SOL    HW221411   0.583   2.138   2.734
 6838SOL     OW21412   2.798   3.989   6.200
 6838SOL    HW121413   2.800   4.083   6.166
 6838SOL    HW221414   2.887   3.965   6.239
 6839SOL     OW21415   5.237   1.642   4.560
 6839SOL    HW121416   5.257   1.571   4.493
 6839SOL    HW221417   5.320   1.668   4.608
 6840SOL     OW21418   2.943   6.524   5.371
 6840SOL    HW121419   2.947   6.558   5.465
 6840SOL    HW221420   2.887   6.441   5.368
 6841SOL     OW21421   4.134   4.955   0.850
 6841SOL    HW121422   4.093   4.896   0.781
 6841SOL    HW221423   4.063   4.994   0.908
 6842SOL     OW21424   2.174   2.682   6.812
 6842SOL    HW121425   2.177   2.717   6.906
 6842SOL    HW221426   2.117   2.601   6.809
 6843SOL     OW21427   5.320   0.479   2.405
 6843SOL    HW121428   5.293   0.427   2.486
 6843SOL    HW221429   5.252   0.466   2.333
 6844SOL     OW21430   6.000   5.995   4.152
 6844SOL    HW121431   5.969   6.078   4.199
 6844SOL    HW221432   5.924   5.953   4.103
 6845SOL     OW21433   4.978   4.510   2.325
 6845SOL    HW121434   5.039   4.499   2.247
 6845SOL    HW221435   4.973   4.607   2.350
 6846SOL     OW21436   4.155   3.251   1.504
 6846SOL    HW121437   4.234   3.281   1.450
 6846SOL    HW221438   4.082   3.221   1.442
 6847SOL     OW21439   0.041   3.942   1.997
 6847SOL    HW121440   0.026   3.843   1.999
 6847SOL    HW221441   0.132   3.961   1.959
 6848SOL     OW21442   2.695   6.328   3.501
 6848SOL    HW121443   2.684   6.313   3.403
 6848SOL    HW221444   2.745   6.250   3.541
 6849SOL     OW21445   2.697   5.580   4.676
 6849SOL    HW121446   2.667   5.669   4.708
 6849SOL    HW221447   2.736   5.528   4.752
 6850SOL     OW21448   5.196   3.238   2.635
 6850SOL    HW121449   5.218   3.174   2.561
 6850SOL    HW221450   5.232   3.328   2.613
 6851SOL     OW21451   1.506   2.877   4.250
 6851SOL    HW121452   1.602   2.850   4.252
 6851SOL    HW221453   1.469   2.864   4.158
 6852SOL     OW21454   1.117   4.520   1.269
 6852SOL    HW121455   1.030   4.477   1.243
 6852SOL    HW221456   1.149   4.578   1.195
 6853SOL     OW21457   6.515   3.310   6.609
 6853SOL    HW121458   6.483   3.258   6.529
 6853SOL    HW221459   6.453   3.386   6.626
 6854SOL     OW21460   6.116   1.947   5.894
 6854SOL    HW121461   6.201   1.896   5.883
 6854SOL    HW221462   6.040   1.892   5.859
 6855SOL     OW21463   3.515   6.059   2.562
 6855SOL    HW121464   3.491   6.057   2.659
 6855SOL    HW221465   3.445   6.012   2.509
 6856SOL     OW21466   5.367   4.622   5.403
 6856SOL    HW121467   5.429   4.690   5.441
 6856SOL    HW221468   5.334   4.562   5.475
 6857SOL     OW21469   3.750   1.910   6.784
 6857SOL    HW121470   3.710   2.001   6.782
 6857SOL    HW221471   3.737   1.869   6.874
 6858SOL     OW21472   3.939   3.411   4.295
 6858SOL    HW121473   3.989   3.386   4.378
 6858SOL    HW221474   3.841   3.398   4.310
 6859SOL     OW21475   1.510   6.647   1.546
 6859SOL    HW121476   1.605   6.629   1.523
 6859SOL    HW221477   1.505   6.702   1.630
 6860SOL     OW21478   5.651   5.430   1.509
 6860SOL    HW121479   5.706   5.352   1.540
 6860SOL    HW221480   5.556   5.416   1.536
 6861SOL     OW21481   5.944   4.410   0.690
 6861SOL    HW121482   5.866   4.367   0.644
 6861SOL    HW221483   6.023   4.349   0.687
 6862SOL     OW21484   2.168   4.480   4.448
 6862SOL    HW121485   2.177   4.402   4.510
 6862SOL    HW221486   2.255   4.529   4.443
 6863SOL     OW21487   5.542   1.449   4.551
 6863SOL    HW121488   5.502   1.383   4.615
 6863SOL    HW221489   5.489   1.449   4.466
 6864SOL     OW21490   3.591   6.222   3.825
 6864SOL    HW121491   3.674   6.276   3.815
 6864SOL    HW221492   3.613   6.133   3.867
 6865SOL     OW21493   6.372   5.491   2.483
 6865SOL    HW121494   6.396   5.562   2.416
 6865SOL    HW221495   6.354   5.534   2.572
 6866SOL     OW21496   6.317   4.533   2.104
 6866SOL    HW121497   6.347   4.450   2.151
 6866SOL    HW221498   6.394   4.574   2.056
 6867SOL     OW21499   1.265   4.379   1.477
 6867SOL    HW121500   1.168   4.358   1.493
 6867SOL    HW221501   1.273   4.468   1.432
 6868SOL     OW21502   1.654   5.364   5.558
 6868SOL    HW121503   1.696   5.310   5.632
 6868SOL    HW221504   1.607   5.443   5.598
 6869SOL     OW21505   5.712   1.989   5.535
 6869SOL    HW121506   5.654   2.012   5.457
 6869SOL    HW221507   5.726   1.890   5.538
 6870SOL     OW21508   0.098   4.777   2.323
 6870SOL    HW121509   0.075   4.704   2.388
 6870SOL    HW221510   0.101   4.739   2.231
 6871SOL     OW21511   5.516   5.242   2.076
 6871SOL    HW121512   5.517   5.170   2.006
 6871SOL    HW221513   5.421   5.271   2.091
 6872SOL     OW21514   1.159   3.579   0.507
 6872SOL    HW121515   1.164   3.573   0.607
 6872SOL    HW221516   1.153   3.675   0.480
 6873SOL     OW21517   6.024   3.995   4.945
 6873SOL    HW121518   5.934   3.958   4.969
 6873SOL    HW221519   6.080   4.000   5.028
 6874SOL     OW21520   0.804   4.958   2.908
 6874SOL    HW121521   0.855   5.009   2.839
 6874SOL    HW221522   0.858   4.880   2.939
 6875SOL     OW21523   1.104   2.490   3.482
 6875SOL    HW121524   1.056   2.558   3.426
 6875SOL    HW221525   1.144   2.535   3.562
 6876SOL     OW21526   4.146   5.830   5.138
 6876SOL    HW121527   4.053   5.823   5.102
 6876SOL    HW221528   4.146   5.813   5.236
 6877SOL     OW21529   2.512   4.420   6.658
 6877SOL    HW121530   2.602   4.386   6.629
 6877SOL    HW221531   2.524   4.476   6.740
 6878SOL     OW21532   2.850   2.721   5.398
 6878SOL    HW121533   2.903   2.672   5.467
 6878SOL    HW221534   2.800   2.654   5.342
 6879SOL     OW21535   0.655   2.109   0.012
 6879SOL    HW121536   0.637   2.148   0.102
 6879SOL    HW221537   0.754   2.111   7.011
 6880SOL     OW21538   1.949   3.613   5.262
 6880SOL    HW121539   1.976   3.524   5.226
 6880SOL    HW221540   2.015   3.642   5.332
 6881SOL     OW21541   0.356   3.885   2.351
 6881SOL    HW121542   0.299   3.908   2.272
 6881SOL    HW221543   0.302   3.893   2.435
 6882SOL     OW21544   3.201   0.259   5.803
 6882SOL    HW121545   3.259   0.249   5.885
 6882SOL    HW221546   3.219   0.349   5.762
 6883SOL     OW21547   4.160   1.688   0.799
 6883SOL    HW121548   4.171   1.591   0.776
 6883SOL    HW221549   4.225   1.742   0.746
 6884SOL     OW21550   1.657   3.559   4.701
 6884SOL    HW121551   1.715   3.593   4.627
 6884SOL    HW221552   1.609   3.476   4.670
 6885SOL     OW21553   4.076   6.096   4.878
 6885SOL    HW121554   4.043   6.026   4.941
 6885SOL    HW221555   4.012   6.105   4.802
 6886SOL     OW21556   0.160   1.106   3.385
 6886SOL    HW121557   0.091   1.089   3.315
 6886SOL    HW221558   0.117   1.110   3.475
 6887SOL     OW21559   5.241   6.566   5.897
 6887SOL    HW121560   5.172   6.519   5.843
 6887SOL    HW221561   5.200   6.642   5.946
 6888SOL     OW21562   5.387   6.315   6.823
 6888SOL    HW121563   5.378   6.255   6.902
 6888SOL    HW221564   5.303   6.312   6.768
 6889SOL     OW21565   1.874   2.199   5.323
 6889SOL    HW121566   1.847   2.291   5.351
 6889SOL    HW221567   1.901   2.200   5.227
 6890SOL     OW21568   3.530   6.305   1.489
 6890SOL    HW121569   3.482   6.243   1.426
 6890SOL    HW221570   3.628   6.293   1.478
 6891SOL     OW21571   2.183   3.992   4.415
 6891SOL    HW121572   2.189   3.990   4.515
 6891SOL    HW221573   2.116   3.924   4.384
 6892SOL     OW21574   3.653   0.902   3.105
 6892SOL    HW121575   3.715   0.842   3.055
 6892SOL    HW221576   3.684   0.996   3.096
 6893SOL     OW21577   5.242   5.709   0.303
 6893SOL    HW121578   5.161   5.677   0.253
 6893SOL    HW221579   5.270   5.798   0.268
 6894SOL     OW21580   6.181   5.278   6.970
 6894SOL    HW121581   6.118   5.280   0.032
 6894SOL    HW221582   6.263   5.226   6.995
 6895SOL     OW21583   2.708   5.410   6.261
 6895SOL    HW121584   2.775   5.451   6.199
 6895SOL    HW221585   2.751   5.395   6.350
 6896SOL     OW21586   2.038   0.014   3.859
 6896SOL    HW121587   2.085   0.002   3.947
 6896SOL    HW221588   2.065   0.101   3.819
 6897SOL     OW21589   3.024   3.391   6.991
 6897SOL    HW121590   2.986   3.318   6.934
 6897SOL    HW221591   3.122   3.397   6.977
 6898SOL     OW21592   3.959   1.521   2.323
 6898SOL    HW121593   4.014   1.568   2.391
 6898SOL    HW221594   3.862   1.526   2.349
 6899SOL     OW21595   4.979   6.847   0.834
 6899SOL    HW121596   4.943   6.847   0.927
 6899SOL    HW221597   5.009   6.754   0.811
 6900SOL     OW21598   6.483   0.853   5.725
 6900SOL    HW121599   6.430   0.835   5.642
 6900SOL    HW221600   6.532   0.939   5.715
 6901SOL     OW21601   0.421   6.899   6.327
 6901SOL    HW121602   0.462   6.971   6.382
 6901SOL    HW221603   0.355   6.939   6.264
 6902SOL     OW21604   6.427   6.640   0.729
 6902SOL    HW121605   6.481   6.723   0.712
 6902SOL    HW221606   6.428   6.583   0.648
 6903SOL     OW21607   4.579   5.386   4.760
 6903SOL    HW121608   4.485   5.400   4.790
 6903SOL    HW221609   4.579   5.327   4.680
 6904SOL     OW21610   5.700   2.138   4.045
 6904SOL    HW121611   5.686   2.040   4.028
 6904SOL    HW221612   5.619   2.176   4.088
 6905SOL     OW21613   5.837   6.745   0.105
 6905SOL    HW121614   5.742   6.754   0.136
 6905SOL    HW221615   5.898   6.751   0.184
 6906SOL     OW21616   4.352   0.564   4.182
 6906SOL    HW121617   4.326   0.470   4.207
 6906SOL    HW221618   4.275   0.625   4.201
 6907SOL     OW21619   4.881   1.742   1.338
 6907SOL    HW121620   4.854   1.754   1.242
 6907SOL    HW221621   4.799   1.735   1.394
 6908SOL     OW21622   1.099   6.407   5.697
 6908SOL    HW121623   1.181   6.421   5.753
 6908SOL    HW221624   1.018   6.432   5.750
 6909SOL     OW21625   5.623   4.282   1.527
 6909SOL    HW121626   5.709   4.321   1.560
 6909SOL    HW221627   5.642   4.195   1.480
 6910SOL     OW21628   6.900   2.066   3.889
 6910SOL    HW121629   6.982   2.011   3.871
 6910SOL    HW221630   6.824   2.033   3.835
 6911SOL     OW21631   4.471   6.412   3.464
 6911SOL    HW121632   4.541   6.354   3.421
 6911SOL    HW221633   4.468   6.500   3.417
 6912SOL     OW21634   4.257   5.281   0.215
 6912SOL    HW121635   4.187   5.216   0.186
 6912SOL    HW221636   4.294   5.254   0.304
 6913SOL     OW21637   5.694   4.574   6.189
 6913SOL    HW121638   5.655   4.530   6.271
 6913SOL    HW221639   5.719   4.504   6.123
 6914SOL     OW21640   5.815   5.042   6.911
 6914SOL    HW121641   5.905   4.999   6.919
 6914SOL    HW221642   5.759   4.988   6.847
 6915SOL     OW21643   5.836   4.423   1.664
 6915SOL    HW121644   5.895   4.472   1.729
 6915SOL    HW221645   5.856   4.453   1.571
 6916SOL     OW21646   5.838   3.620   0.287
 6916SOL    HW121647   5.933   3.639   0.259
 6916SOL    HW221648   5.834   3.531   0.333
 6917SOL     OW21649   3.238   5.858   0.738
 6917SOL    HW121650   3.221   5.784   0.804
 6917SOL    HW221651   3.283   5.934   0.785
 6918SOL     OW21652   1.365   3.171   4.395
 6918SOL    HW121653   1.432   3.103   4.424
 6918SOL    HW221654   1.315   3.136   4.315
 6919SOL     OW21655   0.396   6.478   3.022
 6919SOL    HW121656   0.412   6.512   2.929
 6919SOL    HW221657   0.327   6.405   3.018
 6920SOL     OW21658   4.321   5.535   5.619
 6920SOL    HW121659   4.227   5.537   5.654
 6920SOL    HW221660   4.321   5.561   5.522
 6921SOL     OW21661   4.985   5.979   3.049
 6921SOL    HW121662   4.888   6.003   3.039
 6921SOL    HW221663   4.994   5.879   3.055
 6922SOL     OW21664   2.418   5.790   6.493
 6922SOL    HW121665   2.384   5.863   6.435
 6922SOL    HW221666   2.344   5.725   6.514
 6923SOL     OW21667   4.671   5.688   3.599
 6923SOL    HW121668   4.634   5.756   3.536
 6923SOL    HW221669   4.736   5.733   3.661
 6924SOL     OW21670   1.181   4.279   0.166
 6924SOL    HW121671   1.275   4.312   0.171
 6924SOL    HW221672   1.120   4.355   0.145
 6925SOL     OW21673   4.250   5.797   4.482
 6925SOL    HW121674   4.167   5.810   4.428
 6925SOL    HW221675   4.295   5.713   4.455
 6926SOL     OW21676   3.245   3.099   2.356
 6926SOL    HW121677   3.257   3.048   2.271
 6926SOL    HW221678   3.147   3.107   2.376
 6927SOL     OW21679   5.103   3.559   5.653
 6927SOL    HW121680   5.119   3.564   5.752
 6927SOL    HW221681   5.179   3.510   5.609
 6928SOL     OW21682   6.705   6.462   1.169
 6928SOL    HW121683   6.650   6.430   1.246
 6928SOL    HW221684   6.650   6.460   1.085
 6929SOL     OW21685   4.687   5.246   1.188
 6929SOL    HW121686   4.708   5.292   1.274
 6929SOL    HW221687   4.679   5.314   1.114
 6930SOL     OW21688   6.980   0.237   2.022
 6930SOL    HW121689   6.924   0.319   2.012
 6930SOL    HW221690   0.013   0.218   1.937
 6931SOL     OW21691   1.365   0.797   2.276
 6931SOL    HW121692   1.380   0.709   2.321
 6931SOL    HW221693   1.413   0.797   2.188
 6932SOL     OW21694   4.017   0.300   0.930
 6932SOL    HW121695   4.034   0.378   0.869
 6932SOL    HW221696   4.064   0.219   0.894
 6933SOL     OW21697   3.246   5.984   5.191
 6933SOL    HW121698   3.202   5.928   5.120
 6933SOL    HW221699   3.201   6.073   5.197
 6934SOL     OW21700   5.215   4.305   6.369
 6934SOL    HW121701   5.144   4.348   6.313
 6934SOL    HW221702   5.296   4.289   6.314
 6935SOL     OW21703   4.703   5.963   3.892
 6935SOL    HW121704   4.692   5.915   3.979
 6935SOL    HW221705   4.763   5.910   3.832
 6936SOL     OW21706   6.510   2.795   3.209
 6936SOL    HW121707   6.551   2.706   3.229
 6936SOL    HW221708   6.431   2.809   3.269
 6937SOL     OW21709   6.669   6.172   0.293
 6937SOL    HW121710   6.589   6.183   0.233
 6937SOL    HW221711   6.640   6.131   0.379
 6938SOL     OW21712   4.878   3.598   5.503
 6938SOL    HW121713   4.913   3.588   5.410
 6938SOL    HW221714   4.951   3.577   5.569
 6939SOL     OW21715   0.160   4.225   1.316
 6939SOL    HW121716   0.167   4.274   1.229
 6939SOL    HW221717   0.170   4.290   1.392
 6940SOL     OW21718   5.224   0.862   0.438
 6940SOL    HW121719   5.194   0.915   0.518
 6940SOL    HW221720   5.291   0.915   0.386
 6941SOL     OW21721   3.343   2.991   3.271
 6941SOL    HW121722   3.350   2.945   3.359
 6941SOL    HW221723   3.431   2.990   3.225
 6942SOL     OW21724   6.401   2.671   0.777
 6942SOL    HW121725   6.405   2.767   0.748
 6942SOL    HW221726   6.486   2.625   0.752
 6943SOL     OW21727   5.057   6.509   0.116
 6943SOL    HW121728   5.080   6.604   0.139
 6943SOL    HW221729   4.961   6.504   0.088
 6944SOL     OW21730   1.813   4.337   5.941
 6944SOL    HW121731   1.898   4.304   5.900
 6944SOL    HW221732   1.818   4.326   6.040
 6945SOL     OW21733   5.749   3.407   6.245
 6945SOL    HW121734   5.660   3.377   6.278
 6945SOL    HW221735   5.791   3.335   6.190
 6946SOL     OW21736   6.398   6.706   1.706
 6946SOL    HW121737   6.330   6.663   1.766
 6946SOL    HW221738   6.435   6.787   1.750
 6947SOL     OW21739   3.276   6.434   5.679
 6947SOL    HW121740   3.324   6.425   5.592
 6947SOL    HW221741   3.263   6.531   5.700
 6948SOL     OW21742   5.611   0.727   6.518
 6948SOL    HW121743   5.675   0.678   6.459
 6948SOL    HW221744   5.632   0.708   6.614
 6949SOL     OW21745   5.121   6.676   3.999
 6949SOL    HW121746   5.093   6.741   3.928
 6949SOL    HW221747   5.189   6.719   4.058
 6950SOL     OW21748   1.737   0.468   4.045
 6950SOL    HW121749   1.837   0.474   4.045
 6950SOL    HW221750   1.698   0.560   4.038
 6951SOL     OW21751   6.296   6.266   6.251
 6951SOL    HW121752   6.347   6.214   6.182
 6951SOL    HW221753   6.354   6.341   6.286
 6952SOL     OW21754   6.926   5.509   4.281
 6952SOL    HW121755   6.932   5.520   4.182
 6952SOL    HW221756   6.931   5.598   4.326
 6953SOL     OW21757   4.553   0.137   6.580
 6953SOL    HW121758   4.605   0.063   6.623
 6953SOL    HW221759   4.535   0.209   6.647
 6954SOL     OW21760   0.457   3.952   4.022
 6954SOL    HW121761   0.490   4.001   4.103
 6954SOL    HW221762   0.361   3.975   4.006
 6955SOL     OW21763   6.567   0.866   2.622
 6955SOL    HW121764   6.644   0.815   2.661
 6955SOL    HW221765   6.595   0.959   2.601
 6956SOL     OW21766   4.735   6.047   3.010
 6956SOL    HW121767   4.696   6.099   3.086
 6956SOL    HW221768   4.670   5.976   2.982
 6957SOL     OW21769   5.941   4.778   0.729
 6957SOL    HW121770   5.943   4.722   0.646
 6957SOL    HW221771   5.891   4.862   0.711
 6958SOL     OW21772   2.750   3.848   5.196
 6958SOL    HW121773   2.665   3.874   5.241
 6958SOL    HW221774   2.781   3.760   5.231
 6959SOL     OW21775   2.910   1.284   4.724
 6959SOL    HW121776   2.929   1.381   4.708
 6959SOL    HW221777   2.817   1.274   4.760
 6960SOL     OW21778   1.242   5.320   1.422
 6960SOL    HW121779   1.218   5.233   1.465
 6960SOL    HW221780   1.212   5.395   1.480
 6961SOL     OW21781   6.443   2.764   4.227
 6961SOL    HW121782   6.523   2.745   4.283
 6961SOL    HW221783   6.399   2.678   4.201
 6962SOL     OW21784   5.497   6.253   2.002
 6962SOL    HW121785   5.486   6.225   2.097
 6962SOL    HW221786   5.408   6.273   1.962
 6963SOL     OW21787   6.739   5.151   0.854
 6963SOL    HW121788   6.659   5.104   0.891
 6963SOL    HW221789   6.819   5.130   0.910
 6964SOL     OW21790   3.808   5.859   4.755
 6964SOL    HW121791   3.797   5.791   4.683
 6964SOL    HW221792   3.839   5.945   4.716
 6965SOL     OW21793   0.519   3.542   6.697
 6965SOL    HW121794   0.477   3.564   6.785
 6965SOL    HW221795   0.463   3.475   6.649
 6966SOL     OW21796   0.019   2.351   3.581
 6966SOL    HW121797   0.077   2.401   3.517
 6966SOL    HW221798   7.007   2.411   3.656
 6967SOL     OW21799   1.697   0.753   5.369
 6967SOL    HW121800   1.696   0.825   5.438
 6967SOL    HW221801   1.779   0.697   5.381
 6968SOL     OW21802   4.060   6.445   2.994
 6968SOL    HW121803   4.100   6.362   2.954
 6968SOL    HW221804   3.978   6.420   3.046
 6969SOL     OW21805   3.085   2.216   1.069
 6969SOL    HW121806   3.040   2.274   1.136
 6969SOL    HW221807   3.103   2.126   1.109
 6970SOL     OW21808   3.677   4.002   6.777
 6970SOL    HW121809   3.773   3.993   6.751
 6970SOL    HW221810   3.644   3.913   6.810
 6971SOL     OW21811   6.607   4.186   1.327
 6971SOL    HW121812   6.634   4.159   1.235
 6971SOL    HW221813   6.635   4.280   1.344
 6972SOL     OW21814   5.309   4.384   3.613
 6972SOL    HW121815   5.285   4.288   3.620
 6972SOL    HW221816   5.312   4.412   3.517
 6973SOL     OW21817   1.239   3.708   5.469
 6973SOL    HW121818   1.272   3.735   5.559
 6973SOL    HW221819   1.308   3.730   5.400
 6974SOL     OW21820   3.573   3.056   3.072
 6974SOL    HW121821   3.670   3.035   3.062
 6974SOL    HW221822   3.521   3.008   3.003
 6975SOL     OW21823   2.036   5.999   5.816
 6975SOL    HW121824   2.030   5.928   5.886
 6975SOL    HW221825   2.083   5.962   5.735
 6976SOL     OW21826   4.357   5.428   4.909
 6976SOL    HW121827   4.389   5.466   4.996
 6976SOL    HW221828   4.305   5.498   4.859
 6977SOL     OW21829   4.357   2.441   1.913
 6977SOL    HW121830   4.406   2.494   1.844
 6977SOL    HW221831   4.421   2.380   1.960
 6978SOL     OW21832   5.058   1.579   1.945
 6978SOL    HW121833   4.978   1.639   1.940
 6978SOL    HW221834   5.045   1.500   1.886
 6979SOL     OW21835   1.296   4.709   0.773
 6979SOL    HW121836   1.386   4.745   0.801
 6979SOL    HW221837   1.303   4.611   0.758
 6980SOL     OW21838   1.015   1.297   3.567
 6980SOL    HW121839   1.045   1.299   3.662
 6980SOL    HW221840   1.085   1.253   3.511
 6981SOL     OW21841   3.058   3.289   6.380
 6981SOL    HW121842   3.102   3.208   6.342
 6981SOL    HW221843   3.010   3.338   6.307
 6982SOL     OW21844   1.420   0.837   4.574
 6982SOL    HW121845   1.427   0.750   4.526
 6982SOL    HW221846   1.338   0.885   4.544
 6983SOL     OW21847   4.745   2.085   3.943
 6983SOL    HW121848   4.700   2.019   4.003
 6983SOL    HW221849   4.779   2.039   3.861
 6984SOL     OW21850   2.373   1.885   4.024
 6984SOL    HW121851   2.358   1.787   4.023
 6984SOL    HW221852   2.394   1.915   4.118
 6985SOL     OW21853   4.131   5.252   1.450
 6985SOL    HW121854   4.196   5.327   1.454
 6985SOL    HW221855   4.038   5.288   1.452
 6986SOL     OW21856   2.244   6.520   6.294
 6986SOL    HW121857   2.160   6.574   6.293
 6986SOL    HW221858   2.273   6.500   6.201
 6987SOL     OW21859   0.524   1.957   6.106
 6987SOL    HW121860   0.532   1.955   6.206
 6987SOL    HW221861   0.450   1.895   6.078
 6988SOL     OW21862   6.657   1.041   5.362
 6988SOL    HW121863   6.744   0.995   5.376
 6988SOL    HW221864   6.646   1.113   5.431
 6989SOL     OW21865   0.683   3.653   4.321
 6989SOL    HW121866   0.703   3.687   4.413
 6989SOL    HW221867   0.752   3.585   4.295
 6990SOL     OW21868   4.965   2.233   1.689
 6990SOL    HW121869   5.058   2.202   1.710
 6990SOL    HW221870   4.950   2.323   1.729
 6991SOL     OW21871   3.199   5.104   4.219
 6991SOL    HW121872   3.268   5.039   4.187
 6991SOL    HW221873   3.176   5.084   4.314
 6992SOL     OW21874   5.165   7.009   5.458
 6992SOL    HW121875   5.213   6.959   5.386
 6992SOL    HW221876   5.223   7.014   5.539
 6993SOL     OW21877   0.065   1.388   3.183
 6993SOL    HW121878   0.136   1.339   3.131
 6993SOL    HW221879   6.998   1.332   3.185
 6994SOL     OW21880   0.641   3.179   4.566
 6994SOL    HW121881   0.582   3.125   4.507
 6994SOL    HW221882   0.735   3.146   4.561
 6995SOL     OW21883   6.543   4.590   6.074
 6995SOL    HW121884   6.511   4.684   6.060
 6995SOL    HW221885   6.509   4.532   6.000
 6996SOL     OW21886   2.575   0.437   6.765
 6996SOL    HW121887   2.545   0.530   6.785
 6996SOL    HW221888   2.625   0.401   6.844
 6997SOL     OW21889   5.874   6.540   5.721
 6997SOL    HW121890   5.866   6.453   5.769
 6997SOL    HW221891   5.865   6.525   5.623
 6998SOL     OW21892   1.894   2.085   0.882
 6998SOL    HW121893   1.936   2.078   0.792
 6998SOL    HW221894   1.966   2.104   0.950
 6999SOL     OW21895   2.768   2.633   5.753
 6999SOL    HW121896   2.832   2.593   5.688
 6999SOL    HW221897   2.675   2.606   5.729
 7000SOL     OW21898   6.387   6.052   1.448
 7000SOL    HW121899   6.288   6.061   1.454
 7000SOL    HW221900   6.415   6.058   1.352
 7001SOL     OW21901   2.331   3.038   5.402
 7001SOL    HW121902   2.375   2.987   5.328
 7001SOL    HW221903   2.382   3.025   5.487
 7002SOL     OW21904   2.656   5.034   3.551
 7002SOL    HW121905   2.566   5.071   3.569
 7002SOL    HW221906   2.702   5.090   3.482
 7003SOL     OW21907   3.921   5.598   6.880
 7003SOL    HW121908   4.019   5.598   6.898
 7003SOL    HW221909   3.901   5.531   6.809
 7004SOL     OW21910   1.933   4.757   1.800
 7004SOL    HW121911   1.896   4.757   1.707
 7004SOL    HW221912   1.899   4.838   1.849
 7005SOL     OW21913   1.687   6.604   0.022
 7005SOL    HW121914   1.626   6.675   7.003
 7005SOL    HW221915   1.747   6.572   6.964
 7006SOL     OW21916   4.977   4.655   4.493
 7006SOL    HW121917   4.955   4.558   4.504
 7006SOL    HW221918   4.998   4.695   4.582
 7007SOL     OW21919   4.487   6.618   4.229
 7007SOL    HW121920   4.537   6.705   4.219
 7007SOL    HW221921   4.515   6.575   4.315
 7008SOL     OW21922   1.137   4.514   4.916
 7008SOL    HW121923   1.139   4.417   4.942
 7008SOL    HW221924   1.103   4.522   4.822
 7009SOL     OW21925   6.479   5.773   2.266
 7009SOL    HW121926   6.516   5.747   2.355
 7009SOL    HW221927   6.544   5.752   2.194
 7010SOL     OW21928   5.275   4.736   5.805
 7010SOL    HW121929   5.196   4.734   5.744
 7010SOL    HW221930   5.358   4.751   5.751
 7011SOL     OW21931   3.700   6.800   5.967
 7011SOL    HW121932   3.626   6.762   6.023
 7011SOL    HW221933   3.679   6.895   5.944
 7012SOL     OW21934   1.935   1.349   2.403
 7012SOL    HW121935   1.936   1.428   2.465
 7012SOL    HW221936   1.945   1.265   2.456
 7013SOL     OW21937   0.790   0.725   0.734
 7013SOL    HW121938   0.824   0.717   0.828
 7013SOL    HW221939   0.745   0.639   0.707
 7014SOL     OW21940   4.408   3.325   1.442
 7014SOL    HW121941   4.409   3.339   1.541
 7014SOL    HW221942   4.501   3.309   1.410
 7015SOL     OW21943   5.699   4.798   1.928
 7015SOL    HW121944   5.759   4.847   1.865
 7015SOL    HW221945   5.695   4.701   1.902
 7016SOL     OW21946   3.504   4.752   1.584
 7016SOL    HW121947   3.530   4.701   1.666
 7016SOL    HW221948   3.442   4.826   1.610
 7017SOL     OW21949   2.376   6.710   2.767
 7017SOL    HW121950   2.409   6.787   2.822
 7017SOL    HW221951   2.453   6.666   2.722
 7018SOL     OW21952   6.064   4.479   3.955
 7018SOL    HW121953   6.100   4.475   4.048
 7018SOL    HW221954   6.065   4.573   3.923
 7019SOL     OW21955   2.488   3.798   6.523
 7019SOL    HW121956   2.582   3.797   6.558
 7019SOL    HW221957   2.428   3.843   6.589
 7020SOL     OW21958   6.033   6.951   6.909
 7020SOL    HW121959   5.950   6.928   6.960
 7020SOL    HW221960   6.020   6.928   6.812
 7021SOL     OW21961   1.509   1.307   6.021
 7021SOL    HW121962   1.539   1.310   6.116
 7021SOL    HW221963   1.533   1.218   5.982
 7022SOL     OW21964   4.590   6.004   0.463
 7022SOL    HW121965   4.688   5.989   0.465
 7022SOL    HW221966   4.565   6.076   0.528
 7023SOL     OW21967   0.594   1.803   3.275
 7023SOL    HW121968   0.625   1.894   3.247
 7023SOL    HW221969   0.653   1.733   3.233
 7024SOL     OW21970   1.498   4.016   5.147
 7024SOL    HW121971   1.597   4.021   5.142
 7024SOL    HW221972   1.464   3.952   5.078
 7025SOL     OW21973   2.412   0.824   0.083
 7025SOL    HW121974   2.486   0.764   0.113
 7025SOL    HW221975   2.388   0.887   0.156
 7026SOL     OW21976   3.132   1.927   2.155
 7026SOL    HW121977   3.061   1.859   2.133
 7026SOL    HW221978   3.099   1.986   2.229
 7027SOL     OW21979   2.390   4.994   4.098
 7027SOL    HW121980   2.302   5.040   4.107
 7027SOL    HW221981   2.464   5.058   4.117
 7028SOL     OW21982   5.033   6.984   4.169
 7028SOL    HW121983   4.967   6.989   4.093
 7028SOL    HW221984   5.057   0.061   4.198
 7029SOL     OW21985   4.965   5.273   5.963
 7029SOL    HW121986   5.013   5.341   6.018
 7029SOL    HW221987   4.866   5.283   5.978
 7030SOL     OW21988   0.077   1.747   4.838
 7030SOL    HW121989   0.168   1.707   4.829
 7030SOL    HW221990   0.075   1.836   4.791
 7031SOL     OW21991   1.798   6.165   5.020
 7031SOL    HW121992   1.840   6.255   5.012
 7031SOL    HW221993   1.815   6.128   5.111
 7032SOL     OW21994   3.436   0.404   3.620
 7032SOL    HW121995   3.424   0.305   3.620
 7032SOL    HW221996   3.369   0.446   3.560
 7033SOL     OW21997   1.464   2.357   3.620
 7033SOL    HW121998   1.514   2.275   3.592
 7033SOL    HW221999   1.427   2.403   3.540
 7034SOL     OW22000   6.562   0.174   3.183
 7034SOL    HW122001   6.618   0.109   3.235
 7034SOL    HW222002   6.578   0.161   3.085
 7035SOL     OW22003   1.682   6.227   1.478
 7035SOL    HW122004   1.674   6.203   1.574
 7035SOL    HW222005   1.593   6.219   1.433
 7036SOL     OW22006   0.207   0.834   2.937
 7036SOL    HW122007   0.282   0.868   2.880
 7036SOL    HW222008   0.241   0.761   2.997
 7037SOL     OW22009   1.779   0.540   6.530
 7037SOL    HW122010   1.853   0.598   6.564
 7037SOL    HW222011   1.701   0.597   6.505
 7038SOL     OW22012   1.584   3.048   4.486
 7038SOL    HW122013   1.635   3.043   4.572
 7038SOL    HW222014   1.584   2.958   4.442
 7039SOL     OW22015   2.680   4.784   1.273
 7039SOL    HW122016   2.704   4.687   1.260
 7039SOL    HW222017   2.651   4.799   1.367
 7040SOL     OW22018   6.414   2.058   4.823
 7040SOL    HW122019   6.368   2.052   4.911
 7040SOL    HW222020   6.426   1.967   4.784
 7041SOL     OW22021   0.828   2.266   1.526
 7041SOL    HW122022   0.889   2.340   1.554
 7041SOL    HW222023   0.754   2.256   1.593
 7042SOL     OW22024   5.613   5.541   6.120
 7042SOL    HW122025   5.554   5.477   6.168
 7042SOL    HW222026   5.678   5.582   6.184
 7043SOL     OW22027   2.009   3.636   2.490
 7043SOL    HW122028   2.010   3.553   2.546
 7043SOL    HW222029   1.957   3.619   2.406
 7044SOL     OW22030   4.583   5.139   3.354
 7044SOL    HW122031   4.618   5.215   3.410
 7044SOL    HW222032   4.510   5.173   3.295
 7045SOL     OW22033   5.184   5.639   2.949
 7045SOL    HW122034   5.135   5.571   2.895
 7045SOL    HW222035   5.119   5.698   2.997
 7046SOL     OW22036   3.277   1.656   3.023
 7046SOL    HW122037   3.249   1.718   2.949
 7046SOL    HW222038   3.360   1.691   3.066
 7047SOL     OW22039   1.091   2.413   1.854
 7047SOL    HW122040   1.070   2.366   1.940
 7047SOL    HW222041   1.006   2.440   1.809
 7048SOL     OW22042   6.785   6.170   2.837
 7048SOL    HW122043   6.827   6.105   2.774
 7048SOL    HW222044   6.793   6.263   2.799
 7049SOL     OW22045   3.167   1.524   0.800
 7049SOL    HW122046   3.070   1.505   0.811
 7049SOL    HW222047   3.221   1.449   0.838
 7050SOL     OW22048   3.896   3.990   2.290
 7050SOL    HW122049   3.801   4.002   2.261
 7050SOL    HW222050   3.935   4.079   2.312
 7051SOL     OW22051   0.070   0.387   1.118
 7051SOL    HW122052   0.043   0.411   1.025
 7051SOL    HW222053   0.117   0.465   1.160
 7052SOL     OW22054   5.697   2.858   3.615
 7052SOL    HW122055   5.695   2.764   3.582
 7052SOL    HW222056   5.676   2.921   3.541
 7053SOL     OW22057   0.807   3.639   5.015
 7053SOL    HW122058   0.765   3.583   5.086
 7053SOL    HW222059   0.772   3.732   5.021
 7054SOL     OW22060   0.732   6.183   0.679
 7054SOL    HW122061   0.804   6.156   0.614
 7054SOL    HW222062   0.694   6.271   0.652
 7055SOL     OW22063   3.784   6.014   5.386
 7055SOL    HW122064   3.693   6.003   5.348
 7055SOL    HW222065   3.778   6.027   5.485
 7056SOL     OW22066   5.986   5.868   2.382
 7056SOL    HW122067   5.975   5.800   2.455
 7056SOL    HW222068   6.079   5.863   2.345
 7057SOL     OW22069   1.030   6.083   3.399
 7057SOL    HW122070   1.015   6.168   3.450
 7057SOL    HW222071   1.000   6.006   3.454
 7058SOL     OW22072   6.813   5.995   6.150
 7058SOL    HW122073   6.859   5.993   6.239
 7058SOL    HW222074   6.771   6.085   6.137
 7059SOL     OW22075   6.446   0.930   4.089
 7059SOL    HW122076   6.503   0.855   4.054
 7059SOL    HW222077   6.503   1.011   4.102
 7060SOL     OW22078   4.180   0.099   1.716
 7060SOL    HW122079   4.128   0.144   1.787
 7060SOL    HW222080   4.126   0.095   1.632
 7061SOL     OW22081   0.908   3.362   3.769
 7061SOL    HW122082   0.886   3.423   3.846
 7061SOL    HW222083   0.980   3.404   3.714
 7062SOL     OW22084   5.126   1.271   5.375
 7062SOL    HW122085   5.057   1.279   5.448
 7062SOL    HW222086   5.178   1.187   5.388
 7063SOL     OW22087   0.528   0.633   1.595
 7063SOL    HW122088   0.520   0.726   1.561
 7063SOL    HW222089   0.624   0.604   1.593
 7064SOL     OW22090   4.130   2.152   1.725
 7064SOL    HW122091   4.146   2.158   1.627
 7064SOL    HW222092   4.077   2.070   1.746
 7065SOL     OW22093   3.956   3.901   6.137
 7065SOL    HW122094   4.037   3.843   6.131
 7065SOL    HW222095   3.970   3.971   6.207
 7066SOL     OW22096   4.371   6.982   0.616
 7066SOL    HW122097   4.322   6.939   0.692
 7066SOL    HW222098   4.461   7.012   0.648
 7067SOL     OW22099   1.738   1.954   5.298
 7067SOL    HW122100   1.656   1.948   5.354
 7067SOL    HW222101   1.781   2.043   5.310
 7068SOL     OW22102   0.240   4.104   3.969
 7068SOL    HW122103   0.183   4.131   3.891
 7068SOL    HW222104   0.214   4.156   4.049
 7069SOL     OW22105   5.649   1.816   4.331
 7069SOL    HW122106   5.592   1.898   4.340
 7069SOL    HW222107   5.610   1.757   4.260
 7070SOL     OW22108   6.200   6.373   4.844
 7070SOL    HW122109   6.262   6.445   4.813
 7070SOL    HW222110   6.195   6.375   4.944
 7071SOL     OW22111   1.842   6.234   6.509
 7071SOL    HW122112   1.915   6.293   6.544
 7071SOL    HW222113   1.852   6.143   6.549
 7072SOL     OW22114   1.136   6.476   6.908
 7072SOL    HW122115   1.044   6.448   6.938
 7072SOL    HW222116   1.202   6.408   6.938
 7073SOL     OW22117   5.117   0.018   4.488
 7073SOL    HW122118   5.046   0.036   4.419
 7073SOL    HW222119   5.156   0.105   4.518
 7074SOL     OW22120   4.649   1.939   2.030
 7074SOL    HW122121   4.674   2.019   1.975
 7074SOL    HW222122   4.562   1.902   1.997
 7075SOL     OW22123   1.629   5.130   4.891
 7075SOL    HW122124   1.587   5.178   4.968
 7075SOL    HW222125   1.714   5.175   4.866
 7076SOL     OW22126   5.500   2.240   6.986
 7076SOL    HW122127   5.524   2.337   6.978
 7076SOL    HW222128   5.531   2.205   0.059
 7077SOL     OW22129   2.336   4.245   4.296
 7077SOL    HW122130   2.332   4.166   4.358
 7077SOL    HW222131   2.279   4.227   4.215
 7078SOL     OW22132   0.204   6.952   1.397
 7078SOL    HW122133   0.113   6.921   1.370
 7078SOL    HW222134   0.258   6.873   1.426
 7079SOL     OW22135   6.440   6.234   4.803
 7079SOL    HW122136   6.465   6.236   4.900
 7079SOL    HW222137   6.342   6.248   4.794
 7080SOL     OW22138   2.711   2.373   4.219
 7080SOL    HW122139   2.776   2.427   4.166
 7080SOL    HW222140   2.753   2.286   4.245
 7081SOL     OW22141   3.118   0.632   6.704
 7081SOL    HW122142   3.156   0.724   6.712
 7081SOL    HW222143   3.027   0.636   6.663
 7082SOL     OW22144   5.861   4.754   6.489
 7082SOL    HW122145   5.783   4.772   6.430
 7082SOL    HW222146   5.929   4.826   6.478
 7083SOL     OW22147   2.760   0.687   0.637
 7083SOL    HW122148   2.682   0.749   0.628
 7083SOL    HW222149   2.732   0.605   0.688
 7084SOL     OW22150   0.406   6.514   5.823
 7084SOL    HW122151   0.348   6.445   5.781
 7084SOL    HW222152   0.498   6.509   5.784
 7085SOL     OW22153   1.276   2.195   1.846
 7085SOL    HW122154   1.211   2.249   1.793
 7085SOL    HW222155   1.353   2.169   1.787
 7086SOL     OW22156   5.371   1.058   5.111
 7086SOL    HW122157   5.280   1.099   5.110
 7086SOL    HW222158   5.406   1.056   5.205
 7087SOL     OW22159   6.172   3.204   3.829
 7087SOL    HW122160   6.126   3.293   3.836
 7087SOL    HW222161   6.118   3.135   3.877
 7088SOL     OW22162   5.379   2.638   2.995
 7088SOL    HW122163   5.373   2.569   3.067
 7088SOL    HW222164   5.435   2.603   2.920
 7089SOL     OW22165   3.035   2.160   4.799
 7089SOL    HW122166   3.069   2.220   4.871
 7089SOL    HW222167   2.948   2.195   4.764
 7090SOL     OW22168   2.520   0.737   6.728
 7090SOL    HW122169   2.519   0.818   6.786
 7090SOL    HW222170   2.601   0.739   6.669
 7091SOL     OW22171   0.572   1.566   6.998
 7091SOL    HW122172   0.522   1.561   6.912
 7091SOL    HW222173   0.540   1.645   0.035
 7092SOL     OW22174   4.540   2.688   6.162
 7092SOL    HW122175   4.532   2.768   6.222
 7092SOL    HW222176   4.466   2.689   6.095
 7093SOL     OW22177   3.010   3.876   3.479
 7093SOL    HW122178   2.971   3.836   3.562
 7093SOL    HW222179   3.032   3.972   3.495
 7094SOL     OW22180   0.677   5.885   6.047
 7094SOL    HW122181   0.722   5.837   5.972
 7094SOL    HW222182   0.729   5.869   6.132
 7095SOL     OW22183   3.074   3.731   6.212
 7095SOL    HW122184   3.157   3.707   6.262
 7095SOL    HW222185   3.093   3.735   6.114
 7096SOL     OW22186   6.272   0.916   3.703
 7096SOL    HW122187   6.250   0.819   3.694
 7096SOL    HW222188   6.191   0.970   3.680
 7097SOL     OW22189   6.084   1.437   0.659
 7097SOL    HW122190   6.018   1.512   0.666
 7097SOL    HW222191   6.050   1.369   0.594
 7098SOL     OW22192   1.212   0.096   4.994
 7098SOL    HW122193   1.198   0.027   5.065
 7098SOL    HW222194   1.271   0.059   4.922
 7099SOL     OW22195   2.939   0.873   5.173
 7099SOL    HW122196   2.915   0.881   5.270
 7099SOL    HW222197   2.942   0.964   5.132
 7100SOL     OW22198   5.479   2.211   1.188
 7100SOL    HW122199   5.413   2.208   1.263
 7100SOL    HW222200   5.514   2.119   1.171
 7101SOL     OW22201   2.157   1.265   4.654
 7101SOL    HW122202   2.104   1.222   4.581
 7101SOL    HW222203   2.099   1.332   4.701
 7102SOL     OW22204   4.643   0.337   0.860
 7102SOL    HW122205   4.610   0.300   0.947
 7102SOL    HW222206   4.598   0.424   0.842
 7103SOL     OW22207   4.705   4.898   1.842
 7103SOL    HW122208   4.802   4.920   1.832
 7103SOL    HW222209   4.695   4.801   1.863
 7104SOL     OW22210   0.631   2.500   4.410
 7104SOL    HW122211   0.617   2.563   4.486
 7104SOL    HW222212   0.702   2.434   4.434
 7105SOL     OW22213   2.962   2.963   5.381
 7105SOL    HW122214   2.980   2.996   5.474
 7105SOL    HW222215   2.921   2.872   5.386
 7106SOL     OW22216   3.208   3.942   2.770
 7106SOL    HW122217   3.194   3.843   2.766
 7106SOL    HW222218   3.179   3.977   2.859
 7107SOL     OW22219   3.712   1.531   0.302
 7107SOL    HW122220   3.771   1.558   0.226
 7107SOL    HW222221   3.617   1.525   0.270
 7108SOL     OW22222   4.720   5.958   2.668
 7108SOL    HW122223   4.667   5.912   2.597
 7108SOL    HW222224   4.673   5.948   2.756
 7109SOL     OW22225   2.525   0.635   5.783
 7109SOL    HW122226   2.527   0.622   5.882
 7109SOL    HW222227   2.459   0.572   5.743
 7110SOL     OW22228   3.232   5.918   4.607
 7110SOL    HW122229   3.161   5.849   4.623
 7110SOL    HW222230   3.291   5.924   4.688
 7111SOL     OW22231   1.264   1.705   4.030
 7111SOL    HW122232   1.176   1.753   4.038
 7111SOL    HW222233   1.329   1.744   4.095
 7112SOL     OW22234   1.329   5.768   4.428
 7112SOL    HW122235   1.310   5.785   4.524
 7112SOL    HW222236   1.352   5.854   4.382
 7113SOL     OW22237   3.526   4.115   5.094
 7113SOL    HW122238   3.438   4.078   5.063
 7113SOL    HW222239   3.513   4.165   5.180
 7114SOL     OW22240   3.854   6.780   1.585
 7114SOL    HW122241   3.804   6.858   1.546
 7114SOL    HW222242   3.806   6.696   1.560
 7115SOL     OW22243   5.409   3.249   1.420
 7115SOL    HW122244   5.316   3.281   1.440
 7115SOL    HW222245   5.433   3.174   1.482
 7116SOL     OW22246   5.997   4.112   2.900
 7116SOL    HW122247   6.008   4.191   2.841
 7116SOL    HW222248   5.993   4.029   2.845
 7117SOL     OW22249   7.010   6.119   5.005
 7117SOL    HW122250   0.080   6.164   4.978
 7117SOL    HW222251   0.016   6.033   5.053
 7118SOL     OW22252   3.012   3.621   1.034
 7118SOL    HW122253   2.956   3.575   1.103
 7118SOL    HW222254   3.067   3.692   1.077
 7119SOL     OW22255   5.366   2.036   2.874
 7119SOL    HW122256   5.461   2.064   2.860
 7119SOL    HW222257   5.313   2.056   2.792
 7120SOL     OW22258   3.478   1.722   2.527
 7120SOL    HW122259   3.386   1.698   2.496
 7120SOL    HW222260   3.472   1.769   2.615
 7121SOL     OW22261   2.022   6.724   2.988
 7121SOL    HW122262   1.953   6.783   2.947
 7121SOL    HW222263   1.981   6.637   3.016
 7122SOL     OW22264   0.916   6.806   6.056
 7122SOL    HW122265   0.817   6.815   6.062
 7122SOL    HW222266   0.958   6.897   6.064
 7123SOL     OW22267   2.108   4.506   3.003
 7123SOL    HW122268   2.073   4.451   3.079
 7123SOL    HW222269   2.094   4.603   3.024
 7124SOL     OW22270   0.029   2.170   0.738
 7124SOL    HW122271   0.088   2.090   0.726
 7124SOL    HW222272   0.022   2.191   0.836
 7125SOL     OW22273   0.383   0.027   0.955
 7125SOL    HW122274   0.403   6.963   0.899
 7125SOL    HW222275   0.301   0.073   0.919
 7126SOL     OW22276   3.124   5.445   0.293
 7126SOL    HW122277   3.224   5.438   0.299
 7126SOL    HW222278   3.082   5.381   0.357
 7127SOL     OW22279   1.356   5.436   5.349
 7127SOL    HW122280   1.362   5.336   5.347
 7127SOL    HW222281   1.430   5.473   5.405
 7128SOL     OW22282   3.067   4.648   0.874
 7128SOL    HW122283   3.094   4.690   0.960
 7128SOL    HW222284   2.967   4.638   0.871
 7129SOL     OW22285   2.202   1.442   0.081
 7129SOL    HW122286   2.132   1.459   0.151
 7129SOL    HW222287   2.230   1.530   0.041
 7130SOL     OW22288   4.000   5.800   5.374
 7130SOL    HW122289   3.913   5.850   5.377
 7130SOL    HW222290   3.982   5.704   5.355
 7131SOL     OW22291   2.701   0.841   1.025
 7131SOL    HW122292   2.722   0.743   1.026
 7131SOL    HW222293   2.651   0.863   0.941
 7132SOL     OW22294   3.642   4.209   6.949
 7132SOL    HW122295   3.676   4.131   6.897
 7132SOL    HW222296   3.652   4.292   6.895
 7133SOL     OW22297   5.681   5.620   5.595
 7133SOL    HW122298   5.704   5.712   5.628
 7133SOL    HW222299   5.643   5.567   5.671
 7134SOL     OW22300   5.771   6.725   1.769
 7134SOL    HW122301   5.694   6.746   1.828
 7134SOL    HW222302   5.738   6.688   1.682
 7135SOL     OW22303   1.251   3.535   3.393
 7135SOL    HW122304   1.250   3.507   3.298
 7135SOL    HW222305   1.246   3.455   3.452
 7136SOL     OW22306   2.343   2.758   0.964
 7136SOL    HW122307   2.256   2.710   0.967
 7136SOL    HW222308   2.418   2.693   0.980
 7137SOL     OW22309   3.798   6.947   6.947
 7137SOL    HW122310   3.792   6.862   7.000
 7137SOL    HW222311   3.846   0.001   7.000
 7138SOL     OW22312   1.638   2.669   6.980
 7138SOL    HW122313   1.598   2.674   0.056
 7138SOL    HW222314   1.574   2.622   6.919
 7139SOL     OW22315   5.445   3.489   1.588
 7139SOL    HW122316   5.443   3.410   1.527
 7139SOL    HW222317   5.505   3.470   1.666
 7140SOL     OW22318   5.596   4.516   3.859
 7140SOL    HW122319   5.555   4.462   3.932
 7140SOL    HW222320   5.673   4.568   3.895
 7141SOL     OW22321   3.309   6.280   2.035
 7141SOL    HW122322   3.394   6.318   2.071
 7141SOL    HW222323   3.295   6.312   1.942
 7142SOL     OW22324   4.533   0.428   3.555
 7142SOL    HW122325   4.434   0.443   3.557
 7142SOL    HW222326   4.579   0.506   3.599
 7143SOL     OW22327   1.395   2.401   6.294
 7143SOL    HW122328   1.445   2.343   6.357
 7143SOL    HW222329   1.388   2.356   6.205
 7144SOL     OW22330   2.141   2.404   1.973
 7144SOL    HW122331   2.101   2.493   1.992
 7144SOL    HW222332   2.186   2.369   2.055
 7145SOL     OW22333   4.141   6.805   0.168
 7145SOL    HW122334   4.200   6.877   0.206
 7145SOL    HW222335   4.123   6.736   0.238
 7146SOL     OW22336   2.033   0.243   1.632
 7146SOL    HW122337   2.043   0.177   1.707
 7146SOL    HW222338   2.079   0.208   1.550
 7147SOL     OW22339   0.185   0.494   3.454
 7147SOL    HW122340   0.222   0.511   3.545
 7147SOL    HW222341   0.231   0.416   3.413
 7148SOL     OW22342   1.179   6.008   0.785
 7148SOL    HW122343   1.259   6.052   0.826
 7148SOL    HW222344   1.197   5.911   0.772
 7149SOL     OW22345   6.404   6.893   2.945
 7149SOL    HW122346   6.351   6.848   3.017
 7149SOL    HW222347   6.343   6.916   2.868
 7150SOL     OW22348   3.255   2.102   2.368
 7150SOL    HW122349   3.291   2.075   2.278
 7150SOL    HW222350   3.243   2.202   2.370
 7151SOL     OW22351   1.789   6.057   0.754
 7151SOL    HW122352   1.698   6.068   0.713
 7151SOL    HW222353   1.782   5.998   0.835
 7152SOL     OW22354   0.957   0.788   5.196
 7152SOL    HW122355   1.003   0.876   5.210
 7152SOL    HW222356   0.984   0.725   5.269
 7153SOL     OW22357   3.360   5.072   2.054
 7153SOL    HW122358   3.294   5.146   2.043
 7153SOL    HW222359   3.451   5.110   2.067
 7154SOL     OW22360   3.644   0.566   3.654
 7154SOL    HW122361   3.644   0.664   3.634
 7154SOL    HW222362   3.554   0.528   3.634
 7155SOL     OW22363   1.806   3.562   1.238
 7155SOL    HW122364   1.807   3.526   1.145
 7155SOL    HW222365   1.843   3.655   1.239
 7156SOL     OW22366   0.295   3.345   4.228
 7156SOL    HW122367   0.223   3.330   4.296
 7156SOL    HW222368   0.384   3.349   4.273
 7157SOL     OW22369   6.782   4.051   1.492
 7157SOL    HW122370   6.719   4.097   1.429
 7157SOL    HW222371   6.760   3.954   1.496
 7158SOL     OW22372   1.009   6.937   3.369
 7158SOL    HW122373   1.016   6.897   3.461
 7158SOL    HW222374   0.994   6.865   3.302
 7159SOL     OW22375   0.535   4.975   2.549
 7159SOL    HW122376   0.483   5.016   2.624
 7159SOL    HW222377   0.473   4.946   2.476
 7160SOL     OW22378   5.720   6.835   2.962
 7160SOL    HW122379   5.684   6.847   2.870
 7160SOL    HW222380   5.645   6.842   3.028
 7161SOL     OW22381   3.015   3.708   4.196
 7161SOL    HW122382   3.001   3.757   4.283
 7161SOL    HW222383   3.098   3.653   4.202
 7162SOL     OW22384   1.359   5.407   6.581
 7162SOL    HW122385   1.275   5.378   6.628
 7162SOL    HW222386   1.338   5.484   6.521
 7163SOL     OW22387   2.510   6.248   3.268
 7163SOL    HW122388   2.434   6.189   3.241
 7163SOL    HW222389   2.474   6.325   3.321
 7164SOL     OW22390   1.573   0.884   3.384
 7164SOL    HW122391   1.565   0.787   3.360
 7164SOL    HW222392   1.486   0.916   3.420
 7165SOL     OW22393   6.811   1.347   2.109
 7165SOL    HW122394   6.886   1.340   2.043
 7165SOL    HW222395   6.821   1.275   2.178
 7166SOL     OW22396   6.275   2.930   0.358
 7166SOL    HW122397   6.335   2.851   0.376
 7166SOL    HW222398   6.329   3.014   0.357
 7167SOL     OW22399   5.327   3.463   3.820
 7167SOL    HW122400   5.418   3.500   3.840
 7167SOL    HW222401   5.260   3.536   3.822
 7168SOL     OW22402   1.793   2.679   3.344
 7168SOL    HW122403   1.777   2.585   3.313
 7168SOL    HW222404   1.865   2.720   3.288
 7169SOL     OW22405   0.003   2.357   5.006
 7169SOL    HW122406   0.044   2.340   4.916
 7169SOL    HW222407   6.988   2.452   5.011
 7170SOL     OW22408   5.175   6.099   3.692
 7170SOL    HW122409   5.171   6.124   3.789
 7170SOL    HW222410   5.121   6.163   3.638
 7171SOL     OW22411   5.128   3.432   0.106
 7171SOL    HW122412   5.213   3.423   0.054
 7171SOL    HW222413   5.110   3.347   0.155
 7172SOL     OW22414   1.279   0.220   5.284
 7172SOL    HW122415   1.366   0.195   5.241
 7172SOL    HW222416   1.250   0.310   5.250
 7173SOL     OW22417   0.041   4.296   6.045
 7173SOL    HW122418   0.056   4.312   6.142
 7173SOL    HW222419   0.071   4.203   6.021
 7174SOL     OW22420   0.778   4.502   0.260
 7174SOL    HW122421   0.810   4.417   0.303
 7174SOL    HW222422   0.781   4.576   0.326
 7175SOL     OW22423   5.326   2.518   6.749
 7175SOL    HW122424   5.241   2.482   6.708
 7175SOL    HW222425   5.404   2.466   6.714
 7176SOL     OW22426   0.526   0.252   2.819
 7176SOL    HW122427   0.466   0.182   2.781
 7176SOL    HW222428   0.622   0.223   2.809
 7177SOL     OW22429   1.580   5.705   4.785
 7177SOL    HW122430   1.657   5.640   4.782
 7177SOL    HW222431   1.578   5.758   4.700
 7178SOL     OW22432   2.446   2.071   5.790
 7178SOL    HW122433   2.411   2.087   5.698
 7178SOL    HW222434   2.533   2.120   5.801
 7179SOL     OW22435   1.898   3.826   4.470
 7179SOL    HW122436   1.903   3.849   4.373
 7179SOL    HW222437   1.857   3.735   4.481
 7180SOL     OW22438   2.580   5.358   0.156
 7180SOL    HW122439   2.545   5.268   0.128
 7180SOL    HW222440   2.644   5.346   0.232
 7181SOL     OW22441   1.960   6.316   7.012
 7181SOL    HW122442   1.895   6.303   0.071
 7181SOL    HW222443   1.933   6.395   6.957
 7182SOL     OW22444   1.297   2.649   4.940
 7182SOL    HW122445   1.396   2.646   4.923
 7182SOL    HW222446   1.249   2.652   4.852
 7183SOL     OW22447   2.299   6.182   0.482
 7183SOL    HW122448   2.359   6.262   0.486
 7183SOL    HW222449   2.321   6.120   0.558
 7184SOL     OW22450   6.569   1.217   3.273
 7184SOL    HW122451   6.588   1.165   3.356
 7184SOL    HW222452   6.632   1.295   3.268
 7185SOL     OW22453   5.477   0.374   5.166
 7185SOL    HW122454   5.396   0.433   5.156
 7185SOL    HW222455   5.453   0.293   5.219
 7186SOL     OW22456   6.584   1.092   6.589
 7186SOL    HW122457   6.669   1.040   6.601
 7186SOL    HW222458   6.600   1.167   6.524
 7187SOL     OW22459   3.767   4.901   6.279
 7187SOL    HW122460   3.750   4.900   6.377
 7187SOL    HW222461   3.808   4.814   6.251
 7188SOL     OW22462   6.525   0.119   0.819
 7188SOL    HW122463   6.478   0.093   0.903
 7188SOL    HW222464   6.462   0.110   0.741
 7189SOL     OW22465   0.321   1.225   5.848
 7189SOL    HW122466   0.280   1.135   5.853
 7189SOL    HW222467   0.411   1.223   5.892
 7190SOL     OW22468   0.149   3.499   3.146
 7190SOL    HW122469   0.075   3.431   3.145
 7190SOL    HW222470   0.120   3.580   3.197
 7191SOL     OW22471   0.618   3.978   2.943
 7191SOL    HW122472   0.625   3.878   2.945
 7191SOL    HW222473   0.624   4.013   3.037
 7192SOL     OW22474   3.472   4.560   5.804
 7192SOL    HW122475   3.450   4.611   5.721
 7192SOL    HW222476   3.458   4.619   5.884
 7193SOL     OW22477   1.802   2.778   1.947
 7193SOL    HW122478   1.716   2.727   1.946
 7193SOL    HW222479   1.855   2.750   2.027
 7194SOL     OW22480   2.741   1.978   0.315
 7194SOL    HW122481   2.819   1.968   0.253
 7194SOL    HW222482   2.679   2.048   0.281
 7195SOL     OW22483   0.126   4.245   0.023
 7195SOL    HW122484   0.192   4.298   6.985
 7195SOL    HW222485   0.080   4.179   6.980
 7196SOL     OW22486   3.635   4.262   1.040
 7196SOL    HW122487   3.535   4.269   1.040
 7196SOL    HW222488   3.663   4.177   0.996
 7197SOL     OW22489   0.958   2.498   5.586
 7197SOL    HW122490   0.949   2.434   5.663
 7197SOL    HW222491   0.895   2.470   5.514
 7198SOL     OW22492   0.469   0.434   0.191
 7198SOL    HW122493   0.516   0.495   0.256
 7198SOL    HW222494   0.384   0.400   0.233
 7199SOL     OW22495   2.169   0.764   2.909
 7199SOL    HW122496   2.182   0.680   2.857
 7199SOL    HW222497   2.250   0.780   2.967
 7200SOL     OW22498   2.639   2.118   6.915
 7200SOL    HW122499   2.596   2.113   6.825
 7200SOL    HW222500   2.738   2.108   6.906
 7201SOL     OW22501   1.104   5.930   4.044
 7201SOL    HW122502   1.140   6.008   4.096
 7201SOL    HW222503   1.043   5.877   4.103
 7202SOL     OW22504   4.355   0.540   5.907
 7202SOL    HW122505   4.343   0.442   5.928
 7202SOL    HW222506   4.400   0.585   5.984
 7203SOL     OW22507   0.431   1.832   1.279
 7203SOL    HW122508   0.507   1.856   1.341
 7203SOL    HW222509   0.345   1.840   1.328
 7204SOL     OW22510   0.547   0.055   5.443
 7204SOL    HW122511   0.600   6.989   5.422
 7204SOL    HW222512   0.560   0.123   5.371
 7205SOL     OW22513   1.072   5.567   3.706
 7205SOL    HW122514   1.002   5.583   3.775
 7205SOL    HW222515   1.032   5.573   3.615
 7206SOL     OW22516   1.582   0.208   1.540
 7206SOL    HW122517   1.652   0.277   1.557
 7206SOL    HW222518   1.504   0.251   1.493
 7207SOL     OW22519   3.651   0.306   2.661
 7207SOL    HW122520   3.640   0.210   2.688
 7207SOL    HW222521   3.683   0.360   2.739
 7208SOL     OW22522   3.831   6.848   3.237
 7208SOL    HW122523   3.918   6.876   3.197
 7208SOL    HW222524   3.792   6.774   3.182
 7209SOL     OW22525   3.062   3.532   2.444
 7209SOL    HW122526   3.146   3.569   2.483
 7209SOL    HW222527   2.986   3.593   2.466
 7210SOL     OW22528   4.721   0.784   3.866
 7210SOL    HW122529   4.817   0.760   3.849
 7210SOL    HW222530   4.662   0.725   3.811
 7211SOL     OW22531   2.730   6.167   3.977
 7211SOL    HW122532   2.803   6.143   4.042
 7211SOL    HW222533   2.642   6.166   4.024
 7212SOL     OW22534   0.274   6.253   4.973
 7212SOL    HW122535   0.284   6.226   4.877
 7212SOL    HW222536   0.305   6.347   4.985
 7213SOL     OW22537   5.345   6.769   0.539
 7213SOL    HW122538   5.343   6.784   0.638
 7213SOL    HW222539   5.296   6.685   0.517
 7214SOL     OW22540   6.881   5.138   5.361
 7214SOL    HW122541   6.894   5.039   5.368
 7214SOL    HW222542   6.954   5.185   5.412
 7215SOL     OW22543   6.835   3.535   5.277
 7215SOL    HW122544   6.761   3.595   5.247
 7215SOL    HW222545   6.866   3.479   5.200
 7216SOL     OW22546   3.573   6.447   6.668
 7216SOL    HW122547   3.474   6.433   6.669
 7216SOL    HW222548   3.612   6.410   6.583
 7217SOL     OW22549   2.869   4.782   3.146
 7217SOL    HW122550   2.780   4.746   3.120
 7217SOL    HW222551   2.877   4.783   3.246
 7218SOL     OW22552   5.005   2.510   5.361
 7218SOL    HW122553   4.906   2.494   5.357
 7218SOL    HW222554   5.024   2.581   5.428
 7219SOL     OW22555   4.826   0.204   4.313
 7219SOL    HW122556   4.911   0.217   4.262
 7219SOL    HW222557   4.749   0.198   4.250
 7220SOL     OW22558   0.631   5.237   5.114
 7220SOL    HW122559   0.548   5.181   5.105
 7220SOL    HW222560   0.700   5.204   5.050
 7221SOL     OW22561   4.003   5.828   4.389
 7221SOL    HW122562   4.025   5.926   4.395
 7221SOL    HW222563   3.981   5.805   4.295
 7222SOL     OW22564   5.899   0.487   2.978
 7222SOL    HW122565   5.935   0.523   2.892
 7222SOL    HW222566   5.857   0.398   2.962
 7223SOL     OW22567   2.753   1.874   1.286
 7223SOL    HW122568   2.827   1.929   1.326
 7223SOL    HW222569   2.755   1.882   1.187
 7224SOL     OW22570   5.335   2.080   3.710
 7224SOL    HW122571   5.403   2.010   3.687
 7224SOL    HW222572   5.375   2.145   3.775
 7225SOL     OW22573   0.800   5.785   0.572
 7225SOL    HW122574   0.891   5.774   0.532
 7225SOL    HW222575   0.807   5.782   0.672
 7226SOL     OW22576   6.959   1.003   1.240
 7226SOL    HW122577   0.021   0.941   1.233
 7226SOL    HW222578   6.969   1.077   1.173
 7227SOL     OW22579   1.513   1.941   0.963
 7227SOL    HW122580   1.462   1.855   0.951
 7227SOL    HW222581   1.472   2.012   0.906
 7228SOL     OW22582   0.574   1.613   2.300
 7228SOL    HW122583   0.639   1.679   2.338
 7228SOL    HW222584   0.486   1.658   2.283
 7229SOL     OW22585   1.718   6.144   5.679
 7229SOL    HW122586   1.656   6.103   5.613
 7229SOL    HW222587   1.757   6.073   5.738
 7230SOL     OW22588   4.703   5.098   4.301
 7230SOL    HW122589   4.641   5.042   4.246
 7230SOL    HW222590   4.788   5.113   4.250
 7231SOL     OW22591   4.847   0.310   0.161
 7231SOL    HW122592   4.882   0.355   0.243
 7231SOL    HW222593   4.898   0.225   0.145
 7232SOL     OW22594   5.429   5.529   3.007
 7232SOL    HW122595   5.500   5.594   3.035
 7232SOL    HW222596   5.351   5.579   2.969
 7233SOL     OW22597   0.330   2.431   4.344
 7233SOL    HW122598   0.415   2.464   4.387
 7233SOL    HW222599   0.257   2.496   4.363
 7234SOL     OW22600   5.330   3.014   3.205
 7234SOL    HW122601   5.348   3.012   3.106
 7234SOL    HW222602   5.242   2.971   3.224
 7235SOL     OW22603   6.667   4.048   2.088
 7235SOL    HW122604   6.581   4.071   2.043
 7235SOL    HW222605   6.650   4.026   2.184
 7236SOL     OW22606   2.190   1.983   2.170
 7236SOL    HW122607   2.136   1.985   2.086
 7236SOL    HW222608   2.233   1.893   2.180
 7237SOL     OW22609   5.101   1.321   4.568
 7237SOL    HW122610   5.026   1.385   4.586
 7237SOL    HW222611   5.137   1.287   4.654
 7238SOL     OW22612   2.916   1.422   0.806
 7238SOL    HW122613   2.910   1.456   0.900
 7238SOL    HW222614   2.862   1.338   0.798
 7239SOL     OW22615   1.902   2.456   2.495
 7239SOL    HW122616   1.987   2.482   2.540
 7239SOL    HW222617   1.911   2.468   2.396
 7240SOL     OW22618   2.733   4.751   6.047
 7240SOL    HW122619   2.691   4.834   6.010
 7240SOL    HW222620   2.782   4.704   5.974
 7241SOL     OW22621   2.522   0.815   0.601
 7241SOL    HW122622   2.452   0.755   0.563
 7241SOL    HW222623   2.550   0.882   0.532
 7242SOL     OW22624   6.851   5.874   0.594
 7242SOL    HW122625   6.932   5.850   0.541
 7242SOL    HW222626   6.769   5.860   0.537
 7243SOL     OW22627   6.302   4.966   5.802
 7243SOL    HW122628   6.360   4.885   5.797
 7243SOL    HW222629   6.324   5.027   5.725
 7244SOL     OW22630   6.032   0.573   1.227
 7244SOL    HW122631   6.109   0.637   1.231
 7244SOL    HW222632   5.966   0.595   1.298
 7245SOL     OW22633   0.974   2.054   4.972
 7245SOL    HW122634   0.897   2.043   4.909
 7245SOL    HW222635   1.002   2.150   4.974
 7246SOL     OW22636   6.151   0.556   4.066
 7246SOL    HW122637   6.060   0.594   4.081
 7246SOL    HW222638   6.179   0.502   4.146
 7247SOL     OW22639   3.023   0.045   4.339
 7247SOL    HW122640   2.994   0.072   4.247
 7247SOL    HW222641   3.102   0.100   4.366
 7248SOL     OW22642   3.406   1.318   3.759
 7248SOL    HW122643   3.410   1.372   3.675
 7248SOL    HW222644   3.396   1.379   3.837
 7249SOL     OW22645   6.099   4.384   2.049
 7249SOL    HW122646   6.180   4.436   2.075
 7249SOL    HW222647   6.042   4.369   2.130
 7250SOL     OW22648   3.854   6.694   6.619
 7250SOL    HW122649   3.791   6.619   6.637
 7250SOL    HW222650   3.871   6.745   6.703
 7251SOL     OW22651   0.315   6.934   5.504
 7251SOL    HW122652   0.251   6.933   5.427
 7251SOL    HW222653   0.391   6.996   5.484
 7252SOL     OW22654   2.962   3.306   2.854
 7252SOL    HW122655   3.009   3.266   2.775
 7252SOL    HW222656   2.931   3.233   2.915
 7253SOL     OW22657   2.856   6.000   6.239
 7253SOL    HW122658   2.799   5.933   6.286
 7253SOL    HW222659   2.798   6.067   6.192
 7254SOL     OW22660   4.375   5.549   4.416
 7254SOL    HW122661   4.451   5.501   4.373
 7254SOL    HW222662   4.331   5.489   4.483
 7255SOL     OW22663   3.952   4.118   1.238
 7255SOL    HW122664   3.956   4.039   1.300
 7255SOL    HW222665   3.879   4.105   1.171
 7256SOL     OW22666   4.154   4.989   4.472
 7256SOL    HW122667   4.207   5.073   4.482
 7256SOL    HW222668   4.160   4.935   4.556
 7257SOL     OW22669   4.856   3.292   3.874
 7257SOL    HW122670   4.821   3.200   3.887
 7257SOL    HW222671   4.907   3.320   3.956
 7258SOL     OW22672   4.037   0.576   2.724
 7258SOL    HW122673   4.116   0.623   2.685
 7258SOL    HW222674   3.967   0.644   2.747
 7259SOL     OW22675   3.142   3.323   1.196
 7259SOL    HW122676   3.088   3.356   1.119
 7259SOL    HW222677   3.235   3.361   1.192
 7260SOL     OW22678   2.840   2.096   2.605
 7260SOL    HW122679   2.916   2.113   2.668
 7260SOL    HW222680   2.820   2.179   2.553
 7261SOL     OW22681   1.718   3.062   1.451
 7261SOL    HW122682   1.771   3.003   1.511
 7261SOL    HW222683   1.744   3.157   1.467
 7262SOL     OW22684   5.345   1.797   5.031
 7262SOL    HW122685   5.424   1.837   4.984
 7262SOL    HW222686   5.291   1.870   5.073
 7263SOL     OW22687   0.755   6.764   1.975
 7263SOL    HW122688   0.747   6.862   1.955
 7263SOL    HW222689   0.837   6.728   1.929
 7264SOL     OW22690   6.027   1.229   6.708
 7264SOL    HW122691   5.936   1.205   6.674
 7264SOL    HW222692   6.046   1.325   6.686
 7265SOL     OW22693   5.223   5.751   5.956
 7265SOL    HW122694   5.308   5.702   5.942
 7265SOL    HW222695   5.156   5.723   5.887
 7266SOL     OW22696   5.025   0.365   1.262
 7266SOL    HW122697   4.997   0.421   1.183
 7266SOL    HW222698   4.959   0.378   1.336
 7267SOL     OW22699   6.953   5.894   5.386
 7267SOL    HW122700   6.890   5.961   5.425
 7267SOL    HW222701   7.004   5.850   5.460
 7268SOL     OW22702   4.097   4.888   2.715
 7268SOL    HW122703   4.017   4.852   2.666
 7268SOL    HW222704   4.117   4.981   2.682
 7269SOL     OW22705   6.907   6.202   1.160
 7269SOL    HW122706   6.836   6.167   1.222
 7269SOL    HW222707   6.867   6.270   1.099
 7270SOL     OW22708   1.101   3.382   4.820
 7270SOL    HW122709   1.008   3.351   4.838
 7270SOL    HW222710   1.138   3.333   4.741
 7271SOL     OW22711   0.417   5.401   4.375
 7271SOL    HW122712   0.458   5.412   4.285
 7271SOL    HW222713   0.328   5.355   4.366
 7272SOL     OW22714   5.334   4.936   2.130
 7272SOL    HW122715   5.245   4.896   2.106
 7272SOL    HW222716   5.401   4.863   2.144
 7273SOL     OW22717   4.929   4.678   1.914
 7273SOL    HW122718   4.922   4.606   1.983
 7273SOL    HW222719   4.952   4.637   1.826
 7274SOL     OW22720   0.821   6.299   0.275
 7274SOL    HW122721   0.905   6.345   0.245
 7274SOL    HW222722   0.817   6.208   0.233
 7275SOL     OW22723   6.849   0.907   2.386
 7275SOL    HW122724   6.914   0.898   2.461
 7275SOL    HW222725   6.762   0.865   2.414
 7276SOL     OW22726   3.798   1.142   3.012
 7276SOL    HW122727   3.865   1.099   3.072
 7276SOL    HW222728   3.769   1.229   3.051
 7277SOL     OW22729   4.871   1.189   4.268
 7277SOL    HW122730   4.894   1.284   4.289
 7277SOL    HW222731   4.833   1.145   4.349
 7278SOL     OW22732   3.286   2.141   1.764
 7278SOL    HW122733   3.346   2.064   1.786
 7278SOL    HW222734   3.211   2.145   1.829
 7279SOL     OW22735   4.085   2.834   6.151
 7279SOL    HW122736   3.987   2.829   6.172
 7279SOL    HW222737   4.100   2.899   6.077
 7280SOL     OW22738   6.906   2.012   4.216
 7280SOL    HW122739   6.994   2.028   4.172
 7280SOL    HW222740   6.857   2.099   4.224
 7281SOL     OW22741   1.823   0.675   0.511
 7281SOL    HW122742   1.842   0.616   0.432
 7281SOL    HW222743   1.906   0.683   0.566
 7282SOL     OW22744   6.637   6.470   0.459
 7282SOL    HW122745   6.716   6.520   0.494
 7282SOL    HW222746   6.646   6.373   0.483
 7283SOL     OW22747   3.343   0.097   1.929
 7283SOL    HW122748   3.320   0.017   1.874
 7283SOL    HW222749   3.323   0.181   1.878
 7284SOL     OW22750   6.885   2.619   5.000
 7284SOL    HW122751   6.793   2.655   4.985
 7284SOL    HW222752   6.949   2.667   4.940
 7285SOL     OW22753   5.773   3.630   1.544
 7285SOL    HW122754   5.832   3.557   1.580
 7285SOL    HW222755   5.751   3.610   1.448
 7286SOL     OW22756   0.713   0.244   1.512
 7286SOL    HW122757   0.622   0.205   1.499
 7286SOL    HW222758   0.760   0.247   1.424
 7287SOL     OW22759   6.712   3.050   4.537
 7287SOL    HW122760   6.731   3.143   4.567
 7287SOL    HW222761   6.718   3.044   4.437
 7288SOL     OW22762   0.873   1.865   1.712
 7288SOL    HW122763   0.880   1.874   1.613
 7288SOL    HW222764   0.952   1.815   1.747
 7289SOL     OW22765   6.485   1.744   3.135
 7289SOL    HW122766   6.441   1.669   3.183
 7289SOL    HW222767   6.513   1.714   3.044
 7290SOL     OW22768   3.091   1.001   5.807
 7290SOL    HW122769   3.006   1.046   5.834
 7290SOL    HW222770   3.071   0.909   5.773
 7291SOL     OW22771   2.234   6.818   1.310
 7291SOL    HW122772   2.248   6.766   1.226
 7291SOL    HW222773   2.248   6.915   1.292
 7292SOL     OW22774   2.767   0.177   2.723
 7292SOL    HW122775   2.844   0.138   2.772
 7292SOL    HW222776   2.690   0.113   2.725
 7293SOL     OW22777   1.735   1.057   6.191
 7293SOL    HW122778   1.812   1.107   6.151
 7293SOL    HW222779   1.686   1.008   6.119
 7294SOL     OW22780   3.331   4.103   0.724
 7294SOL    HW122781   3.249   4.078   0.776
 7294SOL    HW222782   3.353   4.029   0.661
 7295SOL     OW22783   6.667   4.461   1.338
 7295SOL    HW122784   6.643   4.530   1.270
 7295SOL    HW222785   6.694   4.507   1.423
 7296SOL     OW22786   4.732   5.233   2.850
 7296SOL    HW122787   4.728   5.218   2.949
 7296SOL    HW222788   4.827   5.240   2.822
 7297SOL     OW22789   2.755   0.003   1.863
 7297SOL    HW122790   2.795   0.089   1.832
 7297SOL    HW222791   2.661   0.019   1.893
 7298SOL     OW22792   4.977   5.852   6.728
 7298SOL    HW122793   5.041   5.781   6.756
 7298SOL    HW222794   4.987   5.932   6.788
 7299SOL     OW22795   0.510   1.737   0.516
 7299SOL    HW122796   0.501   1.834   0.493
 7299SOL    HW222797   0.480   1.681   0.439
 7300SOL     OW22798   0.399   5.854   2.439
 7300SOL    HW122799   0.487   5.901   2.447
 7300SOL    HW222800   0.367   5.827   2.529
 7301SOL     OW22801   6.493   2.384   5.882
 7301SOL    HW122802   6.560   2.378   5.808
 7301SOL    HW222803   6.401   2.369   5.846
 7302SOL     OW22804   0.482   2.167   5.896
 7302SOL    HW122805   0.396   2.211   5.872
 7302SOL    HW222806   0.482   2.145   5.994
 7303SOL     OW22807   3.591   0.546   0.031
 7303SOL    HW122808   3.598   0.481   6.971
 7303SOL    HW222809   3.638   0.509   0.111
 7304SOL     OW22810   2.522   5.677   1.706
 7304SOL    HW122811   2.540   5.641   1.797
 7304SOL    HW222812   2.427   5.657   1.681
 7305SOL     OW22813   5.745   1.681   1.346
 7305SOL    HW122814   5.810   1.745   1.389
 7305SOL    HW222815   5.785   1.645   1.262
 7306SOL     OW22816   3.595   1.494   1.705
 7306SOL    HW122817   3.560   1.575   1.752
 7306SOL    HW222818   3.689   1.511   1.676
 7307SOL     OW22819   4.053   0.129   2.070
 7307SOL    HW122820   4.080   0.117   2.166
 7307SOL    HW222821   4.064   0.043   2.021
 7308SOL     OW22822   6.430   1.153   3.792
 7308SOL    HW122823   6.395   1.204   3.871
 7308SOL    HW222824   6.369   1.075   3.773
 7309SOL     OW22825   3.015   0.036   1.582
 7309SOL    HW122826   3.057   0.017   1.494
 7309SOL    HW222827   3.005   0.135   1.594
 7310SOL     OW22828   1.943   3.327   6.549
 7310SOL    HW122829   2.041   3.313   6.554
 7310SOL    HW222830   1.896   3.258   6.604
 7311SOL     OW22831   1.121   0.376   0.286
 7311SOL    HW122832   1.195   0.424   0.240
 7311SOL    HW222833   1.089   0.431   0.364
 7312SOL     OW22834   0.886   1.643   4.445
 7312SOL    HW122835   0.983   1.660   4.462
 7312SOL    HW222836   0.870   1.630   4.348
 7313SOL     OW22837   2.240   1.428   0.995
 7313SOL    HW122838   2.259   1.381   1.081
 7313SOL    HW222839   2.254   1.527   1.007
 7314SOL     OW22840   0.082   4.025   5.962
 7314SOL    HW122841   0.109   4.057   5.872
 7314SOL    HW222842   7.004   3.990   5.958
 7315SOL     OW22843   5.505   5.847   2.181
 7315SOL    HW122844   5.428   5.823   2.120
 7315SOL    HW222845   5.518   5.773   2.247
 7316SOL     OW22846   3.440   2.817   6.404
 7316SOL    HW122847   3.534   2.809   6.371
 7316SOL    HW222848   3.409   2.729   6.440
 7317SOL     OW22849   3.599   1.661   2.111
 7317SOL    HW122850   3.665   1.706   2.170
 7317SOL    HW222851   3.510   1.706   2.119
 7318SOL     OW22852   3.238   6.550   3.370
 7318SOL    HW122853   3.254   6.495   3.288
 7318SOL    HW222854   3.155   6.604   3.359
 7319SOL     OW22855   5.808   3.110   6.405
 7319SOL    HW122856   5.804   3.118   6.505
 7319SOL    HW222857   5.717   3.123   6.367
 7320SOL     OW22858   0.396   3.602   6.957
 7320SOL    HW122859   0.305   3.637   6.937
 7320SOL    HW222860   0.389   3.509   6.994
 7321SOL     OW22861   2.299   6.812   5.928
 7321SOL    HW122862   2.288   6.855   6.018
 7321SOL    HW222863   2.222   6.837   5.870
 7322SOL     OW22864   0.152   2.833   2.741
 7322SOL    HW122865   0.083   2.772   2.703
 7322SOL    HW222866   0.166   2.811   2.838
 7323SOL     OW22867   2.536   2.956   1.233
 7323SOL    HW122868   2.457   3.017   1.232
 7323SOL    HW222869   2.544   2.913   1.324
 7324SOL     OW22870   6.015   4.827   2.517
 7324SOL    HW122871   5.942   4.787   2.462
 7324SOL    HW222872   5.989   4.920   2.543
 7325SOL     OW22873   3.034   0.064   5.195
 7325SOL    HW122874   2.963   0.019   5.141
 7325SOL    HW222875   3.023   0.039   5.291
 7326SOL     OW22876   3.344   0.233   6.033
 7326SOL    HW122877   3.334   0.301   6.107
 7326SOL    HW222878   3.345   0.141   6.073
 7327SOL     OW22879   5.614   2.845   3.870
 7327SOL    HW122880   5.648   2.848   3.776
 7327SOL    HW222881   5.645   2.760   3.914
 7328SOL     OW22882   4.348   6.447   5.463
 7328SOL    HW122883   4.297   6.438   5.549
 7328SOL    HW222884   4.446   6.449   5.483
 7329SOL     OW22885   1.334   2.935   0.441
 7329SOL    HW122886   1.312   3.016   0.496
 7329SOL    HW222887   1.432   2.919   0.443
 7330SOL     OW22888   2.209   2.974   1.062
 7330SOL    HW122889   2.248   3.064   1.046
 7330SOL    HW222890   2.261   2.906   1.010
 7331SOL     OW22891   5.201   6.331   1.935
 7331SOL    HW122892   5.160   6.264   1.873
 7331SOL    HW222893   5.208   6.420   1.890
 7332SOL     OW22894   3.639   4.460   6.875
 7332SOL    HW122895   3.575   4.508   6.815
 7332SOL    HW222896   3.615   4.480   6.971
 7333SOL     OW22897   5.869   3.199   2.530
 7333SOL    HW122898   5.782   3.174   2.572
 7333SOL    HW222899   5.889   3.295   2.548
 7334SOL     OW22900   2.602   5.527   5.623
 7334SOL    HW122901   2.508   5.562   5.614
 7334SOL    HW222902   2.600   5.427   5.615
 7335SOL     OW22903   0.194   2.779   3.547
 7335SOL    HW122904   0.235   2.821   3.467
 7335SOL    HW222905   0.095   2.794   3.546
 7336SOL     OW22906   2.217   6.560   1.646
 7336SOL    HW122907   2.176   6.567   1.737
 7336SOL    HW222908   2.225   6.652   1.606
 7337SOL     OW22909   1.974   2.867   1.224
 7337SOL    HW122910   1.977   2.922   1.308
 7337SOL    HW222911   2.027   2.913   1.152
 7338SOL     OW22912   5.368   1.568   1.692
 7338SOL    HW122913   5.354   1.483   1.642
 7338SOL    HW222914   5.420   1.632   1.634
 7339SOL     OW22915   6.704   0.534   5.130
 7339SOL    HW122916   6.766   0.608   5.156
 7339SOL    HW222917   6.721   0.454   5.188
 7340SOL     OW22918   3.615   2.130   6.850
 7340SOL    HW122919   3.682   2.203   6.867
 7340SOL    HW222920   3.523   2.165   6.866
 7341SOL     OW22921   1.374   5.151   5.326
 7341SOL    HW122922   1.358   5.081   5.257
 7341SOL    HW222923   1.433   5.115   5.398
 7342SOL     OW22924   6.114   6.482   6.785
 7342SOL    HW122925   6.158   6.468   6.696
 7342SOL    HW222926   6.016   6.494   6.772
 7343SOL     OW22927   5.528   3.392   1.889
 7343SOL    HW122928   5.448   3.333   1.875
 7343SOL    HW222929   5.607   3.351   1.844
 7344SOL     OW22930   2.231   6.977   6.147
 7344SOL    HW122931   2.269   0.043   6.105
 7344SOL    HW222932   2.282   6.955   6.230
 7345SOL     OW22933   5.491   5.894   5.670
 7345SOL    HW122934   5.582   5.883   5.710
 7345SOL    HW222935   5.467   5.991   5.668
 7346SOL     OW22936   3.367   4.279   1.083
 7346SOL    HW122937   3.281   4.261   1.035
 7346SOL    HW222938   3.350   4.279   1.181
 7347SOL     OW22939   6.399   2.995   1.281
 7347SOL    HW122940   6.302   2.981   1.303
 7347SOL    HW222941   6.446   2.907   1.280
 7348SOL     OW22942   1.584   3.582   3.793
 7348SOL    HW122943   1.670   3.581   3.846
 7348SOL    HW222944   1.551   3.676   3.785
 7349SOL     OW22945   3.956   1.616   1.193
 7349SOL    HW122946   4.055   1.617   1.202
 7349SOL    HW222947   3.931   1.639   1.099
 7350SOL     OW22948   1.732   3.531   4.163
 7350SOL    HW122949   1.776   3.505   4.077
 7350SOL    HW222950   1.649   3.476   4.175
 7351SOL     OW22951   4.343   5.471   5.939
 7351SOL    HW122952   4.438   5.467   5.969
 7351SOL    HW222953   4.339   5.472   5.839
 7352SOL     OW22954   1.549   3.283   2.871
 7352SOL    HW122955   1.492   3.203   2.889
 7352SOL    HW222956   1.499   3.366   2.897
 7353SOL     OW22957   0.392   0.342   5.849
 7353SOL    HW122958   0.378   0.245   5.829
 7353SOL    HW222959   0.490   0.359   5.860
 7354SOL     OW22960   1.010   1.809   6.183
 7354SOL    HW122961   1.054   1.782   6.268
 7354SOL    HW222962   1.066   1.780   6.106
 7355SOL     OW22963   1.496   0.654   0.413
 7355SOL    HW122964   1.526   0.564   0.445
 7355SOL    HW222965   1.566   0.693   0.354
 7356SOL     OW22966   4.941   2.816   6.438
 7356SOL    HW122967   5.018   2.811   6.502
 7356SOL    HW222968   4.857   2.834   6.490
 7357SOL     OW22969   4.186   0.695   1.594
 7357SOL    HW122970   4.180   0.596   1.601
 7357SOL    HW222971   4.267   0.727   1.644
 7358SOL     OW22972   1.815   2.373   2.238
 7358SOL    HW122973   1.842   2.276   2.234
 7358SOL    HW222974   1.880   2.428   2.186
 7359SOL     OW22975   2.865   2.674   0.631
 7359SOL    HW122976   2.925   2.720   0.566
 7359SOL    HW222977   2.900   2.689   0.724
 7360SOL     OW22978   3.411   2.516   5.780
 7360SOL    HW122979   3.472   2.500   5.703
 7360SOL    HW222980   3.460   2.502   5.866
 7361SOL     OW22981   4.439   0.037   1.569
 7361SOL    HW122982   4.377   0.055   1.645
 7361SOL    HW222983   4.409   0.088   1.489
 7362SOL     OW22984   0.637   6.677   4.708
 7362SOL    HW122985   0.571   6.603   4.693
 7362SOL    HW222986   0.650   6.690   4.806
 7363SOL     OW22987   3.880   1.985   1.128
 7363SOL    HW122988   3.919   1.980   1.036
 7363SOL    HW222989   3.841   1.896   1.152
 7364SOL     OW22990   4.329   0.175   1.363
 7364SOL    HW122991   4.402   0.182   1.296
 7364SOL    HW222992   4.276   0.260   1.365
 7365SOL     OW22993   1.572   5.922   2.123
 7365SOL    HW122994   1.612   6.008   2.154
 7365SOL    HW222995   1.553   5.928   2.025
 7366SOL     OW22996   1.811   5.427   0.610
 7366SOL    HW122997   1.741   5.372   0.566
 7366SOL    HW222998   1.782   5.452   0.702
 7367SOL     OW22999   5.029   4.267   1.261
 7367SOL    HW123000   5.108   4.262   1.323
 7367SOL    HW223001   4.951   4.306   1.309
 7368SOL     OW23002   3.874   2.959   4.013
 7368SOL    HW123003   3.973   2.953   4.001
 7368SOL    HW223004   3.854   3.028   4.082
 7369SOL     OW23005   4.453   3.032   0.758
 7369SOL    HW123006   4.364   3.014   0.799
 7369SOL    HW223007   4.511   2.952   0.767
 7370SOL     OW23008   2.179   0.440   5.189
 7370SOL    HW123009   2.231   0.433   5.103
 7370SOL    HW223010   2.085   0.468   5.169
 7371SOL     OW23011   1.963   6.503   3.868
 7371SOL    HW123012   2.039   6.448   3.902
 7371SOL    HW223013   1.998   6.570   3.802
 7372SOL     OW23014   2.724   1.182   5.619
 7372SOL    HW123015   2.676   1.221   5.698
 7372SOL    HW223016   2.670   1.198   5.536
 7373SOL     OW23017   5.534   1.667   4.138
 7373SOL    HW123018   5.588   1.629   4.063
 7373SOL    HW223019   5.439   1.635   4.131
 7374SOL     OW23020   2.942   2.367   5.359
 7374SOL    HW123021   3.019   2.366   5.295
 7374SOL    HW223022   2.863   2.411   5.316
 7375SOL     OW23023   1.606   2.792   3.480
 7375SOL    HW123024   1.671   2.758   3.412
 7375SOL    HW223025   1.641   2.878   3.518
 7376SOL     OW23026   4.158   1.658   0.145
 7376SOL    HW123027   4.152   1.690   0.240
 7376SOL    HW223028   4.163   1.736   0.083
 7377SOL     OW23029   5.695   5.714   1.777
 7377SOL    HW123030   5.751   5.641   1.814
 7377SOL    HW223031   5.599   5.683   1.772
 7378SOL     OW23032   6.969   1.654   5.077
 7378SOL    HW123033   6.989   1.685   4.984
 7378SOL    HW223034   6.888   1.596   5.076
 7379SOL     OW23035   3.904   1.956   3.244
 7379SOL    HW123036   3.963   1.910   3.310
 7379SOL    HW223037   3.948   1.956   3.154
 7380SOL     OW23038   6.541   3.120   5.167
 7380SOL    HW123039   6.637   3.145   5.172
 7380SOL    HW223040   6.532   3.020   5.173
 7381SOL     OW23041   5.189   4.086   2.103
 7381SOL    HW123042   5.187   4.032   2.020
 7381SOL    HW223043   5.105   4.141   2.110
 7382SOL     OW23044   0.167   5.578   5.947
 7382SOL    HW123045   0.165   5.503   5.880
 7382SOL    HW223046   0.074   5.612   5.960
 7383SOL     OW23047   0.655   6.561   1.295
 7383SOL    HW123048   0.644   6.501   1.216
 7383SOL    HW223049   0.623   6.513   1.377
 7384SOL     OW23050   6.018   0.694   2.141
 7384SOL    HW123051   5.934   0.706   2.192
 7384SOL    HW223052   6.006   0.729   2.048
 7385SOL     OW23053   3.914   5.915   2.028
 7385SOL    HW123054   4.014   5.915   2.032
 7385SOL    HW223055   3.879   6.001   2.066
 7386SOL     OW23056   6.989   2.243   5.668
 7386SOL    HW123057   6.944   2.202   5.747
 7386SOL    HW223058   6.942   2.216   5.585
 7387SOL     OW23059   4.444   6.459   4.678
 7387SOL    HW123060   4.423   6.502   4.765
 7387SOL    HW223061   4.367   6.401   4.650
 7388SOL     OW23062   0.364   4.820   3.257
 7388SOL    HW123063   0.397   4.904   3.213
 7388SOL    HW223064   0.282   4.840   3.310
 7389SOL     OW23065   0.960   4.241   6.748
 7389SOL    HW123066   0.936   4.337   6.737
 7389SOL    HW223067   0.961   4.196   6.659
 7390SOL     OW23068   1.990   1.395   6.850
 7390SOL    HW123069   2.025   1.467   6.910
 7390SOL    HW223070   2.066   1.342   6.814
 7391SOL     OW23071   5.188   4.182   4.833
 7391SOL    HW123072   5.172   4.115   4.906
 7391SOL    HW223073   5.286   4.190   4.815
 7392SOL     OW23074   2.833   6.109   0.228
 7392SOL    HW123075   2.887   6.161   0.162
 7392SOL    HW223076   2.738   6.142   0.226
 7393SOL     OW23077   5.519   4.926   1.194
 7393SOL    HW123078   5.559   4.853   1.140
 7393SOL    HW223079   5.483   4.888   1.280
 7394SOL     OW23080   3.176   2.457   6.094
 7394SOL    HW123081   3.163   2.425   6.000
 7394SOL    HW223082   3.135   2.547   6.105
 7395SOL     OW23083   2.401   1.596   6.976
 7395SOL    HW123084   2.455   1.631   6.900
 7395SOL    HW223085   2.463   1.571   0.036
 7396SOL     OW23086   1.113   6.794   0.450
 7396SOL    HW123087   1.147   6.731   0.381
 7396SOL    HW223088   1.103   6.746   0.538
 7397SOL     OW23089   5.391   5.199   5.404
 7397SOL    HW123090   5.384   5.163   5.496
 7397SOL    HW223091   5.403   5.124   5.339
 7398SOL     OW23092   3.108   5.308   4.479
 7398SOL    HW123093   3.098   5.379   4.409
 7398SOL    HW223094   3.078   5.344   4.567
 7399SOL     OW23095   1.277   3.088   5.630
 7399SOL    HW123096   1.214   3.089   5.552
 7399SOL    HW223097   1.262   3.170   5.686
 7400SOL     OW23098   2.949   3.387   6.166
 7400SOL    HW123099   2.956   3.451   6.090
 7400SOL    HW223100   2.929   3.296   6.131
 7401SOL     OW23101   0.843   0.838   3.822
 7401SOL    HW123102   0.844   0.749   3.775
 7401SOL    HW223103   0.927   0.887   3.802
 7402SOL     OW23104   2.800   5.200   5.668
 7402SOL    HW123105   2.835   5.181   5.759
 7402SOL    HW223106   2.811   5.119   5.610
 7403SOL     OW23107   1.615   4.081   3.014
 7403SOL    HW123108   1.708   4.059   3.042
 7403SOL    HW223109   1.570   3.998   2.982
 7404SOL     OW23110   2.909   5.246   1.206
 7404SOL    HW123111   2.945   5.291   1.288
 7404SOL    HW223112   2.867   5.159   1.232
 7405SOL     OW23113   2.805   4.904   4.437
 7405SOL    HW123114   2.862   4.931   4.514
 7405SOL    HW223115   2.764   4.815   4.455
 7406SOL     OW23116   1.056   3.102   3.640
 7406SOL    HW123117   0.958   3.108   3.656
 7406SOL    HW223118   1.091   3.017   3.680
 7407SOL     OW23119   0.209   5.920   4.834
 7407SOL    HW123120   0.119   5.903   4.795
 7407SOL    HW223121   0.201   5.935   4.933
 7408SOL     OW23122   1.247   3.306   5.815
 7408SOL    HW123123   1.334   3.352   5.836
 7408SOL    HW223124   1.243   3.218   5.863
 7409SOL     OW23125   0.543   1.254   5.242
 7409SOL    HW123126   0.632   1.209   5.230
 7409SOL    HW223127   0.547   1.315   5.321
 7410SOL     OW23128   0.300   5.004   1.568
 7410SOL    HW123129   0.226   4.942   1.540
 7410SOL    HW223130   0.336   4.975   1.657
 7411SOL     OW23131   2.952   6.794   4.346
 7411SOL    HW123132   2.931   6.750   4.258
 7411SOL    HW223133   2.980   6.888   4.330
 7412SOL     OW23134   3.960   0.124   2.559
 7412SOL    HW123135   4.004   0.117   2.649
 7412SOL    HW223136   3.867   0.157   2.570
 7413SOL     OW23137   4.833   5.013   4.721
 7413SOL    HW123138   4.905   4.983   4.784
 7413SOL    HW223139   4.746   4.971   4.748
 7414SOL     OW23140   6.975   6.642   4.036
 7414SOL    HW123141   6.995   6.661   3.939
 7414SOL    HW223142   0.036   6.593   4.077
 7415SOL     OW23143   1.476   3.839   2.947
 7415SOL    HW123144   1.475   3.743   2.975
 7415SOL    HW223145   1.387   3.864   2.909
 7416SOL     OW23146   3.243   1.016   3.619
 7416SOL    HW123147   3.329   1.026   3.670
 7416SOL    HW223148   3.190   1.100   3.627
 7417SOL     OW23149   2.049   0.358   5.630
 7417SOL    HW123150   2.007   0.404   5.708
 7417SOL    HW223151   1.991   0.367   5.550
 7418SOL     OW23152   3.380   5.446   0.642
 7418SOL    HW123153   3.418   5.492   0.561
 7418SOL    HW223154   3.411   5.492   0.724
 7419SOL     OW23155   6.125   2.329   5.417
 7419SOL    HW123156   6.129   2.417   5.464
 7419SOL    HW223157   6.051   2.274   5.455
 7420SOL     OW23158   0.081   6.452   1.785
 7420SOL    HW123159   0.018   6.415   1.853
 7420SOL    HW223160   0.129   6.530   1.823
 7421SOL     OW23161   3.414   3.502   1.178
 7421SOL    HW123162   3.504   3.530   1.144
 7421SOL    HW223163   3.384   3.565   1.250
 7422SOL     OW23164   6.974   3.174   2.274
 7422SOL    HW123165   6.936   3.119   2.348
 7422SOL    HW223166   0.057   3.160   2.270
 7423SOL     OW23167   6.717   4.596   5.724
 7423SOL    HW123168   6.744   4.655   5.648
 7423SOL    HW223169   6.789   4.597   5.794
 7424SOL     OW23170   6.921   0.168   4.886
 7424SOL    HW123171   6.844   0.182   4.949
 7424SOL    HW223172   6.950   0.257   4.850
 7425SOL     OW23173   4.854   5.827   6.279
 7425SOL    HW123174   4.792   5.865   6.348
 7425SOL    HW223175   4.833   5.867   6.189
 7426SOL     OW23176   1.433   1.411   6.850
 7426SOL    HW123177   1.430   1.496   6.798
 7426SOL    HW223178   1.472   1.339   6.793
 7427SOL     OW23179   3.408   6.276   4.035
 7427SOL    HW123180   3.320   6.244   3.997
 7427SOL    HW223181   3.473   6.290   3.960
 7428SOL     OW23182   4.054   1.328   6.097
 7428SOL    HW123183   4.024   1.310   6.003
 7428SOL    HW223184   4.087   1.243   6.138
 7429SOL     OW23185   5.808   6.949   3.737
 7429SOL    HW123186   5.782   6.859   3.773
 7429SOL    HW223187   5.779   6.956   3.641
 7430SOL     OW23188   0.306   3.875   6.118
 7430SOL    HW123189   0.243   3.906   6.047
 7430SOL    HW223190   0.393   3.922   6.108
 7431SOL     OW23191   0.377   3.002   2.712
 7431SOL    HW123192   0.292   2.949   2.708
 7431SOL    HW223193   0.367   3.077   2.777
 7432SOL     OW23194   6.967   0.050   3.623
 7432SOL    HW123195   6.887   7.008   3.607
 7432SOL    HW223196   0.029   0.015   3.571
 7433SOL     OW23197   5.704   5.328   0.165
 7433SOL    HW123198   5.631   5.287   0.220
 7433SOL    HW223199   5.695   5.428   0.168
 7434SOL     OW23200   4.624   0.555   6.039
 7434SOL    HW123201   4.636   0.649   6.008
 7434SOL    HW223202   4.558   0.553   6.114
 7435SOL     OW23203   4.049   5.760   0.743
 7435SOL    HW123204   4.017   5.694   0.810
 7435SOL    HW223205   3.978   5.828   0.727
 7436SOL     OW23206   5.494   3.347   6.366
 7436SOL    HW123207   5.481   3.253   6.333
 7436SOL    HW223208   5.405   3.389   6.380
 7437SOL     OW23209   0.350   6.061   0.557
 7437SOL    HW123210   0.286   6.136   0.537
 7437SOL    HW223211   0.399   6.081   0.642
 7438SOL     OW23212   0.755   5.287   0.965
 7438SOL    HW123213   0.699   5.369   0.958
 7438SOL    HW223214   0.758   5.241   0.876
 7439SOL     OW23215   1.515   6.272   4.879
 7439SOL    HW123216   1.594   6.330   4.901
 7439SOL    HW223217   1.543   6.176   4.876
 7440SOL     OW23218   0.919   3.307   4.510
 7440SOL    HW123219   0.868   3.329   4.593
 7440SOL    HW223220   1.008   3.270   4.534
 7441SOL     OW23221   4.443   5.925   4.792
 7441SOL    HW123222   4.531   5.915   4.746
 7441SOL    HW223223   4.378   5.969   4.729
 7442SOL     OW23224   0.766   0.933   6.367
 7442SOL    HW123225   0.691   0.885   6.413
 7442SOL    HW223226   0.821   0.867   6.315
 7443SOL     OW23227   0.244   0.847   1.640
 7443SOL    HW123228   0.250   0.882   1.734
 7443SOL    HW223229   0.215   0.751   1.643
 7444SOL     OW23230   6.735   3.062   4.801
 7444SOL    HW123231   6.717   3.032   4.707
 7444SOL    HW223232   6.696   2.997   4.866
 7445SOL     OW23233   3.377   1.155   1.219
 7445SOL    HW123234   3.329   1.240   1.197
 7445SOL    HW223235   3.470   1.176   1.248
 7446SOL     OW23236   5.434   4.130   0.712
 7446SOL    HW123237   5.518   4.076   0.706
 7446SOL    HW223238   5.358   4.070   0.737
 7447SOL     OW23239   1.228   3.272   5.267
 7447SOL    HW123240   1.224   3.308   5.360
 7447SOL    HW223241   1.234   3.348   5.202
 7448SOL     OW23242   5.674   6.783   5.356
 7448SOL    HW123243   5.624   6.780   5.442
 7448SOL    HW223244   5.626   6.843   5.292
 7449SOL     OW23245   6.633   2.598   1.827
 7449SOL    HW123246   6.682   2.672   1.780
 7449SOL    HW223247   6.580   2.636   1.903
 7450SOL     OW23248   5.270   1.948   4.293
 7450SOL    HW123249   5.318   1.897   4.222
 7450SOL    HW223250   5.328   2.023   4.324
 7451SOL     OW23251   0.968   6.721   2.842
 7451SOL    HW123252   1.021   6.709   2.758
 7451SOL    HW223253   0.917   6.807   2.838
 7452SOL     OW23254   0.381   6.462   5.396
 7452SOL    HW123255   0.449   6.388   5.390
 7452SOL    HW223256   0.423   6.542   5.438
 7453SOL     OW23257   4.474   6.114   5.497
 7453SOL    HW123258   4.463   6.049   5.422
 7453SOL    HW223259   4.437   6.202   5.471
 7454SOL     OW23260   1.069   2.180   1.446
 7454SOL    HW123261   1.140   2.249   1.434
 7454SOL    HW223262   0.982   2.224   1.469
 7455SOL     OW23263   0.161   2.344   2.025
 7455SOL    HW123264   0.069   2.344   2.064
 7455SOL    HW223265   0.215   2.271   2.066
 7456SOL     OW23266   0.829   2.045   4.319
 7456SOL    HW123267   0.836   2.059   4.418
 7456SOL    HW223268   0.913   2.003   4.285
 7457SOL     OW23269   3.825   0.876   5.162
 7457SOL    HW123270   3.841   0.972   5.186
 7457SOL    HW223271   3.854   0.818   5.239
 7458SOL     OW23272   2.487   0.019   6.540
 7458SOL    HW123273   2.586   0.002   6.544
 7458SOL    HW223274   2.465   0.098   6.597
 7459SOL     OW23275   4.655   0.921   0.979
 7459SOL    HW123276   4.720   0.963   0.916
 7459SOL    HW223277   4.683   0.827   0.999
 7460SOL     OW23278   1.551   4.194   1.132
 7460SOL    HW123279   1.572   4.286   1.099
 7460SOL    HW223280   1.512   4.199   1.224
 7461SOL     OW23281   6.157   1.630   6.361
 7461SOL    HW123282   6.143   1.578   6.446
 7461SOL    HW223283   6.202   1.572   6.294
 7462SOL     OW23284   1.262   3.939   2.812
 7462SOL    HW123285   1.306   4.012   2.760
 7462SOL    HW223286   1.228   3.869   2.750
 7463SOL     OW23287   2.779   4.645   0.914
 7463SOL    HW123288   2.764   4.618   1.009
 7463SOL    HW223289   2.691   4.661   0.869
 7464SOL     OW23290   3.964   0.462   6.390
 7464SOL    HW123291   3.885   0.410   6.420
 7464SOL    HW223292   4.003   0.512   6.468
 7465SOL     OW23293   1.488   6.771   6.952
 7465SOL    HW123294   1.409   6.744   6.897
 7465SOL    HW223295   1.457   6.823   0.016
 7466SOL     OW23296   0.120   0.429   6.356
 7466SOL    HW123297   0.149   0.432   6.452
 7466SOL    HW223298   0.040   0.488   6.344
 7467SOL     OW23299   6.695   1.488   0.488
 7467SOL    HW123300   6.739   1.530   0.567
 7467SOL    HW223301   6.645   1.558   0.436
 7468SOL     OW23302   6.550   2.904   2.497
 7468SOL    HW123303   6.480   2.940   2.559
 7468SOL    HW223304   6.630   2.877   2.551
 7469SOL     OW23305   6.807   0.339   0.139
 7469SOL    HW123306   6.807   0.251   0.090
 7469SOL    HW223307   6.901   0.361   0.167
 7470SOL     OW23308   6.974   2.887   4.077
 7470SOL    HW123309   6.905   2.959   4.076
 7470SOL    HW223310   6.995   2.859   3.983
 7471SOL     OW23311   6.326   6.372   5.565
 7471SOL    HW123312   6.333   6.305   5.492
 7471SOL    HW223313   6.322   6.464   5.526
 7472SOL     OW23314   5.768   6.934   4.230
 7472SOL    HW123315   5.828   6.861   4.199
 7472SOL    HW223316   5.777   6.944   4.329
 7473SOL     OW23317   6.693   4.797   2.657
 7473SOL    HW123318   6.647   4.718   2.698
 7473SOL    HW223319   6.781   4.811   2.702
 7474SOL     OW23320   2.474   1.426   5.232
 7474SOL    HW123321   2.407   1.462   5.296
 7474SOL    HW223322   2.520   1.502   5.186
 7475SOL     OW23323   3.661   0.945   2.368
 7475SOL    HW123324   3.725   0.869   2.377
 7475SOL    HW223325   3.697   1.012   2.304
 7476SOL     OW23326   3.754   5.386   3.924
 7476SOL    HW123327   3.766   5.364   4.021
 7476SOL    HW223328   3.734   5.483   3.914
 7477SOL     OW23329   6.485   1.555   4.728
 7477SOL    HW123330   6.570   1.525   4.685
 7477SOL    HW223331   6.423   1.477   4.737
 7478SOL     OW23332   4.443   5.061   6.780
 7478SOL    HW123333   4.489   5.103   6.859
 7478SOL    HW223334   4.367   5.005   6.812
 7479SOL     OW23335   4.150   2.560   1.731
 7479SOL    HW123336   4.081   2.632   1.719
 7479SOL    HW223337   4.107   2.471   1.716
 7480SOL     OW23338   6.888   3.815   1.660
 7480SOL    HW123339   6.971   3.869   1.673
 7480SOL    HW223340   6.906   3.719   1.681
 7481SOL     OW23341   6.081   5.905   1.814
 7481SOL    HW123342   5.993   5.912   1.767
 7481SOL    HW223343   6.089   5.816   1.858
 7482SOL     OW23344   4.908   2.243   3.421
 7482SOL    HW123345   4.837   2.306   3.389
 7482SOL    HW223346   4.871   2.150   3.422
 7483SOL     OW23347   4.366   2.291   5.268
 7483SOL    HW123348   4.428   2.348   5.323
 7483SOL    HW223349   4.401   2.287   5.174
 7484SOL     OW23350   0.552   1.227   3.649
 7484SOL    HW123351   0.603   1.156   3.697
 7484SOL    HW223352   0.522   1.297   3.713
 7485SOL     OW23353   3.331   0.054   4.476
 7485SOL    HW123354   3.399   7.015   4.524
 7485SOL    HW223355   3.344   0.150   4.498
 7486SOL     OW23356   2.654   0.451   5.582
 7486SOL    HW123357   2.752   0.430   5.580
 7486SOL    HW223358   2.633   0.505   5.663
 7487SOL     OW23359   2.547   6.103   2.811
 7487SOL    HW123360   2.514   6.175   2.750
 7487SOL    HW223361   2.640   6.125   2.842
 7488SOL     OW23362   2.071   6.883   4.455
 7488SOL    HW123363   2.083   6.964   4.512
 7488SOL    HW223364   2.147   6.819   4.471
 7489SOL     OW23365   5.388   2.024   4.821
 7489SOL    HW123366   5.461   2.061   4.880
 7489SOL    HW223367   5.371   2.087   4.745
 7490SOL     OW23368   0.675   1.092   1.202
 7490SOL    HW123369   0.594   1.061   1.152
 7490SOL    HW223370   0.723   1.161   1.148
 7491SOL     OW23371   6.032   3.498   6.148
 7491SOL    HW123372   5.953   3.461   6.196
 7491SOL    HW223373   6.019   3.489   6.050
 7492SOL     OW23374   2.002   0.502   4.135
 7492SOL    HW123375   2.073   0.451   4.086
 7492SOL    HW223376   2.036   0.594   4.156
 7493SOL     OW23377   6.316   4.014   6.720
 7493SOL    HW123378   6.353   4.062   6.799
 7493SOL    HW223379   6.308   3.916   6.741
 7494SOL     OW23380   5.558   0.629   2.815
 7494SOL    HW123381   5.649   0.669   2.826
 7494SOL    HW223382   5.558   0.537   2.853
 7495SOL     OW23383   2.207   0.659   0.293
 7495SOL    HW123384   2.280   0.593   0.310
 7495SOL    HW223385   2.215   0.734   0.359
 7496SOL     OW23386   0.350   3.351   6.131
 7496SOL    HW123387   0.444   3.359   6.096
 7496SOL    HW223388   0.297   3.292   6.070
 7497SOL     OW23389   2.347   4.758   0.582
 7497SOL    HW123390   2.402   4.696   0.526
 7497SOL    HW223391   2.396   4.843   0.597
 7498SOL     OW23392   2.212   1.310   5.538
 7498SOL    HW123393   2.235   1.220   5.503
 7498SOL    HW223394   2.245   1.380   5.475
 7499SOL     OW23395   3.964   2.074   2.889
 7499SOL    HW123396   3.985   1.999   2.826
 7499SOL    HW223397   4.047   2.102   2.936
 7500SOL     OW23398   3.943   5.348   4.578
 7500SOL    HW123399   3.914   5.285   4.650
 7500SOL    HW223400   3.918   5.441   4.603
 7501SOL     OW23401   6.169   4.099   3.541
 7501SOL    HW123402   6.110   4.175   3.569
 7501SOL    HW223403   6.263   4.117   3.570
 7502SOL     OW23404   1.564   0.010   4.622
 7502SOL    HW123405   1.661   0.022   4.604
 7502SOL    HW223406   1.534   6.937   4.587
 7503SOL     OW23407   2.827   1.655   0.611
 7503SOL    HW123408   2.768   1.593   0.662
 7503SOL    HW223409   2.923   1.630   0.627
 7504SOL     OW23410   2.154   6.998   2.862
 7504SOL    HW123411   2.149   6.901   2.838
 7504SOL    HW223412   2.131   0.038   2.782
 7505SOL     OW23413   2.235   1.841   5.723
 7505SOL    HW123414   2.273   1.932   5.738
 7505SOL    HW223415   2.178   1.841   5.641
 7506SOL     OW23416   4.884   6.939   3.108
 7506SOL    HW123417   4.791   6.949   3.144
 7506SOL    HW223418   4.892   6.850   3.063
 7507SOL     OW23419   0.854   0.540   2.547
 7507SOL    HW123420   0.791   0.491   2.487
 7507SOL    HW223421   0.803   0.599   2.609
 7508SOL     OW23422   0.193   6.658   1.956
 7508SOL    HW123423   0.242   6.590   2.010
 7508SOL    HW223424   0.107   6.681   2.001
 7509SOL     OW23425   5.727   4.410   0.346
 7509SOL    HW123426   5.799   4.381   0.283
 7509SOL    HW223427   5.657   4.461   0.297
 7510SOL     OW23428   3.263   4.541   5.326
 7510SOL    HW123429   3.334   4.591   5.276
 7510SOL    HW223430   3.188   4.518   5.263
 7511SOL     OW23431   1.891   6.741   3.548
 7511SOL    HW123432   1.858   6.776   3.636
 7511SOL    HW223433   1.813   6.725   3.488
 7512SOL     OW23434   2.389   5.156   6.954
 7512SOL    HW123435   2.407   5.199   6.866
 7512SOL    HW223436   2.293   5.172   6.980
 7513SOL     OW23437   2.225   1.121   1.896
 7513SOL    HW123438   2.316   1.162   1.908
 7513SOL    HW223439   2.234   1.037   1.842
 7514SOL     OW23440   2.248   5.464   1.906
 7514SOL    HW123441   2.286   5.404   1.835
 7514SOL    HW223442   2.320   5.488   1.971
 7515SOL     OW23443   6.950   5.089   1.972
 7515SOL    HW123444   6.966   5.000   1.929
 7515SOL    HW223445   6.941   5.159   1.901
 7516SOL     OW23446   6.646   5.892   5.002
 7516SOL    HW123447   6.696   5.929   4.924
 7516SOL    HW223448   6.710   5.860   5.071
 7517SOL     OW23449   0.152   3.120   0.481
 7517SOL    HW123450   0.066   3.087   0.444
 7517SOL    HW223451   0.137   3.209   0.525
 7518SOL     OW23452   4.390   5.221   3.151
 7518SOL    HW123453   4.311   5.164   3.125
 7518SOL    HW223454   4.358   5.313   3.172
 7519SOL     OW23455   6.335   6.998   4.139
 7519SOL    HW123456   6.300   6.981   4.231
 7519SOL    HW223457   6.272   6.960   4.071
 7520SOL     OW23458   3.368   0.011   2.201
 7520SOL    HW123459   3.398   0.060   2.119
 7520SOL    HW223460   3.405   0.055   2.282
 7521SOL     OW23461   4.838   4.409   5.969
 7521SOL    HW123462   4.877   4.428   5.879
 7521SOL    HW223463   4.817   4.312   5.977
 7522SOL     OW23464   2.608   0.014   6.234
 7522SOL    HW123465   2.548   0.067   6.293
 7522SOL    HW223466   2.584   6.933   6.239
 7523SOL     OW23467   5.273   0.199   5.912
 7523SOL    HW123468   5.289   0.287   5.867
 7523SOL    HW223469   5.268   0.212   6.011
 7524SOL     OW23470   1.620   1.861   5.967
 7524SOL    HW123471   1.640   1.771   6.006
 7524SOL    HW223472   1.684   1.928   6.003
 7525SOL     OW23473   2.939   0.807   6.041
 7525SOL    HW123474   2.903   0.900   6.030
 7525SOL    HW223475   3.033   0.803   6.008
 7526SOL     OW23476   3.078   3.267   1.691
 7526SOL    HW123477   3.135   3.349   1.703
 7526SOL    HW223478   3.062   3.252   1.594
 7527SOL     OW23479   4.209   5.760   3.076
 7527SOL    HW123480   4.272   5.832   3.104
 7527SOL    HW223481   4.119   5.777   3.116
 7528SOL     OW23482   5.057   1.587   6.839
 7528SOL    HW123483   5.089   1.511   6.895
 7528SOL    HW223484   5.125   1.607   6.768
 7529SOL     OW23485   5.746   0.409   4.178
 7529SOL    HW123486   5.797   0.323   4.178
 7529SOL    HW223487   5.653   0.392   4.209
 7530SOL     OW23488   0.175   3.668   1.769
 7530SOL    HW123489   0.264   3.628   1.750
 7530SOL    HW223490   0.167   3.756   1.721
 7531SOL     OW23491   4.522   2.507   4.199
 7531SOL    HW123492   4.549   2.412   4.182
 7531SOL    HW223493   4.461   2.537   4.126
 7532SOL     OW23494   5.468   4.480   1.368
 7532SOL    HW123495   5.390   4.434   1.326
 7532SOL    HW223496   5.526   4.412   1.413
 7533SOL     OW23497   2.570   1.937   2.497
 7533SOL    HW123498   2.491   1.928   2.556
 7533SOL    HW223499   2.588   1.850   2.451
 7534SOL     OW23500   4.680   5.732   5.297
 7534SOL    HW123501   4.735   5.689   5.369
 7534SOL    HW223502   4.584   5.731   5.324
 7535SOL     OW23503   2.725   0.112   5.823
 7535SOL    HW123504   2.676   0.150   5.744
 7535SOL    HW223505   2.767   0.025   5.798
 7536SOL     OW23506   4.659   4.473   4.508
 7536SOL    HW123507   4.634   4.568   4.529
 7536SOL    HW223508   4.752   4.456   4.539
 7537SOL     OW23509   2.917   5.392   3.381
 7537SOL    HW123510   2.954   5.305   3.414
 7537SOL    HW223511   2.935   5.463   3.448
 7538SOL     OW23512   2.999   2.931   1.830
 7538SOL    HW123513   3.061   2.860   1.863
 7538SOL    HW223514   3.052   3.004   1.786
 7539SOL     OW23515   1.086   2.963   4.364
 7539SOL    HW123516   0.989   2.946   4.347
 7539SOL    HW223517   1.131   2.987   4.278
 7540SOL     OW23518   3.871   6.837   5.360
 7540SOL    HW123519   3.810   6.900   5.312
 7540SOL    HW223520   3.893   6.873   5.450
 7541SOL     OW23521   6.716   4.402   4.222
 7541SOL    HW123522   6.802   4.427   4.266
 7541SOL    HW223523   6.640   4.438   4.276
 7542SOL     OW23524   0.810   5.751   0.144
 7542SOL    HW123525   0.897   5.794   0.167
 7542SOL    HW223526   0.747   5.758   0.222
 7543SOL     OW23527   3.396   2.027   0.812
 7543SOL    HW123528   3.333   2.097   0.780
 7543SOL    HW223529   3.385   1.944   0.758
 7544SOL     OW23530   0.444   2.448   3.276
 7544SOL    HW123531   0.496   2.375   3.321
 7544SOL    HW223532   0.349   2.447   3.308
 7545SOL     OW23533   6.310   5.868   1.683
 7545SOL    HW123534   6.237   5.893   1.746
 7545SOL    HW223535   6.271   5.845   1.594
 7546SOL     OW23536   3.056   1.217   2.115
 7546SOL    HW123537   3.123   1.257   2.052
 7546SOL    HW223538   3.081   1.122   2.134
 7547SOL     OW23539   4.590   0.982   0.125
 7547SOL    HW123540   4.650   0.987   0.205
 7547SOL    HW223541   4.582   0.886   0.096
 7548SOL     OW23542   3.658   2.213   0.451
 7548SOL    HW123543   3.633   2.256   0.364
 7548SOL    HW223544   3.598   2.135   0.468
 7549SOL     OW23545   6.113   1.981   1.162
 7549SOL    HW123546   6.101   1.898   1.106
 7549SOL    HW223547   6.025   2.026   1.173
 7550SOL     OW23548   2.688   4.640   2.602
 7550SOL    HW123549   2.705   4.708   2.531
 7550SOL    HW223550   2.602   4.661   2.649
 7551SOL     OW23551   4.925   3.889   6.671
 7551SOL    HW123552   5.021   3.917   6.680
 7551SOL    HW223553   4.921   3.792   6.650
 7552SOL     OW23554   1.177   5.554   3.271
 7552SOL    HW123555   1.181   5.495   3.190
 7552SOL    HW223556   1.256   5.536   3.329
 7553SOL     OW23557   4.901   5.356   5.366
 7553SOL    HW123558   4.818   5.319   5.323
 7553SOL    HW223559   4.877   5.436   5.420
 7554SOL     OW23560   4.261   1.635   1.609
 7554SOL    HW123561   4.292   1.656   1.701
 7554SOL    HW223562   4.220   1.544   1.607
 7555SOL     OW23563   1.761   4.736   5.413
 7555SOL    HW123564   1.788   4.793   5.336
 7555SOL    HW223565   1.688   4.674   5.384
 7556SOL     OW23566   0.945   3.299   6.102
 7556SOL    HW123567   0.895   3.345   6.174
 7556SOL    HW223568   0.902   3.316   6.013
 7557SOL     OW23569   5.124   2.112   6.474
 7557SOL    HW123570   5.132   2.192   6.414
 7557SOL    HW223571   5.196   2.046   6.452
 7558SOL     OW23572   1.725   2.434   4.433
 7558SOL    HW123573   1.732   2.345   4.479
 7558SOL    HW223574   1.637   2.476   4.456
 7559SOL     OW23575   6.254   4.604   7.005
 7559SOL    HW123576   6.353   4.591   7.006
 7559SOL    HW223577   6.226   4.652   0.072
 7560SOL     OW23578   4.805   6.598   0.804
 7560SOL    HW123579   4.824   6.648   0.888
 7560SOL    HW223580   4.887   6.595   0.748
 7561SOL     OW23581   1.099   3.195   6.860
 7561SOL    HW123582   1.126   3.111   6.906
 7561SOL    HW223583   1.121   3.187   6.762
 7562SOL     OW23584   6.171   5.872   4.866
 7562SOL    HW123585   6.245   5.841   4.807
 7562SOL    HW223586   6.104   5.799   4.877
 7563SOL     OW23587   2.364   6.525   0.796
 7563SOL    HW123588   2.384   6.467   0.875
 7563SOL    HW223589   2.266   6.536   0.786
 7564SOL     OW23590   5.031   1.389   3.227
 7564SOL    HW123591   4.935   1.367   3.212
 7564SOL    HW223592   5.084   1.365   3.145
 7565SOL     OW23593   5.912   3.174   0.730
 7565SOL    HW123594   5.832   3.234   0.733
 7565SOL    HW223595   5.883   3.079   0.745
 7566SOL     OW23596   6.908   4.766   2.940
 7566SOL    HW123597   6.998   4.801   2.918
 7566SOL    HW223598   6.882   4.695   2.875
 7567SOL     OW23599   1.498   1.770   5.227
 7567SOL    HW123600   1.479   1.835   5.153
 7567SOL    HW223601   1.511   1.821   5.312
 7568SOL     OW23602   5.381   6.667   3.131
 7568SOL    HW123603   5.395   6.759   3.166
 7568SOL    HW223604   5.346   6.671   3.037
 7569SOL     OW23605   3.762   6.034   6.419
 7569SOL    HW123606   3.669   6.050   6.451
 7569SOL    HW223607   3.760   6.001   6.325
 7570SOL     OW23608   5.879   4.371   4.999
 7570SOL    HW123609   5.823   4.453   5.014
 7570SOL    HW223610   5.855   4.301   5.066
 7571SOL     OW23611   5.155   5.467   3.359
 7571SOL    HW123612   5.060   5.487   3.333
 7571SOL    HW223613   5.203   5.427   3.281
 7572SOL     OW23614   3.916   0.782   2.163
 7572SOL    HW123615   4.001   0.777   2.111
 7572SOL    HW223616   3.847   0.725   2.118
 7573SOL     OW23617   0.321   6.212   4.685
 7573SOL    HW123618   0.226   6.238   4.672
 7573SOL    HW223619   0.332   6.115   4.661
 7574SOL     OW23620   6.072   0.899   4.955
 7574SOL    HW123621   6.121   0.835   4.897
 7574SOL    HW223622   6.024   0.966   4.899
 7575SOL     OW23623   3.893   0.319   5.591
 7575SOL    HW123624   3.983   0.292   5.624
 7575SOL    HW223625   3.826   0.248   5.614
 7576SOL     OW23626   5.255   4.719   6.851
 7576SOL    HW123627   5.190   4.757   6.784
 7576SOL    HW223628   5.326   4.669   6.803
 7577SOL     OW23629   6.880   0.019   6.198
 7577SOL    HW123630   6.926   0.093   6.246
 7577SOL    HW223631   6.922   6.947   6.221
 7578SOL     OW23632   2.351   5.985   2.311
 7578SOL    HW123633   2.274   5.923   2.308
 7578SOL    HW223634   2.372   6.017   2.218
 7579SOL     OW23635   6.544   1.801   2.098
 7579SOL    HW123636   6.614   1.746   2.144
 7579SOL    HW223637   6.515   1.756   2.014
 7580SOL     OW23638   1.328   4.098   4.208
 7580SOL    HW123639   1.252   4.141   4.160
 7580SOL    HW223640   1.309   4.097   4.306
 7581SOL     OW23641   6.686   0.631   1.311
 7581SOL    HW123642   6.779   0.663   1.292
 7581SOL    HW223643   6.626   0.654   1.235
 7582SOL     OW23644   2.790   1.066   0.571
 7582SOL    HW123645   2.733   1.008   0.512
 7582SOL    HW223646   2.874   1.017   0.593
 7583SOL     OW23647   6.589   2.901   0.625
 7583SOL    HW123648   6.649   2.909   0.705
 7583SOL    HW223649   6.495   2.919   0.652
 7584SOL     OW23650   2.437   0.031   1.544
 7584SOL    HW123651   2.536   0.022   1.534
 7584SOL    HW223652   2.394   6.956   1.540
 7585SOL     OW23653   1.850   2.221   6.251
 7585SOL    HW123654   1.813   2.312   6.235
 7585SOL    HW223655   1.902   2.220   6.336
 7586SOL     OW23656   3.698   1.254   3.548
 7586SOL    HW123657   3.651   1.341   3.565
 7586SOL    HW223658   3.797   1.270   3.545
 7587SOL     OW23659   2.591   1.782   6.743
 7587SOL    HW123660   2.586   1.872   6.701
 7587SOL    HW223661   2.618   1.791   6.839
 7588SOL     OW23662   1.504   3.291   2.453
 7588SOL    HW123663   1.497   3.337   2.365
 7588SOL    HW223664   1.530   3.357   2.524
 7589SOL     OW23665   0.571   0.165   2.046
 7589SOL    HW123666   0.643   0.096   2.039
 7589SOL    HW223667   0.527   0.158   2.135
 7590SOL     OW23668   4.421   1.841   6.686
 7590SOL    HW123669   4.486   1.765   6.673
 7590SOL    HW223670   4.379   1.834   6.776
 7591SOL     OW23671   0.089   3.848   0.334
 7591SOL    HW123672   0.156   3.879   0.267
 7591SOL    HW223673   0.046   3.764   0.301
 7592SOL     OW23674   6.602   3.911   5.916
 7592SOL    HW123675   6.509   3.908   5.953
 7592SOL    HW223676   6.615   3.835   5.853
 7593SOL     OW23677   5.976   2.723   1.272
 7593SOL    HW123678   5.999   2.627   1.287
 7593SOL    HW223679   5.899   2.748   1.330
 7594SOL     OW23680   0.808   5.149   2.213
 7594SOL    HW123681   0.863   5.084   2.160
 7594SOL    HW223682   0.783   5.107   2.300
 7595SOL     OW23683   0.030   2.490   5.580
 7595SOL    HW123684   0.038   2.395   5.609
 7595SOL    HW223685   0.043   2.550   5.659
 7596SOL     OW23686   4.675   5.446   4.014
 7596SOL    HW123687   4.586   5.484   4.038
 7596SOL    HW223688   4.671   5.407   3.922
 7597SOL     OW23689   3.786   6.243   2.804
 7597SOL    HW123690   3.802   6.295   2.888
 7597SOL    HW223691   3.780   6.146   2.826
 7598SOL     OW23692   6.735   1.833   3.200
 7598SOL    HW123693   6.753   1.921   3.156
 7598SOL    HW223694   6.642   1.804   3.179
 7599SOL     OW23695   5.812   1.722   2.504
 7599SOL    HW123696   5.879   1.690   2.436
 7599SOL    HW223697   5.818   1.664   2.585
 7600SOL     OW23698   2.001   1.880   2.507
 7600SOL    HW123699   1.922   1.922   2.464
 7600SOL    HW223700   2.081   1.939   2.496
 7601SOL     OW23701   2.421   5.344   3.224
 7601SOL    HW123702   2.502   5.376   3.272
 7601SOL    HW223703   2.351   5.415   3.225
 7602SOL     OW23704   0.466   4.590   6.468
 7602SOL    HW123705   0.380   4.620   6.510
 7602SOL    HW223706   0.523   4.544   6.537
 7603SOL     OW23707   1.928   5.155   6.021
 7603SOL    HW123708   1.902   5.156   6.117
 7603SOL    HW223709   1.903   5.066   5.981
 7604SOL     OW23710   1.567   4.865   4.249
 7604SOL    HW123711   1.643   4.805   4.222
 7604SOL    HW223712   1.567   4.947   4.192
 7605SOL     OW23713   0.399   6.995   1.214
 7605SOL    HW123714   0.328   6.969   1.279
 7605SOL    HW223715   0.358   7.009   1.124
 7606SOL     OW23716   6.133   3.544   4.153
 7606SOL    HW123717   6.107   3.604   4.228
 7606SOL    HW223718   6.232   3.550   4.137
 7607SOL     OW23719   3.970   5.007   0.246
 7607SOL    HW123720   3.985   4.920   0.198
 7607SOL    HW223721   3.887   5.001   0.300
 7608SOL     OW23722   3.964   3.871   2.791
 7608SOL    HW123723   4.002   3.791   2.745
 7608SOL    HW223724   3.925   3.933   2.723
 7609SOL     OW23725   1.149   3.388   4.246
 7609SOL    HW123726   1.218   3.380   4.175
 7609SOL    HW223727   1.189   3.431   4.327
 7610SOL     OW23728   5.484   6.146   0.045
 7610SOL    HW123729   5.542   6.182   0.118
 7610SOL    HW223730   5.542   6.107   6.989
 7611SOL     OW23731   0.105   1.917   0.754
 7611SOL    HW123732   0.204   1.908   0.757
 7611SOL    HW223733   0.064   1.858   0.824
 7612SOL     OW23734   5.196   3.241   4.641
 7612SOL    HW123735   5.111   3.229   4.693
 7612SOL    HW223736   5.177   3.294   4.558
 7613SOL     OW23737   6.660   3.512   1.266
 7613SOL    HW123738   6.703   3.423   1.280
 7613SOL    HW223739   6.561   3.504   1.278
 7614SOL     OW23740   4.792   3.540   0.967
 7614SOL    HW123741   4.747   3.454   0.992
 7614SOL    HW223742   4.735   3.589   0.902
 7615SOL     OW23743   3.316   4.445   6.939
 7615SOL    HW123744   3.386   4.455   7.009
 7615SOL    HW223745   3.291   4.349   6.930
 7616SOL     OW23746   6.083   5.153   5.349
 7616SOL    HW123747   6.027   5.232   5.321
 7616SOL    HW223748   6.089   5.150   5.449
 7617SOL     OW23749   3.463   5.411   2.958
 7617SOL    HW123750   3.387   5.477   2.958
 7617SOL    HW223751   3.477   5.377   2.865
 7618SOL     OW23752   0.318   1.428   5.679
 7618SOL    HW123753   0.375   1.453   5.601
 7618SOL    HW223754   0.338   1.334   5.707
 7619SOL     OW23755   5.712   2.570   5.290
 7619SOL    HW123756   5.650   2.634   5.336
 7619SOL    HW223757   5.717   2.592   5.193
 7620SOL     OW23758   4.327   5.712   0.791
 7620SOL    HW123759   4.232   5.690   0.771
 7620SOL    HW223760   4.375   5.730   0.705
 7621SOL     OW23761   0.060   1.597   0.776
 7621SOL    HW123762   0.129   1.551   0.832
 7621SOL    HW223763   0.104   1.648   0.703
 7622SOL     OW23764   5.059   5.512   1.372
 7622SOL    HW123765   5.071   5.561   1.285
 7622SOL    HW223766   5.010   5.427   1.355
 7623SOL     OW23767   4.785   4.480   6.729
 7623SOL    HW123768   4.863   4.425   6.759
 7623SOL    HW223769   4.706   4.459   6.786
 7624SOL     OW23770   0.515   3.256   5.013
 7624SOL    HW123771   0.558   3.191   4.949
 7624SOL    HW223772   0.452   3.206   5.073
 7625SOL     OW23773   4.434   0.793   1.679
 7625SOL    HW123774   4.533   0.782   1.664
 7625SOL    HW223775   4.405   0.881   1.641
 7626SOL     OW23776   5.938   0.131   4.167
 7626SOL    HW123777   5.856   0.078   4.188
 7626SOL    HW223778   5.982   0.094   4.085
 7627SOL     OW23779   5.400   2.546   0.229
 7627SOL    HW123780   5.452   2.482   0.286
 7627SOL    HW223781   5.429   2.536   0.134
 7628SOL     OW23782   3.468   1.336   2.633
 7628SOL    HW123783   3.517   1.338   2.720
 7628SOL    HW223784   3.511   1.400   2.569
 7629SOL     OW23785   6.586   6.476   3.231
 7629SOL    HW123786   6.567   6.526   3.315
 7629SOL    HW223787   6.541   6.520   3.154
 7630SOL     OW23788   6.640   6.546   1.705
 7630SOL    HW123789   6.621   6.456   1.666
 7630SOL    HW223790   6.555   6.598   1.710
 7631SOL     OW23791   1.078   1.483   6.223
 7631SOL    HW123792   1.052   1.504   6.129
 7631SOL    HW223793   1.177   1.468   6.228
 7632SOL     OW23794   3.225   2.787   1.936
 7632SOL    HW123795   3.223   2.721   2.012
 7632SOL    HW223796   3.241   2.738   1.850
 7633SOL     OW23797   4.871   1.113   1.383
 7633SOL    HW123798   4.917   1.094   1.469
 7633SOL    HW223799   4.938   1.147   1.317
 7634SOL     OW23800   1.194   1.759   2.796
 7634SOL    HW123801   1.136   1.745   2.715
 7634SOL    HW223802   1.281   1.712   2.783
 7635SOL     OW23803   3.611   5.066   5.127
 7635SOL    HW123804   3.639   4.993   5.191
 7635SOL    HW223805   3.687   5.130   5.116
 7636SOL     OW23806   1.223   2.184   4.218
 7636SOL    HW123807   1.208   2.192   4.119
 7636SOL    HW223808   1.321   2.181   4.236
 7637SOL     OW23809   2.612   5.180   2.351
 7637SOL    HW123810   2.647   5.104   2.406
 7637SOL    HW223811   2.560   5.144   2.274
 7638SOL     OW23812   3.111   6.412   0.771
 7638SOL    HW123813   3.105   6.324   0.818
 7638SOL    HW223814   3.130   6.484   0.837
 7639SOL     OW23815   1.405   2.129   0.824
 7639SOL    HW123816   1.395   2.156   0.728
 7639SOL    HW223817   1.315   2.109   0.863
 7640SOL     OW23818   3.276   2.226   6.566
 7640SOL    HW123819   3.354   2.165   6.557
 7640SOL    HW223820   3.264   2.278   6.481
 7641SOL     OW23821   1.701   4.631   1.898
 7641SOL    HW123822   1.777   4.692   1.919
 7641SOL    HW223823   1.734   4.557   1.838
 7642SOL     OW23824   3.791   0.731   2.722
 7642SOL    HW123825   3.772   0.654   2.661
 7642SOL    HW223826   3.740   0.811   2.691
 7643SOL     OW23827   4.907   3.441   4.229
 7643SOL    HW123828   4.883   3.503   4.303
 7643SOL    HW223829   4.881   3.347   4.254
 7644SOL     OW23830   5.751   2.524   2.067
 7644SOL    HW123831   5.741   2.614   2.026
 7644SOL    HW223832   5.848   2.506   2.084
 7645SOL     OW23833   3.991   4.174   5.629
 7645SOL    HW123834   4.038   4.086   5.621
 7645SOL    HW223835   3.894   4.161   5.612
 7646SOL     OW23836   1.171   4.044   3.021
 7646SOL    HW123837   1.211   3.990   3.095
 7646SOL    HW223838   1.202   4.007   2.933
 7647SOL     OW23839   6.677   3.496   3.115
 7647SOL    HW123840   6.619   3.502   3.197
 7647SOL    HW223841   6.638   3.428   3.053
 7648SOL     OW23842   2.462   1.597   3.168
 7648SOL    HW123843   2.561   1.609   3.166
 7648SOL    HW223844   2.440   1.499   3.174
 7649SOL     OW23845   1.092   0.611   2.957
 7649SOL    HW123846   1.097   0.587   3.054
 7649SOL    HW223847   1.167   0.673   2.934
 7650SOL     OW23848   5.170   2.254   1.001
 7650SOL    HW123849   5.071   2.254   1.007
 7650SOL    HW223850   5.203   2.159   0.995
 7651SOL     OW23851   2.343   0.944   4.393
 7651SOL    HW123852   2.285   1.025   4.399
 7651SOL    HW223853   2.400   0.949   4.311
 7652SOL     OW23854   6.040   3.505   4.535
 7652SOL    HW123855   6.037   3.442   4.458
 7652SOL    HW223856   6.037   3.599   4.500
 7653SOL     OW23857   1.754   2.390   0.011
 7653SOL    HW123858   1.655   2.377   0.007
 7653SOL    HW223859   1.779   2.422   0.103
 7654SOL     OW23860   4.755   2.870   3.497
 7654SOL    HW123861   4.853   2.850   3.498
 7654SOL    HW223862   4.741   2.967   3.479
 7655SOL     OW23863   4.680   0.290   2.980
 7655SOL    HW123864   4.657   0.271   3.075
 7655SOL    HW223865   4.765   0.244   2.956
 7656SOL     OW23866   2.093   4.661   5.969
 7656SOL    HW123867   2.102   4.751   5.927
 7656SOL    HW223868   2.098   4.669   6.068
 7657SOL     OW23869   1.786   2.830   4.209
 7657SOL    HW123870   1.842   2.766   4.263
 7657SOL    HW223871   1.846   2.885   4.151
 7658SOL     OW23872   3.560   0.010   5.912
 7658SOL    HW123873   3.498   0.002   5.834
 7658SOL    HW223874   3.518   6.984   5.993
 7659SOL     OW23875   5.618   5.579   6.614
 7659SOL    HW123876   5.518   5.573   6.625
 7659SOL    HW223877   5.648   5.517   6.542
 7660SOL     OW23878   0.440   5.750   3.797
 7660SOL    HW123879   0.468   5.833   3.749
 7660SOL    HW223880   0.500   5.736   3.876
 7661SOL     OW23881   6.060   2.681   4.470
 7661SOL    HW123882   6.035   2.777   4.457
 7661SOL    HW223883   6.053   2.633   4.383
 7662SOL     OW23884   0.970   3.152   2.476
 7662SOL    HW123885   1.052   3.168   2.531
 7662SOL    HW223886   0.993   3.158   2.379
 7663SOL     OW23887   1.288   5.642   6.401
 7663SOL    HW123888   1.208   5.618   6.455
 7663SOL    HW223889   1.259   5.685   6.315
 7664SOL     OW23890   3.728   0.238   1.189
 7664SOL    HW123891   3.724   0.138   1.180
 7664SOL    HW223892   3.688   0.280   1.108
 7665SOL     OW23893   4.972   0.253   5.105
 7665SOL    HW123894   4.947   0.163   5.140
 7665SOL    HW223895   4.889   0.308   5.092
 7666SOL     OW23896   0.170   5.973   1.391
 7666SOL    HW123897   0.183   5.995   1.488
 7666SOL    HW223898   0.110   6.041   1.349
 7667SOL     OW23899   4.957   6.119   2.627
 7667SOL    HW123900   4.876   6.060   2.621
 7667SOL    HW223901   5.039   6.066   2.608
 7668SOL     OW23902   3.536   4.954   0.614
 7668SOL    HW123903   3.483   5.037   0.600
 7668SOL    HW223904   3.543   4.935   0.712
 7669SOL     OW23905   4.944   1.959   5.593
 7669SOL    HW123906   4.895   1.979   5.678
 7669SOL    HW223907   5.025   2.016   5.587
 7670SOL     OW23908   0.853   5.330   6.751
 7670SOL    HW123909   0.868   5.408   6.811
 7670SOL    HW223910   0.771   5.345   6.695
 7671SOL     OW23911   4.466   0.892   2.947
 7671SOL    HW123912   4.448   0.978   2.899
 7671SOL    HW223913   4.470   0.817   2.881
 7672SOL     OW23914   0.380   6.994   2.942
 7672SOL    HW123915   0.303   6.963   2.999
 7672SOL    HW223916   0.436   0.042   2.995
 7673SOL     OW23917   1.641   5.746   0.019
 7673SOL    HW123918   1.607   5.703   6.952
 7673SOL    HW223919   1.638   5.846   0.009
 7674SOL     OW23920   5.628   1.399   3.353
 7674SOL    HW123921   5.681   1.451   3.286
 7674SOL    HW223922   5.690   1.350   3.414
 7675SOL     OW23923   6.323   7.010   2.159
 7675SOL    HW123924   6.278   0.032   2.078
 7675SOL    HW223925   6.362   6.920   2.137
 7676SOL     OW23926   1.854   1.700   1.013
 7676SOL    HW123927   1.950   1.722   1.032
 7676SOL    HW223928   1.797   1.777   1.042
 7677SOL     OW23929   0.385   5.165   2.177
 7677SOL    HW123930   0.286   5.175   2.187
 7677SOL    HW223931   0.409   5.068   2.179
 7678SOL     OW23932   1.902   2.102   4.780
 7678SOL    HW123933   1.865   2.141   4.696
 7678SOL    HW223934   1.835   2.041   4.821
 7679SOL     OW23935   2.516   5.486   6.654
 7679SOL    HW123936   2.520   5.438   6.567
 7679SOL    HW223937   2.508   5.584   6.638
 7680SOL     OW23938   1.842   1.563   0.759
 7680SOL    HW123939   1.772   1.567   0.688
 7680SOL    HW223940   1.809   1.608   0.842
 7681SOL     OW23941   2.009   0.133   1.383
 7681SOL    HW123942   1.984   0.055   1.441
 7681SOL    HW223943   1.925   0.176   1.348
 7682SOL     OW23944   3.481   6.843   2.743
 7682SOL    HW123945   3.412   6.792   2.692
 7682SOL    HW223946   3.506   6.791   2.825
 7683SOL     OW23947   5.523   1.485   3.668
 7683SOL    HW123948   5.445   1.535   3.706
 7683SOL    HW223949   5.499   1.450   3.577
 7684SOL     OW23950   3.800   2.089   1.769
 7684SOL    HW123951   3.767   2.137   1.850
 7684SOL    HW223952   3.744   2.113   1.690
 7685SOL     OW23953   3.313   2.519   6.737
 7685SOL    HW123954   3.331   2.430   6.779
 7685SOL    HW223955   3.375   2.588   6.775
 7686SOL     OW23956   6.775   6.624   3.004
 7686SOL    HW123957   6.724   6.677   2.936
 7686SOL    HW223958   6.766   6.668   3.093
 7687SOL     OW23959   5.818   4.930   3.968
 7687SOL    HW123960   5.807   5.022   4.006
 7687SOL    HW223961   5.735   4.877   3.984
 7688SOL     OW23962   1.497   5.970   6.250
 7688SOL    HW123963   1.410   5.924   6.239
 7688SOL    HW223964   1.547   5.931   6.328
 7689SOL     OW23965   5.842   6.466   3.135
 7689SOL    HW123966   5.755   6.472   3.085
 7689SOL    HW223967   5.902   6.539   3.104
 7690SOL     OW23968   5.611   4.927   0.657
 7690SOL    HW123969   5.618   4.931   0.557
 7690SOL    HW223970   5.586   4.835   0.685
 7691SOL     OW23971   5.455   2.671   5.117
 7691SOL    HW123972   5.400   2.751   5.092
 7691SOL    HW223973   5.403   2.613   5.179
 7692SOL     OW23974   0.357   6.458   2.111
 7692SOL    HW123975   0.335   6.372   2.157
 7692SOL    HW223976   0.436   6.444   2.051
 7693SOL     OW23977   4.089   0.089   1.180
 7693SOL    HW123978   4.079   7.006   1.171
 7693SOL    HW223979   4.084   0.131   1.089
 7694SOL     OW23980   0.197   4.650   5.247
 7694SOL    HW123981   0.135   4.721   5.282
 7694SOL    HW223982   0.223   4.673   5.153
 7695SOL     OW23983   4.334   0.401   0.864
 7695SOL    HW123984   4.332   0.408   0.764
 7695SOL    HW223985   4.355   0.491   0.903
 7696SOL     OW23986   6.708   0.671   4.777
 7696SOL    HW123987   6.800   0.707   4.793
 7696SOL    HW223988   6.690   0.668   4.679
 7697SOL     OW23989   3.321   6.775   2.512
 7697SOL    HW123990   3.250   6.802   2.447
 7697SOL    HW223991   3.407   6.818   2.486
 7698SOL     OW23992   6.530   1.866   3.794
 7698SOL    HW123993   6.440   1.909   3.795
 7698SOL    HW223994   6.553   1.838   3.701
 7699SOL     OW23995   3.497   5.819   0.027
 7699SOL    HW123996   3.554   5.737   0.022
 7699SOL    HW223997   3.444   5.817   0.111
 7700SOL     OW23998   5.322   6.189   4.477
 7700SOL    HW123999   5.384   6.242   4.420
 7700SOL    HW224000   5.269   6.251   4.535
 7701SOL     OW24001   6.589   1.304   7.008
 7701SOL    HW124002   6.654   1.291   0.067
 7701SOL    HW224003   6.635   1.289   6.921
 7702SOL     OW24004   3.701   6.553   5.332
 7702SOL    HW124005   3.649   6.605   5.399
 7702SOL    HW224006   3.654   6.554   5.244
 7703SOL     OW24007   6.047   0.418   6.133
 7703SOL    HW124008   6.127   0.442   6.188
 7703SOL    HW224009   6.028   0.491   6.067
 7704SOL     OW24010   5.884   5.466   4.938
 7704SOL    HW124011   5.907   5.378   4.896
 7704SOL    HW224012   5.787   5.465   4.964
 7705SOL     OW24013   3.619   5.558   6.566
 7705SOL    HW124014   3.612   5.634   6.630
 7705SOL    HW224015   3.532   5.545   6.519
 7706SOL     OW24016   4.219   3.231   5.373
 7706SOL    HW124017   4.315   3.238   5.347
 7706SOL    HW224018   4.188   3.136   5.360
 7707SOL     OW24019   0.256   5.594   6.239
 7707SOL    HW124020   0.213   5.554   6.159
 7707SOL    HW224021   0.341   5.639   6.211
 7708SOL     OW24022   0.059   0.034   5.408
 7708SOL    HW124023   6.975   0.041   5.416
 7708SOL    HW224024   0.101   0.114   5.450
 7709SOL     OW24025   6.201   4.467   1.669
 7709SOL    HW124026   6.181   4.370   1.658
 7709SOL    HW224027   6.254   4.499   1.590
 7710SOL     OW24028   2.838   0.826   0.289
 7710SOL    HW124029   2.909   0.811   0.358
 7710SOL    HW224030   2.857   0.770   0.208
 7711SOL     OW24031   6.454   6.521   5.906
 7711SOL    HW124032   6.433   6.524   6.003
 7711SOL    HW224033   6.503   6.604   5.879
 7712SOL     OW24034   5.684   6.172   2.483
 7712SOL    HW124035   5.780   6.197   2.471
 7712SOL    HW224036   5.646   6.143   2.395
 7713SOL     OW24037   1.416   4.305   0.496
 7713SOL    HW124038   1.482   4.258   0.554
 7713SOL    HW224039   1.343   4.242   0.471
 7714SOL     OW24040   5.941   4.207   5.841
 7714SOL    HW124041   6.026   4.261   5.838
 7714SOL    HW224042   5.962   4.114   5.870
 7715SOL     OW24043   4.106   2.067   0.415
 7715SOL    HW124044   4.097   2.164   0.391
 7715SOL    HW224045   4.025   2.018   0.386
 7716SOL     OW24046   6.038   4.458   2.861
 7716SOL    HW124047   6.052   4.552   2.831
 7716SOL    HW224048   6.121   4.405   2.847
 7717SOL     OW24049   1.707   1.024   4.924
 7717SOL    HW124050   1.723   1.114   4.965
 7717SOL    HW224051   1.611   1.016   4.896
 7718SOL     OW24052   1.303   2.744   3.428
 7718SOL    HW124053   1.401   2.741   3.408
 7718SOL    HW224054   1.251   2.725   3.344
 7719SOL     OW24055   6.650   4.576   5.074
 7719SOL    HW124056   6.617   4.594   4.981
 7719SOL    HW224057   6.661   4.478   5.087
 7720SOL     OW24058   0.587   1.333   0.112
 7720SOL    HW124059   0.655   1.335   0.185
 7720SOL    HW224060   0.590   1.419   0.061
 7721SOL     OW24061   0.312   5.357   2.789
 7721SOL    HW124062   0.290   5.408   2.872
 7721SOL    HW224063   0.264   5.397   2.711
 7722SOL     OW24064   1.112   5.319   3.508
 7722SOL    HW124065   1.147   5.412   3.496
 7722SOL    HW224066   1.174   5.254   3.464
 7723SOL     OW24067   4.525   3.242   6.923
 7723SOL    HW124068   4.555   3.234   0.002
 7723SOL    HW224069   4.507   3.338   6.902
 7724SOL     OW24070   3.065   4.040   0.845
 7724SOL    HW124071   2.969   4.037   0.818
 7724SOL    HW224072   3.077   3.991   0.931
 7725SOL     OW24073   6.570   2.097   3.537
 7725SOL    HW124074   6.555   2.191   3.504
 7725SOL    HW224075   6.521   2.033   3.477
 7726SOL     OW24076   1.945   5.748   5.264
 7726SOL    HW124077   1.938   5.651   5.288
 7726SOL    HW224078   1.853   5.788   5.259
 7727SOL     OW24079   0.082   1.026   3.060
 7727SOL    HW124080   0.113   0.949   3.004
 7727SOL    HW224081   7.005   1.051   3.034
 7728SOL     OW24082   1.166   4.815   3.350
 7728SOL    HW124083   1.068   4.822   3.367
 7728SOL    HW224084   1.208   4.757   3.420
 7729SOL     OW24085   5.804   2.693   1.482
 7729SOL    HW124086   5.713   2.729   1.503
 7729SOL    HW224087   5.866   2.713   1.558
 7730SOL     OW24088   5.765   5.939   0.882
 7730SOL    HW124089   5.840   5.995   0.845
 7730SOL    HW224090   5.798   5.886   0.960
 7731SOL     OW24091   6.192   0.723   6.719
 7731SOL    HW124092   6.229   0.647   6.773
 7731SOL    HW224093   6.109   0.758   6.762
 7732SOL     OW24094   4.339   6.546   0.806
 7732SOL    HW124095   4.420   6.532   0.864
 7732SOL    HW224096   4.320   6.462   0.755
 7733SOL     OW24097   4.664   6.090   2.254
 7733SOL    HW124098   4.680   6.107   2.157
 7733SOL    HW224099   4.725   6.149   2.308
 7734SOL     OW24100   2.753   5.064   3.250
 7734SOL    HW124101   2.778   5.154   3.213
 7734SOL    HW224102   2.829   5.001   3.236
 7735SOL     OW24103   4.662   6.453   6.776
 7735SOL    HW124104   4.666   6.373   6.836
 7735SOL    HW224105   4.584   6.445   6.714
 7736SOL     OW24106   3.340   3.524   0.011
 7736SOL    HW124107   3.308   3.454   0.075
 7736SOL    HW224108   3.311   3.614   0.043
 7737SOL     OW24109   3.162   6.973   2.393
 7737SOL    HW124110   3.193   6.948   2.301
 7737SOL    HW224111   3.071   6.936   2.409
 7738SOL     OW24112   2.563   5.966   6.928
 7738SOL    HW124113   2.491   5.944   6.862
 7738SOL    HW224114   2.557   5.903   7.005
 7739SOL     OW24115   0.739   2.567   1.029
 7739SOL    HW124116   0.779   2.512   1.103
 7739SOL    HW224117   0.772   2.661   1.037
 7740SOL     OW24118   2.301   1.287   2.668
 7740SOL    HW124119   2.288   1.254   2.574
 7740SOL    HW224120   2.217   1.272   2.720
 7741SOL     OW24121   1.151   4.865   6.269
 7741SOL    HW124122   1.182   4.928   6.340
 7741SOL    HW224123   1.173   4.771   6.297
 7742SOL     OW24124   4.757   2.008   3.373
 7742SOL    HW124125   4.720   1.918   3.395
 7742SOL    HW224126   4.697   2.079   3.410
 7743SOL     OW24127   6.137   1.531   0.328
 7743SOL    HW124128   6.108   1.508   0.235
 7743SOL    HW224129   6.087   1.475   0.393
 7744SOL     OW24130   0.958   6.635   3.535
 7744SOL    HW124131   0.991   6.707   3.596
 7744SOL    HW224132   0.863   6.655   3.509
 7745SOL     OW24133   3.639   1.197   6.599
 7745SOL    HW124134   3.624   1.296   6.597
 7745SOL    HW224135   3.656   1.168   6.693
 7746SOL     OW24136   2.143   6.678   0.256
 7746SOL    HW124137   2.120   6.614   0.328
 7746SOL    HW224138   2.125   6.637   0.167
 7747SOL     OW24139   5.551   5.738   1.209
 7747SOL    HW124140   5.514   5.811   1.153
 7747SOL    HW224141   5.530   5.756   1.305
 7748SOL     OW24142   2.898   3.791   4.671
 7748SOL    HW124143   2.911   3.795   4.770
 7748SOL    HW224144   2.894   3.695   4.642
 7749SOL     OW24145   2.519   2.495   5.840
 7749SOL    HW124146   2.424   2.462   5.841
 7749SOL    HW224147   2.580   2.422   5.869
 7750SOL     OW24148   0.101   6.037   1.657
 7750SOL    HW124149   0.048   6.122   1.655
 7750SOL    HW224150   0.194   6.057   1.686
 7751SOL     OW24151   1.311   2.601   1.898
 7751SOL    HW124152   1.381   2.571   1.833
 7751SOL    HW224153   1.227   2.550   1.881
 7752SOL     OW24154   5.378   6.946   5.962
 7752SOL    HW124155   5.436   6.921   5.884
 7752SOL    HW224156   5.362   0.029   5.960
 7753SOL     OW24157   2.725   1.536   3.741
 7753SOL    HW124158   2.684   1.588   3.667
 7753SOL    HW224159   2.814   1.501   3.712
 7754SOL     OW24160   3.201   6.351   1.056
 7754SOL    HW124161   3.223   6.324   1.150
 7754SOL    HW224162   3.173   6.270   1.005
 7755SOL     OW24163   2.315   2.061   5.537
 7755SOL    HW124164   2.378   1.986   5.516
 7755SOL    HW224165   2.343   2.142   5.485
 7756SOL     OW24166   2.845   6.283   2.829
 7756SOL    HW124167   2.848   6.263   2.731
 7756SOL    HW224168   2.840   6.197   2.880
 7757SOL     OW24169   5.608   4.831   0.372
 7757SOL    HW124170   5.593   4.737   0.402
 7757SOL    HW224171   5.687   4.835   0.310
 7758SOL     OW24172   2.275   0.201   5.750
 7758SOL    HW124173   2.235   0.109   5.747
 7758SOL    HW224174   2.213   0.265   5.706
 7759SOL     OW24175   1.769   2.144   5.608
 7759SOL    HW124176   1.766   2.044   5.612
 7759SOL    HW224177   1.838   2.173   5.542
 7760SOL     OW24178   6.169   3.633   2.442
 7760SOL    HW124179   6.255   3.583   2.443
 7760SOL    HW224180   6.117   3.608   2.360
 7761SOL     OW24181   6.180   6.804   4.846
 7761SOL    HW124182   6.233   6.820   4.929
 7761SOL    HW224183   6.092   6.851   4.852
 7762SOL     OW24184   2.280   0.163   4.312
 7762SOL    HW124185   2.300   0.261   4.317
 7762SOL    HW224186   2.198   0.143   4.367
 7763SOL     OW24187   2.301   0.077   0.023
 7763SOL    HW124188   2.296   0.014   0.100
 7763SOL    HW224189   2.222   0.139   0.025
 7764SOL     OW24190   3.605   3.388   5.133
 7764SOL    HW124191   3.682   3.377   5.196
 7764SOL    HW224192   3.592   3.485   5.112
 7765SOL     OW24193   5.875   3.745   4.624
 7765SOL    HW124194   5.969   3.751   4.657
 7765SOL    HW224195   5.862   3.809   4.548
 7766SOL     OW24196   6.662   4.062   6.966
 7766SOL    HW124197   6.566   4.087   6.963
 7766SOL    HW224198   6.719   4.144   6.956
 7767SOL     OW24199   4.971   5.804   2.710
 7767SOL    HW124200   4.893   5.866   2.720
 7767SOL    HW224201   4.947   5.715   2.750
 7768SOL     OW24202   4.516   4.512   2.959
 7768SOL    HW124203   4.491   4.554   3.046
 7768SOL    HW224204   4.565   4.427   2.976
 7769SOL     OW24205   4.368   1.675   3.555
 7769SOL    HW124206   4.410   1.727   3.630
 7769SOL    HW224207   4.273   1.654   3.578
 7770SOL     OW24208   1.659   3.837   4.807
 7770SOL    HW124209   1.563   3.863   4.823
 7770SOL    HW224210   1.662   3.745   4.768
 7771SOL     OW24211   3.508   1.787   5.227
 7771SOL    HW124212   3.470   1.705   5.269
 7771SOL    HW224213   3.449   1.865   5.246
 7772SOL     OW24214   4.776   6.938   1.673
 7772SOL    HW124215   4.699   6.881   1.646
 7772SOL    HW224216   4.769   6.961   1.770
 7773SOL     OW24217   2.207   5.139   5.266
 7773SOL    HW124218   2.301   5.149   5.299
 7773SOL    HW224219   2.196   5.049   5.225
 7774SOL     OW24220   4.962   2.151   4.636
 7774SOL    HW124221   5.000   2.110   4.718
 7774SOL    HW224222   5.001   2.108   4.555
 7775SOL     OW24223   4.392   6.709   0.470
 7775SOL    HW124224   4.418   6.804   0.455
 7775SOL    HW224225   4.428   6.678   0.558
 7776SOL     OW24226   0.595   6.013   6.868
 7776SOL    HW124227   0.524   5.993   6.800
 7776SOL    HW224228   0.553   6.048   6.951
 7777SOL     OW24229   6.055   5.549   3.985
 7777SOL    HW124230   6.064   5.490   3.905
 7777SOL    HW224231   5.984   5.618   3.968
 7778SOL     OW24232   5.554   3.651   0.983
 7778SOL    HW124233   5.472   3.593   0.984
 7778SOL    HW224234   5.634   3.593   0.966
 7779SOL     OW24235   2.466   1.994   1.287
 7779SOL    HW124236   2.503   1.922   1.346
 7779SOL    HW224237   2.531   2.070   1.282
 7780SOL     OW24238   0.601   4.802   5.991
 7780SOL    HW124239   0.680   4.853   6.024
 7780SOL    HW224240   0.549   4.767   6.069
 7781SOL     OW24241   2.204   4.567   1.631
 7781SOL    HW124242   2.163   4.579   1.722
 7781SOL    HW224243   2.164   4.487   1.587
 7782SOL     OW24244   5.310   4.975   4.654
 7782SOL    HW124245   5.354   4.954   4.742
 7782SOL    HW224246   5.225   4.923   4.646
 7783SOL     OW24247   0.652   0.009   5.725
 7783SOL    HW124248   0.646   0.045   5.818
 7783SOL    HW224249   0.588   0.060   5.666
 7784SOL     OW24250   3.567   2.819   1.938
 7784SOL    HW124251   3.615   2.758   1.876
 7784SOL    HW224252   3.594   2.800   2.033
 7785SOL     OW24253   1.964   6.098   4.813
 7785SOL    HW124254   2.017   6.171   4.768
 7785SOL    HW224255   1.907   6.137   4.885
 7786SOL     OW24256   3.419   0.038   0.543
 7786SOL    HW124257   3.357   0.031   0.622
 7786SOL    HW224258   3.374   0.089   0.470
 7787SOL     OW24259   2.401   3.164   0.043
 7787SOL    HW124260   2.356   3.113   6.986
 7787SOL    HW224261   2.333   3.213   0.097
 7788SOL     OW24262   1.611   5.100   1.336
 7788SOL    HW124263   1.540   5.071   1.400
 7788SOL    HW224264   1.701   5.094   1.381
 7789SOL     OW24265   2.786   0.301   6.572
 7789SOL    HW124266   2.703   0.351   6.545
 7789SOL    HW224267   2.764   0.238   6.647
 7790SOL     OW24268   5.392   5.828   2.501
 7790SOL    HW124269   5.472   5.866   2.455
 7790SOL    HW224270   5.393   5.729   2.493
 7791SOL     OW24271   2.110   5.459   2.897
 7791SOL    HW124272   2.068   5.368   2.896
 7791SOL    HW224273   2.057   5.519   2.956
 7792SOL     OW24274   1.981   5.682   4.419
 7792SOL    HW124275   1.947   5.762   4.469
 7792SOL    HW224276   2.040   5.628   4.479
 7793SOL     OW24277   3.847   0.877   0.270
 7793SOL    HW124278   3.760   0.879   0.320
 7793SOL    HW224279   3.832   0.902   0.175
 7794SOL     OW24280   0.051   4.021   2.354
 7794SOL    HW124281   7.002   3.950   2.327
 7794SOL    HW224282   0.116   3.984   2.420
 7795SOL     OW24283   2.247   4.676   5.370
 7795SOL    HW124284   2.212   4.583   5.364
 7795SOL    HW224285   2.265   4.699   5.466
 7796SOL     OW24286   3.570   3.013   5.010
 7796SOL    HW124287   3.522   2.933   4.972
 7796SOL    HW224288   3.515   3.095   4.993
 7797SOL     OW24289   1.018   5.875   1.913
 7797SOL    HW124290   1.050   5.955   1.862
 7797SOL    HW224291   1.055   5.877   2.005
 7798SOL     OW24292   1.104   3.012   3.364
 7798SOL    HW124293   1.123   2.914   3.365
 7798SOL    HW224294   1.123   3.051   3.455
 7799SOL     OW24295   1.837   5.353   2.615
 7799SOL    HW124296   1.905   5.281   2.600
 7799SOL    HW224297   1.769   5.321   2.682
 7800SOL     OW24298   0.862   5.402   2.728
 7800SOL    HW124299   0.769   5.393   2.693
 7800SOL    HW224300   0.888   5.499   2.731
 7801SOL     OW24301   1.933   2.021   2.047
 7801SOL    HW124302   1.940   2.103   1.990
 7801SOL    HW224303   1.905   2.046   2.139
 7802SOL     OW24304   6.780   2.496   0.418
 7802SOL    HW124305   6.729   2.539   0.343
 7802SOL    HW224306   6.875   2.530   0.417
 7803SOL     OW24307   4.370   2.337   0.032
 7803SOL    HW124308   4.415   2.405   6.990
 7803SOL    HW224309   4.355   2.376   0.123
 7804SOL     OW24310   4.395   2.014   5.229
 7804SOL    HW124311   4.431   2.017   5.322
 7804SOL    HW224312   4.325   2.084   5.218
 7805SOL     OW24313   5.151   3.111   1.995
 7805SOL    HW124314   5.061   3.150   1.974
 7805SOL    HW224315   5.162   3.104   2.094
 7806SOL     OW24316   5.914   1.792   5.825
 7806SOL    HW124317   5.913   1.741   5.911
 7806SOL    HW224318   5.876   1.735   5.752
 7807SOL     OW24319   1.169   4.559   6.091
 7807SOL    HW124320   1.175   4.589   6.187
 7807SOL    HW224321   1.127   4.468   6.088
 7808SOL     OW24322   5.894   3.334   3.791
 7808SOL    HW124323   5.911   3.252   3.736
 7808SOL    HW224324   5.888   3.413   3.730
 7809SOL     OW24325   5.434   5.024   5.218
 7809SOL    HW124326   5.391   5.063   5.137
 7809SOL    HW224327   5.487   4.943   5.192
 7810SOL     OW24328   3.604   6.556   5.073
 7810SOL    HW124329   3.576   6.500   4.995
 7810SOL    HW224330   3.692   6.599   5.053
 7811SOL     OW24331   1.470   4.841   2.046
 7811SOL    HW124332   1.503   4.746   2.046
 7811SOL    HW224333   1.394   4.850   2.110
 7812SOL     OW24334   1.113   2.342   4.437
 7812SOL    HW124335   1.105   2.261   4.378
 7812SOL    HW224336   1.106   2.424   4.381
 7813SOL     OW24337   4.336   2.006   1.262
 7813SOL    HW124338   4.294   2.058   1.336
 7813SOL    HW224339   4.355   1.913   1.294
 7814SOL     OW24340   6.667   3.307   3.499
 7814SOL    HW124341   6.635   3.212   3.507
 7814SOL    HW224342   6.605   3.368   3.549
 7815SOL     OW24343   5.807   2.122   3.716
 7815SOL    HW124344   5.724   2.178   3.711
 7815SOL    HW224345   5.797   2.055   3.790
 7816SOL     OW24346   1.424   2.290   6.774
 7816SOL    HW124347   1.406   2.199   6.736
 7816SOL    HW224348   1.344   2.348   6.758
 7817SOL     OW24349   4.640   4.273   4.310
 7817SOL    HW124350   4.614   4.348   4.372
 7817SOL    HW224351   4.737   4.280   4.289
 7818SOL     OW24352   4.947   0.467   2.712
 7818SOL    HW124353   4.933   0.431   2.805
 7818SOL    HW224354   4.870   0.440   2.654
 7819SOL     OW24355   0.273   3.635   3.996
 7819SOL    HW124356   0.270   3.554   3.939
 7819SOL    HW224357   0.362   3.638   4.044
 7820SOL     OW24358   1.897   1.407   5.597
 7820SOL    HW124359   1.877   1.331   5.658
 7820SOL    HW224360   1.996   1.411   5.580
 7821SOL     OW24361   5.681   5.596   0.458
 7821SOL    HW124362   5.684   5.563   0.364
 7821SOL    HW224363   5.589   5.626   0.480
 7822SOL     OW24364   0.980   1.321   6.898
 7822SOL    HW124365   1.052   1.364   6.953
 7822SOL    HW224366   0.969   1.225   6.926
 7823SOL     OW24367   2.896   3.584   5.984
 7823SOL    HW124368   2.819   3.642   6.011
 7823SOL    HW224369   2.978   3.640   5.976
 7824SOL     OW24370   5.691   1.113   3.761
 7824SOL    HW124371   5.616   1.128   3.696
 7824SOL    HW224372   5.721   1.201   3.798
 7825SOL     OW24373   1.084   3.465   0.813
 7825SOL    HW124374   1.058   3.554   0.849
 7825SOL    HW224375   1.016   3.435   0.746
 7826SOL     OW24376   5.629   1.621   6.405
 7826SOL    HW124377   5.613   1.720   6.405
 7826SOL    HW224378   5.563   1.576   6.466
 7827SOL     OW24379   2.366   4.635   1.064
 7827SOL    HW124380   2.318   4.695   1.128
 7827SOL    HW224381   2.343   4.540   1.084
 7828SOL     OW24382   0.407   5.095   1.333
 7828SOL    HW124383   0.347   5.060   1.405
 7828SOL    HW224384   0.485   5.141   1.373
 7829SOL     OW24385   2.262   2.838   0.296
 7829SOL    HW124386   2.239   2.775   0.222
 7829SOL    HW224387   2.190   2.906   0.306
 7830SOL     OW24388   4.280   3.799   5.857
 7830SOL    HW124389   4.270   3.866   5.783
 7830SOL    HW224390   4.257   3.708   5.822
 7831SOL     OW24391   1.306   5.284   1.154
 7831SOL    HW124392   1.261   5.196   1.136
 7831SOL    HW224393   1.276   5.318   1.244
 7832SOL     OW24394   3.484   0.923   4.227
 7832SOL    HW124395   3.581   0.929   4.253
 7832SOL    HW224396   3.437   0.859   4.288
 7833SOL     OW24397   0.910   0.305   0.114
 7833SOL    HW124398   0.836   0.257   0.162
 7833SOL    HW224399   0.980   0.333   0.180
 7834SOL     OW24400   0.125   1.441   3.478
 7834SOL    HW124401   0.103   1.442   3.380
 7834SOL    HW224402   0.065   1.505   3.526
 7835SOL     OW24403   2.412   2.246   4.598
 7835SOL    HW124404   2.348   2.319   4.574
 7835SOL    HW224405   2.402   2.224   4.695
 7836SOL     OW24406   3.353   2.826   5.272
 7836SOL    HW124407   3.304   2.739   5.274
 7836SOL    HW224408   3.292   2.898   5.305
 7837SOL     OW24409   6.789   5.293   1.179
 7837SOL    HW124410   6.789   5.220   1.248
 7837SOL    HW224411   6.881   5.302   1.140
 7838SOL     OW24412   4.271   6.270   0.702
 7838SOL    HW124413   4.259   6.261   0.603
 7838SOL    HW224414   4.347   6.212   0.732
 7839SOL     OW24415   6.083   4.402   5.277
 7839SOL    HW124416   5.987   4.429   5.287
 7839SOL    HW224417   6.110   4.348   5.357
 7840SOL     OW24418   4.960   3.215   4.381
 7840SOL    HW124419   5.041   3.274   4.385
 7840SOL    HW224420   4.931   3.194   4.475
 7841SOL     OW24421   4.831   1.290   6.658
 7841SOL    HW124422   4.751   1.243   6.695
 7841SOL    HW224423   4.831   1.385   6.690
 7842SOL     OW24424   1.941   1.843   2.786
 7842SOL    HW124425   1.947   1.868   2.690
 7842SOL    HW224426   2.020   1.786   2.811
 7843SOL     OW24427   4.745   4.438   2.099
 7843SOL    HW124428   4.676   4.369   2.075
 7843SOL    HW224429   4.719   4.480   2.186
 7844SOL     OW24430   4.579   0.168   3.605
 7844SOL    HW124431   4.593   0.168   3.704
 7844SOL    HW224432   4.578   0.262   3.571
 7845SOL     OW24433   6.016   1.508   4.117
 7845SOL    HW124434   6.042   1.414   4.095
 7845SOL    HW224435   5.937   1.507   4.178
 7846SOL     OW24436   1.550   1.311   1.901
 7846SOL    HW124437   1.561   1.407   1.876
 7846SOL    HW224438   1.458   1.280   1.877
 7847SOL     OW24439   6.554   1.916   2.369
 7847SOL    HW124440   6.586   1.827   2.403
 7847SOL    HW224441   6.525   1.907   2.274
 7848SOL     OW24442   3.309   3.103   1.149
 7848SOL    HW124443   3.251   3.177   1.184
 7848SOL    HW224444   3.271   3.069   1.063
 7849SOL     OW24445   5.090   3.574   3.141
 7849SOL    HW124446   5.040   3.638   3.083
 7849SOL    HW224447   5.127   3.500   3.084
 7850SOL     OW24448   0.572   1.737   3.657
 7850SOL    HW124449   0.648   1.726   3.593
 7850SOL    HW224450   0.498   1.675   3.630
 7851SOL     OW24451   7.004   6.657   0.972
 7851SOL    HW124452   0.025   6.739   0.927
 7851SOL    HW224453   6.905   6.657   0.966
 7852SOL     OW24454   2.591   0.192   5.323
 7852SOL    HW124455   2.492   0.189   5.313
 7852SOL    HW224456   2.614   0.213   5.418
 7853SOL     OW24457   3.766   1.275   1.827
 7853SOL    HW124458   3.688   1.295   1.767
 7853SOL    HW224459   3.739   1.206   1.894
 7854SOL     OW24460   2.653   3.398   0.351
 7854SOL    HW124461   2.711   3.376   0.273
 7854SOL    HW224462   2.617   3.491   0.341
 7855SOL     OW24463   2.965   5.919   5.521
 7855SOL    HW124464   2.914   5.942   5.604
 7855SOL    HW224465   2.946   5.824   5.496
 7856SOL     OW24466   5.466   5.264   4.736
 7856SOL    HW124467   5.542   5.315   4.694
 7856SOL    HW224468   5.394   5.250   4.668
 7857SOL     OW24469   6.132   2.762   5.435
 7857SOL    HW124470   6.213   2.732   5.485
 7857SOL    HW224471   6.157   2.780   5.340
 7858SOL     OW24472   5.000   5.216   3.482
 7858SOL    HW124473   5.054   5.199   3.400
 7858SOL    HW224474   4.959   5.307   3.477
 7859SOL     OW24475   6.294   3.764   5.339
 7859SOL    HW124476   6.230   3.809   5.402
 7859SOL    HW224477   6.386   3.797   5.356
 7860SOL     OW24478   4.228   6.981   2.644
 7860SOL    HW124479   4.149   6.920   2.634
 7860SOL    HW224480   4.304   6.948   2.588
 7861SOL     OW24481   3.822   5.184   1.625
 7861SOL    HW124482   3.749   5.211   1.562
 7861SOL    HW224483   3.871   5.266   1.656
 7862SOL     OW24484   2.973   4.638   1.648
 7862SOL    HW124485   2.928   4.589   1.722
 7862SOL    HW224486   2.975   4.581   1.566
 7863SOL     OW24487   6.785   6.396   4.206
 7863SOL    HW124488   6.748   6.345   4.128
 7863SOL    HW224489   6.863   6.451   4.175
 7864SOL     OW24490   0.088   6.615   5.466
 7864SOL    HW124491   0.146   6.551   5.416
 7864SOL    HW224492   0.082   6.701   5.416
 7865SOL     OW24493   5.117   6.803   4.617
 7865SOL    HW124494   5.055   6.809   4.696
 7865SOL    HW224495   5.119   6.891   4.569
 7866SOL     OW24496   2.276   2.505   0.079
 7866SOL    HW124497   2.332   2.473   0.155
 7866SOL    HW224498   2.263   2.432   0.012
 7867SOL     OW24499   5.422   6.661   2.375
 7867SOL    HW124500   5.368   6.708   2.444
 7867SOL    HW224501   5.436   6.566   2.403
 7868SOL     OW24502   5.779   6.500   2.336
 7868SOL    HW124503   5.809   6.442   2.260
 7868SOL    HW224504   5.849   6.568   2.355
 7869SOL     OW24505   5.369   3.365   7.014
 7869SOL    HW124506   5.444   3.355   6.948
 7869SOL    HW224507   5.388   3.311   0.080
 7870SOL     OW24508   4.618   4.870   4.514
 7870SOL    HW124509   4.683   4.945   4.514
 7870SOL    HW224510   4.591   4.849   4.608
 7871SOL     OW24511   5.414   3.943   2.524
 7871SOL    HW124512   5.386   3.962   2.430
 7871SOL    HW224513   5.347   3.882   2.567
 7872SOL     OW24514   2.311   4.249   2.750
 7872SOL    HW124515   2.320   4.250   2.850
 7872SOL    HW224516   2.401   4.260   2.708
 7873SOL     OW24517   5.128   0.899   5.494
 7873SOL    HW124518   5.199   0.969   5.502
 7873SOL    HW224519   5.140   0.848   5.410
 7874SOL     OW24520   5.070   1.621   0.796
 7874SOL    HW124521   4.980   1.578   0.793
 7874SOL    HW224522   5.069   1.705   0.741
 7875SOL     OW24523   4.510   2.499   6.873
 7875SOL    HW124524   4.566   2.580   6.856
 7875SOL    HW224525   4.464   2.471   6.789
 7876SOL     OW24526   6.897   6.717   5.140
 7876SOL    HW124527   6.861   6.624   5.135
 7876SOL    HW224528   6.840   6.777   5.084
 7877SOL     OW24529   6.641   3.022   3.109
 7877SOL    HW124530   6.705   3.007   3.033
 7877SOL    HW224531   6.598   2.936   3.134
 7878SOL     OW24532   5.024   5.157   3.887
 7878SOL    HW124533   5.003   5.118   3.976
 7878SOL    HW224534   4.940   5.172   3.836
 7879SOL     OW24535   4.849   5.883   3.410
 7879SOL    HW124536   4.810   5.935   3.486
 7879SOL    HW224537   4.907   5.943   3.355
 7880SOL     OW24538   1.468   5.394   0.990
 7880SOL    HW124539   1.419   5.347   1.063
 7880SOL    HW224540   1.504   5.326   0.925
 7881SOL     OW24541   5.554   3.521   4.830
 7881SOL    HW124542   5.650   3.542   4.850
 7881SOL    HW224543   5.535   3.425   4.853
 7882SOL     OW24544   1.703   3.431   2.580
 7882SOL    HW124545   1.709   3.439   2.680
 7882SOL    HW224546   1.764   3.358   2.549
 7883SOL     OW24547   1.524   6.914   1.233
 7883SOL    HW124548   1.567   6.932   1.322
 7883SOL    HW224549   1.492   7.000   1.194
 7884SOL     OW24550   2.113   3.518   3.929
 7884SOL    HW124551   2.115   3.508   4.028
 7884SOL    HW224552   2.107   3.615   3.905
 7885SOL     OW24553   6.094   6.535   1.688
 7885SOL    HW124554   6.179   6.487   1.708
 7885SOL    HW224555   6.026   6.514   1.758
 7886SOL     OW24556   3.991   5.016   1.092
 7886SOL    HW124557   4.061   5.018   1.163
 7886SOL    HW224558   3.951   5.107   1.082
 7887SOL     OW24559   3.194   2.613   5.332
 7887SOL    HW124560   3.191   2.599   5.430
 7887SOL    HW224561   3.172   2.527   5.285
 7888SOL     OW24562   0.203   0.483   5.259
 7888SOL    HW124563   0.166   0.550   5.194
 7888SOL    HW224564   0.165   0.393   5.240
 7889SOL     OW24565   0.813   4.557   6.813
 7889SOL    HW124566   0.771   4.495   6.879
 7889SOL    HW224567   0.896   4.597   6.853
 7890SOL     OW24568   0.343   3.039   4.014
 7890SOL    HW124569   0.268   3.105   4.007
 7890SOL    HW224570   0.400   3.045   3.932
 7891SOL     OW24571   1.813   4.312   5.175
 7891SOL    HW124572   1.816   4.290   5.273
 7891SOL    HW224573   1.832   4.409   5.162
 7892SOL     OW24574   2.002   1.927   3.767
 7892SOL    HW124575   2.096   1.902   3.747
 7892SOL    HW224576   1.999   2.018   3.807
 7893SOL     OW24577   6.351   0.162   1.798
 7893SOL    HW124578   6.310   0.222   1.729
 7893SOL    HW224579   6.285   0.144   1.870
 7894SOL     OW24580   3.550   0.763   0.935
 7894SOL    HW124581   3.588   0.820   1.008
 7894SOL    HW224582   3.608   0.771   0.854
 7895SOL     OW24583   5.091   0.222   4.237
 7895SOL    HW124584   5.094   0.276   4.153
 7895SOL    HW224585   5.085   0.283   4.316
 7896SOL     OW24586   4.442   2.905   1.146
 7896SOL    HW124587   4.430   2.953   1.233
 7896SOL    HW224588   4.356   2.859   1.122
 7897SOL     OW24589   3.428   2.175   1.412
 7897SOL    HW124590   3.441   2.263   1.458
 7897SOL    HW224591   3.423   2.189   1.314
 7898SOL     OW24592   3.867   0.276   3.449
 7898SOL    HW124593   3.948   0.236   3.406
 7898SOL    HW224594   3.816   0.328   3.380
 7899SOL     OW24595   5.614   6.625   1.552
 7899SOL    HW124596   5.639   6.572   1.471
 7899SOL    HW224597   5.554   6.570   1.611
 7900SOL     OW24598   0.824   5.124   1.479
 7900SOL    HW124599   0.839   5.199   1.414
 7900SOL    HW224600   0.855   5.152   1.570
 7901SOL     OW24601   4.362   0.785   6.915
 7901SOL    HW124602   4.270   0.802   6.951
 7901SOL    HW224603   4.401   0.870   6.880
 7902SOL     OW24604   5.966   6.151   2.453
 7902SOL    HW124605   6.018   6.215   2.396
 7902SOL    HW224606   5.944   6.069   2.399
 7903SOL     OW24607   4.792   1.394   3.083
 7903SOL    HW124608   4.701   1.434   3.068
 7903SOL    HW224609   4.852   1.420   3.007
 7904SOL     OW24610   5.642   6.852   2.426
 7904SOL    HW124611   5.667   6.910   2.348
 7904SOL    HW224612   5.554   6.807   2.407
 7905SOL     OW24613   5.977   2.540   0.533
 7905SOL    HW124614   5.907   2.590   0.584
 7905SOL    HW224615   6.059   2.531   0.590
 7906SOL     OW24616   0.672   4.976   0.824
 7906SOL    HW124617   0.768   5.000   0.838
 7906SOL    HW224618   0.641   5.013   0.736
 7907SOL     OW24619   6.270   1.948   3.783
 7907SOL    HW124620   6.254   1.897   3.699
 7907SOL    HW224621   6.204   1.919   3.852
 7908SOL     OW24622   1.527   0.616   6.102
 7908SOL    HW124623   1.624   0.595   6.099
 7908SOL    HW224624   1.482   0.581   6.020
 7909SOL     OW24625   5.023   4.287   3.838
 7909SOL    HW124626   5.116   4.274   3.874
 7909SOL    HW224627   5.000   4.384   3.843
 7910SOL     OW24628   2.450   3.047   0.532
 7910SOL    HW124629   2.530   3.107   0.531
 7910SOL    HW224630   2.428   3.019   0.439
 7911SOL     OW24631   0.855   4.929   0.561
 7911SOL    HW124632   0.944   4.883   0.570
 7911SOL    HW224633   0.858   5.017   0.607
 7912SOL     OW24634   5.867   4.502   0.963
 7912SOL    HW124635   5.850   4.510   0.865
 7912SOL    HW224636   5.840   4.411   0.995
 7913SOL     OW24637   1.329   3.900   1.786
 7913SOL    HW124638   1.256   3.919   1.851
 7913SOL    HW224639   1.328   3.802   1.763
 7914SOL     OW24640   0.126   4.469   0.444
 7914SOL    HW124641   0.127   4.427   0.535
 7914SOL    HW224642   0.213   4.516   0.428
 7915SOL     OW24643   5.218   2.364   2.073
 7915SOL    HW124644   5.297   2.304   2.067
 7915SOL    HW224645   5.136   2.309   2.090
 7916SOL     OW24646   6.843   6.540   5.535
 7916SOL    HW124647   6.929   6.582   5.505
 7916SOL    HW224648   6.855   6.442   5.544
 7917SOL     OW24649   3.653   3.075   5.523
 7917SOL    HW124650   3.606   3.046   5.440
 7917SOL    HW224651   3.696   2.996   5.567
 7918SOL     OW24652   6.326   1.085   4.456
 7918SOL    HW124653   6.337   0.994   4.417
 7918SOL    HW224654   6.413   1.118   4.491
 7919SOL     OW24655   1.640   4.788   3.382
 7919SOL    HW124656   1.710   4.749   3.442
 7919SOL    HW224657   1.585   4.854   3.434
 7920SOL     OW24658   6.408   0.294   0.298
 7920SOL    HW124659   6.491   0.264   0.344
 7920SOL    HW224660   6.419   0.388   0.266
 7921SOL     OW24661   6.313   6.468   1.882
 7921SOL    HW124662   6.366   6.400   1.830
 7921SOL    HW224663   6.286   6.427   1.970
 7922SOL     OW24664   0.523   6.110   0.354
 7922SOL    HW124665   0.569   6.197   0.369
 7922SOL    HW224666   0.454   6.095   0.424
 7923SOL     OW24667   3.903   0.663   6.230
 7923SOL    HW124668   3.933   0.597   6.299
 7923SOL    HW224669   3.868   0.614   6.150
 7924SOL     OW24670   5.164   0.271   2.173
 7924SOL    HW124671   5.078   0.305   2.136
 7924SOL    HW224672   5.174   0.174   2.151
 7925SOL     OW24673   0.844   6.808   0.709
 7925SOL    HW124674   0.868   6.890   0.657
 7925SOL    HW224675   0.917   6.740   0.699
 7926SOL     OW24676   4.162   1.844   6.470
 7926SOL    HW124677   4.244   1.900   6.485
 7926SOL    HW224678   4.082   1.903   6.462
 7927SOL     OW24679   4.272   5.876   2.811
 7927SOL    HW124680   4.201   5.924   2.862
 7927SOL    HW224681   4.239   5.786   2.783
 7928SOL     OW24682   1.198   1.510   3.720
 7928SOL    HW124683   1.122   1.455   3.755
 7928SOL    HW224684   1.165   1.573   3.650
 7929SOL     OW24685   4.140   3.625   5.617
 7929SOL    HW124686   4.237   3.604   5.604
 7929SOL    HW224687   4.087   3.586   5.542
 7930SOL     OW24688   4.642   5.250   5.364
 7930SOL    HW124689   4.551   5.268   5.327
 7930SOL    HW224690   4.640   5.167   5.419
 7931SOL     OW24691   3.246   3.204   0.046
 7931SOL    HW124692   3.263   3.194   6.963
 7931SOL    HW224693   3.182   3.134   0.076
 7932SOL     OW24694   1.089   6.377   6.629
 7932SOL    HW124695   1.135   6.288   6.632
 7932SOL    HW224696   1.102   6.424   6.717
 7933SOL     OW24697   6.644   0.165   6.138
 7933SOL    HW124698   6.637   0.163   6.038
 7933SOL    HW224699   6.738   0.146   6.165
 7934SOL     OW24700   1.707   5.099   6.587
 7934SOL    HW124701   1.741   5.185   6.550
 7934SOL    HW224702   1.625   5.071   6.537
 7935SOL     OW24703   5.856   6.237   1.085
 7935SOL    HW124704   5.893   6.210   0.997
 7935SOL    HW224705   5.915   6.306   1.127
 7936SOL     OW24706   2.740   5.992   2.099
 7936SOL    HW124707   2.718   6.088   2.116
 7936SOL    HW224708   2.833   5.974   2.130
 7937SOL     OW24709   6.632   5.793   3.905
 7937SOL    HW124710   6.667   5.846   3.828
 7937SOL    HW224711   6.543   5.753   3.880
 7938SOL     OW24712   6.415   6.048   4.373
 7938SOL    HW124713   6.507   6.009   4.367
 7938SOL    HW224714   6.348   5.979   4.347
 7939SOL     OW24715   1.980   2.177   5.067
 7939SOL    HW124716   1.971   2.210   4.973
 7939SOL    HW224717   2.034   2.093   5.068
 7940SOL     OW24718   1.686   3.212   1.782
 7940SOL    HW124719   1.695   3.236   1.879
 7940SOL    HW224720   1.747   3.135   1.761
 7941SOL     OW24721   6.193   6.195   1.624
 7941SOL    HW124722   6.183   6.279   1.572
 7941SOL    HW224723   6.286   6.189   1.660
 7942SOL     OW24724   0.109   4.942   2.772
 7942SOL    HW124725   0.127   4.930   2.870
 7942SOL    HW224726   0.152   4.868   2.721
 7943SOL     OW24727   0.634   3.978   6.327
 7943SOL    HW124728   0.689   3.903   6.363
 7943SOL    HW224729   0.686   4.063   6.333
 7944SOL     OW24730   0.618   2.695   0.583
 7944SOL    HW124731   0.698   2.754   0.569
 7944SOL    HW224732   0.625   2.650   0.672
 7945SOL     OW24733   6.560   5.426   1.023
 7945SOL    HW124734   6.491   5.388   0.961
 7945SOL    HW224735   6.594   5.355   1.083
 7946SOL     OW24736   3.589   0.211   5.508
 7946SOL    HW124737   3.524   0.287   5.504
 7946SOL    HW224738   3.627   0.195   5.417
 7947SOL     OW24739   3.037   1.553   5.557
 7947SOL    HW124740   3.086   1.574   5.641
 7947SOL    HW224741   3.028   1.453   5.548
 7948SOL     OW24742   1.116   6.020   1.213
 7948SOL    HW124743   1.156   6.025   1.121
 7948SOL    HW224744   1.037   5.960   1.211
 7949SOL     OW24745   5.161   4.012   5.320
 7949SOL    HW124746   5.093   4.068   5.367
 7949SOL    HW224747   5.169   3.924   5.366
 7950SOL     OW24748   4.915   5.484   4.128
 7950SOL    HW124749   4.824   5.454   4.100
 7950SOL    HW224750   4.982   5.455   4.059
 7951SOL     OW24751   2.302   4.899   2.244
 7951SOL    HW124752   2.388   4.885   2.195
 7951SOL    HW224753   2.286   4.997   2.256
 7952SOL     OW24754   6.781   3.349   6.544
 7952SOL    HW124755   6.819   3.438   6.569
 7952SOL    HW224756   6.688   3.341   6.580
 7953SOL     OW24757   3.671   2.076   2.914
 7953SOL    HW124758   3.646   2.108   2.823
 7953SOL    HW224759   3.768   2.092   2.930
 7954SOL     OW24760   3.222   4.370   6.364
 7954SOL    HW124761   3.252   4.337   6.274
 7954SOL    HW224762   3.302   4.400   6.416
 7955SOL     OW24763   2.904   1.190   6.628
 7955SOL    HW124764   2.992   1.160   6.666
 7955SOL    HW224765   2.917   1.274   6.576
 7956SOL     OW24766   4.794   6.557   2.074
 7956SOL    HW124767   4.723   6.554   2.004
 7956SOL    HW224768   4.853   6.636   2.058
 7957SOL     OW24769   1.155   0.586   0.952
 7957SOL    HW124770   1.249   0.612   0.974
 7957SOL    HW224771   1.135   0.610   0.857
 7958SOL     OW24772   4.242   5.111   5.803
 7958SOL    HW124773   4.217   5.149   5.891
 7958SOL    HW224774   4.310   5.038   5.816
 7959SOL     OW24775   5.248   5.919   1.029
 7959SOL    HW124776   5.321   5.887   0.969
 7959SOL    HW224777   5.282   5.994   1.086
 7960SOL     OW24778   2.146   0.938   5.885
 7960SOL    HW124779   2.167   1.001   5.960
 7960SOL    HW224780   2.118   0.990   5.805
 7961SOL     OW24781   7.005   0.878   0.268
 7961SOL    HW124782   7.004   0.938   0.349
 7961SOL    HW224783   6.924   0.819   0.270
 7962SOL     OW24784   1.375   0.821   6.219
 7962SOL    HW124785   1.440   0.751   6.187
 7962SOL    HW224786   1.420   0.910   6.220
 7963SOL     OW24787   6.309   6.534   4.504
 7963SOL    HW124788   6.289   6.439   4.479
 7963SOL    HW224789   6.395   6.562   4.462
 7964SOL     OW24790   6.797   4.043   3.031
 7964SOL    HW124791   6.882   4.092   3.050
 7964SOL    HW224792   6.812   3.976   2.959
 7965SOL     OW24793   4.159   2.285   6.140
 7965SOL    HW124794   4.208   2.249   6.220
 7965SOL    HW224795   4.190   2.379   6.122
 7966SOL     OW24796   2.640   2.376   5.566
 7966SOL    HW124797   2.720   2.359   5.509
 7966SOL    HW224798   2.653   2.331   5.655
 7967SOL     OW24799   3.544   6.350   2.127
 7967SOL    HW124800   3.567   6.354   2.225
 7967SOL    HW224801   3.601   6.414   2.076
 7968SOL     OW24802   0.798   2.333   3.656
 7968SOL    HW124803   0.716   2.355   3.710
 7968SOL    HW224804   0.811   2.403   3.586
 7969SOL     OW24805   5.070   6.164   0.440
 7969SOL    HW124806   4.972   6.181   0.430
 7969SOL    HW224807   5.121   6.248   0.420
 7970SOL     OW24808   6.819   2.781   2.069
 7970SOL    HW124809   6.778   2.851   2.127
 7970SOL    HW224810   6.893   2.736   2.118
 7971SOL     OW24811   3.108   1.955   1.159
 7971SOL    HW124812   3.088   1.915   1.249
 7971SOL    HW224813   3.206   1.974   1.151
 7972SOL     OW24814   2.505   2.995   0.237
 7972SOL    HW124815   2.431   2.928   0.234
 7972SOL    HW224816   2.480   3.075   0.181
 7973SOL     OW24817   4.160   4.893   4.759
 7973SOL    HW124818   4.240   4.837   4.781
 7973SOL    HW224819   4.164   4.978   4.811
 7974SOL     OW24820   5.864   0.511   5.515
 7974SOL    HW124821   5.922   0.490   5.593
 7974SOL    HW224822   5.801   0.434   5.499
 7975SOL     OW24823   6.603   0.835   1.678
 7975SOL    HW124824   6.692   0.805   1.642
 7975SOL    HW224825   6.543   0.859   1.602
 7976SOL     OW24826   0.872   0.490   6.096
 7976SOL    HW124827   0.798   0.440   6.141
 7976SOL    HW224828   0.959   0.446   6.116
 7977SOL     OW24829   4.535   5.880   2.920
 7977SOL    HW124830   4.444   5.902   2.883
 7977SOL    HW224831   4.528   5.802   2.981
 7978SOL     OW24832   5.966   2.467   6.609
 7978SOL    HW124833   5.875   2.485   6.646
 7978SOL    HW224834   6.010   2.554   6.585
 7979SOL     OW24835   3.901   5.594   5.997
 7979SOL    HW124836   3.832   5.545   5.945
 7979SOL    HW224837   3.949   5.531   6.057
 7980SOL     OW24838   2.894   5.662   6.876
 7980SOL    HW124839   2.809   5.612   6.888
 7980SOL    HW224840   2.955   5.643   6.953
 7981SOL     OW24841   0.774   5.100   1.930
 7981SOL    HW124842   0.739   5.073   1.840
 7981SOL    HW224843   0.700   5.140   1.984
 7982SOL     OW24844   1.787   1.335   0.246
 7982SOL    HW124845   1.812   1.260   0.184
 7982SOL    HW224846   1.870   1.371   0.289
 7983SOL     OW24847   6.656   2.130   1.007
 7983SOL    HW124848   6.580   2.069   1.026
 7983SOL    HW224849   6.739   2.077   0.992
 7984SOL     OW24850   1.487   1.126   0.879
 7984SOL    HW124851   1.395   1.160   0.897
 7984SOL    HW224852   1.520   1.075   0.958
 7985SOL     OW24853   2.925   0.963   4.195
 7985SOL    HW124854   2.913   1.018   4.278
 7985SOL    HW224855   2.999   1.001   4.140
 7986SOL     OW24856   2.983   1.107   6.159
 7986SOL    HW124857   3.036   1.189   6.183
 7986SOL    HW224858   2.894   1.111   6.203
 7987SOL     OW24859   2.209   2.441   6.473
 7987SOL    HW124860   2.295   2.464   6.427
 7987SOL    HW224861   2.176   2.353   6.440
 7988SOL     OW24862   0.786   2.233   2.928
 7988SOL    HW124863   0.722   2.190   2.992
 7988SOL    HW224864   0.878   2.201   2.947
 7989SOL     OW24865   2.658   3.516   6.902
 7989SOL    HW124866   2.630   3.499   6.808
 7989SOL    HW224867   2.745   3.566   6.902
 7990SOL     OW24868   1.387   4.551   4.190
 7990SOL    HW124869   1.296   4.539   4.232
 7990SOL    HW224870   1.457   4.544   4.261
 7991SOL     OW24871   5.616   0.308   3.302
 7991SOL    HW124872   5.682   0.258   3.359
 7991SOL    HW224873   5.525   0.267   3.313
 7992SOL     OW24874   1.038   0.477   0.530
 7992SOL    HW124875   1.055   0.563   0.578
 7992SOL    HW224876   0.940   0.469   0.509
 7993SOL     OW24877   0.403   6.831   0.768
 7993SOL    HW124878   0.318   6.780   0.784
 7993SOL    HW224879   0.450   6.793   0.688
 7994SOL     OW24880   3.884   0.052   3.612
 7994SOL    HW124881   3.864   0.142   3.572
 7994SOL    HW224882   3.807   0.023   3.668
 7995SOL     OW24883   6.226   5.683   3.705
 7995SOL    HW124884   6.252   5.604   3.760
 7995SOL    HW224885   6.308   5.725   3.666
 7996SOL     OW24886   2.691   0.085   5.058
 7996SOL    HW124887   2.703   7.002   5.060
 7996SOL    HW224888   2.682   0.120   5.151
 7997SOL     OW24889   0.039   1.376   1.260
 7997SOL    HW124890   0.112   1.440   1.234
 7997SOL    HW224891   0.023   1.382   1.358
 7998SOL     OW24892   2.851   0.014   0.492
 7998SOL    HW124893   2.760   6.990   0.504
 7998SOL    HW224894   2.878   0.008   0.396
 7999SOL     OW24895   1.105   0.811   6.107
 7999SOL    HW124896   1.120   0.725   6.058
 7999SOL    HW224897   1.192   0.849   6.137
 8000SOL     OW24898   4.713   6.963   6.730
 8000SOL    HW124899   4.746   0.004   6.806
 8000SOL    HW224900   4.734   6.868   6.749
 8001SOL     OW24901   4.287   6.200   1.782
 8001SOL    HW124902   4.268   6.133   1.854
 8001SOL    HW224903   4.373   6.246   1.802
 8002SOL     OW24904   2.277   0.627   6.300
 8002SOL    HW124905   2.367   0.598   6.331
 8002SOL    HW224906   2.227   0.548   6.264
 8003SOL     OW24907   2.627   5.562   1.961
 8003SOL    HW124908   2.625   5.471   2.004
 8003SOL    HW224909   2.609   5.632   2.030
 8004SOL     OW24910   2.227   2.781   2.465
 8004SOL    HW124911   2.223   2.788   2.565
 8004SOL    HW224912   2.217   2.871   2.424
 8005SOL     OW24913   2.985   1.603   3.003
 8005SOL    HW124914   3.070   1.656   3.005
 8005SOL    HW224915   2.951   1.599   2.909
 8006SOL     OW24916   2.162   6.438   5.706
 8006SOL    HW124917   2.084   6.386   5.741
 8006SOL    HW224918   2.215   6.380   5.644
 8007SOL     OW24919   6.249   1.502   5.885
 8007SOL    HW124920   6.303   1.454   5.816
 8007SOL    HW224921   6.190   1.569   5.841
 8008SOL     OW24922   4.422   5.945   6.358
 8008SOL    HW124923   4.446   6.042   6.361
 8008SOL    HW224924   4.323   5.935   6.364
 8009SOL     OW24925   5.820   0.808   1.634
 8009SOL    HW124926   5.809   0.873   1.559
 8009SOL    HW224927   5.878   0.732   1.603
 8010SOL     OW24928   1.884   1.035   5.394
 8010SOL    HW124929   1.836   1.100   5.334
 8010SOL    HW224930   1.830   1.019   5.476
 8011SOL     OW24931   3.595   2.332   1.110
 8011SOL    HW124932   3.577   2.259   1.045
 8011SOL    HW224933   3.509   2.363   1.150
 8012SOL     OW24934   2.129   3.711   0.144
 8012SOL    HW124935   2.106   3.618   0.116
 8012SOL    HW224936   2.121   3.718   0.244
 8013SOL     OW24937   1.634   5.247   3.469
 8013SOL    HW124938   1.690   5.215   3.545
 8013SOL    HW224939   1.621   5.346   3.478
 8014SOL     OW24940   1.079   6.284   4.862
 8014SOL    HW124941   1.083   6.209   4.928
 8014SOL    HW224942   1.085   6.371   4.910
 8015SOL     OW24943   2.813   0.549   5.906
 8015SOL    HW124944   2.779   0.540   6.000
 8015SOL    HW224945   2.871   0.471   5.884
 8016SOL     OW24946   4.458   0.145   5.660
 8016SOL    HW124947   4.539   0.127   5.604
 8016SOL    HW224948   4.394   0.203   5.609
 8017SOL     OW24949   5.898   7.004   0.707
 8017SOL    HW124950   5.841   6.922   0.702
 8017SOL    HW224951   5.844   0.065   0.742
 8018SOL     OW24952   3.086   2.222   6.755
 8018SOL    HW124953   3.178   2.241   6.719
 8018SOL    HW224954   3.054   2.302   6.806
 8019SOL     OW24955   2.706   4.779   0.598
 8019SOL    HW124956   2.649   4.852   0.635
 8019SOL    HW224957   2.648   4.707   0.560
 8020SOL     OW24958   6.009   0.241   6.954
 8020SOL    HW124959   6.023   0.269   0.033
 8020SOL    HW224960   6.046   0.149   6.940
 8021SOL     OW24961   1.512   2.378   0.920
 8021SOL    HW124962   1.494   2.289   0.877
 8021SOL    HW224963   1.603   2.410   0.894
 8022SOL     OW24964   5.795   0.217   2.907
 8022SOL    HW124965   5.734   0.214   2.828
 8022SOL    HW224966   5.863   0.144   2.900
 8023SOL     OW24967   5.901   5.187   2.811
 8023SOL    HW124968   5.992   5.189   2.852
 8023SOL    HW224969   5.877   5.278   2.778
 8024SOL     OW24970   1.463   4.508   6.074
 8024SOL    HW124971   1.474   4.420   6.028
 8024SOL    HW224972   1.373   4.547   6.052
 8025SOL     OW24973   1.942   5.922   6.871
 8025SOL    HW124974   1.904   5.932   6.963
 8025SOL    HW224975   2.006   5.998   6.853
 8026SOL     OW24976   6.843   4.248   6.969
 8026SOL    HW124977   6.870   4.327   6.915
 8026SOL    HW224978   6.879   4.257   0.046
 8027SOL     OW24979   4.502   0.335   4.866
 8027SOL    HW124980   4.505   0.258   4.929
 8027SOL    HW224981   4.418   0.388   4.881
 8028SOL     OW24982   4.266   5.956   5.659
 8028SOL    HW124983   4.261   6.006   5.745
 8028SOL    HW224984   4.234   6.015   5.585
 8029SOL     OW24985   4.882   2.843   1.146
 8029SOL    HW124986   4.904   2.832   1.243
 8029SOL    HW224987   4.822   2.922   1.134
 8030SOL     OW24988   4.492   4.850   0.307
 8030SOL    HW124989   4.427   4.864   0.233
 8030SOL    HW224990   4.532   4.759   0.300
 8031SOL     OW24991   6.214   6.565   2.352
 8031SOL    HW124992   6.130   6.615   2.331
 8031SOL    HW224993   6.276   6.624   2.404
 8032SOL     OW24994   6.357   3.855   1.607
 8032SOL    HW124995   6.296   3.917   1.656
 8032SOL    HW224996   6.387   3.783   1.670
 8033SOL     OW24997   4.854   2.013   6.555
 8033SOL    HW124998   4.929   2.051   6.501
 8033SOL    HW224999   4.834   1.920   6.523
 8034SOL     OW25000   4.779   0.985   4.794
 8034SOL    HW125001   4.832   1.059   4.753
 8034SOL    HW225002   4.727   0.938   4.722
 8035SOL     OW25003   5.334   1.731   3.860
 8035SOL    HW125004   5.242   1.759   3.831
 8035SOL    HW225005   5.332   1.635   3.889
 8036SOL     OW25006   6.385   4.076   3.852
 8036SOL    HW125007   6.315   4.128   3.901
 8036SOL    HW225008   6.394   4.113   3.759
 8037SOL     OW25009   1.631   3.332   6.977
 8037SOL    HW125010   1.727   3.305   6.984
 8037SOL    HW225011   1.586   3.277   6.907
 8038SOL     OW25012   4.563   0.181   2.599
 8038SOL    HW125013   4.636   0.144   2.657
 8038SOL    HW225014   4.482   0.199   2.656
 8039SOL     OW25015   0.359   1.718   5.307
 8039SOL    HW125016   0.398   1.779   5.375
 8039SOL    HW225017   0.287   1.662   5.349
 8040SOL     OW25018   1.320   5.404   0.190
 8040SOL    HW125019   1.397   5.468   0.197
 8040SOL    HW225020   1.343   5.318   0.235
 8041SOL     OW25021   2.776   1.310   2.748
 8041SOL    HW125022   2.720   1.242   2.701
 8041SOL    HW225023   2.728   1.344   2.828
 8042SOL     OW25024   3.282   3.070   4.726
 8042SOL    HW125025   3.213   3.090   4.796
 8042SOL    HW225026   3.334   3.153   4.707
 8043SOL     OW25027   3.515   6.258   1.146
 8043SOL    HW125028   3.437   6.300   1.193
 8043SOL    HW225029   3.502   6.159   1.141
 8044SOL     OW25030   4.199   2.680   1.165
 8044SOL    HW125031   4.156   2.696   1.253
 8044SOL    HW225032   4.248   2.592   1.168
 8045SOL     OW25033   5.778   2.760   3.236
 8045SOL    HW125034   5.682   2.789   3.238
 8045SOL    HW225035   5.783   2.663   3.216
 8046SOL     OW25036   0.624   4.387   1.668
 8046SOL    HW125037   0.691   4.447   1.624
 8046SOL    HW225038   0.604   4.310   1.608
 8047SOL     OW25039   4.463   5.769   5.683
 8047SOL    HW125040   4.384   5.830   5.677
 8047SOL    HW225041   4.434   5.681   5.721
 8048SOL     OW25042   4.630   2.174   6.648
 8048SOL    HW125043   4.721   2.134   6.633
 8048SOL    HW225044   4.633   2.271   6.625
 8049SOL     OW25045   0.765   7.008   0.164
 8049SOL    HW125046   0.704   0.069   0.182
 8049SOL    HW225047   0.792   6.966   0.251
 8050SOL     OW25048   2.051   3.504   3.513
 8050SOL    HW125049   2.088   3.412   3.529
 8050SOL    HW225050   1.993   3.502   3.431
 8051SOL     OW25051   4.547   5.412   4.285
 8051SOL    HW125052   4.617   5.438   4.219
 8051SOL    HW225053   4.591   5.374   4.367
 8052SOL     OW25054   3.076   1.283   0.477
 8052SOL    HW125055   3.079   1.291   0.378
 8052SOL    HW225056   2.985   1.308   0.510
 8053SOL     OW25057   3.191   2.958   4.240
 8053SOL    HW125058   3.134   2.882   4.211
 8053SOL    HW225059   3.224   3.008   4.160
 8054SOL     OW25060   6.213   4.867   4.877
 8054SOL    HW125061   6.183   4.791   4.935
 8054SOL    HW225062   6.165   4.863   4.789
 8055SOL     OW25063   0.653   0.266   5.317
 8055SOL    HW125064   0.752   0.278   5.306
 8055SOL    HW225065   0.607   0.293   5.233
 8056SOL     OW25066   2.232   1.019   3.551
 8056SOL    HW125067   2.281   0.986   3.631
 8056SOL    HW225068   2.293   1.015   3.471
 8057SOL     OW25069   3.136   2.130   2.884
 8057SOL    HW125070   3.153   2.131   2.786
 8057SOL    HW225071   3.052   2.182   2.904
 8058SOL     OW25072   3.728   0.082   3.213
 8058SOL    HW125073   3.657   0.097   3.282
 8058SOL    HW225074   3.762   7.003   3.220
 8059SOL     OW25075   2.683   1.820   4.390
 8059SOL    HW125076   2.594   1.840   4.348
 8059SOL    HW225077   2.728   1.747   4.338
 8060SOL     OW25078   6.277   2.095   6.108
 8060SOL    HW125079   6.362   2.105   6.056
 8060SOL    HW225080   6.202   2.136   6.057
 8061SOL     OW25081   0.139   0.249   2.761
 8061SOL    HW125082   0.187   0.206   2.685
 8061SOL    HW225083   0.168   0.344   2.769
 8062SOL     OW25084   3.380   4.930   4.508
 8062SOL    HW125085   3.316   4.937   4.432
 8062SOL    HW225086   3.329   4.922   4.594
 8063SOL     OW25087   2.244   2.314   2.454
 8063SOL    HW125088   2.256   2.388   2.521
 8063SOL    HW225089   2.227   2.228   2.501
 8064SOL     OW25090   6.283   2.767   0.995
 8064SOL    HW125091   6.324   2.850   1.033
 8064SOL    HW225092   6.330   2.743   0.910
 8065SOL     OW25093   2.682   5.797   4.313
 8065SOL    HW125094   2.644   5.755   4.230
 8065SOL    HW225095   2.737   5.730   4.362
 8066SOL     OW25096   0.474   1.441   5.461
 8066SOL    HW125097   0.385   1.453   5.419
 8066SOL    HW225098   0.539   1.506   5.421
 8067SOL     OW25099   4.955   2.434   2.669
 8067SOL    HW125100   4.858   2.433   2.645
 8067SOL    HW225101   4.964   2.430   2.769
 8068SOL     OW25102   6.978   4.614   1.513
 8068SOL    HW125103   6.887   4.589   1.480
 8068SOL    HW225104   0.003   4.537   1.561
 8069SOL     OW25105   2.295   5.681   0.813
 8069SOL    HW125106   2.299   5.770   0.767
 8069SOL    HW225107   2.310   5.608   0.746
 8070SOL     OW25108   4.202   3.628   0.990
 8070SOL    HW125109   4.165   3.567   1.060
 8070SOL    HW225110   4.158   3.718   0.999
 8071SOL     OW25111   3.220   6.865   4.819
 8071SOL    HW125112   3.163   6.816   4.753
 8071SOL    HW225113   3.255   6.801   4.887
 8072SOL     OW25114   4.266   1.394   0.740
 8072SOL    HW125115   4.256   1.295   0.746
 8072SOL    HW225116   4.335   1.416   0.672
 8073SOL     OW25117   3.018   5.014   5.235
 8073SOL    HW125118   2.987   4.935   5.182
 8073SOL    HW225119   2.998   4.999   5.332
 8074SOL     OW25120   3.113   2.769   0.775
 8074SOL    HW125121   3.205   2.787   0.810
 8074SOL    HW225122   3.103   2.809   0.684
 8075SOL     OW25123   6.963   6.855   0.394
 8075SOL    HW125124   6.978   6.889   0.486
 8075SOL    HW225125   6.979   6.929   0.328
 8076SOL     OW25126   6.123   0.715   5.630
 8076SOL    HW125127   6.146   0.739   5.725
 8076SOL    HW225128   6.161   0.625   5.608
 8077SOL     OW25129   3.283   6.568   2.657
 8077SOL    HW125130   3.298   6.489   2.597
 8077SOL    HW225131   3.288   6.652   2.603
 8078SOL     OW25132   7.003   1.675   0.459
 8078SOL    HW125133   0.086   1.684   0.462
 8078SOL    HW225134   6.976   1.638   0.370
 8079SOL     OW25135   6.142   1.421   3.608
 8079SOL    HW125136   6.155   1.323   3.593
 8079SOL    HW225137   6.114   1.438   3.703
 8080SOL     OW25138   1.185   2.855   1.843
 8080SOL    HW125139   1.243   2.774   1.837
 8080SOL    HW225140   1.231   2.925   1.898
 8081SOL     OW25141   6.459   5.631   5.841
 8081SOL    HW125142   6.555   5.656   5.845
 8081SOL    HW225143   6.441   5.576   5.760
 8082SOL     OW25144   4.127   0.149   2.331
 8082SOL    HW125145   4.227   0.143   2.336
 8082SOL    HW225146   4.088   0.123   2.419
 8083SOL     OW25147   5.015   2.665   3.051
 8083SOL    HW125148   5.059   2.712   2.975
 8083SOL    HW225149   4.998   2.569   3.025
 8084SOL     OW25150   3.655   6.384   0.181
 8084SOL    HW125151   3.601   6.409   0.100
 8084SOL    HW225152   3.736   6.334   0.152
 8085SOL     OW25153   6.419   6.604   2.185
 8085SOL    HW125154   6.332   6.572   2.221
 8085SOL    HW225155   6.492   6.541   2.213
 8086SOL     OW25156   6.035   0.928   2.427
 8086SOL    HW125157   6.061   1.023   2.406
 8086SOL    HW225158   6.080   0.867   2.362
 8087SOL     OW25159   2.363   0.414   0.371
 8087SOL    HW125160   2.326   0.417   0.464
 8087SOL    HW225161   2.461   0.433   0.373
 8088SOL     OW25162   6.222   1.402   1.473
 8088SOL    HW125163   6.151   1.334   1.491
 8088SOL    HW225164   6.239   1.456   1.555
 8089SOL     OW25165   5.837   2.910   0.753
 8089SOL    HW125166   5.749   2.877   0.719
 8089SOL    HW225167   5.888   2.833   0.793
 8090SOL     OW25168   4.584   2.047   6.981
 8090SOL    HW125169   4.581   2.047   6.881
 8090SOL    HW225170   4.491   2.054   0.002
 8091SOL     OW25171   2.039   4.115   4.972
 8091SOL    HW125172   1.979   4.079   4.900
 8091SOL    HW225173   2.130   4.077   4.963
 8092SOL     OW25174   5.566   2.222   4.932
 8092SOL    HW125175   5.624   2.181   5.002
 8092SOL    HW225176   5.624   2.264   4.862
 8093SOL     OW25177   4.097   4.792   2.969
 8093SOL    HW125178   4.004   4.757   2.982
 8093SOL    HW225179   4.106   4.829   2.877
 8094SOL     OW25180   0.868   3.022   4.605
 8094SOL    HW125181   0.926   3.045   4.527
 8094SOL    HW225182   0.923   3.018   4.688
 8095SOL     OW25183   7.006   4.842   4.389
 8095SOL    HW125184   0.063   4.781   4.421
 8095SOL    HW225185   7.005   4.925   4.445
 8096SOL     OW25186   1.910   6.919   3.222
 8096SOL    HW125187   1.986   6.982   3.206
 8096SOL    HW225188   1.919   6.840   3.162
 8097SOL     OW25189   4.262   6.807   4.112
 8097SOL    HW125190   4.267   6.879   4.181
 8097SOL    HW225191   4.309   6.725   4.144
 8098SOL     OW25192   1.860   6.472   3.076
 8098SOL    HW125193   1.765   6.466   3.104
 8098SOL    HW225194   1.919   6.466   3.157
 8099SOL     OW25195   3.910   6.106   4.647
 8099SOL    HW125196   3.905   6.096   4.548
 8099SOL    HW225197   3.863   6.190   4.674
 8100SOL     OW25198   0.107   0.682   0.135
 8100SOL    HW125199   0.133   0.681   0.232
 8100SOL    HW225200   0.028   0.741   0.121
 8101SOL     OW25201   1.911   5.935   2.317
 8101SOL    HW125202   1.909   5.899   2.410
 8101SOL    HW225203   1.890   6.033   2.318
 8102SOL     OW25204   0.806   4.346   3.701
 8102SOL    HW125205   0.723   4.306   3.740
 8102SOL    HW225206   0.883   4.286   3.718
 8103SOL     OW25207   2.697   0.007   1.488
 8103SOL    HW125208   2.767   6.960   1.519
 8103SOL    HW225209   2.740   0.087   1.447
 8104SOL     OW25210   2.258   0.550   5.680
 8104SOL    HW125211   2.251   0.531   5.778
 8104SOL    HW225212   2.230   0.468   5.628
 8105SOL     OW25213   0.746   3.249   3.403
 8105SOL    HW125214   0.772   3.225   3.496
 8105SOL    HW225215   0.668   3.312   3.405
 8106SOL     OW25216   3.050   6.403   2.998
 8106SOL    HW125217   3.098   6.445   2.920
 8106SOL    HW225218   2.975   6.345   2.964
 8107SOL     OW25219   1.233   5.147   4.545
 8107SOL    HW125220   1.315   5.196   4.578
 8107SOL    HW225221   1.228   5.058   4.590
 8108SOL     OW25222   6.133   3.024   5.635
 8108SOL    HW125223   6.142   3.095   5.565
 8108SOL    HW225224   6.132   2.934   5.591
 8109SOL     OW25225   0.363   4.009   4.663
 8109SOL    HW125226   0.378   3.951   4.743
 8109SOL    HW225227   0.366   3.954   4.580
 8110SOL     OW25228   4.006   5.951   1.671
 8110SOL    HW125229   3.972   6.008   1.746
 8110SOL    HW225230   4.034   6.010   1.595
 8111SOL     OW25231   5.446   1.315   4.780
 8111SOL    HW125232   5.407   1.244   4.839
 8111SOL    HW225233   5.441   1.404   4.827
 8112SOL     OW25234   2.689   1.882   3.950
 8112SOL    HW125235   2.626   1.959   3.937
 8112SOL    HW225236   2.643   1.809   4.000
 8113SOL     OW25237   1.758   3.794   0.369
 8113SOL    HW125238   1.749   3.767   0.273
 8113SOL    HW225239   1.670   3.785   0.414
 8114SOL     OW25240   1.458   4.184   3.225
 8114SOL    HW125241   1.510   4.151   3.146
 8114SOL    HW225242   1.362   4.195   3.199
 8115SOL     OW25243   3.746   0.246   0.164
 8115SOL    HW125244   3.769   0.342   0.181
 8115SOL    HW225245   3.718   0.234   0.069
 8116SOL     OW25246   4.397   4.731   6.024
 8116SOL    HW125247   4.400   4.787   5.941
 8116SOL    HW225248   4.475   4.668   6.025
 8117SOL     OW25249   2.234   0.062   3.387
 8117SOL    HW125250   2.211   0.068   3.290
 8117SOL    HW225251   2.152   0.040   3.440
 8118SOL     OW25252   5.160   4.518   6.626
 8118SOL    HW125253   5.124   4.611   6.617
 8118SOL    HW225254   5.251   4.521   6.666
 8119SOL     OW25255   5.339   5.645   6.298
 8119SOL    HW125256   5.255   5.688   6.265
 8119SOL    HW225257   5.418   5.685   6.250
 8120SOL     OW25258   3.277   5.030   0.673
 8120SOL    HW125259   3.233   5.119   0.684
 8120SOL    HW225260   3.209   4.962   0.647
 8121SOL     OW25261   0.004   5.053   2.390
 8121SOL    HW125262   0.033   5.119   2.321
 8121SOL    HW225263   0.037   4.962   2.365
 8122SOL     OW25264   0.439   5.494   3.339
 8122SOL    HW125265   0.517   5.457   3.289
 8122SOL    HW225266   0.409   5.579   3.295
 8123SOL     OW25267   0.079   1.775   6.571
 8123SOL    HW125268   0.042   1.689   6.606
 8123SOL    HW225269   0.077   1.774   6.471
 8124SOL     OW25270   5.698   6.442   1.353
 8124SOL    HW125271   5.700   6.343   1.366
 8124SOL    HW225272   5.790   6.479   1.360
 8125SOL     OW25273   1.546   1.538   3.190
 8125SOL    HW125274   1.579   1.594   3.266
 8125SOL    HW225275   1.476   1.589   3.140
 8126SOL     OW25276   4.352   4.635   2.449
 8126SOL    HW125277   4.359   4.563   2.379
 8126SOL    HW225278   4.378   4.598   2.538
 8127SOL     OW25279   2.620   4.387   6.358
 8127SOL    HW125280   2.615   4.469   6.303
 8127SOL    HW225281   2.687   4.399   6.432
 8128SOL     OW25282   2.510   1.398   1.667
 8128SOL    HW125283   2.414   1.410   1.643
 8128SOL    HW225284   2.537   1.468   1.733
 8129SOL     OW25285   4.200   0.413   6.268
 8129SOL    HW125286   4.104   0.433   6.287
 8129SOL    HW225287   4.206   0.350   6.190
 8130SOL     OW25288   0.363   3.359   6.590
 8130SOL    HW125289   0.412   3.276   6.617
 8130SOL    HW225290   0.315   3.344   6.503
 8131SOL     OW25291   2.756   1.873   1.009
 8131SOL    HW125292   2.850   1.842   0.994
 8131SOL    HW225293   2.692   1.811   0.964
 8132SOL     OW25294   5.920   6.759   6.092
 8132SOL    HW125295   5.960   6.836   6.043
 8132SOL    HW225296   5.849   6.792   6.154
 8133SOL     OW25297   2.883   5.285   1.636
 8133SOL    HW125298   2.794   5.240   1.636
 8133SOL    HW225299   2.919   5.288   1.729
 8134SOL     OW25300   6.470   2.959   6.115
 8134SOL    HW125301   6.544   2.892   6.117
 8134SOL    HW225302   6.446   2.980   6.020
 8135SOL     OW25303   2.766   6.652   1.501
 8135SOL    HW125304   2.858   6.634   1.467
 8135SOL    HW225305   2.771   6.725   1.570
 8136SOL     OW25306   4.622   5.486   3.163
 8136SOL    HW125307   4.578   5.536   3.088
 8136SOL    HW225308   4.679   5.413   3.125
 8137SOL     OW25309   3.105   2.079   5.223
 8137SOL    HW125310   3.126   2.024   5.143
 8137SOL    HW225311   3.136   2.173   5.209
 8138SOL     OW25312   5.344   1.195   0.582
 8138SOL    HW125313   5.270   1.253   0.550
 8138SOL    HW225314   5.307   1.109   0.617
 8139SOL     OW25315   6.993   1.620   2.291
 8139SOL    HW125316   0.043   1.646   2.220
 8139SOL    HW225317   0.012   1.650   2.380
 8140SOL     OW25318   4.980   0.426   0.392
 8140SOL    HW125319   4.982   0.508   0.334
 8140SOL    HW225320   5.073   0.397   0.411
 8141SOL     OW25321   4.679   5.950   5.002
 8141SOL    HW125322   4.615   5.874   4.992
 8141SOL    HW225323   4.662   6.018   4.930
 8142SOL     OW25324   0.862   5.519   6.954
 8142SOL    HW125325   0.808   5.587   7.002
 8142SOL    HW225326   0.959   5.544   6.957
 8143SOL     OW25327   5.925   4.252   1.281
 8143SOL    HW125328   6.008   4.219   1.324
 8143SOL    HW225329   5.905   4.345   1.314
 8144SOL     OW25330   6.200   5.833   6.452
 8144SOL    HW125331   6.130   5.889   6.497
 8144SOL    HW225332   6.290   5.855   6.489
 8145SOL     OW25333   5.759   5.667   1.486
 8145SOL    HW125334   5.711   5.580   1.486
 8145SOL    HW225335   5.751   5.710   1.576
 8146SOL     OW25336   4.787   0.335   4.560
 8146SOL    HW125337   4.808   0.276   4.482
 8146SOL    HW225338   4.845   0.309   4.638
 8147SOL     OW25339   6.320   1.725   1.126
 8147SOL    HW125340   6.248   1.744   1.059
 8147SOL    HW225341   6.388   1.664   1.085
 8148SOL     OW25342   5.109   4.503   1.073
 8148SOL    HW125343   5.108   4.520   0.975
 8148SOL    HW225344   5.154   4.416   1.092
 8149SOL     OW25345   3.245   6.515   2.278
 8149SOL    HW125346   3.204   6.552   2.194
 8149SOL    HW225347   3.305   6.585   2.318
 8150SOL     OW25348   1.422   3.680   0.687
 8150SOL    HW125349   1.420   3.636   0.597
 8150SOL    HW225350   1.516   3.708   0.708
 8151SOL     OW25351   5.685   2.550   1.204
 8151SOL    HW125352   5.673   2.632   1.259
 8151SOL    HW225353   5.756   2.492   1.245
 8152SOL     OW25354   6.799   2.198   2.432
 8152SOL    HW125355   6.738   2.242   2.365
 8152SOL    HW225356   6.894   2.212   2.405
 8153SOL     OW25357   2.121   0.524   3.603
 8153SOL    HW125358   2.166   0.586   3.539
 8153SOL    HW225359   2.025   0.512   3.576
 8154SOL     OW25360   2.913   5.135   2.198
 8154SOL    HW125361   2.971   5.054   2.190
 8154SOL    HW225362   2.823   5.116   2.161
 8155SOL     OW25363   1.678   3.938   1.811
 8155SOL    HW125364   1.654   3.904   1.902
 8155SOL    HW225365   1.778   3.936   1.800
 8156SOL     OW25366   4.964   0.144   1.073
 8156SOL    HW125367   4.961   0.175   0.978
 8156SOL    HW225368   5.018   0.209   1.127
 8157SOL     OW25369   0.060   5.452   6.496
 8157SOL    HW125370   0.103   5.537   6.527
 8157SOL    HW225371   0.078   5.440   6.398
 8158SOL     OW25372   4.968   5.301   0.661
 8158SOL    HW125373   5.027   5.345   0.729
 8158SOL    HW225374   5.013   5.303   0.572
 8159SOL     OW25375   2.973   5.908   2.192
 8159SOL    HW125376   2.983   5.847   2.270
 8159SOL    HW225377   3.022   5.869   2.113
 8160SOL     OW25378   5.287   0.963   3.619
 8160SOL    HW125379   5.297   0.891   3.687
 8160SOL    HW225380   5.259   0.923   3.532
 8161SOL     OW25381   5.158   1.623   6.588
 8161SOL    HW125382   5.248   1.598   6.551
 8161SOL    HW225383   5.087   1.589   6.527
 8162SOL     OW25384   6.165   6.060   6.006
 8162SOL    HW125385   6.153   5.972   6.051
 8162SOL    HW225386   6.101   6.127   6.044
 8163SOL     OW25387   2.358   4.031   5.455
 8163SOL    HW125388   2.386   3.940   5.487
 8163SOL    HW225389   2.382   4.041   5.359
 8164SOL     OW25390   5.019   3.311   0.489
 8164SOL    HW125391   5.063   3.393   0.525
 8164SOL    HW225392   4.921   3.330   0.475
 8165SOL     OW25393   1.202   3.998   6.483
 8165SOL    HW125394   1.136   3.946   6.537
 8165SOL    HW225395   1.267   3.935   6.439
 8166SOL     OW25396   1.563   0.381   2.453
 8166SOL    HW125397   1.630   0.436   2.401
 8166SOL    HW225398   1.476   0.430   2.457
 8167SOL     OW25399   6.015   0.037   4.593
 8167SOL    HW125400   5.931   0.043   4.539
 8167SOL    HW225401   6.014   6.968   4.647
 8168SOL     OW25402   2.302   1.728   3.361
 8168SOL    HW125403   2.323   1.681   3.275
 8168SOL    HW225404   2.204   1.726   3.377
 8169SOL     OW25405   5.193   2.201   1.304
 8169SOL    HW125406   5.132   2.134   1.344
 8169SOL    HW225407   5.173   2.211   1.206
 8170SOL     OW25408   1.384   5.440   2.767
 8170SOL    HW125409   1.357   5.512   2.703
 8170SOL    HW225410   1.318   5.365   2.763
 8171SOL     OW25411   1.220   1.805   7.010
 8171SOL    HW125412   1.231   1.903   0.014
 8171SOL    HW225413   1.229   1.790   6.911
 8172SOL     OW25414   0.839   2.029   1.925
 8172SOL    HW125415   0.756   2.004   1.975
 8172SOL    HW225416   0.849   1.970   1.844
 8173SOL     OW25417   4.749   1.170   2.066
 8173SOL    HW125418   4.656   1.168   2.030
 8173SOL    HW225419   4.757   1.106   2.142
 8174SOL     OW25420   6.079   3.132   0.959
 8174SOL    HW125421   6.027   3.049   0.979
 8174SOL    HW225422   6.059   3.162   0.866
 8175SOL     OW25423   6.970   3.244   6.360
 8175SOL    HW125424   6.895   3.272   6.419
 8175SOL    HW225425   6.942   3.252   6.264
 8176SOL     OW25426   2.926   5.390   2.160
 8176SOL    HW125427   2.925   5.290   2.162
 8176SOL    HW225428   2.849   5.426   2.212
 8177SOL     OW25429   2.596   6.159   3.737
 8177SOL    HW125430   2.641   6.184   3.823
 8177SOL    HW225431   2.556   6.240   3.695
 8178SOL     OW25432   2.798   5.628   6.623
 8178SOL    HW125433   2.808   5.660   6.717
 8178SOL    HW225434   2.889   5.617   6.582
 8179SOL     OW25435   4.815   2.272   5.996
 8179SOL    HW125436   4.725   2.275   6.038
 8179SOL    HW225437   4.852   2.365   5.989
 8180SOL     OW25438   6.252   0.217   4.882
 8180SOL    HW125439   6.209   0.187   4.797
 8180SOL    HW225440   6.277   0.313   4.875
 8181SOL     OW25441   2.085   1.238   1.669
 8181SOL    HW125442   2.144   1.316   1.648
 8181SOL    HW225443   2.114   1.198   1.756
 8182SOL     OW25444   3.811   2.915   6.118
 8182SOL    HW125445   3.751   2.918   6.038
 8182SOL    HW225446   3.881   2.987   6.110
 8183SOL     OW25447   0.174   2.683   4.717
 8183SOL    HW125448   0.183   2.768   4.666
 8183SOL    HW225449   0.088   2.639   4.692
 8184SOL     OW25450   5.310   2.142   5.934
 8184SOL    HW125451   5.222   2.097   5.946
 8184SOL    HW225452   5.362   2.093   5.864
 8185SOL     OW25453   2.450   6.508   0.257
 8185SOL    HW125454   2.422   6.426   0.206
 8185SOL    HW225455   2.442   6.491   0.355
 8186SOL     OW25456   3.341   5.792   6.489
 8186SOL    HW125457   3.424   5.763   6.536
 8186SOL    HW225458   3.264   5.735   6.519
 8187SOL     OW25459   1.536   2.212   5.506
 8187SOL    HW125460   1.605   2.169   5.564
 8187SOL    HW225461   1.529   2.309   5.530
 8188SOL     OW25462   5.749   2.812   1.979
 8188SOL    HW125463   5.841   2.825   1.941
 8188SOL    HW225464   5.710   2.901   2.001
 8189SOL     OW25465   4.379   4.811   2.744
 8189SOL    HW125466   4.285   4.842   2.736
 8189SOL    HW225467   4.384   4.713   2.728
 8190SOL     OW25468   3.955   5.148   4.088
 8190SOL    HW125469   3.940   5.213   4.163
 8190SOL    HW225470   4.041   5.098   4.104
 8191SOL     OW25471   3.329   6.405   2.865
 8191SOL    HW125472   3.276   6.434   2.786
 8191SOL    HW225473   3.427   6.412   2.844
 8192SOL     OW25474   3.730   5.682   0.735
 8192SOL    HW125475   3.768   5.686   0.643
 8192SOL    HW225476   3.703   5.774   0.764
 8193SOL     OW25477   6.491   6.690   4.397
 8193SOL    HW125478   6.506   6.780   4.436
 8193SOL    HW225479   6.578   6.641   4.391
 8194SOL     OW25480   5.846   2.447   0.903
 8194SOL    HW125481   5.922   2.387   0.930
 8194SOL    HW225482   5.759   2.404   0.929
 8195SOL     OW25483   1.166   0.209   0.926
 8195SOL    HW125484   1.204   0.247   1.011
 8195SOL    HW225485   1.167   0.109   0.932
 8196SOL     OW25486   3.504   0.487   5.261
 8196SOL    HW125487   3.446   0.435   5.199
 8196SOL    HW225488   3.557   0.553   5.208
 8197SOL     OW25489   4.353   1.311   6.136
 8197SOL    HW125490   4.306   1.362   6.064
 8197SOL    HW225491   4.434   1.266   6.097
 8198SOL     OW25492   3.157   5.993   3.561
 8198SOL    HW125493   3.106   5.972   3.644
 8198SOL    HW225494   3.145   6.090   3.538
 8199SOL     OW25495   6.405   3.156   6.425
 8199SOL    HW125496   6.408   3.067   6.469
 8199SOL    HW225497   6.315   3.169   6.383
 8200SOL     OW25498   4.325   3.990   1.546
 8200SOL    HW125499   4.304   4.080   1.582
 8200SOL    HW225500   4.260   3.923   1.582
 8201SOL     OW25501   5.978   1.248   4.242
 8201SOL    HW125502   5.888   1.229   4.201
 8201SOL    HW225503   5.966   1.308   4.321
 8202SOL     OW25504   0.589   5.412   4.141
 8202SOL    HW125505   0.564   5.494   4.089
 8202SOL    HW225506   0.687   5.394   4.130
 8203SOL     OW25507   4.922   2.288   1.114
 8203SOL    HW125508   4.860   2.367   1.104
 8203SOL    HW225509   4.877   2.218   1.169
 8204SOL     OW25510   3.029   5.432   0.969
 8204SOL    HW125511   3.005   5.390   1.056
 8204SOL    HW225512   2.945   5.459   0.920
 8205SOL     OW25513   0.200   4.851   1.244
 8205SOL    HW125514   0.200   4.752   1.227
 8205SOL    HW225515   0.194   4.900   1.157
 8206SOL     OW25516   4.175   2.919   5.794
 8206SOL    HW125517   4.182   2.831   5.748
 8206SOL    HW225518   4.217   2.990   5.737
 8207SOL     OW25519   3.874   4.263   5.273
 8207SOL    HW125520   3.896   4.183   5.331
 8207SOL    HW225521   3.875   4.235   5.177
 8208SOL     OW25522   1.961   6.853   1.724
 8208SOL    HW125523   1.920   6.860   1.633
 8208SOL    HW225524   1.971   6.944   1.763
 8209SOL     OW25525   1.074   1.577   5.927
 8209SOL    HW125526   1.126   1.662   5.925
 8209SOL    HW225527   1.100   1.520   5.849
 8210SOL     OW25528   3.060   0.986   1.603
 8210SOL    HW125529   3.156   0.971   1.583
 8210SOL    HW225530   3.012   0.899   1.606
 8211SOL     OW25531   3.424   3.787   3.366
 8211SOL    HW125532   3.341   3.736   3.391
 8211SOL    HW225533   3.486   3.790   3.445
 8212SOL     OW25534   3.431   1.626   0.961
 8212SOL    HW125535   3.386   1.703   0.917
 8212SOL    HW225536   3.503   1.590   0.902
 8213SOL     OW25537   5.095   4.826   2.067
 8213SOL    HW125538   5.043   4.785   1.992
 8213SOL    HW225539   5.039   4.829   2.149
 8214SOL     OW25540   1.397   5.831   4.052
 8214SOL    HW125541   1.304   5.860   4.075
 8214SOL    HW225542   1.394   5.764   3.978
 8215SOL     OW25543   3.727   5.335   6.748
 8215SOL    HW125544   3.762   5.260   6.692
 8215SOL    HW225545   3.659   5.386   6.697
 8216SOL     OW25546   4.554   6.230   3.223
 8216SOL    HW125547   4.511   6.256   3.136
 8216SOL    HW225548   4.627   6.296   3.244
 8217SOL     OW25549   2.179   3.812   2.273
 8217SOL    HW125550   2.175   3.713   2.257
 8217SOL    HW225551   2.125   3.835   2.354
 8218SOL     OW25552   1.117   6.816   4.220
 8218SOL    HW125553   1.153   6.724   4.209
 8218SOL    HW225554   1.083   6.827   4.314
 8219SOL     OW25555   3.669   3.944   1.493
 8219SOL    HW125556   3.634   3.851   1.489
 8219SOL    HW225557   3.637   3.995   1.412
 8220SOL     OW25558   3.038   3.904   5.380
 8220SOL    HW125559   2.971   3.966   5.340
 8220SOL    HW225560   3.098   3.954   5.442
 8221SOL     OW25561   6.196   5.323   3.489
 8221SOL    HW125562   6.129   5.290   3.424
 8221SOL    HW225563   6.266   5.377   3.441
 8222SOL     OW25564   5.036   1.964   1.335
 8222SOL    HW125565   5.131   1.934   1.341
 8222SOL    HW225566   4.976   1.884   1.328
 8223SOL     OW25567   0.322   4.477   6.003
 8223SOL    HW125568   0.327   4.388   5.958
 8223SOL    HW225569   0.253   4.533   5.957
 8224SOL     OW25570   5.283   1.824   1.439
 8224SOL    HW125571   5.357   1.757   1.432
 8224SOL    HW225572   5.217   1.793   1.508
 8225SOL     OW25573   3.446   1.457   1.428
 8225SOL    HW125574   3.510   1.388   1.394
 8225SOL    HW225575   3.485   1.502   1.509
 8226SOL     OW25576   3.235   0.217   0.424
 8226SOL    HW125577   3.260   0.291   0.486
 8226SOL    HW225578   3.166   0.250   0.359
 8227SOL     OW25579   0.290   1.676   2.264
 8227SOL    HW125580   0.267   1.742   2.192
 8227SOL    HW225581   0.254   1.708   2.352
 8228SOL     OW25582   1.085   1.500   5.598
 8228SOL    HW125583   1.061   1.422   5.541
 8228SOL    HW225584   1.014   1.570   5.590
 8229SOL     OW25585   3.529   4.476   1.455
 8229SOL    HW125586   3.513   4.557   1.511
 8229SOL    HW225587   3.597   4.497   1.385
 8230SOL     OW25588   3.962   6.950   5.656
 8230SOL    HW125589   3.868   6.981   5.672
 8230SOL    HW225590   4.018   6.973   5.735
 8231SOL     OW25591   3.452   2.321   1.652
 8231SOL    HW125592   3.547   2.311   1.678
 8231SOL    HW225593   3.395   2.258   1.705
 8232SOL     OW25594   5.636   1.993   1.871
 8232SOL    HW125595   5.702   1.929   1.832
 8232SOL    HW225596   5.685   2.064   1.922
 8233SOL     OW25597   1.548   6.702   6.401
 8233SOL    HW125598   1.591   6.777   6.350
 8233SOL    HW225599   1.480   6.658   6.342
 8234SOL     OW25600   2.683   3.751   0.103
 8234SOL    HW125601   2.777   3.727   0.078
 8234SOL    HW225602   2.627   3.668   0.104
 8235SOL     OW25603   0.123   3.629   6.888
 8235SOL    HW125604   0.031   3.664   6.903
 8235SOL    HW225605   0.144   3.629   6.791
 8236SOL     OW25606   0.527   5.080   6.469
 8236SOL    HW125607   0.452   5.139   6.437
 8236SOL    HW225608   0.600   5.079   6.401
 8237SOL     OW25609   4.776   6.431   6.390
 8237SOL    HW125610   4.817   6.494   6.324
 8237SOL    HW225611   4.690   6.469   6.424
 8238SOL     OW25612   0.254   6.225   0.010
 8238SOL    HW125613   0.194   6.147   0.028
 8238SOL    HW225614   0.276   6.228   6.928
 8239SOL     OW25615   0.942   0.892   4.675
 8239SOL    HW125616   0.920   0.842   4.592
 8239SOL    HW225617   0.927   0.834   4.755
 8240SOL     OW25618   3.279   4.004   3.304
 8240SOL    HW125619   3.350   3.934   3.304
 8240SOL    HW225620   3.245   4.017   3.397
 8241SOL     OW25621   2.521   4.601   6.191
 8241SOL    HW125622   2.581   4.660   6.138
 8241SOL    HW225623   2.436   4.649   6.213
 8242SOL     OW25624   0.402   3.677   4.660
 8242SOL    HW125625   0.413   3.711   4.753
 8242SOL    HW225626   0.400   3.577   4.661
 8243SOL     OW25627   6.733   3.495   0.802
 8243SOL    HW125628   6.798   3.489   0.878
 8243SOL    HW225629   6.765   3.563   0.736
 8244SOL     OW25630   0.374   0.238   4.358
 8244SOL    HW125631   0.377   0.143   4.388
 8244SOL    HW225632   0.287   0.280   4.385
 8245SOL     OW25633   3.852   1.591   2.984
 8245SOL    HW125634   3.825   1.552   2.896
 8245SOL    HW225635   3.801   1.546   3.057
 8246SOL     OW25636   0.427   4.858   6.675
 8246SOL    HW125637   0.444   4.926   6.604
 8246SOL    HW225638   0.509   4.802   6.689
 8247SOL     OW25639   2.134   6.633   3.657
 8247SOL    HW125640   2.179   6.683   3.730
 8247SOL    HW225641   2.045   6.676   3.638
 8248SOL     OW25642   0.681   4.872   5.372
 8248SOL    HW125643   0.721   4.866   5.280
 8248SOL    HW225644   0.590   4.829   5.371
 8249SOL     OW25645   2.058   1.076   5.673
 8249SOL    HW125646   2.113   1.139   5.617
 8249SOL    HW225647   1.994   1.026   5.614
 8250SOL     OW25648   3.323   2.375   1.183
 8250SOL    HW125649   3.264   2.306   1.142
 8250SOL    HW225650   3.270   2.456   1.206
 8251SOL     OW25651   5.304   1.417   4.403
 8251SOL    HW125652   5.341   1.341   4.349
 8251SOL    HW225653   5.226   1.384   4.456
 8252SOL     OW25654   4.071   2.019   6.861
 8252SOL    HW125655   4.049   2.049   6.954
 8252SOL    HW225656   3.987   2.001   6.811
 8253SOL     OW25657   3.662   5.534   0.277
 8253SOL    HW125658   3.677   5.590   0.195
 8253SOL    HW225659   3.719   5.451   0.271
 8254SOL     OW25660   5.088   4.269   5.602
 8254SOL    HW125661   5.065   4.234   5.511
 8254SOL    HW225662   5.055   4.205   5.671
 8255SOL     OW25663   1.278   0.122   6.049
 8255SOL    HW125664   1.305   0.038   6.096
 8255SOL    HW225665   1.271   0.196   6.115
 8256SOL     OW25666   6.823   6.343   3.080
 8256SOL    HW125667   6.757   6.299   3.020
 8256SOL    HW225668   6.781   6.424   3.123
 8257SOL     OW25669   5.507   4.328   4.086
 8257SOL    HW125670   5.601   4.301   4.064
 8257SOL    HW225671   5.466   4.261   4.147
 8258SOL     OW25672   4.712   2.993   1.652
 8258SOL    HW125673   4.659   2.984   1.736
 8258SOL    HW225674   4.807   2.969   1.669
 8259SOL     OW25675   3.788   2.281   5.550
 8259SOL    HW125676   3.704   2.234   5.524
 8259SOL    HW225677   3.852   2.215   5.590
 8260SOL     OW25678   1.644   6.152   1.718
 8260SOL    HW125679   1.597   6.083   1.773
 8260SOL    HW225680   1.713   6.197   1.775
 8261SOL     OW25681   5.251   6.333   3.332
 8261SOL    HW125682   5.337   6.374   3.364
 8261SOL    HW225683   5.255   6.234   3.346
 8262SOL     OW25684   0.677   4.465   0.592
 8262SOL    HW125685   0.707   4.390   0.652
 8262SOL    HW225686   0.577   4.462   0.583
 8263SOL     OW25687   6.504   3.111   6.805
 8263SOL    HW125688   6.592   3.065   6.801
 8263SOL    HW225689   6.512   3.203   6.766
 8264SOL     OW25690   0.762   6.719   1.605
 8264SOL    HW125691   0.680   6.662   1.607
 8264SOL    HW225692   0.820   6.696   1.684
 8265SOL     OW25693   5.060   0.653   2.006
 8265SOL    HW125694   5.007   0.572   1.981
 8265SOL    HW225695   5.065   0.714   1.927
 8266SOL     OW25696   2.296   0.681   4.517
 8266SOL    HW125697   2.372   0.616   4.510
 8266SOL    HW225698   2.311   0.757   4.454
 8267SOL     OW25699   1.460   4.322   1.664
 8267SOL    HW125700   1.418   4.258   1.727
 8267SOL    HW225701   1.390   4.362   1.604
 8268SOL     OW25702   3.690   5.339   6.127
 8268SOL    HW125703   3.592   5.317   6.124
 8268SOL    HW225704   3.703   5.432   6.162
 8269SOL     OW25705   4.316   2.338   2.538
 8269SOL    HW125706   4.352   2.396   2.611
 8269SOL    HW225707   4.391   2.287   2.496
 8270SOL     OW25708   3.233   5.923   5.502
 8270SOL    HW125709   3.251   5.951   5.407
 8270SOL    HW225710   3.135   5.932   5.520
 8271SOL     OW25711   6.528   6.389   3.655
 8271SOL    HW125712   6.434   6.382   3.623
 8271SOL    HW225713   6.533   6.455   3.730
 8272SOL     OW25714   6.675   1.161   2.628
 8272SOL    HW125715   6.760   1.170   2.681
 8272SOL    HW225716   6.680   1.219   2.547
 8273SOL     OW25717   3.073   0.958   6.949
 8273SOL    HW125718   3.110   0.987   6.861
 8273SOL    HW225719   2.981   0.923   6.937
 8274SOL     OW25720   4.164   4.875   5.535
 8274SOL    HW125721   4.156   4.973   5.555
 8274SOL    HW225722   4.151   4.823   5.619
 8275SOL     OW25723   5.703   0.298   4.511
 8275SOL    HW125724   5.800   0.300   4.487
 8275SOL    HW225725   5.653   0.361   4.452
 8276SOL     OW25726   6.694   2.327   5.708
 8276SOL    HW125727   6.787   2.359   5.726
 8276SOL    HW225728   6.688   2.292   5.615
 8277SOL     OW25729   2.171   5.964   4.926
 8277SOL    HW125730   2.244   5.953   4.858
 8277SOL    HW225731   2.091   6.005   4.882
 8278SOL     OW25732   3.221   1.930   6.642
 8278SOL    HW125733   3.168   1.996   6.589
 8278SOL    HW225734   3.318   1.949   6.632
 8279SOL     OW25735   6.574   6.059   5.815
 8279SOL    HW125736   6.550   6.133   5.753
 8279SOL    HW225737   6.659   6.015   5.784
 8280SOL     OW25738   4.246   2.796   0.763
 8280SOL    HW125739   4.171   2.742   0.722
 8280SOL    HW225740   4.208   2.862   0.827
 8281SOL     OW25741   2.065   4.506   2.122
 8281SOL    HW125742   2.126   4.439   2.163
 8281SOL    HW225743   2.066   4.590   2.176
 8282SOL     OW25744   2.464   3.587   0.067
 8282SOL    HW125745   2.548   3.548   0.030
 8282SOL    HW225746   2.404   3.514   0.098
 8283SOL     OW25747   1.294   4.887   4.356
 8283SOL    HW125748   1.391   4.890   4.334
 8283SOL    HW225749   1.252   4.976   4.336
 8284SOL     OW25750   1.356   3.959   2.213
 8284SOL    HW125751   1.404   3.980   2.298
 8284SOL    HW225752   1.422   3.939   2.141
 8285SOL     OW25753   3.892   3.215   5.606
 8285SOL    HW125754   3.800   3.204   5.568
 8285SOL    HW225755   3.960   3.193   5.536
 8286SOL     OW25756   5.603   1.897   4.981
 8286SOL    HW125757   5.657   1.835   4.923
 8286SOL    HW225758   5.663   1.941   5.047
 8287SOL     OW25759   1.222   6.124   3.708
 8287SOL    HW125760   1.150   6.055   3.714
 8287SOL    HW225761   1.191   6.209   3.749
 8288SOL     OW25762   0.759   2.357   2.522
 8288SOL    HW125763   0.773   2.455   2.504
 8288SOL    HW225764   0.695   2.345   2.598
 8289SOL     OW25765   5.664   0.582   6.255
 8289SOL    HW125766   5.737   0.519   6.283
 8289SOL    HW225767   5.704   0.671   6.234
 8290SOL     OW25768   4.811   1.561   1.738
 8290SOL    HW125769   4.719   1.525   1.751
 8290SOL    HW225770   4.826   1.638   1.801
 8291SOL     OW25771   5.874   5.692   6.570
 8291SOL    HW125772   5.778   5.666   6.581
 8291SOL    HW225773   5.908   5.656   6.483
 8292SOL     OW25774   2.554   6.000   6.096
 8292SOL    HW125775   2.625   6.069   6.083
 8292SOL    HW225776   2.594   5.909   6.083
 8293SOL     OW25777   1.508   4.023   1.630
 8293SOL    HW125778   1.420   3.984   1.655
 8293SOL    HW225779   1.579   3.990   1.692
 8294SOL     OW25780   6.374   3.163   4.701
 8294SOL    HW125781   6.349   3.259   4.683
 8294SOL    HW225782   6.352   3.108   4.621
 8295SOL     OW25783   5.140   3.164   2.898
 8295SOL    HW125784   5.073   3.229   2.932
 8295SOL    HW225785   5.147   3.171   2.799
 8296SOL     OW25786   3.465   5.051   0.290
 8296SOL    HW125787   3.507   5.116   0.352
 8296SOL    HW225788   3.469   4.959   0.329
 8297SOL     OW25789   6.567   3.225   2.405
 8297SOL    HW125790   6.495   3.223   2.475
 8297SOL    HW225791   6.534   3.184   2.321
 8298SOL     OW25792   0.263   0.334   0.306
 8298SOL    HW125793   0.288   0.258   0.246
 8298SOL    HW225794   0.269   0.305   0.401
 8299SOL     OW25795   0.525   2.594   0.843
 8299SOL    HW125796   0.600   2.588   0.909
 8299SOL    HW225797   0.490   2.688   0.840
 8300SOL     OW25798   6.482   6.579   5.108
 8300SOL    HW125799   6.575   6.546   5.099
 8300SOL    HW225800   6.447   6.607   5.019
 8301SOL     OW25801   4.631   0.587   6.709
 8301SOL    HW125802   4.664   0.552   6.621
 8301SOL    HW225803   4.573   0.668   6.693
 8302SOL     OW25804   4.631   0.061   5.472
 8302SOL    HW125805   4.683   0.026   5.550
 8302SOL    HW225806   4.684   0.133   5.426
 8303SOL     OW25807   6.983   0.499   3.171
 8303SOL    HW125808   0.066   0.511   3.162
 8303SOL    HW225809   6.936   0.563   3.110
 8304SOL     OW25810   5.477   4.900   1.504
 8304SOL    HW125811   5.406   4.948   1.555
 8304SOL    HW225812   5.509   4.822   1.558
 8305SOL     OW25813   4.246   4.855   4.257
 8305SOL    HW125814   4.203   4.905   4.332
 8305SOL    HW225815   4.293   4.774   4.293
 8306SOL     OW25816   6.514   1.367   2.945
 8306SOL    HW125817   6.415   1.378   2.951
 8306SOL    HW225818   6.559   1.454   2.964
 8307SOL     OW25819   3.132   5.262   1.505
 8307SOL    HW125820   3.139   5.302   1.414
 8307SOL    HW225821   3.045   5.287   1.547
 8308SOL     OW25822   2.015   4.486   0.253
 8308SOL    HW125823   2.025   4.558   0.184
 8308SOL    HW225824   2.098   4.431   0.256
 8309SOL     OW25825   5.738   4.965   2.879
 8309SOL    HW125826   5.814   4.933   2.936
 8309SOL    HW225827   5.760   5.054   2.840
 8310SOL     OW25828   1.191   5.480   1.002
 8310SOL    HW125829   1.245   5.470   0.919
 8310SOL    HW225830   1.213   5.407   1.066
 8311SOL     OW25831   5.424   0.651   4.712
 8311SOL    HW125832   5.331   0.618   4.728
 8311SOL    HW225833   5.461   0.689   4.797
 8312SOL     OW25834   5.720   1.011   0.202
 8312SOL    HW125835   5.648   0.949   0.234
 8312SOL    HW225836   5.788   1.024   0.274
 8313SOL     OW25837   4.731   0.428   5.806
 8313SOL    HW125838   4.682   0.470   5.883
 8313SOL    HW225839   4.689   0.457   5.720
 8314SOL     OW25840   6.070   6.745   6.386
 8314SOL    HW125841   6.099   6.812   6.317
 8314SOL    HW225842   5.999   6.686   6.347
 8315SOL     OW25843   4.041   3.146   3.113
 8315SOL    HW125844   4.074   3.235   3.144
 8315SOL    HW225845   4.081   3.074   3.170
 8316SOL     OW25846   1.543   3.189   0.645
 8316SOL    HW125847   1.568   3.274   0.599
 8316SOL    HW225848   1.452   3.160   0.616
 8317SOL     OW25849   2.443   2.190   3.200
 8317SOL    HW125850   2.404   2.242   3.276
 8317SOL    HW225851   2.400   2.099   3.196
 8318SOL     OW25852   4.176   1.508   5.516
 8318SOL    HW125853   4.159   1.522   5.418
 8318SOL    HW225854   4.275   1.504   5.532
 8319SOL     OW25855   1.642   0.411   0.375
 8319SOL    HW125856   1.717   0.468   0.341
 8319SOL    HW225857   1.664   0.380   0.468
 8320SOL     OW25858   3.471   4.139   3.632
 8320SOL    HW125859   3.537   4.164   3.702
 8320SOL    HW225860   3.381   4.128   3.673
 8321SOL     OW25861   0.036   0.164   6.365
 8321SOL    HW125862   0.107   0.121   6.421
 8321SOL    HW225863   0.050   0.263   6.363
 8322SOL     OW25864   0.218   1.437   0.036
 8322SOL    HW125865   0.256   1.353   0.073
 8322SOL    HW225866   0.128   1.419   7.013
 8323SOL     OW25867   3.296   5.074   1.401
 8323SOL    HW125868   3.237   5.133   1.456
 8323SOL    HW225869   3.266   4.979   1.410
 8324SOL     OW25870   5.227   0.349   0.497
 8324SOL    HW125871   5.286   0.284   0.447
 8324SOL    HW225872   5.274   0.436   0.506
 8325SOL     OW25873   0.683   4.096   5.370
 8325SOL    HW125874   0.704   4.173   5.430
 8325SOL    HW225875   0.683   4.126   5.275
 8326SOL     OW25876   3.955   4.055   6.695
 8326SOL    HW125877   4.001   4.038   6.608
 8326SOL    HW225878   3.988   4.140   6.735
 8327SOL     OW25879   1.024   0.245   5.796
 8327SOL    HW125880   0.968   0.327   5.809
 8327SOL    HW225881   1.117   0.272   5.768
 8328SOL     OW25882   2.547   6.727   6.274
 8328SOL    HW125883   2.555   6.686   6.183
 8328SOL    HW225884   2.562   6.656   6.343
 8329SOL     OW25885   0.327   1.997   5.099
 8329SOL    HW125886   0.347   2.025   5.005
 8329SOL    HW225887   0.276   2.070   5.145
 8330SOL     OW25888   3.542   1.471   6.588
 8330SOL    HW125889   3.509   1.493   6.496
 8330SOL    HW225890   3.615   1.534   6.613
 8331SOL     OW25891   3.249   0.881   0.706
 8331SOL    HW125892   3.241   0.928   0.618
 8331SOL    HW225893   3.170   0.821   0.719
 8332SOL     OW25894   5.294   5.056   1.645
 8332SOL    HW125895   5.266   5.049   1.741
 8332SOL    HW225896   5.241   5.127   1.600
 8333SOL     OW25897   1.846   4.930   0.120
 8333SOL    HW125898   1.915   4.875   0.073
 8333SOL    HW225899   1.856   5.026   0.094
 8334SOL     OW25900   2.828   2.416   6.024
 8334SOL    HW125901   2.919   2.421   6.064
 8334SOL    HW225902   2.822   2.478   5.946
 8335SOL     OW25903   3.603   2.291   0.161
 8335SOL    HW125904   3.534   2.356   0.129
 8335SOL    HW225905   3.694   2.332   0.152
 8336SOL     OW25906   0.970   4.107   2.868
 8336SOL    HW125907   1.049   4.096   2.928
 8336SOL    HW225908   0.955   4.022   2.816
 8337SOL     OW25909   0.079   0.039   4.196
 8337SOL    HW125910   0.001   0.081   4.242
 8337SOL    HW225911   0.084   0.071   4.101
 8338SOL     OW25912   3.522   5.634   1.927
 8338SOL    HW125913   3.606   5.673   1.889
 8338SOL    HW225914   3.489   5.691   2.002
 8339SOL     OW25915   0.119   1.081   1.583
 8339SOL    HW125916   0.174   0.998   1.582
 8339SOL    HW225917   0.067   1.085   1.668
 8340SOL     OW25918   5.384   4.362   0.441
 8340SOL    HW125919   5.450   4.376   0.515
 8340SOL    HW225920   5.299   4.324   0.479
 8341SOL     OW25921   3.614   0.253   6.944
 8341SOL    HW125922   3.516   0.273   6.932
 8341SOL    HW225923   3.649   0.207   6.863
 8342SOL     OW25924   4.240   6.841   0.808
 8342SOL    HW125925   4.316   6.787   0.845
 8342SOL    HW225926   4.158   6.784   0.804
 8343SOL     OW25927   6.431   5.244   3.837
 8343SOL    HW125928   6.393   5.166   3.788
 8343SOL    HW225929   6.459   5.315   3.771
 8344SOL     OW25930   6.633   4.647   4.620
 8344SOL    HW125931   6.662   4.737   4.651
 8344SOL    HW225932   6.681   4.577   4.674
 8345SOL     OW25933   4.250   1.989   3.386
 8345SOL    HW125934   4.174   1.923   3.383
 8345SOL    HW225935   4.265   2.019   3.480
 8346SOL     OW25936   3.807   3.640   6.315
 8346SOL    HW125937   3.730   3.653   6.378
 8346SOL    HW225938   3.792   3.694   6.232
 8347SOL     OW25939   3.444   6.895   6.112
 8347SOL    HW125940   3.378   6.824   6.092
 8347SOL    HW225941   3.447   6.912   6.211
 8348SOL     OW25942   2.281   0.622   1.832
 8348SOL    HW125943   2.210   0.553   1.845
 8348SOL    HW225944   2.312   0.655   1.922
 8349SOL     OW25945   1.410   6.449   1.840
 8349SOL    HW125946   1.455   6.400   1.765
 8349SOL    HW225947   1.329   6.398   1.869
 8350SOL     OW25948   3.083   6.848   6.413
 8350SOL    HW125949   2.998   6.858   6.466
 8350SOL    HW225950   3.097   6.930   6.358
 8351SOL     OW25951   5.745   5.297   4.232
 8351SOL    HW125952   5.709   5.211   4.269
 8351SOL    HW225953   5.735   5.369   4.301
 8352SOL     OW25954   1.779   6.909   2.897
 8352SOL    HW125955   1.774   6.989   2.956
 8352SOL    HW225956   1.809   6.937   2.806
 8353SOL     OW25957   0.614   3.835   0.613
 8353SOL    HW125958   0.704   3.831   0.657
 8353SOL    HW225959   0.597   3.927   0.580
 8354SOL     OW25960   3.307   0.089   4.196
 8354SOL    HW125961   3.303   0.051   4.289
 8354SOL    HW225962   3.400   0.082   4.161
 8355SOL     OW25963   1.707   1.189   5.254
 8355SOL    HW125964   1.612   1.173   5.281
 8355SOL    HW225965   1.710   1.231   5.164
 8356SOL     OW25966   1.009   5.750   1.292
 8356SOL    HW125967   1.004   5.740   1.391
 8356SOL    HW225968   0.918   5.763   1.254
 8357SOL     OW25969   3.969   6.652   5.593
 8357SOL    HW125970   3.940   6.601   5.673
 8357SOL    HW225971   3.995   6.745   5.620
 8358SOL     OW25972   1.294   2.780   4.465
 8358SOL    HW125973   1.219   2.838   4.433
 8358SOL    HW225974   1.381   2.817   4.435
 8359SOL     OW25975   2.652   1.553   4.801
 8359SOL    HW125976   2.673   1.624   4.733
 8359SOL    HW225977   2.564   1.511   4.777
 8360SOL     OW25978   4.714   0.111   1.211
 8360SOL    HW125979   4.723   0.152   1.302
 8360SOL    HW225980   4.793   0.136   1.155
 8361SOL     OW25981   3.779   0.485   0.270
 8361SOL    HW125982   3.854   0.542   0.306
 8361SOL    HW225983   3.709   0.474   0.341
 8362SOL     OW25984   5.766   1.763   1.033
 8362SOL    HW125985   5.695   1.747   0.965
 8362SOL    HW225986   5.726   1.808   1.113
 8363SOL     OW25987   5.108   1.789   0.436
 8363SOL    HW125988   5.060   1.820   0.355
 8363SOL    HW225989   5.089   1.692   0.452
 8364SOL     OW25990   0.322   2.839   4.202
 8364SOL    HW125991   0.355   2.759   4.152
 8364SOL    HW225992   0.339   2.921   4.148
 8365SOL     OW25993   1.459   2.298   2.628
 8365SOL    HW125994   1.392   2.260   2.565
 8365SOL    HW225995   1.509   2.373   2.583
 8366SOL     OW25996   3.494   5.543   0.876
 8366SOL    HW125997   3.525   5.488   0.954
 8366SOL    HW225998   3.566   5.607   0.849
 8367SOL     OW25999   3.654   5.637   5.210
 8367SOL    HW126000   3.574   5.579   5.193
 8367SOL    HW226001   3.626   5.733   5.210
 8368SOL     OW26002   1.089   5.853   0.494
 8368SOL    HW126003   1.166   5.915   0.480
 8368SOL    HW226004   1.117   5.781   0.558
 8369SOL     OW26005   0.744   1.092   6.699
 8369SOL    HW126006   0.826   1.040   6.723
 8369SOL    HW226007   0.749   1.183   6.741
 8370SOL     OW26008   2.213   1.175   6.017
 8370SOL    HW126009   2.255   1.241   5.955
 8370SOL    HW226010   2.121   1.207   6.040
 8371SOL     OW26011   2.132   3.352   6.794
 8371SOL    HW126012   2.203   3.408   6.835
 8371SOL    HW226013   2.156   3.255   6.801
 8372SOL     OW26014   1.467   5.907   1.396
 8372SOL    HW126015   1.538   5.878   1.332
 8372SOL    HW226016   1.459   6.007   1.394
 8373SOL     OW26017   1.777   0.151   5.059
 8373SOL    HW126018   1.833   0.130   4.979
 8373SOL    HW226019   1.709   0.079   5.072
 8374SOL     OW26020   0.174   0.054   4.871
 8374SOL    HW126021   0.082   0.091   4.880
 8374SOL    HW226022   0.170   6.973   4.847
 8375SOL     OW26023   3.502   6.382   5.910
 8375SOL    HW126024   3.413   6.426   5.895
 8375SOL    HW226025   3.555   6.384   5.826
 8376SOL     OW26026   1.466   1.030   3.994
 8376SOL    HW126027   1.544   1.086   4.022
 8376SOL    HW226028   1.492   0.973   3.916
 8377SOL     OW26029   5.920   6.225   0.039
 8377SOL    HW126030   5.897   6.198   0.133
 8377SOL    HW226031   5.898   6.321   0.026
 8378SOL     OW26032   4.020   5.165   3.819
 8378SOL    HW126033   3.972   5.077   3.821
 8378SOL    HW226034   4.017   5.206   3.911
 8379SOL     OW26035   4.960   2.725   1.972
 8379SOL    HW126036   4.965   2.704   2.069
 8379SOL    HW226037   4.864   2.728   1.943
 8380SOL     OW26038   0.442   6.988   7.012
 8380SOL    HW126039   0.529   0.010   6.980
 8380SOL    HW226040   0.460   6.900   0.041
 8381SOL     OW26041   0.156   2.539   3.378
 8381SOL    HW126042   0.122   2.597   3.305
 8381SOL    HW226043   0.179   2.595   3.458
 8382SOL     OW26044   2.213   6.823   1.596
 8382SOL    HW126045   2.130   6.876   1.612
 8382SOL    HW226046   2.227   6.811   1.498
 8383SOL     OW26047   3.024   6.710   5.885
 8383SOL    HW126048   3.117   6.710   5.849
 8383SOL    HW226049   3.024   6.744   5.979
 8384SOL     OW26050   6.920   1.675   0.983
 8384SOL    HW126051   6.970   1.646   0.901
 8384SOL    HW226052   6.854   1.745   0.959
 8385SOL     OW26053   4.392   2.296   0.595
 8385SOL    HW126054   4.470   2.283   0.534
 8385SOL    HW226055   4.394   2.226   0.667
 8386SOL     OW26056   2.025   5.567   1.144
 8386SOL    HW126057   2.028   5.569   1.244
 8386SOL    HW226058   1.930   5.568   1.113
 8387SOL     OW26059   1.442   2.005   1.456
 8387SOL    HW126060   1.435   1.916   1.412
 8387SOL    HW226061   1.501   2.065   1.401
 8388SOL     OW26062   1.417   6.446   1.178
 8388SOL    HW126063   1.431   6.474   1.083
 8388SOL    HW226064   1.505   6.441   1.224
 8389SOL     OW26065   0.206   2.991   4.608
 8389SOL    HW126066   0.303   3.009   4.595
 8389SOL    HW226067   0.162   2.976   4.520
 8390SOL     OW26068   3.729   6.530   6.878
 8390SOL    HW126069   3.809   6.506   6.824
 8390SOL    HW226070   3.646   6.505   6.827
 8391SOL     OW26071   4.755   4.897   1.058
 8391SOL    HW126072   4.691   4.852   0.996
 8391SOL    HW226073   4.801   4.829   1.115
 8392SOL     OW26074   6.778   5.261   5.760
 8392SOL    HW126075   6.708   5.311   5.709
 8392SOL    HW226076   6.746   5.168   5.779
 8393SOL     OW26077   6.718   6.739   3.888
 8393SOL    HW126078   6.772   6.709   3.966
 8393SOL    HW226079   6.665   6.820   3.913
 8394SOL     OW26080   6.998   2.898   1.561
 8394SOL    HW126081   0.015   2.987   1.528
 8394SOL    HW226082   0.028   2.826   1.509
 8395SOL     OW26083   1.406   6.015   4.369
 8395SOL    HW126084   1.479   6.007   4.302
 8395SOL    HW226085   1.345   6.090   4.343
 8396SOL     OW26086   4.123   4.682   2.101
 8396SOL    HW126087   4.103   4.706   2.195
 8396SOL    HW226088   4.057   4.614   2.069
 8397SOL     OW26089   2.457   1.035   3.357
 8397SOL    HW126090   2.496   1.016   3.447
 8397SOL    HW226091   2.528   1.074   3.298
 8398SOL     OW26092   4.199   2.508   6.407
 8398SOL    HW126093   4.297   2.527   6.413
 8398SOL    HW226094   4.171   2.512   6.311
 8399SOL     OW26095   6.388   0.318   0.021
 8399SOL    HW126096   6.378   0.240   6.975
 8399SOL    HW226097   6.438   0.288   0.103
 8400SOL     OW26098   1.039   0.365   3.972
 8400SOL    HW126099   1.003   0.436   4.033
 8400SOL    HW226100   1.139   0.371   3.969
 8401SOL     OW26101   3.537   2.191   6.318
 8401SOL    HW126102   3.450   2.160   6.281
 8401SOL    HW226103   3.590   2.113   6.351
 8402SOL     OW26104   4.050   1.820   5.582
 8402SOL    HW126105   4.055   1.773   5.494
 8402SOL    HW226106   4.118   1.892   5.585
 8403SOL     OW26107   0.943   1.779   2.936
 8403SOL    HW126108   0.971   1.872   2.910
 8403SOL    HW226109   0.994   1.712   2.882
 8404SOL     OW26110   4.560   5.691   6.458
 8404SOL    HW126111   4.488   5.754   6.429
 8404SOL    HW226112   4.639   5.743   6.489
 8405SOL     OW26113   2.502   1.175   5.947
 8405SOL    HW126114   2.495   1.275   5.939
 8405SOL    HW226115   2.419   1.139   5.987
 8406SOL     OW26116   4.842   0.141   0.426
 8406SOL    HW126117   4.779   0.213   0.454
 8406SOL    HW226118   4.928   0.149   0.477
 8407SOL     OW26119   5.010   6.228   3.526
 8407SOL    HW126120   4.918   6.197   3.552
 8407SOL    HW226121   5.037   6.187   3.440
 8408SOL     OW26122   5.103   2.821   2.504
 8408SOL    HW126123   5.010   2.856   2.518
 8408SOL    HW226124   5.107   2.726   2.534
 8409SOL     OW26125   6.259   3.523   3.207
 8409SOL    HW126126   6.356   3.513   3.226
 8409SOL    HW226127   6.210   3.443   3.243
 8410SOL     OW26128   4.914   0.698   1.574
 8410SOL    HW126129   4.852   0.622   1.553
 8410SOL    HW226130   4.961   0.727   1.491
 8411SOL     OW26131   1.550   5.114   5.886
 8411SOL    HW126132   1.587   5.092   5.976
 8411SOL    HW226133   1.503   5.034   5.849
 8412SOL     OW26134   4.203   1.883   2.250
 8412SOL    HW126135   4.155   1.880   2.162
 8412SOL    HW226136   4.299   1.856   2.236
 8413SOL     OW26137   4.325   4.812   0.086
 8413SOL    HW126138   4.276   4.734   0.124
 8413SOL    HW226139   4.272   4.852   0.011
 8414SOL     OW26140   4.449   5.628   3.005
 8414SOL    HW126141   4.448   5.585   2.915
 8414SOL    HW226142   4.359   5.664   3.027
 8415SOL     OW26143   6.398   5.052   4.033
 8415SOL    HW126144   6.299   5.051   4.044
 8415SOL    HW226145   6.424   5.128   3.973
 8416SOL     OW26146   5.157   4.313   2.730
 8416SOL    HW126147   5.168   4.214   2.727
 8416SOL    HW226148   5.246   4.357   2.740
 8417SOL     OW26149   1.499   4.999   6.388
 8417SOL    HW126150   1.480   4.903   6.406
 8417SOL    HW226151   1.424   5.055   6.421
 8418SOL     OW26152   6.351   5.275   1.279
 8418SOL    HW126153   6.408   5.304   1.356
 8418SOL    HW226154   6.392   5.196   1.234
 8419SOL     OW26155   5.601   1.565   3.039
 8419SOL    HW126156   5.556   1.586   2.951
 8419SOL    HW226157   5.533   1.530   3.103
 8420SOL     OW26158   4.001   6.838   1.166
 8420SOL    HW126159   4.048   6.750   1.157
 8420SOL    HW226160   3.949   6.840   1.251
 8421SOL     OW26161   2.896   5.971   0.707
 8421SOL    HW126162   2.942   5.990   0.621
 8421SOL    HW226163   2.803   5.939   0.688
 8422SOL     OW26164   3.881   0.687   1.496
 8422SOL    HW126165   3.874   0.785   1.511
 8422SOL    HW226166   3.978   0.661   1.487
 8423SOL     OW26167   3.848   4.650   5.722
 8423SOL    HW126168   3.820   4.646   5.626
 8423SOL    HW226169   3.826   4.740   5.759
 8424SOL     OW26170   2.521   2.464   2.645
 8424SOL    HW126171   2.512   2.516   2.560
 8424SOL    HW226172   2.530   2.366   2.623
 8425SOL     OW26173   5.600   5.893   0.670
 8425SOL    HW126174   5.655   5.924   0.747
 8425SOL    HW226175   5.511   5.938   0.673
 8426SOL     OW26176   2.956   3.283   4.348
 8426SOL    HW126177   3.053   3.308   4.340
 8426SOL    HW226178   2.903   3.338   4.282
 8427SOL     OW26179   2.419   3.796   5.579
 8427SOL    HW126180   2.499   3.757   5.534
 8427SOL    HW226181   2.360   3.722   5.612
 8428SOL     OW26182   0.141   3.909   1.669
 8428SOL    HW126183   0.146   3.880   1.573
 8428SOL    HW226184   0.213   3.975   1.687
 8429SOL     OW26185   2.171   4.266   3.600
 8429SOL    HW126186   2.191   4.286   3.696
 8429SOL    HW226187   2.080   4.227   3.593
 8430SOL     OW26188   3.810   6.111   4.215
 8430SOL    HW126189   3.908   6.095   4.223
 8430SOL    HW226190   3.762   6.059   4.285
 8431SOL     OW26191   2.801   5.508   0.820
 8431SOL    HW126192   2.824   5.545   0.730
 8431SOL    HW226193   2.712   5.544   0.849
 8432SOL     OW26194   5.454   6.916   6.205
 8432SOL    HW126195   5.440   6.831   6.256
 8432SOL    HW226196   5.411   6.907   6.115
 8433SOL     OW26197   6.577   1.927   0.705
 8433SOL    HW126198   6.644   1.984   0.658
 8433SOL    HW226199   6.620   1.882   0.783
 8434SOL     OW26200   3.176   6.767   5.279
 8434SOL    HW126201   3.110   6.726   5.217
 8434SOL    HW226202   3.251   6.703   5.296
 8435SOL     OW26203   5.506   0.402   1.286
 8435SOL    HW126204   5.436   0.473   1.298
 8435SOL    HW226205   5.544   0.409   1.194
 8436SOL     OW26206   3.468   6.964   4.723
 8436SOL    HW126207   3.376   6.936   4.750
 8436SOL    HW226208   3.501   0.020   4.785
 8437SOL     OW26209   1.505   0.221   3.408
 8437SOL    HW126210   1.474   0.135   3.449
 8437SOL    HW226211   1.514   0.209   3.309
 8438SOL     OW26212   2.539   4.988   2.135
 8438SOL    HW126213   2.533   5.012   2.038
 8438SOL    HW226214   2.624   4.940   2.152
 8439SOL     OW26215   6.506   5.395   1.490
 8439SOL    HW126216   6.562   5.371   1.569
 8439SOL    HW226217   6.528   5.487   1.460
 8440SOL     OW26218   0.819   1.806   3.523
 8440SOL    HW126219   0.812   1.773   3.429
 8440SOL    HW226220   0.823   1.906   3.523
 8441SOL     OW26221   5.854   6.483   0.023
 8441SOL    HW126222   5.842   6.561   0.085
 8441SOL    HW226223   5.766   6.442   0.003
 8442SOL     OW26224   3.209   2.616   5.612
 8442SOL    HW126225   3.209   2.714   5.632
 8442SOL    HW226226   3.291   2.574   5.650
 8443SOL     OW26227   1.297   6.408   3.568
 8443SOL    HW126228   1.326   6.349   3.492
 8443SOL    HW226229   1.275   6.499   3.534
 8444SOL     OW26230   3.381   5.877   4.161
 8444SOL    HW126231   3.355   5.867   4.065
 8444SOL    HW226232   3.314   5.934   4.208
 8445SOL     OW26233   3.412   5.353   1.521
 8445SOL    HW126234   3.456   5.399   1.598
 8445SOL    HW226235   3.317   5.384   1.513
 8446SOL     OW26236   4.083   5.538   0.105
 8446SOL    HW126237   4.127   5.484   0.033
 8446SOL    HW226238   4.005   5.488   0.141
 8447SOL     OW26239   5.617   2.691   1.746
 8447SOL    HW126240   5.530   2.671   1.791
 8447SOL    HW226241   5.687   2.708   1.815
 8448SOL     OW26242   5.606   5.031   4.239
 8448SOL    HW126243   5.615   5.076   4.150
 8448SOL    HW226244   5.679   4.964   4.250
 8449SOL     OW26245   6.150   2.925   4.337
 8449SOL    HW126246   6.167   2.847   4.276
 8449SOL    HW226247   6.231   2.943   4.393
 8450SOL     OW26248   1.389   5.651   1.964
 8450SOL    HW126249   1.356   5.742   1.937
 8450SOL    HW226250   1.354   5.628   2.054
 8451SOL     OW26251   4.830   2.429   0.758
 8451SOL    HW126252   4.858   2.463   0.848
 8451SOL    HW226253   4.732   2.406   0.761
 8452SOL     OW26254   6.810   1.159   2.339
 8452SOL    HW126255   6.834   1.062   2.350
 8452SOL    HW226256   6.874   1.215   2.391
 8453SOL     OW26257   6.779   4.078   6.694
 8453SOL    HW126258   6.820   4.103   6.782
 8453SOL    HW226259   6.849   4.081   6.623
 8454SOL     OW26260   0.503   6.093   0.815
 8454SOL    HW126261   0.588   6.105   0.765
 8454SOL    HW226262   0.488   6.172   0.874
 8455SOL     OW26263   5.563   2.007   1.415
 8455SOL    HW126264   5.660   2.023   1.435
 8455SOL    HW226265   5.507   2.070   1.468
 8456SOL     OW26266   4.486   4.802   3.106
 8456SOL    HW126267   4.545   4.839   3.178
 8456SOL    HW226268   4.430   4.876   3.068
 8457SOL     OW26269   0.160   6.402   5.276
 8457SOL    HW126270   0.260   6.398   5.284
 8457SOL    HW226271   0.136   6.445   5.188
 8458SOL     OW26272   2.797   1.269   0.003
 8458SOL    HW126273   2.800   1.201   0.075
 8458SOL    HW226274   2.741   1.235   6.943
 8459SOL     OW26275   3.183   6.336   1.579
 8459SOL    HW126276   3.213   6.325   1.673
 8459SOL    HW226277   3.089   6.304   1.570
 8460SOL     OW26278   4.568   2.376   5.399
 8460SOL    HW126279   4.623   2.331   5.470
 8460SOL    HW226280   4.619   2.452   5.359
 8461SOL     OW26281   0.727   3.734   3.009
 8461SOL    HW126282   0.776   3.734   3.096
 8461SOL    HW226283   0.668   3.653   3.004
 8462SOL     OW26284   3.654   2.412   0.714
 8462SOL    HW126285   3.625   2.426   0.619
 8462SOL    HW226286   3.667   2.315   0.731
 8463SOL     OW26287   6.210   0.506   6.952
 8463SOL    HW126288   6.137   0.526   0.002
 8463SOL    HW226289   6.272   0.438   6.991
 8464SOL     OW26290   5.584   3.678   5.737
 8464SOL    HW126291   5.577   3.605   5.805
 8464SOL    HW226292   5.529   3.655   5.657
 8465SOL     OW26293   2.145   2.516   0.976
 8465SOL    HW126294   2.220   2.489   1.037
 8465SOL    HW226295   2.074   2.563   1.029
 8466SOL     OW26296   0.105   6.788   5.273
 8466SOL    HW126297   0.110   6.888   5.279
 8466SOL    HW226298   0.027   6.762   5.215
 8467SOL     OW26299   4.030   0.468   1.218
 8467SOL    HW126300   3.941   0.512   1.232
 8467SOL    HW226301   4.018   0.384   1.165
 8468SOL     OW26302   4.558   2.343   0.846
 8468SOL    HW126303   4.524   2.257   0.884
 8468SOL    HW226304   4.482   2.407   0.836
 8469SOL     OW26305   3.185   1.732   5.395
 8469SOL    HW126306   3.154   1.763   5.304
 8469SOL    HW226307   3.124   1.660   5.428
 8470SOL     OW26308   0.442   4.999   0.234
 8470SOL    HW126309   0.398   4.911   0.218
 8470SOL    HW226310   0.541   4.986   0.237
 8471SOL     OW26311   4.284   0.299   4.245
 8471SOL    HW126312   4.328   0.240   4.177
 8471SOL    HW226313   4.190   0.269   4.259
 8472SOL     OW26314   6.635   0.405   5.757
 8472SOL    HW126315   6.618   0.418   5.659
 8472SOL    HW226316   6.622   0.308   5.780
 8473SOL     OW26317   6.254   5.853   0.857
 8473SOL    HW126318   6.352   5.840   0.843
 8473SOL    HW226319   6.204   5.785   0.804
 8474SOL     OW26320   3.551   3.628   2.630
 8474SOL    HW126321   3.617   3.616   2.556
 8474SOL    HW226322   3.459   3.642   2.592
 8475SOL     OW26323   0.127   2.559   2.918
 8475SOL    HW126324   0.118   2.558   2.818
 8475SOL    HW226325   0.124   2.465   2.952
 8476SOL     OW26326   6.710   1.802   0.926
 8476SOL    HW126327   6.691   1.705   0.909
 8476SOL    HW226328   6.658   1.833   1.006
 8477SOL     OW26329   5.063   6.648   2.561
 8477SOL    HW126330   5.019   6.660   2.472
 8477SOL    HW226331   5.123   6.726   2.580
 8478SOL     OW26332   1.669   6.947   6.246
 8478SOL    HW126333   1.692   6.913   6.155
 8478SOL    HW226334   1.640   0.027   6.239
 8479SOL     OW26335   0.758   2.390   0.820
 8479SOL    HW126336   0.665   2.364   0.794
 8479SOL    HW226337   0.754   2.450   0.900
 8480SOL     OW26338   5.240   2.864   0.586
 8480SOL    HW126339   5.260   2.806   0.507
 8480SOL    HW226340   5.208   2.808   0.662
 8481SOL     OW26341   5.151   2.825   5.029
 8481SOL    HW126342   5.076   2.759   5.027
 8481SOL    HW226343   5.189   2.836   4.937
 8482SOL     OW26344   4.640   6.371   2.674
 8482SOL    HW126345   4.715   6.345   2.734
 8482SOL    HW226346   4.650   6.467   2.647
 8483SOL     OW26347   3.675   6.321   1.825
 8483SOL    HW126348   3.676   6.406   1.877
 8483SOL    HW226349   3.589   6.273   1.840
 8484SOL     OW26350   0.006   5.894   3.777
 8484SOL    HW126351   0.031   5.835   3.701
 8484SOL    HW226352   0.030   5.849   3.863
 8485SOL     OW26353   3.479   2.787   0.395
 8485SOL    HW126354   3.414   2.722   0.357
 8485SOL    HW226355   3.430   2.862   0.439
 8486SOL     OW26356   2.320   1.740   2.297
 8486SOL    HW126357   2.389   1.684   2.252
 8486SOL    HW226358   2.232   1.693   2.294
 8487SOL     OW26359   5.511   1.546   5.416
 8487SOL    HW126360   5.486   1.502   5.503
 8487SOL    HW226361   5.610   1.542   5.404
 8488SOL     OW26362   5.423   6.416   0.979
 8488SOL    HW126363   5.331   6.424   1.018
 8488SOL    HW226364   5.433   6.328   0.933
 8489SOL     OW26365   6.378   1.755   1.841
 8489SOL    HW126366   6.312   1.689   1.802
 8489SOL    HW226367   6.395   1.827   1.774
 8490SOL     OW26368   4.250   6.774   5.048
 8490SOL    HW126369   4.224   6.696   4.991
 8490SOL    HW226370   4.214   6.761   5.140
 8491SOL     OW26371   2.665   5.941   1.623
 8491SOL    HW126372   2.667   5.903   1.531
 8491SOL    HW226373   2.597   5.893   1.678
 8492SOL     OW26374   5.917   3.632   5.302
 8492SOL    HW126375   5.977   3.627   5.382
 8492SOL    HW226376   5.876   3.723   5.296
 8493SOL     OW26377   2.288   2.361   5.844
 8493SOL    HW126378   2.207   2.370   5.785
 8493SOL    HW226379   2.313   2.264   5.851
 8494SOL     OW26380   4.162   5.059   1.286
 8494SOL    HW126381   4.145   5.128   1.356
 8494SOL    HW226382   4.239   5.087   1.229
 8495SOL     OW26383   6.466   4.704   1.963
 8495SOL    HW126384   6.475   4.792   2.010
 8495SOL    HW226385   6.543   4.693   1.899
 8496SOL     OW26386   1.528   1.872   2.538
 8496SOL    HW126387   1.432   1.897   2.525
 8496SOL    HW226388   1.572   1.939   2.597
 8497SOL     OW26389   6.735   0.845   3.661
 8497SOL    HW126390   6.701   0.763   3.707
 8497SOL    HW226391   6.760   0.913   3.730
 8498SOL     OW26392   6.267   6.030   3.010
 8498SOL    HW126393   6.182   6.064   3.050
 8498SOL    HW226394   6.333   6.105   3.003
 8499SOL     OW26395   2.315   3.849   6.733
 8499SOL    HW126396   2.243   3.801   6.783
 8499SOL    HW226397   2.317   3.945   6.762
 8500SOL     OW26398   1.529   5.921   5.523
 8500SOL    HW126399   1.575   5.908   5.435
 8500SOL    HW226400   1.579   5.873   5.595
 8501SOL     OW26401   0.337   2.170   6.604
 8501SOL    HW126402   0.383   2.198   6.519
 8501SOL    HW226403   0.397   2.110   6.656
 8502SOL     OW26404   0.497   3.650   0.901
 8502SOL    HW126405   0.472   3.673   0.807
 8502SOL    HW226406   0.589   3.609   0.901
 8503SOL     OW26407   1.016   5.676   4.517
 8503SOL    HW126408   1.043   5.589   4.477
 8503SOL    HW226409   1.090   5.709   4.577
 8504SOL     OW26410   2.395   4.902   3.003
 8504SOL    HW126411   2.484   4.881   3.043
 8504SOL    HW226412   2.361   4.989   3.041
 8505SOL     OW26413   6.519   3.478   3.335
 8505SOL    HW126414   6.543   3.401   3.394
 8505SOL    HW226415   6.550   3.563   3.377
 8506SOL     OW26416   0.774   0.893   6.922
 8506SOL    HW126417   0.711   0.874   6.847
 8506SOL    HW226418   0.823   0.809   6.946
 8507SOL     OW26419   4.019   0.736   4.618
 8507SOL    HW126420   4.050   0.692   4.534
 8507SOL    HW226421   4.098   0.761   4.674
 8508SOL     OW26422   5.099   1.996   4.847
 8508SOL    HW126423   5.059   1.905   4.838
 8508SOL    HW226424   5.197   1.988   4.865
 8509SOL     OW26425   4.412   0.820   4.015
 8509SOL    HW126426   4.463   0.739   3.986
 8509SOL    HW226427   4.344   0.795   4.084
 8510SOL     OW26428   5.760   4.738   2.397
 8510SOL    HW126429   5.731   4.827   2.432
 8510SOL    HW226430   5.708   4.666   2.443
 8511SOL     OW26431   6.092   4.214   2.316
 8511SOL    HW126432   6.001   4.255   2.328
 8511SOL    HW226433   6.087   4.116   2.334
 8512SOL     OW26434   2.610   1.573   2.722
 8512SOL    HW126435   2.592   1.560   2.819
 8512SOL    HW226436   2.640   1.486   2.681
 8513SOL     OW26437   6.767   5.292   0.626
 8513SOL    HW126438   6.766   5.392   0.628
 8513SOL    HW226439   6.730   5.256   0.711
 8514SOL     OW26440   2.092   2.262   4.094
 8514SOL    HW126441   2.061   2.217   4.011
 8514SOL    HW226442   2.065   2.358   4.092
 8515SOL     OW26443   4.805   2.115   1.284
 8515SOL    HW126444   4.775   2.173   1.359
 8515SOL    HW226445   4.893   2.073   1.306
 8516SOL     OW26446   0.058   2.017   2.144
 8516SOL    HW126447   0.083   2.021   2.047
 8516SOL    HW226448   0.035   1.922   2.168
 8517SOL     OW26449   0.622   2.562   6.062
 8517SOL    HW126450   0.661   2.606   6.143
 8517SOL    HW226451   0.672   2.478   6.043
 8518SOL     OW26452   4.219   4.059   0.029
 8518SOL    HW126453   4.126   4.097   0.032
 8518SOL    HW226454   4.215   3.962   0.052
 8519SOL     OW26455   1.624   4.675   2.360
 8519SOL    HW126456   1.530   4.709   2.351
 8519SOL    HW226457   1.632   4.622   2.445
 8520SOL     OW26458   3.652   2.148   0.841
 8520SOL    HW126459   3.724   2.079   0.836
 8520SOL    HW226460   3.563   2.103   0.841
 8521SOL     OW26461   1.748   4.778   5.665
 8521SOL    HW126462   1.753   4.701   5.729
 8521SOL    HW226463   1.760   4.745   5.572
 8522SOL     OW26464   1.241   5.264   1.725
 8522SOL    HW126465   1.333   5.249   1.691
 8522SOL    HW226466   1.245   5.306   1.816
 8523SOL     OW26467   3.297   0.356   6.299
 8523SOL    HW126468   3.314   0.260   6.322
 8523SOL    HW226469   3.326   0.415   6.375
 8524SOL     OW26470   1.371   1.950   5.042
 8524SOL    HW126471   1.275   1.928   5.060
 8524SOL    HW226472   1.387   2.047   5.060
 8525SOL     OW26473   6.297   4.509   2.649
 8525SOL    HW126474   6.293   4.496   2.550
 8525SOL    HW226475   6.222   4.568   2.678
 8526SOL     OW26476   3.487   4.800   0.386
 8526SOL    HW126477   3.494   4.842   0.476
 8526SOL    HW226478   3.544   4.718   0.383
 8527SOL     OW26479   3.006   0.447   5.169
 8527SOL    HW126480   3.074   0.518   5.190
 8527SOL    HW226481   2.956   0.474   5.086
 8528SOL     OW26482   5.020   2.644   6.258
 8528SOL    HW126483   4.953   2.670   6.189
 8528SOL    HW226484   5.002   2.696   6.342
 8529SOL     OW26485   0.955   0.207   0.419
 8529SOL    HW126486   1.014   0.261   0.359
 8529SOL    HW226487   0.874   0.261   0.444
 8530SOL     OW26488   2.320   4.101   5.776
 8530SOL    HW126489   2.347   4.041   5.700
 8530SOL    HW226490   2.355   4.193   5.760
 8531SOL     OW26491   6.166   4.086   1.577
 8531SOL    HW126492   6.162   4.122   1.670
 8531SOL    HW226493   6.112   4.002   1.571
 8532SOL     OW26494   4.343   5.221   4.404
 8532SOL    HW126495   4.429   5.231   4.455
 8532SOL    HW226496   4.363   5.206   4.308
 8533SOL     OW26497   1.844   0.263   6.021
 8533SOL    HW126498   1.754   0.256   6.066
 8533SOL    HW226499   1.893   0.176   6.031
 8534SOL     OW26500   6.648   3.493   4.183
 8534SOL    HW126501   6.741   3.486   4.146
 8534SOL    HW226502   6.649   3.476   4.281
 8535SOL     OW26503   0.544   1.983   5.285
 8535SOL    HW126504   0.481   1.979   5.207
 8535SOL    HW226505   0.518   2.058   5.345
 8536SOL     OW26506   6.082   1.665   5.127
 8536SOL    HW126507   6.144   1.601   5.081
 8536SOL    HW226508   6.128   1.705   5.206
 8537SOL     OW26509   5.783   1.323   2.625
 8537SOL    HW126510   5.816   1.412   2.655
 8537SOL    HW226511   5.838   1.251   2.668
 8538SOL     OW26512   0.819   1.441   5.348
 8538SOL    HW126513   0.756   1.482   5.283
 8538SOL    HW226514   0.802   1.477   5.439
 8539SOL     OW26515   6.649   1.570   1.697
 8539SOL    HW126516   6.626   1.499   1.765
 8539SOL    HW226517   6.585   1.645   1.704
 8540SOL     OW26518   3.886   1.933   0.300
 8540SOL    HW126519   3.900   1.860   0.233
 8540SOL    HW226520   3.815   1.906   0.365
 8541SOL     OW26521   3.356   2.129   4.433
 8541SOL    HW126522   3.439   2.144   4.379
 8541SOL    HW226523   3.276   2.152   4.378
 8542SOL     OW26524   2.479   4.488   5.429
 8542SOL    HW126525   2.563   4.454   5.386
 8542SOL    HW226526   2.435   4.554   5.369
 8543SOL     OW26527   3.313   1.312   6.595
 8543SOL    HW126528   3.337   1.278   6.504
 8543SOL    HW226529   3.379   1.381   6.624
 8544SOL     OW26530   5.320   2.909   4.281
 8544SOL    HW126531   5.342   3.005   4.262
 8544SOL    HW226532   5.221   2.896   4.276
 8545SOL     OW26533   4.541   0.097   5.037
 8545SOL    HW126534   4.555   0.074   5.133
 8545SOL    HW226535   4.613   0.054   4.982
 8546SOL     OW26536   0.687   0.410   2.366
 8546SOL    HW126537   0.644   0.426   2.278
 8546SOL    HW226538   0.728   0.319   2.368
 8547SOL     OW26539   0.986   6.972   6.446
 8547SOL    HW126540   0.925   6.921   6.507
 8547SOL    HW226541   0.940   6.986   6.358
 8548SOL     OW26542   6.772   3.267   5.743
 8548SOL    HW126543   6.760   3.316   5.657
 8548SOL    HW226544   6.870   3.252   5.759
 8549SOL     OW26545   0.608   2.104   4.176
 8549SOL    HW126546   0.687   2.082   4.234
 8549SOL    HW226547   0.639   2.123   4.083
 8550SOL     OW26548   1.521   4.960   0.371
 8550SOL    HW126549   1.438   4.941   0.424
 8550SOL    HW226550   1.500   5.027   0.299
 8551SOL     OW26551   2.619   2.583   0.156
 8551SOL    HW126552   2.637   2.673   0.194
 8551SOL    HW226553   2.543   2.541   0.206
 8552SOL     OW26554   2.259   0.509   2.804
 8552SOL    HW126555   2.235   0.432   2.864
 8552SOL    HW226556   2.205   0.503   2.720
 8553SOL     OW26557   3.969   4.672   6.374
 8553SOL    HW126558   4.067   4.674   6.395
 8553SOL    HW226559   3.955   4.622   6.288
 8554SOL     OW26560   0.523   5.613   0.531
 8554SOL    HW126561   0.617   5.644   0.522
 8554SOL    HW226562   0.466   5.687   0.566
 8555SOL     OW26563   3.445   1.164   3.441
 8555SOL    HW126564   3.463   1.066   3.435
 8555SOL    HW226565   3.519   1.208   3.491
 8556SOL     OW26566   2.196   6.189   5.064
 8556SOL    HW126567   2.182   6.105   5.011
 8556SOL    HW226568   2.243   6.167   5.150
 8557SOL     OW26569   6.432   0.170   2.347
 8557SOL    HW126570   6.514   0.173   2.290
 8557SOL    HW226571   6.361   0.119   2.300
 8558SOL     OW26572   2.305   5.864   3.243
 8558SOL    HW126573   2.393   5.825   3.217
 8558SOL    HW226574   2.300   5.960   3.214
 8559SOL     OW26575   2.206   6.812   2.560
 8559SOL    HW126576   2.252   6.771   2.639
 8559SOL    HW226577   2.143   6.745   2.520
 8560SOL     OW26578   1.491   5.371   2.297
 8560SOL    HW126579   1.433   5.450   2.280
 8560SOL    HW226580   1.445   5.307   2.358
 8561SOL     OW26581   3.270   0.261   2.913
 8561SOL    HW126582   3.296   0.203   2.836
 8561SOL    HW226583   3.302   0.220   2.998
 8562SOL     OW26584   3.412   6.021   6.842
 8562SOL    HW126585   3.407   5.932   6.887
 8562SOL    HW226586   3.404   6.009   6.743
 8563SOL     OW26587   1.201   4.816   2.142
 8563SOL    HW126588   1.201   4.729   2.091
 8563SOL    HW226589   1.110   4.857   2.138
 8564SOL     OW26590   3.266   0.046   5.065
 8564SOL    HW126591   3.202   0.006   5.130
 8564SOL    HW226592   3.240   0.020   4.972
 8565SOL     OW26593   3.432   5.075   0.997
 8565SOL    HW126594   3.432   4.992   0.940
 8565SOL    HW226595   3.338   5.106   1.010
 8566SOL     OW26596   0.875   7.012   1.536
 8566SOL    HW126597   0.804   0.041   1.481
 8566SOL    HW226598   0.835   6.938   1.590
 8567SOL     OW26599   0.357   2.173   2.118
 8567SOL    HW126600   0.332   2.118   2.197
 8567SOL    HW226601   0.439   2.226   2.138
 8568SOL     OW26602   5.656   2.110   0.144
 8568SOL    HW126603   5.566   2.089   0.182
 8568SOL    HW226604   5.694   2.027   0.102
 8569SOL     OW26605   5.241   2.014   5.146
 8569SOL    HW126606   5.160   2.071   5.161
 8569SOL    HW226607   5.308   2.031   5.219
 8570SOL     OW26608   0.784   1.553   3.842
 8570SOL    HW126609   0.773   1.521   3.747
 8570SOL    HW226610   0.700   1.532   3.893
 8571SOL     OW26611   0.820   6.076   5.543
 8571SOL    HW126612   0.766   6.057   5.625
 8571SOL    HW226613   0.915   6.049   5.558
 8572SOL     OW26614   1.855   3.985   5.638
 8572SOL    HW126615   1.858   4.024   5.546
 8572SOL    HW226616   1.921   3.909   5.644
 8573SOL     OW26617   3.023   5.868   6.072
 8573SOL    HW126618   2.983   5.921   6.147
 8573SOL    HW226619   3.053   5.930   5.999
 8574SOL     OW26620   6.142   7.004   6.287
 8574SOL    HW126621   6.195   0.052   6.342
 8574SOL    HW226622   6.045   0.001   6.305
 8575SOL     OW26623   2.431   2.359   3.452
 8575SOL    HW126624   2.512   2.370   3.508
 8575SOL    HW226625   2.400   2.448   3.419
 8576SOL     OW26626   1.535   4.766   4.526
 8576SOL    HW126627   1.551   4.690   4.463
 8576SOL    HW226628   1.437   4.776   4.543
 8577SOL     OW26629   1.487   0.217   5.888
 8577SOL    HW126630   1.421   0.163   5.940
 8577SOL    HW226631   1.439   0.286   5.834
 8578SOL     OW26632   6.533   5.630   4.984
 8578SOL    HW126633   6.595   5.564   4.942
 8578SOL    HW226634   6.575   5.720   4.985
 8579SOL     OW26635   1.730   6.511   1.933
 8579SOL    HW126636   1.646   6.460   1.951
 8579SOL    HW226637   1.725   6.600   1.979
 8580SOL     OW26638   1.762   5.576   0.382
 8580SOL    HW126639   1.772   5.503   0.314
 8580SOL    HW226640   1.781   5.539   0.473
 8581SOL     OW26641   3.211   4.319   1.627
 8581SOL    HW126642   3.123   4.294   1.668
 8581SOL    HW226643   3.280   4.252   1.653
 8582SOL     OW26644   4.987   4.267   5.152
 8582SOL    HW126645   5.074   4.305   5.182
 8582SOL    HW226646   4.937   4.231   5.231
 8583SOL     OW26647   3.766   0.339   4.170
 8583SOL    HW126648   3.766   0.439   4.164
 8583SOL    HW226649   3.703   0.310   4.242
 8584SOL     OW26650   0.965   6.189   5.875
 8584SOL    HW126651   0.986   6.244   5.956
 8584SOL    HW226652   0.975   6.092   5.898
 8585SOL     OW26653   6.338   1.704   0.290
 8585SOL    HW126654   6.265   1.645   0.324
 8585SOL    HW226655   6.308   1.799   0.291
 8586SOL     OW26656   3.221   6.526   1.815
 8586SOL    HW126657   3.131   6.535   1.774
 8586SOL    HW226658   3.243   6.608   1.868
 8587SOL     OW26659   0.826   0.838   4.406
 8587SOL    HW126660   0.831   0.807   4.311
 8587SOL    HW226661   0.803   0.761   4.465
 8588SOL     OW26662   4.256   1.307   6.852
 8588SOL    HW126663   4.316   1.237   6.890
 8588SOL    HW226664   4.294   1.397   6.871
 8589SOL     OW26665   5.908   2.615   5.477
 8589SOL    HW126666   5.848   2.619   5.398
 8589SOL    HW226667   5.991   2.668   5.459
 8590SOL     OW26668   0.195   0.597   2.564
 8590SOL    HW126669   0.221   0.563   2.654
 8590SOL    HW226670   0.253   0.555   2.494
 8591SOL     OW26671   0.338   4.329   6.874
 8591SOL    HW126672   0.399   4.265   6.921
 8591SOL    HW226673   0.358   4.330   6.776
 8592SOL     OW26674   5.555   2.049   6.807
 8592SOL    HW126675   5.521   2.113   6.876
 8592SOL    HW226676   5.652   2.066   6.790
 8593SOL     OW26677   3.414   0.987   6.999
 8593SOL    HW126678   3.327   1.004   0.028
 8593SOL    HW226679   3.410   0.902   6.947
 8594SOL     OW26680   5.319   2.343   5.685
 8594SOL    HW126681   5.413   2.319   5.709
 8594SOL    HW226682   5.256   2.279   5.728
 8595SOL     OW26683   0.137   1.390   3.839
 8595SOL    HW126684   0.092   1.474   3.808
 8595SOL    HW226685   0.072   1.334   3.890
 8596SOL     OW26686   1.130   4.798   3.081
 8596SOL    HW126687   1.117   4.776   3.177
 8596SOL    HW226688   1.136   4.897   3.069
 8597SOL     OW26689   5.160   1.521   2.199
 8597SOL    HW126690   5.104   1.443   2.228
 8597SOL    HW226691   5.118   1.565   2.120
 8598SOL     OW26692   5.963   0.135   6.578
 8598SOL    HW126693   5.899   0.199   6.621
 8598SOL    HW226694   5.958   0.047   6.624
 8599SOL     OW26695   1.936   2.163   4.308
 8599SOL    HW126696   1.857   2.196   4.257
 8599SOL    HW226697   2.017   2.166   4.249
 8600SOL     OW26698   5.115   3.682   6.856
 8600SOL    HW126699   5.153   3.629   6.780
 8600SOL    HW226700   5.018   3.697   6.841
 8601SOL     OW26701   0.813   1.477   3.591
 8601SOL    HW126702   0.760   1.485   3.506
 8601SOL    HW226703   0.885   1.409   3.579
 8602SOL     OW26704   3.065   6.685   2.777
 8602SOL    HW126705   3.107   6.757   2.833
 8602SOL    HW226706   3.135   6.624   2.743
 8603SOL     OW26707   5.153   6.388   1.304
 8603SOL    HW126708   5.218   6.313   1.301
 8603SOL    HW226709   5.060   6.351   1.315
 8604SOL     OW26710   1.263   2.357   5.598
 8604SOL    HW126711   1.280   2.377   5.502
 8604SOL    HW226712   1.283   2.438   5.653
 8605SOL     OW26713   2.425   5.418   4.321
 8605SOL    HW126714   2.366   5.337   4.316
 8605SOL    HW226715   2.376   5.497   4.284
 8606SOL     OW26716   2.062   2.654   6.554
 8606SOL    HW126717   2.083   2.559   6.527
 8606SOL    HW226718   2.101   2.672   6.644
 8607SOL     OW26719   3.080   4.861   6.223
 8607SOL    HW126720   3.014   4.868   6.297
 8607SOL    HW226721   3.153   4.798   6.249
 8608SOL     OW26722   2.911   4.791   2.658
 8608SOL    HW126723   2.946   4.788   2.752
 8608SOL    HW226724   2.837   4.725   2.648
 8609SOL     OW26725   5.043   0.394   3.121
 8609SOL    HW126726   4.956   0.439   3.102
 8609SOL    HW226727   5.038   0.299   3.091
 8610SOL     OW26728   0.955   1.343   2.665
 8610SOL    HW126729   0.901   1.365   2.747
 8610SOL    HW226730   0.953   1.244   2.651
 8611SOL     OW26731   2.813   2.032   4.471
 8611SOL    HW126732   2.752   1.968   4.424
 8611SOL    HW226733   2.878   1.980   4.527
 8612SOL     OW26734   2.713   2.873   1.044
 8612SOL    HW126735   2.633   2.858   0.985
 8612SOL    HW226736   2.683   2.875   1.140
 8613SOL     OW26737   2.735   1.799   1.961
 8613SOL    HW126738   2.813   1.741   1.983
 8613SOL    HW226739   2.767   1.892   1.945
 8614SOL     OW26740   1.206   3.203   3.929
 8614SOL    HW126741   1.204   3.298   3.899
 8614SOL    HW226742   1.112   3.169   3.937
 8615SOL     OW26743   4.113   2.072   5.186
 8615SOL    HW126744   4.090   2.092   5.091
 8615SOL    HW226745   4.122   1.973   5.198
 8616SOL     OW26746   3.040   4.778   1.931
 8616SOL    HW126747   3.102   4.774   2.009
 8616SOL    HW226748   2.961   4.720   1.948
 8617SOL     OW26749   5.628   1.044   4.975
 8617SOL    HW126750   5.704   1.016   5.034
 8617SOL    HW226751   5.543   1.043   5.027
 8618SOL     OW26752   6.565   4.673   1.191
 8618SOL    HW126753   6.600   4.697   1.100
 8618SOL    HW226754   6.467   4.657   1.186
 8619SOL     OW26755   3.996   5.088   1.866
 8619SOL    HW126756   4.041   5.100   1.777
 8619SOL    HW226757   4.056   5.036   1.927
 8620SOL     OW26758   2.211   6.393   3.096
 8620SOL    HW126759   2.175   6.468   3.150
 8620SOL    HW226760   2.307   6.410   3.075
 8621SOL     OW26761   5.394   2.158   2.082
 8621SOL    HW126762   5.345   2.115   2.158
 8621SOL    HW226763   5.402   2.093   2.006
 8622SOL     OW26764   4.986   3.939   1.220
 8622SOL    HW126765   4.964   4.036   1.216
 8622SOL    HW226766   5.057   3.923   1.288
 8623SOL     OW26767   1.177   4.179   5.192
 8623SOL    HW126768   1.249   4.195   5.260
 8623SOL    HW226769   1.140   4.087   5.205
 8624SOL     OW26770   2.158   3.794   4.900
 8624SOL    HW126771   2.249   3.753   4.896
 8624SOL    HW226772   2.162   3.879   4.953
 8625SOL     OW26773   4.758   1.167   5.798
 8625SOL    HW126774   4.830   1.232   5.772
 8625SOL    HW226775   4.800   1.082   5.830
 8626SOL     OW26776   3.893   2.711   6.888
 8626SOL    HW126777   3.969   2.734   6.949
 8626SOL    HW226778   3.928   2.663   6.807
 8627SOL     OW26779   1.603   1.499   2.163
 8627SOL    HW126780   1.562   1.560   2.093
 8627SOL    HW226781   1.531   1.469   2.226
 8628SOL     OW26782   6.271   6.733   0.268
 8628SOL    HW126783   6.287   6.658   0.332
 8628SOL    HW226784   6.254   6.695   0.176
 8629SOL     OW26785   1.699   6.461   4.944
 8629SOL    HW126786   1.726   6.463   5.040
 8629SOL    HW226787   1.690   6.555   4.909
 8630SOL     OW26788   4.825   2.994   3.909
 8630SOL    HW126789   4.810   3.016   4.006
 8630SOL    HW226790   4.923   2.977   3.895
 8631SOL     OW26791   1.039   5.421   6.312
 8631SOL    HW126792   1.075   5.347   6.255
 8631SOL    HW226793   0.948   5.396   6.344
 8632SOL     OW26794   3.671   4.907   5.342
 8632SOL    HW126795   3.707   4.993   5.380
 8632SOL    HW226796   3.650   4.844   5.417
 8633SOL     OW26797   5.619   2.404   6.190
 8633SOL    HW126798   5.569   2.392   6.104
 8633SOL    HW226799   5.695   2.467   6.176
 8634SOL     OW26800   5.533   4.280   0.003
 8634SOL    HW126801   5.593   4.206   6.990
 8634SOL    HW226802   5.536   4.354   6.951
 8635SOL     OW26803   5.005   3.095   6.436
 8635SOL    HW126804   5.016   3.002   6.399
 8635SOL    HW226805   5.000   3.091   6.536
 8636SOL     OW26806   5.510   5.869   0.971
 8636SOL    HW126807   5.594   5.914   0.940
 8636SOL    HW226808   5.514   5.772   0.948
 8637SOL     OW26809   2.676   1.185   6.792
 8637SOL    HW126810   2.746   1.206   6.723
 8637SOL    HW226811   2.599   1.247   6.781
 8638SOL     OW26812   3.400   2.094   4.957
 8638SOL    HW126813   3.379   2.079   4.860
 8638SOL    HW226814   3.342   2.166   4.993
 8639SOL     OW26815   5.565   2.979   0.300
 8639SOL    HW126816   5.638   2.972   0.231
 8639SOL    HW226817   5.587   3.053   0.363
 8640SOL     OW26818   4.144   3.342   6.784
 8640SOL    HW126819   4.189   3.297   6.707
 8640SOL    HW226820   4.207   3.408   6.825
 8641SOL     OW26821   4.162   4.770   3.993
 8641SOL    HW126822   4.171   4.806   4.086
 8641SOL    HW226823   4.242   4.715   3.971
 8642SOL     OW26824   0.965   6.447   4.605
 8642SOL    HW126825   0.983   6.537   4.643
 8642SOL    HW226826   0.921   6.390   4.675
 8643SOL     OW26827   2.385   1.060   6.215
 8643SOL    HW126828   2.296   1.048   6.170
 8643SOL    HW226829   2.412   1.156   6.210
 8644SOL     OW26830   5.476   2.335   5.972
 8644SOL    HW126831   5.396   2.275   5.964
 8644SOL    HW226832   5.535   2.322   5.893
 8645SOL     OW26833   4.353   4.534   1.057
 8645SOL    HW126834   4.379   4.526   1.153
 8645SOL    HW226835   4.270   4.589   1.048
 8646SOL     OW26836   0.362   1.789   6.930
 8646SOL    HW126837   0.361   1.804   6.832
 8646SOL    HW226838   0.269   1.797   6.967
 8647SOL     OW26839   2.223   4.609   6.851
 8647SOL    HW126840   2.321   4.592   6.839
 8647SOL    HW226841   2.182   4.634   6.763
 8648SOL     OW26842   6.960   0.188   2.491
 8648SOL    HW126843   0.024   0.234   2.452
 8648SOL    HW226844   6.946   0.220   2.585
 8649SOL     OW26845   5.256   5.648   6.566
 8649SOL    HW126846   5.304   5.642   6.479
 8649SOL    HW226847   5.257   5.742   6.599
 8650SOL     OW26848   1.289   5.626   5.163
 8650SOL    HW126849   1.308   5.561   5.237
 8650SOL    HW226850   1.209   5.681   5.188
 8651SOL     OW26851   4.463   1.111   0.490
 8651SOL    HW126852   4.490   1.049   0.564
 8651SOL    HW226853   4.382   1.074   0.444
 8652SOL     OW26854   2.070   5.189   3.514
 8652SOL    HW126855   2.121   5.106   3.537
 8652SOL    HW226856   2.134   5.263   3.492
 8653SOL     OW26857   6.788   1.063   5.985
 8653SOL    HW126858   6.813   1.117   6.065
 8653SOL    HW226859   6.840   0.978   5.984
 8654SOL     OW26860   0.673   4.773   2.375
 8654SOL    HW126861   0.674   4.776   2.275
 8654SOL    HW226862   0.603   4.834   2.409
 8655SOL     OW26863   5.883   0.650   4.096
 8655SOL    HW126864   5.862   0.731   4.150
 8655SOL    HW226865   5.808   0.584   4.107
 8656SOL     OW26866   6.349   0.734   1.910
 8656SOL    HW126867   6.310   0.779   1.990
 8656SOL    HW226868   6.323   0.783   1.827
 8657SOL     OW26869   5.032   6.084   6.865
 8657SOL    HW126870   5.126   6.059   6.884
 8657SOL    HW226871   5.018   6.181   6.886
 8658SOL     OW26872   6.114   6.328   0.408
 8658SOL    HW126873   6.135   6.250   0.350
 8658SOL    HW226874   6.015   6.343   0.409
 8659SOL     OW26875   4.755   2.201   1.979
 8659SOL    HW126876   4.820   2.210   2.055
 8659SOL    HW226877   4.746   2.289   1.933
 8660SOL     OW26878   0.153   3.338   1.765
 8660SOL    HW126879   0.225   3.407   1.758
 8660SOL    HW226880   0.169   3.281   1.846
 8661SOL     OW26881   7.008   3.993   1.273
 8661SOL    HW126882   6.938   3.977   1.343
 8661SOL    HW226883   0.013   4.091   1.269
 8662SOL     OW26884   4.498   5.533   1.832
 8662SOL    HW126885   4.576   5.516   1.893
 8662SOL    HW226886   4.504   5.626   1.796
 8663SOL     OW26887   2.918   5.471   2.562
 8663SOL    HW126888   2.963   5.435   2.643
 8663SOL    HW226889   2.820   5.452   2.567
 8664SOL     OW26890   2.061   5.541   1.452
 8664SOL    HW126891   2.105   5.453   1.436
 8664SOL    HW226892   1.980   5.528   1.510
 8665SOL     OW26893   5.559   5.367   5.004
 8665SOL    HW126894   5.538   5.315   4.920
 8665SOL    HW226895   5.477   5.414   5.035
 8666SOL     OW26896   5.509   1.109   3.545
 8666SOL    HW126897   5.437   1.044   3.572
 8666SOL    HW226898   5.512   1.116   3.446
 8667SOL     OW26899   4.284   1.920   4.272
 8667SOL    HW126900   4.315   1.878   4.357
 8667SOL    HW226901   4.318   2.014   4.266
 8668SOL     OW26902   5.250   3.801   2.937
 8668SOL    HW126903   5.241   3.801   3.036
 8668SOL    HW226904   5.338   3.761   2.912
 8669SOL     OW26905   0.556   6.419   6.875
 8669SOL    HW126906   0.638   6.374   6.841
 8669SOL    HW226907   0.480   6.400   6.813
 8670SOL     OW26908   4.225   5.239   6.035
 8670SOL    HW126909   4.281   5.312   5.996
 8670SOL    HW226910   4.219   5.250   6.134
 8671SOL     OW26911   6.337   1.554   3.505
 8671SOL    HW126912   6.268   1.511   3.562
 8671SOL    HW226913   6.350   1.499   3.422
 8672SOL     OW26914   0.613   5.506   3.752
 8672SOL    HW126915   0.597   5.605   3.747
 8672SOL    HW226916   0.598   5.465   3.662
 8673SOL     OW26917   5.847   2.087   0.360
 8673SOL    HW126918   5.798   2.110   0.276
 8673SOL    HW226919   5.864   2.170   0.412
 8674SOL     OW26920   5.718   5.430   2.668
 8674SOL    HW126921   5.751   5.433   2.574
 8674SOL    HW226922   5.750   5.511   2.717
 8675SOL     OW26923   4.185   1.872   4.814
 8675SOL    HW126924   4.242   1.818   4.751
 8675SOL    HW226925   4.236   1.952   4.844
 8676SOL     OW26926   5.840   6.606   3.368
 8676SOL    HW126927   5.779   6.678   3.335
 8676SOL    HW226928   5.860   6.542   3.295
 8677SOL     OW26929   2.185   5.356   6.485
 8677SOL    HW126930   2.106   5.298   6.505
 8677SOL    HW226931   2.222   5.333   6.395
 8678SOL     OW26932   0.909   0.426   0.931
 8678SOL    HW126933   1.005   0.454   0.927
 8678SOL    HW226934   0.895   0.349   0.870
 8679SOL     OW26935   0.879   1.149   3.376
 8679SOL    HW126936   0.913   1.181   3.464
 8679SOL    HW226937   0.847   1.227   3.322
 8680SOL     OW26938   6.075   3.712   0.194
 8680SOL    HW126939   6.146   3.649   0.163
 8680SOL    HW226940   6.103   3.754   0.280
 8681SOL     OW26941   4.837   5.357   1.474
 8681SOL    HW126942   4.869   5.263   1.487
 8681SOL    HW226943   4.738   5.360   1.489
 8682SOL     OW26944   6.212   0.383   2.978
 8682SOL    HW126945   6.152   0.463   2.974
 8682SOL    HW226946   6.263   0.384   3.064
 8683SOL     OW26947   1.740   2.439   5.385
 8683SOL    HW126948   1.652   2.427   5.432
 8683SOL    HW226949   1.724   2.453   5.288
 8684SOL     OW26950   5.914   2.940   4.458
 8684SOL    HW126951   5.839   2.943   4.392
 8684SOL    HW226952   6.001   2.935   4.409
 8685SOL     OW26953   5.467   2.138   6.393
 8685SOL    HW126954   5.538   2.209   6.394
 8685SOL    HW226955   5.507   2.050   6.415
 8686SOL     OW26956   6.750   0.662   2.214
 8686SOL    HW126957   6.823   0.678   2.280
 8686SOL    HW226958   6.681   0.602   2.255
 8687SOL     OW26959   5.093   5.126   2.481
 8687SOL    HW126960   5.153   5.068   2.534
 8687SOL    HW226961   5.018   5.159   2.538
 8688SOL     OW26962   1.204   5.061   6.454
 8688SOL    HW126963   1.181   5.101   6.365
 8688SOL    HW226964   1.178   5.125   6.527
 8689SOL     OW26965   4.043   2.346   0.958
 8689SOL    HW126966   4.085   2.352   0.867
 8689SOL    HW226967   3.959   2.401   0.958
 8690SOL     OW26968   1.242   3.773   4.385
 8690SOL    HW126969   1.242   3.755   4.287
 8690SOL    HW226970   1.334   3.801   4.414
 8691SOL     OW26971   3.745   1.693   6.626
 8691SOL    HW126972   3.740   1.773   6.685
 8691SOL    HW226973   3.724   1.718   6.532
 8692SOL     OW26974   3.278   1.768   4.323
 8692SOL    HW126975   3.367   1.750   4.365
 8692SOL    HW226976   3.262   1.702   4.250
 8693SOL     OW26977   5.999   6.822   0.298
 8693SOL    HW126978   5.988   6.906   0.351
 8693SOL    HW226979   6.095   6.797   0.296
 8694SOL     OW26980   5.302   1.532   4.924
 8694SOL    HW126981   5.316   1.631   4.925
 8694SOL    HW226982   5.337   1.492   5.009
 8695SOL     OW26983   4.340   3.907   6.354
 8695SOL    HW126984   4.273   3.855   6.408
 8695SOL    HW226985   4.318   3.899   6.257
 8696SOL     OW26986   2.800   5.275   5.257
 8696SOL    HW126987   2.869   5.303   5.323
 8696SOL    HW226988   2.743   5.202   5.297
 8697SOL     OW26989   0.394   4.241   6.398
 8697SOL    HW126990   0.389   4.142   6.408
 8697SOL    HW226991   0.456   4.278   6.467
 8698SOL     OW26992   4.954   5.887   4.848
 8698SOL    HW126993   4.855   5.882   4.861
 8698SOL    HW226994   4.989   5.798   4.820
 8699SOL     OW26995   1.742   2.805   4.638
 8699SOL    HW126996   1.784   2.873   4.698
 8699SOL    HW226997   1.812   2.742   4.604
 8700SOL     OW26998   0.791   0.358   4.907
 8700SOL    HW126999   0.886   0.352   4.935
 8700SOL    HW227000   0.744   0.428   4.962
 8701SOL     OW27001   1.521   1.475   0.090
 8701SOL    HW127002   1.583   1.397   0.101
 8701SOL    HW227003   1.477   1.472   0.000
 8702SOL     OW27004   5.190   5.100   1.925
 8702SOL    HW127005   5.266   5.060   1.977
 8702SOL    HW227006   5.128   5.147   1.987
 8703SOL     OW27007   2.569   4.955   0.002
 8703SOL    HW127008   2.531   4.941   0.093
 8703SOL    HW227009   2.521   5.030   6.972
 8704SOL     OW27010   0.787   4.349   3.405
 8704SOL    HW127011   0.732   4.274   3.370
 8704SOL    HW227012   0.778   4.354   3.504
 8705SOL     OW27013   4.969   1.579   6.313
 8705SOL    HW127014   5.064   1.602   6.292
 8705SOL    HW227015   4.909   1.625   6.248
 8706SOL     OW27016   4.922   2.198   0.376
 8706SOL    HW127017   4.924   2.144   0.460
 8706SOL    HW227018   4.876   2.285   0.394
 8707SOL     OW27019   0.640   1.625   5.237
 8707SOL    HW127020   0.551   1.663   5.263
 8707SOL    HW227021   0.701   1.700   5.211
 8708SOL     OW27022   4.106   1.596   3.657
 8708SOL    HW127023   4.035   1.526   3.661
 8708SOL    HW227024   4.098   1.656   3.737
 8709SOL     OW27025   6.371   0.079   6.890
 8709SOL    HW127026   6.350   7.010   6.939
 8709SOL    HW227027   6.320   0.081   6.804
 8710SOL     OW27028   1.735   2.922   3.068
 8710SOL    HW127029   1.695   2.912   2.977
 8710SOL    HW227030   1.709   3.011   3.106
 8711SOL     OW27031   1.916   6.501   2.798
 8711SOL    HW127032   1.893   6.477   2.892
 8711SOL    HW227033   2.012   6.527   2.793
 8712SOL     OW27034   3.663   1.815   4.278
 8712SOL    HW127035   3.599   1.839   4.205
 8712SOL    HW227036   3.636   1.861   4.362
 8713SOL     OW27037   6.968   3.477   2.233
 8713SOL    HW127038   6.945   3.400   2.292
 8713SOL    HW227039   6.885   3.518   2.196
 8714SOL     OW27040   1.216   0.431   5.695
 8714SOL    HW127041   1.185   0.360   5.630
 8714SOL    HW227042   1.163   0.514   5.679
 8715SOL     OW27043   4.122   1.021   0.543
 8715SOL    HW127044   4.182   1.005   0.464
 8715SOL    HW227045   4.177   1.056   0.619
 8716SOL     OW27046   0.224   6.588   0.519
 8716SOL    HW127047   0.218   6.537   0.433
 8716SOL    HW227048   0.298   6.656   0.512
 8717SOL     OW27049   2.674   3.760   5.452
 8717SOL    HW127050   2.746   3.794   5.513
 8717SOL    HW227051   2.696   3.666   5.425
 8718SOL     OW27052   1.525   2.472   5.564
 8718SOL    HW127053   1.513   2.556   5.512
 8718SOL    HW227054   1.498   2.487   5.659
 8719SOL     OW27055   3.871   0.106   0.363
 8719SOL    HW127056   3.905   0.021   0.324
 8719SOL    HW227057   3.825   0.160   0.292
 8720SOL     OW27058   1.169   6.380   6.364
 8720SOL    HW127059   1.254   6.329   6.348
 8720SOL    HW227060   1.147   6.376   6.462
 8721SOL     OW27061   6.854   2.335   1.166
 8721SOL    HW127062   6.854   2.337   1.266
 8721SOL    HW227063   6.777   2.280   1.134
 8722SOL     OW27064   3.335   1.474   1.163
 8722SOL    HW127065   3.358   1.500   1.257
 8722SOL    HW227066   3.376   1.540   1.099
 8723SOL     OW27067   4.872   6.653   1.762
 8723SOL    HW127068   4.864   6.636   1.664
 8723SOL    HW227069   4.858   6.750   1.781
 8724SOL     OW27070   5.421   6.405   4.304
 8724SOL    HW127071   5.397   6.339   4.233
 8724SOL    HW227072   5.414   6.498   4.267
 8725SOL     OW27073   1.895   5.476   5.836
 8725SOL    HW127074   1.965   5.435   5.895
 8725SOL    HW227075   1.832   5.406   5.804
 8726SOL     OW27076   0.253   0.504   3.088
 8726SOL    HW127077   0.284   0.587   3.133
 8726SOL    HW227078   0.295   0.424   3.131
 8727SOL     OW27079   6.228   0.174   1.447
 8727SOL    HW127080   6.163   0.147   1.376
 8727SOL    HW227081   6.251   0.094   1.503
 8728SOL     OW27082   5.993   0.793   1.843
 8728SOL    HW127083   6.082   0.811   1.803
 8728SOL    HW227084   5.922   0.803   1.772
 8729SOL     OW27085   3.401   4.981   5.519
 8729SOL    HW127086   3.405   5.026   5.430
 8729SOL    HW227087   3.339   4.903   5.514
 8730SOL     OW27088   5.094   4.017   2.451
 8730SOL    HW127089   5.190   3.997   2.471
 8730SOL    HW227090   5.075   4.113   2.472
 8731SOL     OW27091   0.877   3.622   3.265
 8731SOL    HW127092   0.947   3.625   3.336
 8731SOL    HW227093   0.870   3.529   3.229
 8732SOL     OW27094   5.463   4.909   1.860
 8732SOL    HW127095   5.498   4.999   1.836
 8732SOL    HW227096   5.538   4.852   1.895
 8733SOL     OW27097   1.228   5.742   1.108
 8733SOL    HW127098   1.158   5.773   1.173
 8733SOL    HW227099   1.205   5.650   1.076
 8734SOL     OW27100   1.068   3.304   3.053
 8734SOL    HW127101   1.049   3.284   2.957
 8734SOL    HW227102   1.142   3.246   3.085
 8735SOL     OW27103   0.514   2.865   6.315
 8735SOL    HW127104   0.485   2.872   6.410
 8735SOL    HW227105   0.585   2.795   6.307
 8736SOL     OW27106   0.476   5.584   1.894
 8736SOL    HW127107   0.406   5.656   1.902
 8736SOL    HW227108   0.482   5.533   1.980
 8737SOL     OW27109   1.785   6.381   0.177
 8737SOL    HW127110   1.737   6.454   0.129
 8737SOL    HW227111   1.842   6.420   0.249
 8738SOL     OW27112   2.522   5.755   4.072
 8738SOL    HW127113   2.551   5.731   3.979
 8738SOL    HW227114   2.447   5.821   4.067
 8739SOL     OW27115   6.161   5.696   5.967
 8739SOL    HW127116   6.204   5.746   6.042
 8739SOL    HW227117   6.227   5.685   5.892
 8740SOL     OW27118   4.428   1.213   3.621
 8740SOL    HW127119   4.354   1.272   3.588
 8740SOL    HW227120   4.468   1.254   3.704
 8741SOL     OW27121   2.384   0.809   3.143
 8741SOL    HW127122   2.483   0.811   3.155
 8741SOL    HW227123   2.344   0.894   3.175
 8742SOL     OW27124   4.871   0.396   1.478
 8742SOL    HW127125   4.910   0.333   1.546
 8742SOL    HW227126   4.774   0.372   1.464
 8743SOL     OW27127   1.116   0.132   1.459
 8743SOL    HW127128   1.162   0.174   1.537
 8743SOL    HW227129   1.040   0.076   1.492
 8744SOL     OW27130   4.396   2.846   0.515
 8744SOL    HW127131   4.345   2.785   0.576
 8744SOL    HW227132   4.423   2.928   0.566
 8745SOL     OW27133   5.836   1.453   6.497
 8745SOL    HW127134   5.782   1.530   6.462
 8745SOL    HW227135   5.787   1.409   6.572
 8746SOL     OW27136   5.155   5.526   4.493
 8746SOL    HW127137   5.218   5.603   4.498
 8746SOL    HW227138   5.183   5.455   4.558
 8747SOL     OW27139   0.093   1.519   2.641
 8747SOL    HW127140   0.152   1.442   2.617
 8747SOL    HW227141   0.125   1.601   2.595
 8748SOL     OW27142   0.400   1.645   5.068
 8748SOL    HW127143   0.374   1.683   5.157
 8748SOL    HW227144   0.401   1.545   5.074
 8749SOL     OW27145   1.956   0.684   5.465
 8749SOL    HW127146   2.036   0.716   5.414
 8749SOL    HW227147   1.972   0.697   5.563
 8750SOL     OW27148   3.405   3.887   5.951
 8750SOL    HW127149   3.409   3.948   6.030
 8750SOL    HW227150   3.470   3.812   5.962
 8751SOL     OW27151   6.729   2.008   2.104
 8751SOL    HW127152   6.812   1.970   2.146
 8751SOL    HW227153   6.652   1.947   2.123
 8752SOL     OW27154   3.270   2.990   6.517
 8752SOL    HW127155   3.345   2.939   6.476
 8752SOL    HW227156   3.252   3.073   6.464
 8753SOL     OW27157   3.101   2.008   6.266
 8753SOL    HW127158   3.046   1.928   6.243
 8753SOL    HW227159   3.041   2.081   6.300
 8754SOL     OW27160   1.561   4.517   5.380
 8754SOL    HW127161   1.462   4.504   5.373
 8754SOL    HW227162   1.607   4.439   5.338
 8755SOL     OW27163   2.138   0.688   1.051
 8755SOL    HW127164   2.069   0.622   1.024
 8755SOL    HW227165   2.094   0.766   1.097
 8756SOL     OW27166   2.148   3.170   3.237
 8756SOL    HW127167   2.059   3.133   3.264
 8756SOL    HW227168   2.156   3.264   3.269
 8757SOL     OW27169   4.364   5.557   6.654
 8757SOL    HW127170   4.378   5.495   6.731
 8757SOL    HW227171   4.452   5.583   6.615
 8758SOL     OW27172   4.196   6.252   2.884
 8758SOL    HW127173   4.160   6.163   2.912
 8758SOL    HW227174   4.258   6.241   2.807
 8759SOL     OW27175   5.227   3.170   6.842
 8759SOL    HW127176   5.230   3.082   6.890
 8759SOL    HW227177   5.234   3.244   6.908
 8760SOL     OW27178   2.543   1.006   4.676
 8760SOL    HW127179   2.494   1.073   4.731
 8760SOL    HW227180   2.490   0.984   4.594
 8761SOL     OW27181   6.318   2.227   1.206
 8761SOL    HW127182   6.257   2.160   1.164
 8761SOL    HW227183   6.269   2.313   1.219
 8762SOL     OW27184   0.840   5.200   4.607
 8762SOL    HW127185   0.748   5.211   4.570
 8762SOL    HW227186   0.843   5.236   4.701
 8763SOL     OW27187   6.095   6.928   5.972
 8763SOL    HW127188   6.045   6.924   5.885
 8763SOL    HW227189   6.133   0.004   5.983
 8764SOL     OW27190   4.255   6.906   5.380
 8764SOL    HW127191   4.261   6.910   5.480
 8764SOL    HW227192   4.252   6.999   5.343
 8765SOL     OW27193   5.071   0.318   3.914
 8765SOL    HW127194   5.002   0.359   3.855
 8765SOL    HW227195   5.103   0.386   3.979
 8766SOL     OW27196   4.632   4.342   5.096
 8766SOL    HW127197   4.566   4.418   5.101
 8766SOL    HW227198   4.623   4.297   5.007
 8767SOL     OW27199   5.928   6.618   2.708
 8767SOL    HW127200   5.868   6.696   2.692
 8767SOL    HW227201   5.873   6.536   2.723
 8768SOL     OW27202   1.048   2.708   0.142
 8768SOL    HW127203   0.957   2.708   0.100
 8768SOL    HW227204   1.058   2.789   0.199
 8769SOL     OW27205   6.884   1.197   3.167
 8769SOL    HW127206   6.821   1.181   3.091
 8769SOL    HW227207   6.853   1.276   3.220
 8770SOL     OW27208   4.484   4.498   2.224
 8770SOL    HW127209   4.479   4.414   2.171
 8770SOL    HW227210   4.564   4.495   2.285
 8771SOL     OW27211   1.444   1.979   6.249
 8771SOL    HW127212   1.429   2.018   6.159
 8771SOL    HW227213   1.438   1.879   6.244
 8772SOL     OW27214   4.408   0.575   6.224
 8772SOL    HW127215   4.325   0.521   6.233
 8772SOL    HW227216   4.388   0.671   6.246
 8773SOL     OW27217   5.540   2.874   3.348
 8773SOL    HW127218   5.460   2.923   3.314
 8773SOL    HW227219   5.513   2.782   3.376
 8774SOL     OW27220   1.298   0.571   0.237
 8774SOL    HW127221   1.319   0.613   0.149
 8774SOL    HW227222   1.372   0.592   0.302
 8775SOL     OW27223   5.390   1.279   5.917
 8775SOL    HW127224   5.467   1.343   5.915
 8775SOL    HW227225   5.348   1.280   6.007
 8776SOL     OW27226   4.411   3.589   0.822
 8776SOL    HW127227   4.454   3.510   0.866
 8776SOL    HW227228   4.331   3.617   0.875
 8777SOL     OW27229   6.411   4.311   3.315
 8777SOL    HW127230   6.356   4.235   3.351
 8777SOL    HW227231   6.498   4.277   3.281
 8778SOL     OW27232   5.137   3.102   5.679
 8778SOL    HW127233   5.230   3.131   5.700
 8778SOL    HW227234   5.140   3.028   5.612
 8779SOL     OW27235   2.663   5.712   2.323
 8779SOL    HW127236   2.608   5.735   2.242
 8779SOL    HW227237   2.630   5.764   2.401
 8780SOL     OW27238   6.958   0.048   3.150
 8780SOL    HW127239   0.017   0.071   3.212
 8780SOL    HW227240   6.905   0.130   3.129
 8781SOL     OW27241   4.975   0.702   3.863
 8781SOL    HW127242   5.067   0.712   3.826
 8781SOL    HW227243   4.980   0.690   3.962
 8782SOL     OW27244   6.866   0.808   1.551
 8782SOL    HW127245   6.868   0.897   1.506
 8782SOL    HW227246   6.934   0.748   1.510
 8783SOL     OW27247   6.650   4.237   3.216
 8783SOL    HW127248   6.682   4.142   3.222
 8783SOL    HW227249   6.677   4.276   3.128
 8784SOL     OW27250   0.310   6.655   6.441
 8784SOL    HW127251   0.389   6.596   6.455
 8784SOL    HW227252   0.331   6.723   6.371
 8785SOL     OW27253   6.061   4.905   6.903
 8785SOL    HW127254   6.116   4.965   6.844
 8785SOL    HW227255   6.049   4.817   6.857
 8786SOL     OW27256   2.850   1.131   0.887
 8786SOL    HW127257   2.810   1.080   0.964
 8786SOL    HW227258   2.782   1.141   0.815
 8787SOL     OW27259   2.869   1.394   2.002
 8787SOL    HW127260   2.945   1.332   2.020
 8787SOL    HW227261   2.902   1.489   2.002
 8788SOL     OW27262   0.153   0.953   5.155
 8788SOL    HW127263   0.097   1.036   5.145
 8788SOL    HW227264   0.248   0.979   5.171
 8789SOL     OW27265   6.543   5.345   5.294
 8789SOL    HW127266   6.533   5.443   5.280
 8789SOL    HW227267   6.636   5.326   5.328
 8790SOL     OW27268   6.078   0.801   6.192
 8790SOL    HW127269   6.084   0.746   6.108
 8790SOL    HW227270   6.158   0.859   6.200
 8791SOL     OW27271   5.272   6.874   5.241
 8791SOL    HW127272   5.255   6.889   5.144
 8791SOL    HW227273   5.299   6.779   5.256
 8792SOL     OW27274   3.235   4.896   3.078
 8792SOL    HW127275   3.287   4.957   3.138
 8792SOL    HW227276   3.221   4.809   3.124
 8793SOL     OW27277   0.504   4.758   2.873
 8793SOL    HW127278   0.580   4.730   2.814
 8793SOL    HW227279   0.507   4.857   2.887
 8794SOL     OW27280   5.272   0.530   2.890
 8794SOL    HW127281   5.321   0.589   2.955
 8794SOL    HW227282   5.213   0.467   2.941
 8795SOL     OW27283   1.148   4.802   5.426
 8795SOL    HW127284   1.156   4.834   5.520
 8795SOL    HW227285   1.060   4.755   5.415
 8796SOL     OW27286   4.974   2.373   2.982
 8796SOL    HW127287   4.887   2.338   2.947
 8796SOL    HW227288   5.016   2.304   3.041
 8797SOL     OW27289   0.211   6.973   6.102
 8797SOL    HW127290   0.156   0.012   6.039
 8797SOL    HW227291   0.152   6.915   6.157
 8798SOL     OW27292   4.513   6.195   6.385
 8798SOL    HW127293   4.490   6.184   6.482
 8798SOL    HW227294   4.508   6.292   6.361
 8799SOL     OW27295   2.387   5.134   3.603
 8799SOL    HW127296   2.350   5.225   3.583
 8799SOL    HW227297   2.370   5.112   3.699
 8800SOL     OW27298   5.606   5.129   6.102
 8800SOL    HW127299   5.589   5.080   6.017
 8800SOL    HW227300   5.649   5.067   6.168
 8801SOL     OW27301   6.237   1.531   4.931
 8801SOL    HW127302   6.262   1.447   4.884
 8801SOL    HW227303   6.242   1.608   4.867
 8802SOL     OW27304   1.753   6.054   6.109
 8802SOL    HW127305   1.761   6.019   6.016
 8802SOL    HW227306   1.660   6.040   6.142
 8803SOL     OW27307   6.893   0.235   0.403
 8803SOL    HW127308   6.812   0.250   0.347
 8803SOL    HW227309   6.878   0.156   0.463
 8804SOL     OW27310   2.200   6.055   1.259
 8804SOL    HW127311   2.105   6.080   1.279
 8804SOL    HW227312   2.238   6.004   1.336
 8805SOL     OW27313   3.781   6.039   3.565
 8805SOL    HW127314   3.767   6.126   3.612
 8805SOL    HW227315   3.729   5.967   3.612
 8806SOL     OW27316   2.831   4.314   1.115
 8806SOL    HW127317   2.796   4.379   1.183
 8806SOL    HW227318   2.758   4.252   1.088
 8807SOL     OW27319   4.933   1.537   0.476
 8807SOL    HW127320   4.870   1.547   0.399
 8807SOL    HW227321   4.882   1.512   0.559
 8808SOL     OW27322   6.437   2.376   6.133
 8808SOL    HW127323   6.393   2.466   6.134
 8808SOL    HW227324   6.481   2.362   6.044
 8809SOL     OW27325   3.119   5.240   3.992
 8809SOL    HW127326   3.139   5.185   3.911
 8809SOL    HW227327   3.141   5.188   4.074
 8810SOL     OW27328   6.001   0.260   5.289
 8810SOL    HW127329   5.908   0.294   5.280
 8810SOL    HW227330   6.003   0.184   5.354
 8811SOL     OW27331   3.308   0.902   3.094
 8811SOL    HW127332   3.354   0.843   3.160
 8811SOL    HW227333   3.359   0.903   3.008
 8812SOL     OW27334   2.285   0.461   0.630
 8812SOL    HW127335   2.265   0.363   0.634
 8812SOL    HW227336   2.298   0.495   0.723
 8813SOL     OW27337   2.063   5.886   3.782
 8813SOL    HW127338   2.105   5.967   3.821
 8813SOL    HW227339   2.128   5.810   3.782
 8814SOL     OW27340   6.038   0.039   0.448
 8814SOL    HW127341   6.114   0.103   0.437
 8814SOL    HW227342   6.013   0.032   0.544
 8815SOL     OW27343   5.334   6.981   1.340
 8815SOL    HW127344   5.299   0.051   1.378
 8815SOL    HW227345   5.268   6.946   1.273
 8816SOL     OW27346   0.956   6.736   6.838
 8816SOL    HW127347   0.970   6.643   6.871
 8816SOL    HW227348   1.042   6.787   6.845
 8817SOL     OW27349   0.016   3.766   3.696
 8817SOL    HW127350   0.081   3.694   3.670
 8817SOL    HW227351   0.064   3.836   3.749
 8818SOL     OW27352   1.286   5.984   3.474
 8818SOL    HW127353   1.276   6.071   3.522
 8818SOL    HW227354   1.207   5.970   3.413
 8819SOL     OW27355   5.877   4.982   5.249
 8819SOL    HW127356   5.866   5.047   5.173
 8819SOL    HW227357   5.972   4.982   5.279
 8820SOL     OW27358   2.694   0.837   5.706
 8820SOL    HW127359   2.635   0.765   5.742
 8820SOL    HW227360   2.698   0.914   5.769
 8821SOL     OW27361   1.525   5.871   0.822
 8821SOL    HW127362   1.543   5.803   0.892
 8821SOL    HW227363   1.562   5.841   0.735
 8822SOL     OW27364   0.697   0.953   3.312
 8822SOL    HW127365   0.750   1.038   3.312
 8822SOL    HW227366   0.679   0.926   3.217
 8823SOL     OW27367   2.401   0.950   2.452
 8823SOL    HW127368   2.439   0.873   2.401
 8823SOL    HW227369   2.329   0.993   2.399
 8824SOL     OW27370   1.539   1.289   0.413
 8824SOL    HW127371   1.618   1.256   0.362
 8824SOL    HW227372   1.553   1.385   0.438
 8825SOL     OW27373   1.113   1.244   1.985
 8825SOL    HW127374   1.201   1.243   1.937
 8825SOL    HW227375   1.075   1.337   1.983
 8826SOL     OW27376   0.907   3.865   0.672
 8826SOL    HW127377   0.956   3.830   0.752
 8826SOL    HW227378   0.960   3.847   0.590
 8827SOL     OW27379   3.854   6.933   2.885
 8827SOL    HW127380   3.857   0.004   2.935
 8827SOL    HW227381   3.943   6.887   2.893
 8828SOL     OW27382   4.045   4.831   6.676
 8828SOL    HW127383   4.049   4.912   6.617
 8828SOL    HW227384   4.107   4.760   6.640
 8829SOL     OW27385   5.477   1.664   1.071
 8829SOL    HW127386   5.517   1.671   0.980
 8829SOL    HW227387   5.381   1.640   1.063
 8830SOL     OW27388   2.300   1.879   2.543
 8830SOL    HW127389   2.274   1.808   2.608
 8830SOL    HW227390   2.292   1.843   2.450
 8831SOL     OW27391   5.529   2.515   2.777
 8831SOL    HW127392   5.558   2.480   2.687
 8831SOL    HW227393   5.610   2.530   2.834
 8832SOL     OW27394   6.581   6.182   3.492
 8832SOL    HW127395   6.580   6.251   3.565
 8832SOL    HW227396   6.643   6.213   3.420
 8833SOL     OW27397   3.033   4.817   6.557
 8833SOL    HW127398   2.979   4.898   6.576
 8833SOL    HW227399   2.972   4.741   6.533
 8834SOL     OW27400   5.648   3.720   4.325
 8834SOL    HW127401   5.595   3.639   4.353
 8834SOL    HW227402   5.725   3.691   4.268
 8835SOL     OW27403   5.146   1.146   5.790
 8835SOL    HW127404   5.242   1.156   5.815
 8835SOL    HW227405   5.121   1.218   5.725
 8836SOL     OW27406   5.195   1.585   1.036
 8836SOL    HW127407   5.126   1.559   1.104
 8836SOL    HW227408   5.151   1.600   0.948
 8837SOL     OW27409   6.994   0.046   2.879
 8837SOL    HW127410   0.047   0.113   2.851
 8837SOL    HW227411   6.999   0.034   2.978
 8838SOL     OW27412   1.805   4.358   3.857
 8838SOL    HW127413   1.739   4.412   3.910
 8838SOL    HW227414   1.896   4.401   3.863
 8839SOL     OW27415   4.284   5.929   2.076
 8839SOL    HW127416   4.368   5.980   2.058
 8839SOL    HW227417   4.308   5.839   2.112
 8840SOL     OW27418   6.335   0.850   2.492
 8840SOL    HW127419   6.257   0.791   2.515
 8840SOL    HW227420   6.410   0.832   2.555
 8841SOL     OW27421   6.727   1.496   4.596
 8841SOL    HW127422   6.747   1.401   4.570
 8841SOL    HW227423   6.810   1.550   4.590
 8842SOL     OW27424   3.195   3.664   3.432
 8842SOL    HW127425   3.135   3.619   3.365
 8842SOL    HW227426   3.149   3.746   3.467
 8843SOL     OW27427   2.195   3.151   4.135
 8843SOL    HW127428   2.158   3.181   4.047
 8843SOL    HW227429   2.171   3.217   4.206
 8844SOL     OW27430   6.762   1.841   4.807
 8844SOL    HW127431   6.835   1.910   4.802
 8844SOL    HW227432   6.740   1.822   4.902
 8845SOL     OW27433   2.328   3.830   1.172
 8845SOL    HW127434   2.386   3.839   1.091
 8845SOL    HW227435   2.277   3.915   1.185
 8846SOL     OW27436   3.669   4.913   4.505
 8846SOL    HW127437   3.570   4.919   4.514
 8846SOL    HW227438   3.709   4.896   4.595
 8847SOL     OW27439   2.682   0.932   2.864
 8847SOL    HW127440   2.771   0.962   2.899
 8847SOL    HW227441   2.658   0.985   2.783
 8848SOL     OW27442   2.957   2.171   2.214
 8848SOL    HW127443   2.923   2.211   2.299
 8848SOL    HW227444   2.926   2.225   2.136
 8849SOL     OW27445   3.626   5.491   3.271
 8849SOL    HW127446   3.687   5.509   3.348
 8849SOL    HW227447   3.621   5.392   3.255
 8850SOL     OW27448   2.145   1.032   6.943
 8850SOL    HW127449   2.210   1.101   6.974
 8850SOL    HW227450   2.168   0.943   6.984
 8851SOL     OW27451   0.951   4.941   2.079
 8851SOL    HW127452   0.926   4.875   2.149
 8851SOL    HW227453   0.870   4.965   2.025
 8852SOL     OW27454   4.339   4.091   5.854
 8852SOL    HW127455   4.291   4.109   5.940
 8852SOL    HW227456   4.343   4.175   5.800
 8853SOL     OW27457   3.557   0.743   6.025
 8853SOL    HW127458   3.567   0.732   6.124
 8853SOL    HW227459   3.626   0.807   5.991
 8854SOL     OW27460   3.059   1.652   6.268
 8854SOL    HW127461   3.148   1.679   6.304
 8854SOL    HW227462   3.061   1.555   6.245
 8855SOL     OW27463   6.944   6.087   0.291
 8855SOL    HW127464   6.967   6.075   0.195
 8855SOL    HW227465   6.852   6.124   0.299
 8856SOL     OW27466   6.265   0.963   6.091
 8856SOL    HW127467   6.349   0.910   6.102
 8856SOL    HW227468   6.272   1.049   6.143
 8857SOL     OW27469   6.729   2.280   4.210
 8857SOL    HW127470   6.683   2.283   4.121
 8857SOL    HW227471   6.741   2.373   4.245
 8858SOL     OW27472   1.467   2.591   5.290
 8858SOL    HW127473   1.550   2.609   5.237
 8858SOL    HW227474   1.440   2.674   5.338
 8859SOL     OW27475   6.402   0.833   4.347
 8859SOL    HW127476   6.345   0.752   4.341
 8859SOL    HW227477   6.421   0.867   4.255
 8860SOL     OW27478   1.192   3.525   3.119
 8860SOL    HW127479   1.154   3.610   3.084
 8860SOL    HW227480   1.141   3.447   3.082
 8861SOL     OW27481   3.713   1.786   6.174
 8861SOL    HW127482   3.664   1.785   6.086
 8861SOL    HW227483   3.727   1.692   6.205
 8862SOL     OW27484   6.129   0.495   3.304
 8862SOL    HW127485   6.070   0.515   3.382
 8862SOL    HW227486   6.187   0.416   3.326
 8863SOL     OW27487   1.399   5.415   4.039
 8863SOL    HW127488   1.339   5.444   4.114
 8863SOL    HW227489   1.397   5.315   4.033
 8864SOL     OW27490   2.763   2.972   6.294
 8864SOL    HW127491   2.681   3.022   6.267
 8864SOL    HW227492   2.829   2.972   6.218
 8865SOL     OW27493   2.895   1.894   5.900
 8865SOL    HW127494   2.856   1.877   5.809
 8865SOL    HW227495   2.892   1.809   5.953
 8866SOL     OW27496   5.295   6.696   3.570
 8866SOL    HW127497   5.250   6.640   3.640
 8866SOL    HW227498   5.237   6.701   3.489
 8867SOL     OW27499   5.274   3.707   2.138
 8867SOL    HW127500   5.326   3.685   2.055
 8867SOL    HW227501   5.201   3.640   2.150
 8868SOL     OW27502   6.421   3.163   0.344
 8868SOL    HW127503   6.518   3.188   0.343
 8868SOL    HW227504   6.381   3.184   0.255
 8869SOL     OW27505   4.048   6.440   4.406
 8869SOL    HW127506   3.949   6.438   4.420
 8869SOL    HW227507   4.067   6.465   4.311
 8870SOL     OW27508   4.429   0.334   0.202
 8870SOL    HW127509   4.428   0.275   0.283
 8870SOL    HW227510   4.493   0.410   0.217
 8871SOL     OW27511   1.126   0.413   3.649
 8871SOL    HW127512   1.090   0.417   3.556
 8871SOL    HW227513   1.052   0.428   3.714
 8872SOL     OW27514   1.457   4.840   5.307
 8872SOL    HW127515   1.374   4.790   5.331
 8872SOL    HW227516   1.516   4.781   5.252
 8873SOL     OW27517   0.688   5.648   2.406
 8873SOL    HW127518   0.662   5.694   2.322
 8873SOL    HW227519   0.663   5.551   2.401
 8874SOL     OW27520   2.914   6.272   1.645
 8874SOL    HW127521   2.897   6.215   1.726
 8874SOL    HW227522   2.845   6.344   1.640
 8875SOL     OW27523   6.195   3.938   4.136
 8875SOL    HW127524   6.121   3.925   4.201
 8875SOL    HW227525   6.207   4.036   4.118
 8876SOL     OW27526   1.795   0.041   4.454
 8876SOL    HW127527   1.735   7.003   4.394
 8876SOL    HW227528   1.889   0.011   4.442
 8877SOL     OW27529   2.976   1.239   4.079
 8877SOL    HW127530   2.894   1.185   4.062
 8877SOL    HW227531   3.040   1.226   4.003
 8878SOL     OW27532   6.994   5.386   0.352
 8878SOL    HW127533   6.908   5.336   0.339
 8878SOL    HW227534   0.014   5.367   0.443
 8879SOL     OW27535   5.150   4.414   1.567
 8879SOL    HW127536   5.215   4.457   1.629
 8879SOL    HW227537   5.171   4.316   1.560
 8880SOL     OW27538   5.900   5.278   4.586
 8880SOL    HW127539   5.969   5.331   4.536
 8880SOL    HW227540   5.827   5.339   4.617
 8881SOL     OW27541   6.254   6.959   4.402
 8881SOL    HW127542   6.205   0.027   4.427
 8881SOL    HW227543   6.230   6.887   4.467
 8882SOL     OW27544   5.804   1.158   1.011
 8882SOL    HW127545   5.709   1.179   0.989
 8882SOL    HW227546   5.858   1.242   1.010
 8883SOL     OW27547   1.913   6.896   5.613
 8883SOL    HW127548   1.885   6.888   5.709
 8883SOL    HW227549   1.875   6.979   5.574
 8884SOL     OW27550   6.057   4.287   6.806
 8884SOL    HW127551   6.103   4.295   6.894
 8884SOL    HW227552   5.958   4.285   6.820
 8885SOL     OW27553   0.583   3.273   0.444
 8885SOL    HW127554   0.496   3.250   0.400
 8885SOL    HW227555   0.565   3.305   0.537
 8886SOL     OW27556   3.564   6.321   4.917
 8886SOL    HW127557   3.473   6.279   4.919
 8886SOL    HW227558   3.620   6.285   4.991
 8887SOL     OW27559   3.247   1.739   1.651
 8887SOL    HW127560   3.281   1.804   1.584
 8887SOL    HW227561   3.237   1.649   1.609
 8888SOL     OW27562   1.392   1.667   0.228
 8888SOL    HW127563   1.448   1.589   0.199
 8888SOL    HW227564   1.304   1.663   0.182
 8889SOL     OW27565   5.726   0.294   5.324
 8889SOL    HW127566   5.699   0.206   5.363
 8889SOL    HW227567   5.647   0.337   5.279
 8890SOL     OW27568   6.265   5.499   4.167
 8890SOL    HW127569   6.296   5.423   4.110
 8890SOL    HW227570   6.169   5.519   4.147
 8891SOL     OW27571   5.275   3.375   5.499
 8891SOL    HW127572   5.351   3.327   5.544
 8891SOL    HW227573   5.201   3.310   5.482
 8892SOL     OW27574   4.105   5.644   3.339
 8892SOL    HW127575   4.100   5.629   3.438
 8892SOL    HW227576   4.135   5.561   3.293
 8893SOL     OW27577   1.007   6.814   3.117
 8893SOL    HW127578   1.065   6.877   3.066
 8893SOL    HW227579   1.000   6.728   3.067
 8894SOL     OW27580   4.299   2.496   5.548
 8894SOL    HW127581   4.277   2.586   5.510
 8894SOL    HW227582   4.377   2.457   5.498
 8895SOL     OW27583   6.861   1.865   2.289
 8895SOL    HW127584   6.876   1.890   2.384
 8895SOL    HW227585   6.854   1.766   2.281
 8896SOL     OW27586   1.614   3.479   5.579
 8896SOL    HW127587   1.628   3.391   5.533
 8896SOL    HW227588   1.644   3.553   5.519
 8897SOL     OW27589   1.771   3.183   3.168
 8897SOL    HW127590   1.802   3.136   3.251
 8897SOL    HW227591   1.672   3.197   3.172
 8898SOL     OW27592   5.352   3.729   3.484
 8898SOL    HW127593   5.335   3.637   3.449
 8898SOL    HW227594   5.321   3.796   3.416
 8899SOL     OW27595   1.894   4.842   0.875
 8899SOL    HW127596   1.957   4.827   0.798
 8899SOL    HW227597   1.876   4.755   0.920
 8900SOL     OW27598   6.109   3.175   2.190
 8900SOL    HW127599   6.052   3.252   2.218
 8900SOL    HW227600   6.091   3.097   2.250
 8901SOL     OW27601   1.590   1.313   4.396
 8901SOL    HW127602   1.501   1.285   4.434
 8901SOL    HW227603   1.586   1.410   4.372
 8902SOL     OW27604   2.521   6.763   0.935
 8902SOL    HW127605   2.532   6.681   0.879
 8902SOL    HW227606   2.540   6.844   0.879
 8903SOL     OW27607   0.745   1.243   4.522
 8903SOL    HW127608   0.734   1.330   4.571
 8903SOL    HW227609   0.660   1.191   4.528
 8904SOL     OW27610   6.255   5.921   3.987
 8904SOL    HW127611   6.223   5.947   3.896
 8904SOL    HW227612   6.180   5.929   4.052
 8905SOL     OW27613   1.806   4.698   4.199
 8905SOL    HW127614   1.859   4.693   4.284
 8905SOL    HW227615   1.860   4.743   4.129
 8906SOL     OW27616   6.955   6.620   6.732
 8906SOL    HW127617   6.859   6.598   6.713
 8906SOL    HW227618   6.962   6.659   6.824
 8907SOL     OW27619   2.776   2.190   4.697
 8907SOL    HW127620   2.738   2.282   4.685
 8907SOL    HW227621   2.788   2.147   4.607
 8908SOL     OW27622   1.000   3.711   6.852
 8908SOL    HW127623   1.039   3.642   6.790
 8908SOL    HW227624   0.932   3.667   6.911
 8909SOL     OW27625   2.219   0.682   5.335
 8909SOL    HW127626   2.257   0.604   5.284
 8909SOL    HW227627   2.284   0.710   5.406
 8910SOL     OW27628   0.330   3.008   5.869
 8910SOL    HW127629   0.420   3.039   5.899
 8910SOL    HW227630   0.324   2.908   5.877
 8911SOL     OW27631   4.408   2.318   4.988
 8911SOL    HW127632   4.466   2.399   4.992
 8911SOL    HW227633   4.317   2.339   5.024
 8912SOL     OW27634   3.943   2.825   0.748
 8912SOL    HW127635   3.879   2.884   0.698
 8912SOL    HW227636   3.913   2.814   0.842
 8913SOL     OW27637   4.784   5.038   6.530
 8913SOL    HW127638   4.726   4.962   6.500
 8913SOL    HW227639   4.776   5.048   6.629
 8914SOL     OW27640   3.501   0.290   4.073
 8914SOL    HW127641   3.461   0.330   4.156
 8914SOL    HW227642   3.593   0.327   4.059
 8915SOL     OW27643   0.704   2.935   4.049
 8915SOL    HW127644   0.637   2.993   4.095
 8915SOL    HW227645   0.663   2.848   4.026
 8916SOL     OW27646   0.133   3.644   0.732
 8916SOL    HW127647   0.223   3.627   0.693
 8916SOL    HW227648   0.108   3.740   0.721
 8917SOL     OW27649   6.544   4.060   6.570
 8917SOL    HW127650   6.464   4.068   6.629
 8917SOL    HW227651   6.628   4.066   6.624
 8918SOL     OW27652   6.723   3.780   1.349
 8918SOL    HW127653   6.721   3.703   1.285
 8918SOL    HW227654   6.779   3.757   1.428
 8919SOL     OW27655   4.168   4.331   0.599
 8919SOL    HW127656   4.122   4.406   0.647
 8919SOL    HW227657   4.246   4.367   0.548
 8920SOL     OW27658   1.050   6.984   0.097
 8920SOL    HW127659   0.952   7.006   0.094
 8920SOL    HW227660   1.061   6.890   0.128
 8921SOL     OW27661   2.535   2.177   2.664
 8921SOL    HW127662   2.507   2.141   2.753
 8921SOL    HW227663   2.608   2.120   2.627
 8922SOL     OW27664   3.554   5.012   1.258
 8922SOL    HW127665   3.517   5.047   1.172
 8922SOL    HW227666   3.482   5.013   1.327
 8923SOL     OW27667   1.380   3.114   6.019
 8923SOL    HW127668   1.456   3.166   6.058
 8923SOL    HW227669   1.416   3.039   5.964
 8924SOL     OW27670   3.116   5.998   5.868
 8924SOL    HW127671   3.212   5.969   5.873
 8924SOL    HW227672   3.112   6.093   5.835
 8925SOL     OW27673   0.630   1.097   2.782
 8925SOL    HW127674   0.665   1.040   2.708
 8925SOL    HW227675   0.688   1.085   2.863
 8926SOL     OW27676   6.007   3.937   5.972
 8926SOL    HW127677   6.033   3.900   5.882
 8926SOL    HW227678   6.027   3.868   6.042
 8927SOL     OW27679   0.823   1.558   4.173
 8927SOL    HW127680   0.752   1.494   4.202
 8927SOL    HW227681   0.781   1.638   4.131
 8928SOL     OW27682   6.945   0.828   5.986
 8928SOL    HW127683   7.010   0.804   6.058
 8928SOL    HW227684   6.891   0.748   5.961
 8929SOL     OW27685   6.589   3.393   4.461
 8929SOL    HW127686   6.547   3.480   4.488
 8929SOL    HW227687   6.683   3.390   4.494
 8930SOL     OW27688   1.596   3.935   4.546
 8930SOL    HW127689   1.572   3.949   4.642
 8930SOL    HW227690   1.692   3.958   4.532
 8931SOL     OW27691   3.025   3.234   1.426
 8931SOL    HW127692   3.076   3.266   1.347
 8931SOL    HW227693   3.041   3.137   1.440
 8932SOL     OW27694   5.759   0.235   0.748
 8932SOL    HW127695   5.693   0.235   0.823
 8932SOL    HW227696   5.743   0.314   0.689
 8933SOL     OW27697   1.782   2.715   6.041
 8933SOL    HW127698   1.821   2.661   5.967
 8933SOL    HW227699   1.846   2.718   6.117
 8934SOL     OW27700   2.830   5.156   4.729
 8934SOL    HW127701   2.746   5.103   4.726
 8934SOL    HW227702   2.907   5.097   4.751
 8935SOL     OW27703   5.971   3.887   1.320
 8935SOL    HW127704   5.908   3.864   1.246
 8935SOL    HW227705   6.061   3.907   1.282
 8936SOL     OW27706   1.141   3.469   1.124
 8936SOL    HW127707   1.238   3.459   1.101
 8936SOL    HW227708   1.098   3.533   1.061
 8937SOL     OW27709   0.149   6.888   4.663
 8937SOL    HW127710   0.229   6.945   4.645
 8937SOL    HW227711   0.070   6.925   4.616
 8938SOL     OW27712   0.018   0.972   7.007
 8938SOL    HW127713   0.075   0.984   0.073
 8938SOL    HW227714   6.966   0.901   0.008
 8939SOL     OW27715   5.572   3.974   4.335
 8939SOL    HW127716   5.496   3.995   4.274
 8939SOL    HW227717   5.588   3.875   4.335
 8940SOL     OW27718   5.714   1.114   1.489
 8940SOL    HW127719   5.777   1.138   1.415
 8940SOL    HW227720   5.722   1.182   1.562
 8941SOL     OW27721   6.272   2.882   3.395
 8941SOL    HW127722   6.173   2.876   3.382
 8941SOL    HW227723   6.295   2.859   3.490
 8942SOL     OW27724   0.875   5.479   5.769
 8942SOL    HW127725   0.859   5.391   5.724
 8942SOL    HW227726   0.882   5.550   5.700
 8943SOL     OW27727   3.446   5.646   0.414
 8943SOL    HW127728   3.539   5.616   0.394
 8943SOL    HW227729   3.410   5.697   0.336
 8944SOL     OW27730   5.179   5.977   4.405
 8944SOL    HW127731   5.230   6.062   4.415
 8944SOL    HW227732   5.240   5.899   4.421
 8945SOL     OW27733   0.057   2.226   4.415
 8945SOL    HW127734   0.106   2.220   4.329
 8945SOL    HW227735   6.998   2.160   4.416
 8946SOL     OW27736   4.007   0.550   4.074
 8946SOL    HW127737   3.917   0.574   4.109
 8946SOL    HW227738   4.076   0.610   4.114
 8947SOL     OW27739   2.099   3.001   6.026
 8947SOL    HW127740   2.055   2.973   5.941
 8947SOL    HW227741   2.029   3.025   6.094
 8948SOL     OW27742   6.173   5.962   3.707
 8948SOL    HW127743   6.241   5.993   3.641
 8948SOL    HW227744   6.187   5.864   3.725
 8949SOL     OW27745   3.895   5.962   0.639
 8949SOL    HW127746   3.922   6.014   0.558
 8949SOL    HW227747   3.796   5.947   0.638
 8950SOL     OW27748   3.825   3.168   1.073
 8950SOL    HW127749   3.804   3.076   1.040
 8950SOL    HW227750   3.814   3.234   0.998
 8951SOL     OW27751   2.104   0.916   5.242
 8951SOL    HW127752   2.029   0.956   5.295
 8951SOL    HW227753   2.128   0.827   5.281
 8952SOL     OW27754   0.788   5.111   3.852
 8952SOL    HW127755   0.688   5.113   3.846
 8952SOL    HW227756   0.821   5.021   3.823
 8953SOL     OW27757   0.437   4.385   0.937
 8953SOL    HW127758   0.399   4.447   0.869
 8953SOL    HW227759   0.532   4.411   0.956
 8954SOL     OW27760   6.882   0.189   4.349
 8954SOL    HW127761   6.913   0.260   4.285
 8954SOL    HW227762   6.851   0.232   4.434
 8955SOL     OW27763   6.913   4.698   3.217
 8955SOL    HW127764   6.922   4.720   3.120
 8955SOL    HW227765   6.833   4.746   3.255
 8956SOL     OW27766   1.833   1.217   5.764
 8956SOL    HW127767   1.900   1.144   5.752
 8956SOL    HW227768   1.744   1.176   5.787
 8957SOL     OW27769   1.732   4.767   1.605
 8957SOL    HW127770   1.688   4.818   1.679
 8957SOL    HW227771   1.666   4.752   1.531
 8958SOL     OW27772   1.019   2.218   5.403
 8958SOL    HW127773   1.056   2.297   5.453
 8958SOL    HW227774   1.093   2.154   5.383
 8959SOL     OW27775   1.899   4.118   3.189
 8959SOL    HW127776   1.834   4.099   3.263
 8959SOL    HW227777   1.987   4.074   3.211
 8960SOL     OW27778   5.434   5.451   3.984
 8960SOL    HW127779   5.493   5.371   3.967
 8960SOL    HW227780   5.343   5.433   3.947
 8961SOL     OW27781   3.969   1.252   3.717
 8961SOL    HW127782   4.003   1.300   3.797
 8961SOL    HW227783   4.042   1.246   3.648
 8962SOL     OW27784   5.961   5.260   2.098
 8962SOL    HW127785   5.987   5.164   2.108
 8962SOL    HW227786   5.861   5.268   2.104
 8963SOL     OW27787   3.832   6.964   4.820
 8963SOL    HW127788   3.792   6.934   4.733
 8963SOL    HW227789   3.929   6.985   4.808
 8964SOL     OW27790   5.994   2.966   2.794
 8964SOL    HW127791   5.938   2.927   2.721
 8964SOL    HW227792   6.053   2.896   2.832
 8965SOL     OW27793   2.472   5.590   0.086
 8965SOL    HW127794   2.522   5.515   0.129
 8965SOL    HW227795   2.374   5.570   0.088
 8966SOL     OW27796   6.591   4.168   0.634
 8966SOL    HW127797   6.657   4.102   0.671
 8966SOL    HW227798   6.500   4.145   0.667
 8967SOL     OW27799   3.691   0.651   2.012
 8967SOL    HW127800   3.640   0.602   2.083
 8967SOL    HW227801   3.707   0.590   1.934
 8968SOL     OW27802   4.174   5.709   2.425
 8968SOL    HW127803   4.076   5.695   2.434
 8968SOL    HW227804   4.195   5.806   2.432
 8969SOL     OW27805   0.079   0.125   3.862
 8969SOL    HW127806   0.010   0.126   3.789
 8969SOL    HW227807   0.163   0.168   3.829
 8970SOL     OW27808   2.602   2.386   6.539
 8970SOL    HW127809   2.581   2.475   6.499
 8970SOL    HW227810   2.655   2.400   6.623
 8971SOL     OW27811   5.640   5.395   0.985
 8971SOL    HW127812   5.637   5.464   0.913
 8971SOL    HW227813   5.686   5.433   1.065
 8972SOL     OW27814   4.666   4.303   0.895
 8972SOL    HW127815   4.753   4.295   0.943
 8972SOL    HW227816   4.599   4.241   0.935
 8973SOL     OW27817   6.810   3.169   3.278
 8973SOL    HW127818   6.771   3.217   3.357
 8973SOL    HW227819   6.737   3.128   3.224
 8974SOL     OW27820   1.656   3.224   3.825
 8974SOL    HW127821   1.644   3.308   3.772
 8974SOL    HW227822   1.577   3.164   3.809
 8975SOL     OW27823   0.754   6.229   6.803
 8975SOL    HW127824   0.794   6.195   6.718
 8975SOL    HW227825   0.689   6.162   6.838
 8976SOL     OW27826   6.741   5.435   0.037
 8976SOL    HW127827   6.820   5.464   7.000
 8976SOL    HW227828   6.759   5.346   0.079
 8977SOL     OW27829   6.383   3.729   6.669
 8977SOL    HW127830   6.368   3.773   6.580
 8977SOL    HW227831   6.482   3.724   6.686
 8978SOL     OW27832   5.511   6.865   4.575
 8978SOL    HW127833   5.477   6.772   4.589
 8978SOL    HW227834   5.463   6.906   4.498
 8979SOL     OW27835   1.417   4.471   6.342
 8979SOL    HW127836   1.442   4.480   6.245
 8979SOL    HW227837   1.497   4.439   6.393
 8980SOL     OW27838   4.608   2.862   5.493
 8980SOL    HW127839   4.628   2.920   5.572
 8980SOL    HW227840   4.564   2.777   5.524
 8981SOL     OW27841   4.642   1.677   5.785
 8981SOL    HW127842   4.565   1.624   5.819
 8981SOL    HW227843   4.689   1.720   5.862
 8982SOL     OW27844   0.588   1.654   1.157
 8982SOL    HW127845   0.518   1.720   1.185
 8982SOL    HW227846   0.600   1.586   1.229
 8983SOL     OW27847   0.572   5.452   0.763
 8983SOL    HW127848   0.568   5.484   0.668
 8983SOL    HW227849   0.537   5.524   0.823
 8984SOL     OW27850   6.428   6.123   4.080
 8984SOL    HW127851   6.468   6.090   4.165
 8984SOL    HW227852   6.359   6.059   4.047
 8985SOL     OW27853   2.316   1.662   0.902
 8985SOL    HW127854   2.289   1.650   0.806
 8985SOL    HW227855   2.413   1.685   0.906
 8986SOL     OW27856   3.878   5.194   2.572
 8986SOL    HW127857   3.978   5.187   2.573
 8986SOL    HW227858   3.841   5.162   2.659
 8987SOL     OW27859   3.046   0.343   1.375
 8987SOL    HW127860   3.050   0.257   1.325
 8987SOL    HW227861   3.024   0.417   1.312
 8988SOL     OW27862   2.088   4.771   0.677
 8988SOL    HW127863   2.036   4.729   0.602
 8988SOL    HW227864   2.185   4.753   0.663
 8989SOL     OW27865   4.947   3.908   2.250
 8989SOL    HW127866   4.951   3.943   2.156
 8989SOL    HW227867   5.027   3.940   2.301
 8990SOL     OW27868   2.041   5.255   1.893
 8990SOL    HW127869   2.114   5.323   1.900
 8990SOL    HW227870   1.994   5.249   1.981
 8991SOL     OW27871   2.301   1.076   0.670
 8991SOL    HW127872   2.340   1.164   0.645
 8991SOL    HW227873   2.341   1.046   0.757
 8992SOL     OW27874   6.835   2.308   6.464
 8992SOL    HW127875   6.918   2.253   6.456
 8992SOL    HW227876   6.839   2.362   6.548
 8993SOL     OW27877   4.567   2.621   2.527
 8993SOL    HW127878   4.532   2.628   2.433
 8993SOL    HW227879   4.634   2.693   2.543
 8994SOL     OW27880   0.902   6.034   4.386
 8994SOL    HW127881   0.853   6.116   4.416
 8994SOL    HW227882   0.836   5.961   4.368
 8995SOL     OW27883   1.404   2.512   5.804
 8995SOL    HW127884   1.349   2.595   5.809
 8995SOL    HW227885   1.469   2.509   5.880
 8996SOL     OW27886   0.034   4.352   1.979
 8996SOL    HW127887   0.096   4.308   2.045
 8996SOL    HW227888   6.992   4.282   1.937
 8997SOL     OW27889   4.204   1.370   6.357
 8997SOL    HW127890   4.250   1.333   6.276
 8997SOL    HW227891   4.187   1.468   6.344
 8998SOL     OW27892   0.613   2.678   4.205
 8998SOL    HW127893   0.640   2.605   4.268
 8998SOL    HW227894   0.533   2.650   4.153
 8999SOL     OW27895   4.248   0.335   6.558
 8999SOL    HW127896   4.233   0.394   6.479
 8999SOL    HW227897   4.269   0.392   6.638
 9000SOL     OW27898   2.305   4.264   6.335
 9000SOL    HW127899   2.305   4.323   6.254
 9000SOL    HW227900   2.390   4.212   6.338
 9001SOL     OW27901   1.501   5.565   2.994
 9001SOL    HW127902   1.540   5.545   3.084
 9001SOL    HW227903   1.434   5.494   2.970
 9002SOL     OW27904   0.407   5.068   5.099
 9002SOL    HW127905   0.373   4.991   5.046
 9002SOL    HW227906   0.407   5.045   5.196
 9003SOL     OW27907   5.329   2.564   0.993
 9003SOL    HW127908   5.340   2.638   1.059
 9003SOL    HW227909   5.273   2.492   1.034
 9004SOL     OW27910   4.290   6.574   1.776
 9004SOL    HW127911   4.321   6.540   1.688
 9004SOL    HW227912   4.273   6.672   1.770
 9005SOL     OW27913   5.883   2.231   4.249
 9005SOL    HW127914   5.844   2.200   4.336
 9005SOL    HW227915   5.819   2.213   4.175
 9006SOL     OW27916   1.881   5.721   0.696
 9006SOL    HW127917   1.945   5.795   0.679
 9006SOL    HW227918   1.904   5.643   0.639
 9007SOL     OW27919   3.634   6.301   4.197
 9007SOL    HW127920   3.546   6.275   4.158
 9007SOL    HW227921   3.696   6.222   4.195
 9008SOL     OW27922   6.386   5.216   2.508
 9008SOL    HW127923   6.397   5.315   2.509
 9008SOL    HW227924   6.399   5.181   2.601
 9009SOL     OW27925   2.265   6.921   0.796
 9009SOL    HW127926   2.340   6.976   0.835
 9009SOL    HW227927   2.303   6.856   0.730
 9010SOL     OW27928   1.095   6.971   4.706
 9010SOL    HW127929   1.052   0.046   4.703
 9010SOL    HW227930   1.064   6.922   4.787
 9011SOL     OW27931   4.122   1.819   1.959
 9011SOL    HW127932   4.096   1.727   1.989
 9011SOL    HW227933   4.082   1.838   1.870
 9012SOL     OW27934   2.356   4.320   1.143
 9012SOL    HW127935   2.339   4.286   1.235
 9012SOL    HW227936   2.411   4.253   1.093
 9013SOL     OW27937   6.452   6.276   4.498
 9013SOL    HW127938   6.446   6.252   4.595
 9013SOL    HW227939   6.441   6.194   4.442
 9014SOL     OW27940   1.170   0.952   0.495
 9014SOL    HW127941   1.269   0.966   0.496
 9014SOL    HW227942   1.126   1.026   0.546
 9015SOL     OW27943   6.450   0.800   0.712
 9015SOL    HW127944   6.449   0.747   0.628
 9015SOL    HW227945   6.429   0.739   0.790
 9016SOL     OW27946   0.505   6.263   6.488
 9016SOL    HW127947   0.436   6.307   6.430
 9016SOL    HW227948   0.565   6.332   6.527
 9017SOL     OW27949   5.006   2.736   2.276
 9017SOL    HW127950   4.922   2.790   2.273
 9017SOL    HW227951   5.064   2.767   2.351
 9018SOL     OW27952   4.156   1.400   5.099
 9018SOL    HW127953   4.065   1.416   5.135
 9018SOL    HW227954   4.220   1.465   5.140
 9019SOL     OW27955   0.751   0.512   1.138
 9019SOL    HW127956   0.656   0.486   1.157
 9019SOL    HW227957   0.798   0.437   1.091
 9020SOL     OW27958   1.370   3.610   1.720
 9020SOL    HW127959   1.363   3.543   1.794
 9020SOL    HW227960   1.457   3.658   1.727
 9021SOL     OW27961   6.210   0.637   3.629
 9021SOL    HW127962   6.217   0.561   3.694
 9021SOL    HW227963   6.278   0.625   3.556
 9022SOL     OW27964   2.955   0.864   1.196
 9022SOL    HW127965   3.046   0.899   1.173
 9022SOL    HW227966   2.896   0.871   1.116
 9023SOL     OW27967   3.433   2.875   2.916
 9023SOL    HW127968   3.349   2.889   2.864
 9023SOL    HW227969   3.490   2.807   2.869
 9024SOL     OW27970   1.126   5.642   6.144
 9024SOL    HW127971   1.152   5.553   6.182
 9024SOL    HW227972   1.127   5.637   6.045
 9025SOL     OW27973   0.078   5.644   0.765
 9025SOL    HW127974   0.047   5.550   0.780
 9025SOL    HW227975   0.005   5.708   0.788
 9026SOL     OW27976   3.734   3.617   2.433
 9026SOL    HW127977   3.714   3.569   2.347
 9026SOL    HW227978   3.813   3.676   2.420
 9027SOL     OW27979   2.284   1.948   3.200
 9027SOL    HW127980   2.189   1.977   3.203
 9027SOL    HW227981   2.295   1.861   3.248
 9028SOL     OW27982   2.683   3.754   5.963
 9028SOL    HW127983   2.707   3.818   6.036
 9028SOL    HW227984   2.590   3.773   5.932
 9029SOL     OW27985   3.355   5.641   5.334
 9029SOL    HW127986   3.438   5.639   5.390
 9029SOL    HW227987   3.282   5.686   5.386
 9030SOL     OW27988   1.913   0.793   3.150
 9030SOL    HW127989   1.863   0.768   3.067
 9030SOL    HW227990   1.941   0.889   3.145
 9031SOL     OW27991   5.204   5.387   5.340
 9031SOL    HW127992   5.263   5.310   5.363
 9031SOL    HW227993   5.118   5.379   5.391
 9032SOL     OW27994   3.580   3.364   0.940
 9032SOL    HW127995   3.635   3.346   0.858
 9032SOL    HW227996   3.622   3.438   0.992
 9033SOL     OW27997   2.294   4.187   3.381
 9033SOL    HW127998   2.252   4.199   3.471
 9033SOL    HW227999   2.362   4.259   3.365
 9034SOL     OW28000   3.196   0.565   4.740
 9034SOL    HW128001   3.294   0.554   4.757
 9034SOL    HW228002   3.165   0.652   4.777
 9035SOL     OW28003   1.328   6.411   5.820
 9035SOL    HW128004   1.402   6.418   5.753
 9035SOL    HW228005   1.366   6.400   5.911
 9036SOL     OW28006   1.320   0.693   4.920
 9036SOL    HW128007   1.276   0.742   4.844
 9036SOL    HW228008   1.294   0.737   5.006
 9037SOL     OW28009   1.391   4.245   5.949
 9037SOL    HW128010   1.328   4.243   6.027
 9037SOL    HW228011   1.438   4.157   5.942
 9038SOL     OW28012   4.384   0.840   5.266
 9038SOL    HW128013   4.464   0.874   5.316
 9038SOL    HW228014   4.403   0.748   5.233
 9039SOL     OW28015   1.817   4.341   4.888
 9039SOL    HW128016   1.766   4.415   4.931
 9039SOL    HW228017   1.813   4.259   4.946
 9040SOL     OW28018   3.074   1.871   3.267
 9040SOL    HW128019   3.090   1.936   3.193
 9040SOL    HW228020   3.112   1.906   3.352
 9041SOL     OW28021   0.693   2.446   1.889
 9041SOL    HW128022   0.772   2.411   1.939
 9041SOL    HW228023   0.678   2.390   1.807
 9042SOL     OW28024   3.192   6.718   3.868
 9042SOL    HW128025   3.129   6.699   3.792
 9042SOL    HW228026   3.182   6.647   3.938
 9043SOL     OW28027   1.937   1.216   6.049
 9043SOL    HW128028   1.919   1.266   5.965
 9043SOL    HW228029   1.940   1.281   6.126
 9044SOL     OW28030   6.517   1.250   1.552
 9044SOL    HW128031   6.522   1.338   1.504
 9044SOL    HW228032   6.521   1.176   1.486
 9045SOL     OW28033   3.455   1.870   2.767
 9045SOL    HW128034   3.359   1.875   2.793
 9045SOL    HW228035   3.508   1.831   2.842
 9046SOL     OW28036   3.257   3.424   4.286
 9046SOL    HW128037   3.245   3.495   4.355
 9046SOL    HW228038   3.328   3.360   4.316
 9047SOL     OW28039   1.702   3.447   5.212
 9047SOL    HW128040   1.757   3.483   5.287
 9047SOL    HW228041   1.753   3.457   5.126
 9048SOL     OW28042   5.800   2.824   6.407
 9048SOL    HW128043   5.799   2.924   6.399
 9048SOL    HW228044   5.819   2.784   6.318
 9049SOL     OW28045   4.145   6.721   6.579
 9049SOL    HW128046   4.118   6.707   6.483
 9049SOL    HW228047   4.068   6.759   6.630
 9050SOL     OW28048   0.541   4.876   5.708
 9050SOL    HW128049   0.527   4.792   5.656
 9050SOL    HW228050   0.589   4.855   5.793
 9051SOL     OW28051   4.576   5.957   0.791
 9051SOL    HW128052   4.588   6.033   0.727
 9051SOL    HW228053   4.657   5.898   0.789
 9052SOL     OW28054   1.890   3.027   3.392
 9052SOL    HW128055   1.830   3.030   3.472
 9052SOL    HW228056   1.931   2.936   3.385
 9053SOL     OW28057   2.176   1.481   3.069
 9053SOL    HW128058   2.262   1.507   3.114
 9053SOL    HW228059   2.116   1.438   3.136
 9054SOL     OW28060   1.484   6.958   2.593
 9054SOL    HW128061   1.433   0.013   2.545
 9054SOL    HW228062   1.434   6.931   2.676
 9055SOL     OW28063   6.902   3.920   3.509
 9055SOL    HW128064   6.934   3.868   3.589
 9055SOL    HW228065   6.980   3.939   3.449
 9056SOL     OW28066   6.313   6.968   1.583
 9056SOL    HW128067   6.390   6.960   1.646
 9056SOL    HW228068   6.249   6.892   1.598
 9057SOL     OW28069   5.982   5.293   6.318
 9057SOL    HW128070   5.921   5.289   6.239
 9057SOL    HW228071   6.067   5.340   6.291
 9058SOL     OW28072   1.925   2.241   3.446
 9058SOL    HW128073   1.985   2.272   3.373
 9058SOL    HW228074   1.953   2.149   3.476
 9059SOL     OW28075   0.610   1.381   4.288
 9059SOL    HW128076   0.527   1.331   4.263
 9059SOL    HW228077   0.627   1.371   4.385
 9060SOL     OW28078   0.520   3.031   1.764
 9060SOL    HW128079   0.572   2.972   1.825
 9060SOL    HW228080   0.581   3.068   1.693
 9061SOL     OW28081   3.457   5.776   2.130
 9061SOL    HW128082   3.451   5.739   2.222
 9061SOL    HW228083   3.477   5.874   2.134
 9062SOL     OW28084   1.773   5.369   2.313
 9062SOL    HW128085   1.780   5.369   2.412
 9062SOL    HW228086   1.679   5.349   2.285
 9063SOL     OW28087   2.578   6.974   2.638
 9063SOL    HW128088   2.580   6.968   2.538
 9063SOL    HW228089   2.577   6.882   2.677
 9064SOL     OW28090   5.556   3.465   4.368
 9064SOL    HW128091   5.623   3.392   4.355
 9064SOL    HW228092   5.520   3.461   4.461
 9065SOL     OW28093   3.202   5.745   6.783
 9065SOL    HW128094   3.168   5.730   6.691
 9065SOL    HW228095   3.216   5.657   6.828
 9066SOL     OW28096   5.736   0.571   0.144
 9066SOL    HW128097   5.789   0.584   0.227
 9066SOL    HW228098   5.675   0.493   0.155
 9067SOL     OW28099   5.982   0.183   4.957
 9067SOL    HW128100   6.000   0.278   4.930
 9067SOL    HW228101   6.063   0.127   4.939
 9068SOL     OW28102   3.211   0.613   5.201
 9068SOL    HW128103   3.228   0.680   5.129
 9068SOL    HW228104   3.242   0.650   5.289
 9069SOL     OW28105   3.089   2.291   1.650
 9069SOL    HW128106   3.174   2.241   1.669
 9069SOL    HW228107   3.050   2.324   1.736
 9070SOL     OW28108   0.785   3.737   5.601
 9070SOL    HW128109   0.827   3.816   5.647
 9070SOL    HW228110   0.857   3.682   5.558
 9071SOL     OW28111   5.062   6.881   0.546
 9071SOL    HW128112   5.052   6.861   0.644
 9071SOL    HW228113   5.152   6.920   0.529
 9072SOL     OW28114   6.065   0.930   1.482
 9072SOL    HW128115   6.112   0.947   1.395
 9072SOL    HW228116   6.116   0.863   1.535
 9073SOL     OW28117   3.596   6.247   0.806
 9073SOL    HW128118   3.592   6.340   0.841
 9073SOL    HW228119   3.690   6.213   0.813
 9074SOL     OW28120   1.731   0.516   2.290
 9074SOL    HW128121   1.785   0.553   2.365
 9074SOL    HW228122   1.742   0.574   2.209
 9075SOL     OW28123   0.222   0.533   1.304
 9075SOL    HW128124   0.210   0.519   1.402
 9075SOL    HW228125   0.306   0.487   1.275
 9076SOL     OW28126   5.399   1.382   5.116
 9076SOL    HW128127   5.398   1.300   5.172
 9076SOL    HW228128   5.494   1.410   5.100
 9077SOL     OW28129   5.882   0.792   6.711
 9077SOL    HW128130   5.909   0.780   6.616
 9077SOL    HW228131   5.818   0.720   6.736
 9078SOL     OW28132   4.820   3.616   0.345
 9078SOL    HW128133   4.814   3.706   0.301
 9078SOL    HW228134   4.816   3.544   0.276
 9079SOL     OW28135   2.336   6.051   4.719
 9079SOL    HW128136   2.418   6.108   4.718
 9079SOL    HW228137   2.258   6.105   4.686
 9080SOL     OW28138   5.887   2.263   0.563
 9080SOL    HW128139   5.800   2.257   0.611
 9080SOL    HW228140   5.924   2.355   0.570
 9081SOL     OW28141   3.530   6.929   2.427
 9081SOL    HW128142   3.505   0.009   2.446
 9081SOL    HW228143   3.627   6.925   2.402
 9082SOL     OW28144   2.474   6.967   5.596
 9082SOL    HW128145   2.406   6.956   5.524
 9082SOL    HW228146   2.518   0.041   5.587
 9083SOL     OW28147   3.816   4.471   5.918
 9083SOL    HW128148   3.816   4.374   5.895
 9083SOL    HW228149   3.779   4.524   5.842
 9084SOL     OW28150   2.643   3.409   6.001
 9084SOL    HW128151   2.695   3.482   5.957
 9084SOL    HW228152   2.658   3.323   5.952
 9085SOL     OW28153   1.303   4.898   0.519
 9085SOL    HW128154   1.267   4.988   0.542
 9085SOL    HW228155   1.260   4.829   0.578
 9086SOL     OW28156   0.185   4.433   0.740
 9086SOL    HW128157   0.098   4.455   0.785
 9086SOL    HW228158   0.251   4.505   0.758
 9087SOL     OW28159   4.746   2.486   1.900
 9087SOL    HW128160   4.844   2.494   1.880
 9087SOL    HW228161   4.695   2.549   1.841
 9088SOL     OW28162   6.219   6.115   0.822
 9088SOL    HW128163   6.244   6.135   0.727
 9088SOL    HW228164   6.247   6.022   0.846
 9089SOL     OW28165   5.238   6.251   4.975
 9089SOL    HW128166   5.215   6.205   5.060
 9089SOL    HW228167   5.172   6.225   4.904
 9090SOL     OW28168   6.697   6.143   3.964
 9090SOL    HW128169   6.605   6.155   4.002
 9090SOL    HW228170   6.692   6.084   3.883
 9091SOL     OW28171   2.560   3.795   1.002
 9091SOL    HW128172   2.611   3.835   1.079
 9091SOL    HW228173   2.622   3.738   0.947
 9092SOL     OW28174   6.952   1.358   0.643
 9092SOL    HW128175   6.975   1.427   0.711
 9092SOL    HW228176   6.946   1.400   0.552
 9093SOL     OW28177   1.417   6.216   6.372
 9093SOL    HW128178   1.450   6.122   6.374
 9093SOL    HW228179   1.495   6.279   6.368
 9094SOL     OW28180   5.950   5.118   2.556
 9094SOL    HW128181   5.923   5.157   2.644
 9094SOL    HW228182   5.871   5.118   2.494
 9095SOL     OW28183   4.559   4.051   6.754
 9095SOL    HW128184   4.478   4.103   6.778
 9095SOL    HW228185   4.607   4.096   6.678
 9096SOL     OW28186   5.779   4.116   1.755
 9096SOL    HW128187   5.760   4.184   1.684
 9096SOL    HW228188   5.752   4.025   1.723
 9097SOL     OW28189   1.206   2.443   6.690
 9097SOL    HW128190   1.185   2.442   6.593
 9097SOL    HW228191   1.135   2.395   6.740
 9098SOL     OW28192   3.439   2.741   6.833
 9098SOL    HW128193   3.532   2.743   6.798
 9098SOL    HW228194   3.433   2.798   6.916
 9099SOL     OW28195   2.843   3.085   0.086
 9099SOL    HW128196   2.909   3.032   0.034
 9099SOL    HW228197   2.766   3.110   0.028
 9100SOL     OW28198   1.038   3.818   4.547
 9100SOL    HW128199   0.981   3.884   4.498
 9100SOL    HW228200   1.118   3.795   4.491
 9101SOL     OW28201   2.649   2.399   2.886
 9101SOL    HW128202   2.640   2.301   2.901
 9101SOL    HW228203   2.618   2.421   2.793
 9102SOL     OW28204   2.822   0.329   2.174
 9102SOL    HW128205   2.787   0.257   2.233
 9102SOL    HW228206   2.747   0.369   2.121
 9103SOL     OW28207   6.138   3.403   6.509
 9103SOL    HW128208   6.140   3.390   6.608
 9103SOL    HW228209   6.135   3.314   6.464
 9104SOL     OW28210   5.974   6.700   2.291
 9104SOL    HW128211   6.016   6.690   2.201
 9104SOL    HW228212   5.989   6.793   2.324
 9105SOL     OW28213   1.726   1.727   6.856
 9105SOL    HW128214   1.680   1.783   6.926
 9105SOL    HW228215   1.820   1.709   6.885
 9106SOL     OW28216   6.901   3.856   6.864
 9106SOL    HW128217   6.976   3.917   6.836
 9106SOL    HW228218   6.822   3.872   6.805
 9107SOL     OW28219   3.426   0.958   6.247
 9107SOL    HW128220   3.363   0.963   6.169
 9107SOL    HW228221   3.520   0.956   6.214
 9108SOL     OW28222   4.585   3.884   5.568
 9108SOL    HW128223   4.609   3.942   5.645
 9108SOL    HW228224   4.510   3.926   5.517
 9109SOL     OW28225   0.599   2.947   2.567
 9109SOL    HW128226   0.691   2.957   2.606
 9109SOL    HW228227   0.531   2.966   2.637
 9110SOL     OW28228   2.143   3.777   3.849
 9110SOL    HW128229   2.126   3.875   3.839
 9110SOL    HW228230   2.242   3.761   3.859
 9111SOL     OW28231   4.587   1.489   0.789
 9111SOL    HW128232   4.572   1.430   0.869
 9111SOL    HW228233   4.546   1.448   0.708
 9112SOL     OW28234   0.416   4.945   3.648
 9112SOL    HW128235   0.430   4.990   3.736
 9112SOL    HW228236   0.441   4.849   3.655
 9113SOL     OW28237   5.498   1.258   2.600
 9113SOL    HW128238   5.496   1.164   2.566
 9113SOL    HW228239   5.589   1.278   2.636
 9114SOL     OW28240   0.572   4.491   2.341
 9114SOL    HW128241   0.654   4.436   2.326
 9114SOL    HW228242   0.598   4.585   2.361
 9115SOL     OW28243   0.098   5.125   5.057
 9115SOL    HW128244   0.142   5.156   4.973
 9115SOL    HW228245   0.011   5.174   5.068
 9116SOL     OW28246   6.992   1.125   1.831
 9116SOL    HW128247   6.897   1.134   1.800
 9116SOL    HW228248   6.995   1.066   1.911
 9117SOL     OW28249   6.031   2.952   0.193
 9117SOL    HW128250   5.947   2.934   0.243
 9117SOL    HW228251   6.108   2.955   0.257
 9118SOL     OW28252   6.644   3.868   0.405
 9118SOL    HW128253   6.737   3.835   0.387
 9118SOL    HW228254   6.640   3.906   0.497
 9119SOL     OW28255   4.919   0.429   1.971
 9119SOL    HW128256   4.836   0.450   1.920
 9119SOL    HW228257   4.894   0.387   2.059
 9120SOL     OW28258   6.249   2.289   5.787
 9120SOL    HW128259   6.216   2.324   5.699
 9120SOL    HW228260   6.172   2.284   5.851
 9121SOL     OW28261   3.868   1.126   4.964
 9121SOL    HW128262   3.807   1.051   4.936
 9121SOL    HW228263   3.843   1.157   5.055
 9122SOL     OW28264   1.804   4.001   2.357
 9122SOL    HW128265   1.711   3.963   2.354
 9122SOL    HW228266   1.847   3.990   2.268
 9123SOL     OW28267   2.318   0.887   3.767
 9123SOL    HW128268   2.235   0.836   3.791
 9123SOL    HW228269   2.369   0.909   3.850
 9124SOL     OW28270   5.406   6.483   0.087
 9124SOL    HW128271   5.493   6.482   0.037
 9124SOL    HW228272   5.345   6.550   0.045
 9125SOL     OW28273   4.796   3.929   0.874
 9125SOL    HW128274   4.819   4.002   0.937
 9125SOL    HW228275   4.711   3.884   0.903
 9126SOL     OW28276   6.390   3.515   1.350
 9126SOL    HW128277   6.408   3.610   1.327
 9126SOL    HW228278   6.333   3.511   1.432
 9127SOL     OW28279   6.884   1.968   6.134
 9127SOL    HW128280   6.820   1.907   6.181
 9127SOL    HW228281   6.858   2.063   6.151
 9128SOL     OW28282   5.173   1.617   5.512
 9128SOL    HW128283   5.075   1.629   5.521
 9128SOL    HW228284   5.195   1.593   5.417
 9129SOL     OW28285   0.486   2.541   0.306
 9129SOL    HW128286   0.418   2.478   0.345
 9129SOL    HW228287   0.520   2.602   0.377
 9130SOL     OW28288   0.022   3.684   6.391
 9130SOL    HW128289   0.111   3.701   6.349
 9130SOL    HW228290   6.974   3.653   6.321
 9131SOL     OW28291   5.848   2.689   4.991
 9131SOL    HW128292   5.853   2.606   4.936
 9131SOL    HW228293   5.941   2.715   5.019
 9132SOL     OW28294   0.955   5.770   4.224
 9132SOL    HW128295   0.945   5.820   4.310
 9132SOL    HW228296   0.955   5.672   4.241
 9133SOL     OW28297   3.393   6.328   1.748
 9133SOL    HW128298   3.340   6.411   1.765
 9133SOL    HW228299   3.436   6.333   1.658
 9134SOL     OW28300   4.358   5.687   1.194
 9134SOL    HW128301   4.261   5.710   1.193
 9134SOL    HW228302   4.389   5.668   1.101
 9135SOL     OW28303   6.787   6.717   1.554
 9135SOL    HW128304   6.827   6.672   1.474
 9135SOL    HW228305   6.752   6.648   1.616
 9136SOL     OW28306   4.800   6.572   0.003
 9136SOL    HW128307   4.770   6.547   6.926
 9136SOL    HW228308   4.721   6.568   0.065
 9137SOL     OW28309   5.413   0.938   0.244
 9137SOL    HW128310   5.422   1.030   0.208
 9137SOL    HW228311   5.359   0.882   0.181
 9138SOL     OW28312   0.427   6.022   6.618
 9138SOL    HW128313   0.459   6.108   6.578
 9138SOL    HW228314   0.327   6.021   6.619
 9139SOL     OW28315   2.380   1.876   2.905
 9139SOL    HW128316   2.475   1.844   2.900
 9139SOL    HW228317   2.367   1.928   2.989
 9140SOL     OW28318   0.016   3.206   2.819
 9140SOL    HW128319   0.019   3.259   2.903
 9140SOL    HW228320   0.031   3.267   2.741
 9141SOL     OW28321   5.368   0.589   0.494
 9141SOL    HW128322   5.461   0.619   0.474
 9141SOL    HW228323   5.305   0.665   0.480
 9142SOL     OW28324   0.904   2.861   0.919
 9142SOL    HW128325   0.856   2.933   0.868
 9142SOL    HW228326   0.896   2.879   1.017
 9143SOL     OW28327   6.565   3.390   0.014
 9143SOL    HW128328   6.542   3.448   0.092
 9143SOL    HW228329   6.499   3.407   6.956
 9144SOL     OW28330   2.284   5.019   4.527
 9144SOL    HW128331   2.367   4.979   4.489
 9144SOL    HW228332   2.303   5.058   4.616
 9145SOL     OW28333   0.394   5.785   6.973
 9145SOL    HW128334   0.406   5.747   0.048
 9145SOL    HW228335   0.441   5.727   6.906
 9146SOL     OW28336   5.319   2.953   3.579
 9146SOL    HW128337   5.348   2.862   3.611
 9146SOL    HW228338   5.377   3.023   3.621
 9147SOL     OW28339   5.976   0.083   5.550
 9147SOL    HW128340   5.971   7.006   5.513
 9147SOL    HW228341   6.069   0.118   5.539
 9148SOL     OW28342   5.298   6.130   1.231
 9148SOL    HW128343   5.222   6.094   1.285
 9148SOL    HW228344   5.380   6.133   1.288
 9149SOL     OW28345   5.649   4.247   2.536
 9149SOL    HW128346   5.672   4.187   2.613
 9149SOL    HW228347   5.725   4.310   2.520
 9150SOL     OW28348   3.630   5.233   1.401
 9150SOL    HW128349   3.541   5.273   1.422
 9150SOL    HW228350   3.617   5.154   1.341
 9151SOL     OW28351   2.370   4.484   3.369
 9151SOL    HW128352   2.321   4.568   3.344
 9151SOL    HW228353   2.447   4.508   3.429
 9152SOL     OW28354   1.987   4.355   4.684
 9152SOL    HW128355   2.082   4.329   4.696
 9152SOL    HW228356   1.938   4.343   4.770
 9153SOL     OW28357   0.325   2.926   0.043
 9153SOL    HW128358   0.303   2.861   0.115
 9153SOL    HW228359   0.241   2.965   0.007
 9154SOL     OW28360   5.056   4.760   6.662
 9154SOL    HW128361   5.061   4.833   6.594
 9154SOL    HW228362   4.960   4.738   6.681
 9155SOL     OW28363   1.560   3.862   2.065
 9155SOL    HW128364   1.659   3.861   2.083
 9155SOL    HW228365   1.534   3.777   2.019
 9156SOL     OW28366   1.081   2.282   0.513
 9156SOL    HW128367   1.028   2.273   0.429
 9156SOL    HW228368   1.024   2.319   0.586
 9157SOL     OW28369   1.829   3.728   6.428
 9157SOL    HW128370   1.841   3.706   6.525
 9157SOL    HW228371   1.918   3.753   6.389
 9158SOL     OW28372   6.003   3.733   4.312
 9158SOL    HW128373   6.020   3.830   4.323
 9158SOL    HW228374   5.938   3.718   4.237
 9159SOL     OW28375   1.394   1.241   2.160
 9159SOL    HW128376   1.463   1.261   2.091
 9159SOL    HW228377   1.368   1.325   2.207
 9160SOL     OW28378   6.828   6.572   5.841
 9160SOL    HW128379   6.863   6.567   5.747
 9160SOL    HW228380   6.889   6.630   5.896
 9161SOL     OW28381   5.381   5.142   4.009
 9161SOL    HW128382   5.316   5.127   4.084
 9161SOL    HW228383   5.380   5.064   3.948
 9162SOL     OW28384   4.345   0.779   3.444
 9162SOL    HW128385   4.443   0.798   3.432
 9162SOL    HW228386   4.321   0.788   3.541
 9163SOL     OW28387   0.756   2.513   4.719
 9163SOL    HW128388   0.774   2.607   4.690
 9163SOL    HW228389   0.827   2.453   4.682
 9164SOL     OW28390   2.626   0.606   0.104
 9164SOL    HW128391   2.719   0.637   0.084
 9164SOL    HW228392   2.610   0.518   0.060
 9165SOL     OW28393   6.281   0.956   5.535
 9165SOL    HW128394   6.336   0.961   5.452
 9165SOL    HW228395   6.228   0.871   5.534
 9166SOL     OW28396   4.515   5.924   1.243
 9166SOL    HW128397   4.452   5.846   1.246
 9166SOL    HW228398   4.471   6.001   1.196
 9167SOL     OW28399   2.086   1.845   6.257
 9167SOL    HW128400   2.170   1.853   6.311
 9167SOL    HW228401   2.007   1.848   6.317
 9168SOL     OW28402   6.946   6.107   5.850
 9168SOL    HW128403   6.890   6.026   5.868
 9168SOL    HW228404   0.017   6.079   5.809
 9169SOL     OW28405   6.403   0.289   6.131
 9169SOL    HW128406   6.384   0.353   6.205
 9169SOL    HW228407   6.475   0.225   6.159
 9170SOL     OW28408   1.761   0.233   6.652
 9170SOL    HW128409   1.697   0.172   6.699
 9170SOL    HW228410   1.741   0.328   6.675
 9171SOL     OW28411   3.798   5.660   0.462
 9171SOL    HW128412   3.744   5.588   0.418
 9171SOL    HW228413   3.846   5.713   0.393
 9172SOL     OW28414   4.958   0.921   2.566
 9172SOL    HW128415   4.862   0.952   2.570
 9172SOL    HW228416   4.974   0.853   2.637
 9173SOL     OW28417   5.788   4.347   6.030
 9173SOL    HW128418   5.862   4.309   5.976
 9173SOL    HW228419   5.702   4.301   6.008
 9174SOL     OW28420   6.900   4.193   0.626
 9174SOL    HW128421   6.847   4.110   0.644
 9174SOL    HW228422   6.932   4.193   0.531
 9175SOL     OW28423   1.212   6.143   6.595
 9175SOL    HW128424   1.292   6.125   6.538
 9175SOL    HW228425   1.195   6.064   6.653
 9176SOL     OW28426   2.295   1.087   3.170
 9176SOL    HW128427   2.321   1.169   3.121
 9176SOL    HW228428   2.363   1.067   3.241
 9177SOL     OW28429   0.652   4.850   4.027
 9177SOL    HW128430   0.738   4.816   3.991
 9177SOL    HW228431   0.585   4.776   4.028
 9178SOL     OW28432   1.748   5.470   0.870
 9178SOL    HW128433   1.794   5.404   0.930
 9178SOL    HW228434   1.657   5.491   0.907
 9179SOL     OW28435   2.232   5.364   3.915
 9179SOL    HW128436   2.228   5.382   4.013
 9179SOL    HW228437   2.144   5.329   3.883
 9180SOL     OW28438   6.780   2.661   3.472
 9180SOL    HW128439   6.845   2.732   3.446
 9180SOL    HW228440   6.729   2.689   3.553
 9181SOL     OW28441   5.626   2.498   4.260
 9181SOL    HW128442   5.695   2.502   4.332
 9181SOL    HW228443   5.547   2.553   4.287
 9182SOL     OW28444   2.781   6.974   3.195
 9182SOL    HW128445   2.739   6.898   3.244
 9182SOL    HW228446   2.718   7.009   3.126
 9183SOL     OW28447   4.516   4.353   6.822
 9183SOL    HW128448   4.575   4.330   6.899
 9183SOL    HW228449   4.434   4.296   6.825
 9184SOL     OW28450   4.594   2.006   1.536
 9184SOL    HW128451   4.582   1.913   1.502
 9184SOL    HW228452   4.683   2.015   1.579
 9185SOL     OW28453   5.992   6.383   5.406
 9185SOL    HW128454   5.918   6.448   5.422
 9185SOL    HW228455   5.955   6.299   5.366
 9186SOL     OW28456   5.739   0.022   4.511
 9186SOL    HW128457   5.706   0.116   4.524
 9186SOL    HW228458   5.676   6.974   4.555
 9187SOL     OW28459   3.282   2.292   0.433
 9187SOL    HW128460   3.380   2.291   0.414
 9187SOL    HW228461   3.231   2.270   0.350
 9188SOL     OW28462   2.099   0.446   2.189
 9188SOL    HW128463   2.197   0.457   2.179
 9188SOL    HW228464   2.061   0.523   2.240
 9189SOL     OW28465   3.051   5.834   1.965
 9189SOL    HW128466   3.009   5.878   1.886
 9189SOL    HW228467   3.111   5.760   1.933
 9190SOL     OW28468   1.283   3.396   5.515
 9190SOL    HW128469   1.280   3.487   5.474
 9190SOL    HW228470   1.375   3.377   5.547
 9191SOL     OW28471   6.000   0.887   0.217
 9191SOL    HW128472   6.003   0.891   0.117
 9191SOL    HW228473   6.010   0.979   0.255
 9192SOL     OW28474   0.226   2.321   6.214
 9192SOL    HW128475   0.197   2.238   6.262
 9192SOL    HW228476   0.226   2.398   6.278
 9193SOL     OW28477   4.019   3.655   4.919
 9193SOL    HW128478   4.085   3.649   4.994
 9193SOL    HW228479   4.052   3.600   4.842
 9194SOL     OW28480   3.141   0.801   2.449
 9194SOL    HW128481   3.055   0.798   2.500
 9194SOL    HW228482   3.210   0.745   2.496
 9195SOL     OW28483   1.192   3.913   3.271
 9195SOL    HW128484   1.284   3.888   3.301
 9195SOL    HW228485   1.139   3.947   3.349
 9196SOL     OW28486   5.727   6.522   3.618
 9196SOL    HW128487   5.766   6.556   3.532
 9196SOL    HW228488   5.727   6.422   3.618
 9197SOL     OW28489   3.080   4.534   1.180
 9197SOL    HW128490   3.115   4.478   1.105
 9197SOL    HW228491   3.124   4.507   1.266
 9198SOL     OW28492   6.396   4.391   6.243
 9198SOL    HW128493   6.425   4.432   6.157
 9198SOL    HW228494   6.472   4.340   6.284
 9199SOL     OW28495   6.781   3.020   5.623
 9199SOL    HW128496   6.743   3.106   5.658
 9199SOL    HW228497   6.852   3.040   5.555
 9200SOL     OW28498   3.104   6.288   5.841
 9200SOL    HW128499   3.171   6.329   5.779
 9200SOL    HW228500   3.016   6.278   5.794
 9201SOL     OW28501   6.865   3.555   6.929
 9201SOL    HW128502   6.791   3.492   6.951
 9201SOL    HW228503   6.837   3.648   6.952
 9202SOL     OW28504   0.944   6.351   3.529
 9202SOL    HW128505   1.008   6.426   3.517
 9202SOL    HW228506   0.874   6.354   3.457
 9203SOL     OW28507   6.156   3.170   6.101
 9203SOL    HW128508   6.195   3.241   6.161
 9203SOL    HW228509   6.166   3.199   6.006
 9204SOL     OW28510   4.962   3.687   4.379
 9204SOL    HW128511   4.986   3.678   4.475
 9204SOL    HW228512   4.894   3.760   4.368
 9205SOL     OW28513   5.167   5.734   3.397
 9205SOL    HW128514   5.073   5.765   3.385
 9205SOL    HW228515   5.180   5.645   3.354
 9206SOL     OW28516   3.442   5.698   3.343
 9206SOL    HW128517   3.504   5.620   3.330
 9206SOL    HW228518   3.356   5.680   3.297
 9207SOL     OW28519   4.672   3.896   0.399
 9207SOL    HW128520   4.719   3.887   0.311
 9207SOL    HW228521   4.737   3.923   0.469
 9208SOL     OW28522   5.589   4.579   2.515
 9208SOL    HW128523   5.514   4.529   2.472
 9208SOL    HW228524   5.554   4.665   2.554
 9209SOL     OW28525   4.728   1.134   0.377
 9209SOL    HW128526   4.790   1.169   0.447
 9209SOL    HW228527   4.634   1.156   0.402
 9210SOL     OW28528   0.916   1.508   1.216
 9210SOL    HW128529   0.886   1.521   1.310
 9210SOL    HW228530   1.013   1.484   1.214
 9211SOL     OW28531   6.072   2.654   6.164
 9211SOL    HW128532   6.168   2.626   6.170
 9211SOL    HW228533   6.067   2.754   6.162
 9212SOL     OW28534   5.264   4.800   3.837
 9212SOL    HW128535   5.226   4.762   3.921
 9212SOL    HW228536   5.309   4.728   3.785
 9213SOL     OW28537   5.067   4.767   4.727
 9213SOL    HW128538   5.157   4.727   4.742
 9213SOL    HW228539   5.033   4.805   4.813
 9214SOL     OW28540   6.758   2.790   5.276
 9214SOL    HW128541   6.796   2.698   5.291
 9214SOL    HW228542   6.831   2.858   5.287
 9215SOL     OW28543   1.938   4.047   2.111
 9215SOL    HW128544   1.913   3.952   2.089
 9215SOL    HW228545   2.037   4.053   2.122
 9216SOL     OW28546   2.634   6.807   3.366
 9216SOL    HW128547   2.549   6.802   3.419
 9216SOL    HW228548   2.709   6.835   3.427
 9217SOL     OW28549   5.993   3.694   6.544
 9217SOL    HW128550   5.936   3.612   6.549
 9217SOL    HW228551   6.077   3.673   6.494
 9218SOL     OW28552   3.725   0.843   0.024
 9218SOL    HW128553   3.688   0.909   6.974
 9218SOL    HW228554   3.650   0.806   0.079
 9219SOL     OW28555   4.928   4.110   6.251
 9219SOL    HW128556   4.906   4.012   6.246
 9219SOL    HW228557   4.991   4.126   6.326
 9220SOL     OW28558   1.101   5.956   2.180
 9220SOL    HW128559   1.020   6.009   2.153
 9220SOL    HW228560   1.104   5.948   2.279
 9221SOL     OW28561   1.929   0.230   3.257
 9221SOL    HW128562   1.975   0.319   3.268
 9221SOL    HW228563   1.931   0.181   3.344
 9222SOL     OW28564   2.784   5.685   5.508
 9222SOL    HW128565   2.715   5.620   5.539
 9222SOL    HW228566   2.807   5.667   5.413
 9223SOL     OW28567   1.487   2.134   4.206
 9223SOL    HW128568   1.467   2.037   4.194
 9223SOL    HW228569   1.585   2.150   4.191
 9224SOL     OW28570   0.828   5.593   3.894
 9224SOL    HW128571   0.757   5.548   3.839
 9224SOL    HW228572   0.799   5.686   3.916
 9225SOL     OW28573   2.752   6.150   6.041
 9225SOL    HW128574   2.822   6.215   6.068
 9225SOL    HW228575   2.706   6.183   5.958
 9226SOL     OW28576   0.375   6.746   1.522
 9226SOL    HW128577   0.350   6.772   1.615
 9226SOL    HW228578   0.451   6.681   1.525
 9227SOL     OW28579   1.879   5.315   1.062
 9227SOL    HW128580   1.826   5.342   1.143
 9227SOL    HW228581   1.972   5.290   1.090
 9228SOL     OW28582   3.163   1.129   6.738
 9228SOL    HW128583   3.203   1.191   6.670
 9228SOL    HW228584   3.147   1.179   6.823
 9229SOL     OW28585   0.855   5.022   5.557
 9229SOL    HW128586   0.876   4.952   5.625
 9229SOL    HW228587   0.774   4.994   5.505
 9230SOL     OW28588   4.951   3.167   3.645
 9230SOL    HW128589   4.934   3.224   3.725
 9230SOL    HW228590   4.916   3.075   3.661
 9231SOL     OW28591   1.341   3.590   4.822
 9231SOL    HW128592   1.426   3.585   4.770
 9231SOL    HW228593   1.264   3.576   4.761
 9232SOL     OW28594   3.450   5.018   6.709
 9232SOL    HW128595   3.370   4.962   6.692
 9232SOL    HW228596   3.444   5.058   6.800
 9233SOL     OW28597   5.969   6.077   1.497
 9233SOL    HW128598   5.931   6.014   1.564
 9233SOL    HW228599   6.031   6.141   1.543
 9234SOL     OW28600   2.969   5.693   0.367
 9234SOL    HW128601   3.017   5.618   0.321
 9234SOL    HW228602   3.032   5.739   0.430
 9235SOL     OW28603   2.117   2.790   3.357
 9235SOL    HW128604   2.139   2.759   3.265
 9235SOL    HW228605   2.119   2.890   3.359
 9236SOL     OW28606   2.221   4.157   6.776
 9236SOL    HW128607   2.300   4.161   6.716
 9236SOL    HW228608   2.197   4.248   6.807
 9237SOL     OW28609   0.197   5.911   3.215
 9237SOL    HW128610   0.280   5.901   3.269
 9237SOL    HW228611   0.203   5.994   3.159
 9238SOL     OW28612   2.001   2.730   6.200
 9238SOL    HW128613   2.036   2.669   6.128
 9238SOL    HW228614   2.077   2.758   6.259
 9239SOL     OW28615   0.268   3.651   6.258
 9239SOL    HW128616   0.273   3.559   6.219
 9239SOL    HW228617   0.298   3.718   6.190
 9240SOL     OW28618   5.402   2.858   2.253
 9240SOL    HW128619   5.352   2.783   2.209
 9240SOL    HW228620   5.339   2.913   2.307
 9241SOL     OW28621   0.746   5.080   6.302
 9241SOL    HW128622   0.804   5.031   6.367
 9241SOL    HW228623   0.763   5.178   6.310
 9242SOL     OW28624   1.067   4.474   0.510
 9242SOL    HW128625   1.020   4.555   0.545
 9242SOL    HW228626   1.129   4.501   0.436
 9243SOL     OW28627   0.502   0.386   1.172
 9243SOL    HW128628   0.559   0.307   1.151
 9243SOL    HW228629   0.452   0.413   1.090
 9244SOL     OW28630   3.553   4.927   6.032
 9244SOL    HW128631   3.612   4.915   6.112
 9244SOL    HW228632   3.480   4.992   6.055
 9245SOL     OW28633   1.098   5.873   3.761
 9245SOL    HW128634   1.146   5.791   3.730
 9245SOL    HW228635   1.092   5.872   3.860
 9246SOL     OW28636   6.575   6.893   2.575
 9246SOL    HW128637   6.616   6.920   2.488
 9246SOL    HW228638   6.523   6.970   2.613
 9247SOL     OW28639   2.289   6.107   3.148
 9247SOL    HW128640   2.287   6.077   3.052
 9247SOL    HW228641   2.235   6.191   3.157
 9248SOL     OW28642   3.164   2.141   4.209
 9248SOL    HW128643   3.155   2.119   4.111
 9248SOL    HW228644   3.073   2.154   4.248
 9249SOL     OW28645   3.439   4.728   1.114
 9249SOL    HW128646   3.472   4.691   1.027
 9249SOL    HW228647   3.383   4.810   1.096
 9250SOL     OW28648   5.661   2.611   3.989
 9250SOL    HW128649   5.674   2.587   4.085
 9250SOL    HW228650   5.727   2.561   3.933
 9251SOL     OW28651   3.724   1.748   3.228
 9251SOL    HW128652   3.752   1.665   3.275
 9251SOL    HW228653   3.789   1.822   3.249
 9252SOL     OW28654   4.995   0.736   4.159
 9252SOL    HW128655   5.055   0.788   4.220
 9252SOL    HW228656   4.900   0.767   4.173
 9253SOL     OW28657   5.584   5.662   5.307
 9253SOL    HW128658   5.597   5.654   5.405
 9253SOL    HW228659   5.487   5.682   5.287
 9254SOL     OW28660   5.599   4.978   3.209
 9254SOL    HW128661   5.535   4.997   3.283
 9254SOL    HW228662   5.691   5.005   3.236
 9255SOL     OW28663   4.446   4.334   0.727
 9255SOL    HW128664   4.517   4.315   0.794
 9255SOL    HW228665   4.361   4.290   0.754
 9256SOL     OW28666   2.861   0.426   2.833
 9256SOL    HW128667   2.788   0.363   2.805
 9256SOL    HW228668   2.821   0.516   2.851
 9257SOL     OW28669   0.415   4.509   3.530
 9257SOL    HW128670   0.426   4.499   3.431
 9257SOL    HW228671   0.354   4.437   3.564
 9258SOL     OW28672   3.638   4.097   2.762
 9258SOL    HW128673   3.738   4.101   2.766
 9258SOL    HW228674   3.600   4.121   2.852
 9259SOL     OW28675   0.218   1.859   0.189
 9259SOL    HW128676   0.182   1.900   0.273
 9259SOL    HW228677   0.291   1.917   0.153
 9260SOL     OW28678   6.098   1.603   5.632
 9260SOL    HW128679   6.080   1.695   5.666
 9260SOL    HW228680   6.151   1.607   5.548
 9261SOL     OW28681   2.823   1.087   0.201
 9261SOL    HW128682   2.851   1.139   0.282
 9261SOL    HW228683   2.843   0.990   0.215
 9262SOL     OW28684   6.942   4.606   5.030
 9262SOL    HW128685   6.940   4.699   4.994
 9262SOL    HW228686   6.851   4.565   5.023
 9263SOL     OW28687   4.999   0.246   1.665
 9263SOL    HW128688   5.012   0.152   1.635
 9263SOL    HW228689   5.080   0.277   1.714
 9264SOL     OW28690   5.132   4.549   0.336
 9264SOL    HW128691   5.106   4.482   0.267
 9264SOL    HW228692   5.051   4.597   0.369
 9265SOL     OW28693   4.373   2.428   0.294
 9265SOL    HW128694   4.386   2.528   0.290
 9265SOL    HW228695   4.286   2.408   0.338
 9266SOL     OW28696   1.265   6.709   0.823
 9266SOL    HW128697   1.292   6.733   0.917
 9266SOL    HW228698   1.276   6.611   0.809
 9267SOL     OW28699   0.077   2.298   4.741
 9267SOL    HW128700   0.027   2.221   4.701
 9267SOL    HW228701   0.053   2.382   4.692
 9268SOL     OW28702   0.982   5.057   2.663
 9268SOL    HW128703   1.034   4.984   2.618
 9268SOL    HW228704   1.043   5.132   2.687
 9269SOL     OW28705   3.981   1.036   6.426
 9269SOL    HW128706   4.033   1.055   6.342
 9269SOL    HW228707   4.042   1.045   6.505
 9270SOL     OW28708   4.250   6.674   6.234
 9270SOL    HW128709   4.275   6.578   6.238
 9270SOL    HW228710   4.151   6.683   6.238
 9271SOL     OW28711   6.060   0.153   1.138
 9271SOL    HW128712   5.996   0.076   1.133
 9271SOL    HW228713   6.153   0.119   1.152
 9272SOL     OW28714   0.785   5.821   5.213
 9272SOL    HW128715   0.725   5.892   5.177
 9272SOL    HW228716   0.732   5.760   5.273
 9273SOL     OW28717   5.855   6.883   2.589
 9273SOL    HW128718   5.883   6.955   2.525
 9273SOL    HW228719   5.770   6.841   2.557
 9274SOL     OW28720   6.555   1.089   0.313
 9274SOL    HW128721   6.596   1.027   0.379
 9274SOL    HW228722   6.606   1.175   0.313
 9275SOL     OW28723   6.691   0.916   0.523
 9275SOL    HW128724   6.613   0.959   0.568
 9275SOL    HW228725   6.764   0.902   0.590
 9276SOL     OW28726   1.575   3.557   1.456
 9276SOL    HW128727   1.656   3.576   1.400
 9276SOL    HW228728   1.511   3.633   1.449
 9277SOL     OW28729   4.522   4.576   0.252
 9277SOL    HW128730   4.468   4.579   0.168
 9277SOL    HW228731   4.468   4.532   0.324
 9278SOL     OW28732   1.806   0.189   6.402
 9278SOL    HW128733   1.879   0.250   6.370
 9278SOL    HW228734   1.796   0.199   6.501
 9279SOL     OW28735   3.427   0.767   2.334
 9279SOL    HW128736   3.411   0.731   2.425
 9279SOL    HW228737   3.521   0.802   2.328
 9280SOL     OW28738   2.150   1.686   2.888
 9280SOL    HW128739   2.169   1.595   2.926
 9280SOL    HW228740   2.234   1.741   2.889
 9281SOL     OW28741   2.418   3.544   6.421
 9281SOL    HW128742   2.414   3.634   6.465
 9281SOL    HW228743   2.502   3.537   6.367
 9282SOL     OW28744   5.962   0.550   3.501
 9282SOL    HW128745   6.020   0.565   3.581
 9282SOL    HW228746   5.881   0.608   3.507
 9283SOL     OW28747   5.381   0.801   4.066
 9283SOL    HW128748   5.393   0.723   4.005
 9283SOL    HW228749   5.363   0.883   4.012
 9284SOL     OW28750   2.829   3.391   5.583
 9284SOL    HW128751   2.751   3.453   5.590
 9284SOL    HW228752   2.841   3.365   5.487
 9285SOL     OW28753   5.107   2.479   1.222
 9285SOL    HW128754   5.063   2.395   1.189
 9285SOL    HW228755   5.094   2.486   1.321
 9286SOL     OW28756   5.525   5.619   0.827
 9286SOL    HW128757   5.454   5.677   0.786
 9286SOL    HW228758   5.596   5.601   0.758
 9287SOL     OW28759   3.185   5.094   0.302
 9287SOL    HW128760   3.284   5.098   0.292
 9287SOL    HW228761   3.159   5.126   0.394
 9288SOL     OW28762   4.476   1.363   2.785
 9288SOL    HW128763   4.496   1.447   2.735
 9288SOL    HW228764   4.490   1.378   2.883
 9289SOL     OW28765   3.757   0.489   1.806
 9289SOL    HW128766   3.710   0.402   1.820
 9289SOL    HW228767   3.749   0.517   1.711
 9290SOL     OW28768   5.730   1.183   3.050
 9290SOL    HW128769   5.729   1.104   3.112
 9290SOL    HW228770   5.657   1.173   2.982
 9291SOL     OW28771   1.152   5.737   5.437
 9291SOL    HW128772   1.092   5.717   5.359
 9291SOL    HW228773   1.192   5.828   5.426
 9292SOL     OW28774   2.198   3.396   6.389
 9292SOL    HW128775   2.265   3.468   6.405
 9292SOL    HW228776   2.109   3.437   6.369
 9293SOL     OW28777   5.566   3.090   6.259
 9293SOL    HW128778   5.535   3.089   6.163
 9293SOL    HW228779   5.488   3.074   6.319
 9294SOL     OW28780   4.333   6.835   6.021
 9294SOL    HW128781   4.376   6.916   6.062
 9294SOL    HW228782   4.321   6.765   6.091
 9295SOL     OW28783   5.814   0.921   5.134
 9295SOL    HW128784   5.818   0.829   5.174
 9295SOL    HW228785   5.907   0.951   5.112
 9296SOL     OW28786   1.573   5.741   6.725
 9296SOL    HW128787   1.634   5.734   6.645
 9296SOL    HW228788   1.576   5.834   6.761
 9297SOL     OW28789   0.813   6.986   3.120
 9297SOL    HW128790   0.724   6.943   3.134
 9297SOL    HW228791   0.886   6.922   3.146
 9298SOL     OW28792   0.890   6.170   6.547
 9298SOL    HW128793   0.857   6.212   6.463
 9298SOL    HW228794   0.975   6.215   6.575
 9299SOL     OW28795   0.790   2.393   5.056
 9299SOL    HW128796   0.714   2.365   4.997
 9299SOL    HW228797   0.877   2.366   5.014
 9300SOL     OW28798   0.388   4.225   5.887
 9300SOL    HW128799   0.461   4.247   5.951
 9300SOL    HW228800   0.344   4.140   5.914
 9301SOL     OW28801   5.666   5.429   4.650
 9301SOL    HW128802   5.618   5.503   4.696
 9301SOL    HW228803   5.659   5.441   4.551
 9302SOL     OW28804   2.463   2.494   4.276
 9302SOL    HW128805   2.542   2.436   4.293
 9302SOL    HW228806   2.463   2.524   4.180
 9303SOL     OW28807   2.634   4.139   1.049
 9303SOL    HW128808   2.658   4.126   0.953
 9303SOL    HW228809   2.651   4.055   1.100
 9304SOL     OW28810   4.121   4.552   1.728
 9304SOL    HW128811   4.066   4.477   1.689
 9304SOL    HW228812   4.187   4.514   1.793
 9305SOL     OW28813   3.510   1.075   0.602
 9305SOL    HW128814   3.570   1.050   0.678
 9305SOL    HW228815   3.445   1.144   0.632
 9306SOL     OW28816   0.517   4.628   5.564
 9306SOL    HW128817   0.546   4.535   5.544
 9306SOL    HW228818   0.474   4.667   5.483
 9307SOL     OW28819   0.864   3.773   1.106
 9307SOL    HW128820   0.925   3.833   1.159
 9307SOL    HW228821   0.829   3.700   1.164
 9308SOL     OW28822   1.935   3.252   0.492
 9308SOL    HW128823   1.879   3.219   0.567
 9308SOL    HW228824   1.884   3.320   0.440
 9309SOL     OW28825   3.843   5.081   6.077
 9309SOL    HW128826   3.790   5.027   6.143
 9309SOL    HW228827   3.803   5.172   6.070
 9310SOL     OW28828   5.977   5.671   5.761
 9310SOL    HW128829   6.026   5.698   5.844
 9310SOL    HW228830   5.947   5.753   5.712
 9311SOL     OW28831   4.911   4.502   1.698
 9311SOL    HW128832   4.987   4.444   1.669
 9311SOL    HW228833   4.829   4.446   1.709
 9312SOL     OW28834   1.014   3.732   0.893
 9312SOL    HW128835   1.108   3.710   0.917
 9312SOL    HW228836   0.961   3.748   0.976
 9313SOL     OW28837   6.941   0.032   1.050
 9313SOL    HW128838   7.011   0.098   1.023
 9313SOL    HW228839   6.864   0.080   1.092
 9314SOL     OW28840   5.916   4.597   0.042
 9314SOL    HW128841   5.889   4.501   0.048
 9314SOL    HW228842   5.984   4.608   6.985
 9315SOL     OW28843   6.785   6.973   5.685
 9315SOL    HW128844   6.741   6.883   5.683
 9315SOL    HW228845   6.881   6.963   5.712
 9316SOL     OW28846   5.422   6.568   5.705
 9316SOL    HW128847   5.372   6.497   5.655
 9316SOL    HW228848   5.370   6.595   5.786
 9317SOL     OW28849   5.385   5.722   3.822
 9317SOL    HW128850   5.295   5.702   3.785
 9317SOL    HW228851   5.415   5.646   3.880
 9318SOL     OW28852   5.791   1.152   6.109
 9318SOL    HW128853   5.824   1.212   6.036
 9318SOL    HW228854   5.845   1.168   6.192
 9319SOL     OW28855   2.567   2.472   6.927
 9319SOL    HW128856   2.572   2.530   7.009
 9319SOL    HW228857   2.553   2.530   6.846
 9320SOL     OW28858   3.554   0.778   5.144
 9320SOL    HW128859   3.519   0.767   5.050
 9320SOL    HW228860   3.648   0.811   5.141
 9321SOL     OW28861   0.547   0.230   5.040
 9321SOL    HW128862   0.478   0.302   5.051
 9321SOL    HW228863   0.617   0.262   4.976
 9322SOL     OW28864   6.864   3.583   6.197
 9322SOL    HW128865   6.772   3.615   6.220
 9322SOL    HW228866   6.859   3.493   6.154
 9323SOL     OW28867   1.265   0.744   5.235
 9323SOL    HW128868   1.360   0.754   5.205
 9323SOL    HW228869   1.207   0.807   5.185
 9324SOL     OW28870   1.322   4.169   1.843
 9324SOL    HW128871   1.369   4.196   1.927
 9324SOL    HW228872   1.348   4.076   1.818
 9325SOL     OW28873   5.857   1.668   0.392
 9325SOL    HW128874   5.933   1.734   0.390
 9325SOL    HW228875   5.789   1.693   0.323
 9326SOL     OW28876   2.801   4.884   0.362
 9326SOL    HW128877   2.783   4.852   0.455
 9326SOL    HW228878   2.883   4.840   0.327
 9327SOL     OW28879   4.416   0.130   2.355
 9327SOL    HW128880   4.471   0.162   2.432
 9327SOL    HW228881   4.421   0.030   2.350
 9328SOL     OW28882   2.338   1.109   4.850
 9328SOL    HW128883   2.312   1.014   4.866
 9328SOL    HW228884   2.271   1.153   4.790
 9329SOL     OW28885   6.003   3.662   0.789
 9329SOL    HW128886   6.029   3.738   0.849
 9329SOL    HW228887   6.038   3.577   0.828
 9330SOL     OW28888   6.429   0.100   5.746
 9330SOL    HW128889   6.436   0.139   5.654
 9330SOL    HW228890   6.376   0.016   5.743
 9331SOL     OW28891   2.435   1.045   6.500
 9331SOL    HW128892   2.411   1.036   6.403
 9331SOL    HW228893   2.366   1.001   6.556
 9332SOL     OW28894   4.205   4.739   0.495
 9332SOL    HW128895   4.199   4.837   0.475
 9332SOL    HW228896   4.213   4.688   0.409
 9333SOL     OW28897   3.547   4.782   6.916
 9333SOL    HW128898   3.485   4.775   6.994
 9333SOL    HW228899   3.510   4.728   6.840
 9334SOL     OW28900   4.982   6.302   4.128
 9334SOL    HW128901   4.978   6.250   4.214
 9334SOL    HW228902   4.964   6.398   4.147
 9335SOL     OW28903   1.223   0.805   6.600
 9335SOL    HW128904   1.203   0.740   6.673
 9335SOL    HW228905   1.148   0.871   6.593
 9336SOL     OW28906   3.979   6.553   5.102
 9336SOL    HW128907   3.941   6.470   5.063
 9336SOL    HW228908   3.934   6.633   5.062
 9337SOL     OW28909   4.346   1.179   5.075
 9337SOL    HW128910   4.401   1.186   5.158
 9337SOL    HW228911   4.260   1.227   5.088
 9338SOL     OW28912   6.268   6.709   1.384
 9338SOL    HW128913   6.228   6.719   1.293
 9338SOL    HW228914   6.204   6.743   1.453
 9339SOL     OW28915   6.078   6.545   0.566
 9339SOL    HW128916   6.159   6.600   0.542
 9339SOL    HW228917   6.101   6.448   0.558
 9340SOL     OW28918   4.480   4.887   3.629
 9340SOL    HW128919   4.561   4.855   3.678
 9340SOL    HW228920   4.413   4.922   3.694
 9341SOL     OW28921   6.496   4.992   0.895
 9341SOL    HW128922   6.425   5.003   0.826
 9341SOL    HW228923   6.529   4.897   0.894
 9342SOL     OW28924   3.040   0.128   4.071
 9342SOL    HW128925   3.040   0.083   3.982
 9342SOL    HW228926   3.135   0.144   4.100
 9343SOL     OW28927   4.978   3.896   1.739
 9343SOL    HW128928   5.023   3.935   1.659
 9343SOL    HW228929   4.974   3.965   1.812
 9344SOL     OW28930   5.328   6.215   1.612
 9344SOL    HW128931   5.353   6.295   1.667
 9344SOL    HW228932   5.230   6.197   1.622
 9345SOL     OW28933   6.989   5.678   1.645
 9345SOL    HW128934   6.904   5.628   1.656
 9345SOL    HW228935   7.011   5.726   1.730
 9346SOL     OW28936   5.438   1.172   1.830
 9346SOL    HW128937   5.387   1.253   1.859
 9346SOL    HW228938   5.382   1.090   1.844
 9347SOL     OW28939   3.665   4.336   0.624
 9347SOL    HW128940   3.721   4.390   0.562
 9347SOL    HW228941   3.716   4.254   0.652
 9348SOL     OW28942   2.443   6.285   2.614
 9348SOL    HW128943   2.373   6.356   2.621
 9348SOL    HW228944   2.438   6.242   2.524
 9349SOL     OW28945   5.604   5.140   1.831
 9349SOL    HW128946   5.663   5.124   1.910
 9349SOL    HW228947   5.654   5.191   1.761
 9350SOL     OW28948   6.797   2.624   5.651
 9350SOL    HW128949   6.870   2.599   5.587
 9350SOL    HW228950   6.711   2.583   5.622
 9351SOL     OW28951   3.169   0.570   6.184
 9351SOL    HW128952   3.181   0.648   6.245
 9351SOL    HW228953   3.203   0.487   6.229
 9352SOL     OW28954   3.480   1.476   6.323
 9352SOL    HW128955   3.572   1.493   6.287
 9352SOL    HW228956   3.457   1.380   6.310
 9353SOL     OW28957   0.336   4.145   0.719
 9353SOL    HW128958   0.397   4.134   0.798
 9353SOL    HW228959   0.290   4.234   0.725
 9354SOL     OW28960   0.194   2.026   6.238
 9354SOL    HW128961   0.148   2.000   6.153
 9354SOL    HW228962   0.292   2.035   6.222
 9355SOL     OW28963   6.942   1.693   4.606
 9355SOL    HW128964   6.973   1.741   4.524
 9355SOL    HW228965   6.992   1.728   4.686
 9356SOL     OW28966   4.617   5.818   2.274
 9356SOL    HW128967   4.609   5.917   2.285
 9356SOL    HW228968   4.527   5.778   2.259
 9357SOL     OW28969   1.185   3.152   6.609
 9357SOL    HW128970   1.232   3.224   6.556
 9357SOL    HW228971   1.109   3.116   6.555
 9358SOL     OW28972   6.861   3.038   2.456
 9358SOL    HW128973   6.937   2.996   2.507
 9358SOL    HW228974   6.812   3.102   2.515
 9359SOL     OW28975   1.736   3.678   5.433
 9359SOL    HW128976   1.818   3.691   5.487
 9359SOL    HW228977   1.760   3.677   5.336
 9360SOL     OW28978   1.264   5.289   6.933
 9360SOL    HW128979   1.311   5.201   6.942
 9360SOL    HW228980   1.291   5.349   7.009
 9361SOL     OW28981   1.744   5.610   2.637
 9361SOL    HW128982   1.777   5.516   2.642
 9361SOL    HW228983   1.723   5.643   2.729
 9362SOL     OW28984   1.986   3.420   2.679
 9362SOL    HW128985   1.923   3.360   2.629
 9362SOL    HW228986   1.943   3.449   2.765
 9363SOL     OW28987   3.658   6.566   1.977
 9363SOL    HW128988   3.658   6.639   2.045
 9363SOL    HW228989   3.619   6.599   1.892
 9364SOL     OW28990   3.729   3.281   6.406
 9364SOL    HW128991   3.827   3.291   6.426
 9364SOL    HW228992   3.714   3.293   6.308
 9365SOL     OW28993   2.442   1.740   4.305
 9365SOL    HW128994   2.363   1.693   4.344
 9365SOL    HW228995   2.511   1.673   4.277
 9366SOL     OW28996   3.472   6.022   6.501
 9366SOL    HW128997   3.406   5.948   6.489
 9366SOL    HW228998   3.425   6.104   6.535
 9367SOL     OW28999   0.187   6.857   3.122
 9367SOL    HW129000   0.103   6.809   3.096
 9367SOL    HW229001   0.246   6.795   3.174
 9368SOL     OW29002   2.875   1.038   3.014
 9368SOL    HW129003   2.910   1.079   3.098
 9368SOL    HW229004   2.949   0.988   2.968
 9369SOL     OW29005   6.747   6.193   4.694
 9369SOL    HW129006   6.767   6.117   4.757
 9369SOL    HW229007   6.655   6.227   4.712
 9370SOL     OW29008   5.429   0.288   3.820
 9370SOL    HW129009   5.366   0.262   3.894
 9370SOL    HW229010   5.520   0.251   3.839
 9371SOL     OW29011   2.800   5.232   0.753
 9371SOL    HW129012   2.788   5.317   0.803
 9371SOL    HW229013   2.711   5.194   0.729
 9372SOL     OW29014   5.266   0.140   2.659
 9372SOL    HW129015   5.339   0.136   2.590
 9372SOL    HW229016   5.225   0.232   2.658
 9373SOL     OW29017   5.024   1.857   2.512
 9373SOL    HW129018   5.115   1.844   2.553
 9373SOL    HW229019   5.033   1.906   2.425
 9374SOL     OW29020   0.526   3.809   0.300
 9374SOL    HW129021   0.511   3.718   0.338
 9374SOL    HW229022   0.533   3.803   0.200
 9375SOL     OW29023   0.388   1.194   1.577
 9375SOL    HW129024   0.314   1.159   1.519
 9375SOL    HW229025   0.369   1.169   1.672
 9376SOL     OW29026   2.302   4.254   1.394
 9376SOL    HW129027   2.374   4.200   1.439
 9376SOL    HW229028   2.228   4.270   1.458
 9377SOL     OW29029   1.819   5.722   3.976
 9377SOL    HW129030   1.809   5.699   4.073
 9377SOL    HW229031   1.825   5.821   3.965
 9378SOL     OW29032   1.827   1.213   3.834
 9378SOL    HW129033   1.911   1.159   3.845
 9378SOL    HW229034   1.846   1.293   3.778
 9379SOL     OW29035   5.033   6.420   5.793
 9379SOL    HW129036   5.026   6.342   5.855
 9379SOL    HW229037   4.942   6.454   5.772
 9380SOL     OW29038   4.789   5.681   5.044
 9380SOL    HW129039   4.886   5.705   5.044
 9380SOL    HW229040   4.750   5.702   5.134
 9381SOL     OW29041   4.011   3.105   5.981
 9381SOL    HW129042   3.918   3.127   5.952
 9381SOL    HW229043   4.061   3.064   5.904
 9382SOL     OW29044   3.356   0.676   3.933
 9382SOL    HW129045   3.265   0.718   3.932
 9382SOL    HW229046   3.348   0.580   3.904
 9383SOL     OW29047   0.158   6.048   4.482
 9383SOL    HW129048   0.206   5.966   4.512
 9383SOL    HW229049   0.155   6.050   4.382
 9384SOL     OW29050   4.262   0.330   2.065
 9384SOL    HW129051   4.223   0.238   2.057
 9384SOL    HW229052   4.314   0.352   1.982
 9385SOL     OW29053   4.154   1.045   3.422
 9385SOL    HW129054   4.159   1.027   3.324
 9385SOL    HW229055   4.188   0.966   3.472
 9386SOL     OW29056   2.447   5.748   4.879
 9386SOL    HW129057   2.457   5.793   4.968
 9386SOL    HW229058   2.493   5.659   4.881
 9387SOL     OW29059   2.933   1.957   0.102
 9387SOL    HW129060   3.015   1.900   0.104
 9387SOL    HW229061   2.911   1.981   0.008
 9388SOL     OW29062   3.017   6.294   3.263
 9388SOL    HW129063   3.058   6.317   3.175
 9388SOL    HW229064   2.920   6.319   3.263
 9389SOL     OW29065   1.894   0.712   3.629
 9389SOL    HW129066   1.978   0.738   3.581
 9389SOL    HW229067   1.872   0.616   3.608
 9390SOL     OW29068   5.263   4.736   6.308
 9390SOL    HW129069   5.163   4.735   6.310
 9390SOL    HW229070   5.295   4.791   6.231
 9391SOL     OW29071   1.445   1.283   5.145
 9391SOL    HW129072   1.518   1.349   5.156
 9391SOL    HW229073   1.358   1.331   5.131
 9392SOL     OW29074   5.968   5.560   5.513
 9392SOL    HW129075   5.868   5.551   5.508
 9392SOL    HW229076   5.994   5.587   5.606
 9393SOL     OW29077   3.158   6.869   6.754
 9393SOL    HW129078   3.138   6.828   6.844
 9393SOL    HW229079   3.238   6.824   6.714
 9394SOL     OW29080   6.680   0.588   1.823
 9394SOL    HW129081   6.684   0.550   1.731
 9394SOL    HW229082   6.629   0.674   1.821
 9395SOL     OW29083   3.516   1.820   1.164
 9395SOL    HW129084   3.501   1.741   1.104
 9395SOL    HW229085   3.611   1.823   1.193
 9396SOL     OW29086   2.174   4.108   4.117
 9396SOL    HW129087   2.178   4.051   4.199
 9396SOL    HW229088   2.150   4.053   4.038
 9397SOL     OW29089   3.656   6.638   6.259
 9397SOL    HW129090   3.691   6.722   6.300
 9397SOL    HW229091   3.645   6.569   6.330
 9398SOL     OW29092   5.951   1.070   4.791
 9398SOL    HW129093   6.019   1.083   4.719
 9398SOL    HW229094   5.871   1.127   4.772
 9399SOL     OW29095   1.383   3.100   5.122
 9399SOL    HW129096   1.328   3.174   5.162
 9399SOL    HW229097   1.336   3.013   5.134
 9400SOL     OW29098   4.505   1.189   1.264
 9400SOL    HW129099   4.412   1.184   1.300
 9400SOL    HW229100   4.549   1.100   1.274
 9401SOL     OW29101   6.492   0.830   3.210
 9401SOL    HW129102   6.550   0.908   3.235
 9401SOL    HW229103   6.399   0.862   3.195
 9402SOL     OW29104   1.119   5.269   2.749
 9402SOL    HW129105   1.027   5.304   2.761
 9402SOL    HW229106   1.150   5.289   2.656
 9403SOL     OW29107   6.716   1.119   1.738
 9403SOL    HW129108   6.692   1.135   1.643
 9403SOL    HW229109   6.662   1.044   1.774
 9404SOL     OW29110   0.965   2.478   0.679
 9404SOL    HW129111   1.014   2.537   0.743
 9404SOL    HW229112   0.874   2.457   0.715
 9405SOL     OW29113   2.202   4.356   3.843
 9405SOL    HW129114   2.210   4.304   3.928
 9405SOL    HW229115   2.123   4.418   3.849
 9406SOL     OW29116   6.971   2.704   6.179
 9406SOL    HW129117   6.948   2.783   6.235
 9406SOL    HW229118   0.053   2.685   6.188
 9407SOL     OW29119   2.763   5.168   3.757
 9407SOL    HW129120   2.752   5.107   3.835
 9407SOL    HW229121   2.724   5.126   3.675
 9408SOL     OW29122   6.289   2.601   6.481
 9408SOL    HW129123   6.205   2.635   6.524
 9408SOL    HW229124   6.346   2.679   6.453
 9409SOL     OW29125   6.100   5.460   0.535
 9409SOL    HW129126   6.106   5.548   0.487
 9409SOL    HW229127   6.033   5.402   0.490
 9410SOL     OW29128   1.644   0.700   2.527
 9410SOL    HW129129   1.696   0.779   2.494
 9410SOL    HW229130   1.550   0.705   2.492
 9411SOL     OW29131   3.651   3.550   2.858
 9411SOL    HW129132   3.626   3.592   2.771
 9411SOL    HW229133   3.576   3.490   2.888
 9412SOL     OW29134   0.942   1.067   2.642
 9412SOL    HW129135   0.863   1.006   2.639
 9412SOL    HW229136   0.989   1.065   2.554
 9413SOL     OW29137   4.056   5.659   3.614
 9413SOL    HW129138   4.033   5.756   3.623
 9413SOL    HW229139   4.055   5.615   3.704
 9414SOL     OW29140   2.964   1.356   3.167
 9414SOL    HW129141   2.984   1.434   3.108
 9414SOL    HW229142   3.042   1.339   3.227
 9415SOL     OW29143   2.543   6.732   2.329
 9415SOL    HW129144   2.572   6.712   2.236
 9415SOL    HW229145   2.471   6.801   2.327
 9416SOL     OW29146   6.812   1.735   6.337
 9416SOL    HW129147   6.733   1.766   6.389
 9416SOL    HW229148   6.823   1.636   6.348
 9417SOL     OW29149   4.327   0.823   0.620
 9417SOL    HW129150   4.370   0.751   0.565
 9417SOL    HW229151   4.374   0.831   0.708
 9418SOL     OW29152   3.123   0.692   1.612
 9418SOL    HW129153   3.056   0.725   1.545
 9418SOL    HW229154   3.211   0.736   1.595
 9419SOL     OW29155   2.388   4.409   6.063
 9419SOL    HW129156   2.443   4.325   6.055
 9419SOL    HW229157   2.431   4.471   6.128
 9420SOL     OW29158   5.359   4.971   6.663
 9420SOL    HW129159   5.402   4.959   6.752
 9420SOL    HW229160   5.385   5.060   6.625
 9421SOL     OW29161   2.476   6.719   4.781
 9421SOL    HW129162   2.397   6.659   4.768
 9421SOL    HW229163   2.480   6.786   4.707
 9422SOL     OW29164   3.163   5.879   2.721
 9422SOL    HW129165   3.178   5.978   2.719
 9422SOL    HW229166   3.209   5.837   2.643
 9423SOL     OW29167   3.042   6.598   3.646
 9423SOL    HW129168   3.010   6.505   3.663
 9423SOL    HW229169   3.021   6.624   3.552
 9424SOL     OW29170   4.632   1.761   4.695
 9424SOL    HW129171   4.643   1.818   4.776
 9424SOL    HW229172   4.681   1.802   4.618
 9425SOL     OW29173   5.207   3.878   1.063
 9425SOL    HW129174   5.292   3.927   1.083
 9425SOL    HW229175   5.129   3.934   1.092
 9426SOL     OW29176   3.335   1.855   6.001
 9426SOL    HW129177   3.425   1.852   5.959
 9426SOL    HW229178   3.266   1.833   5.932
 9427SOL     OW29179   2.953   5.590   3.192
 9427SOL    HW129180   2.867   5.631   3.160
 9427SOL    HW229181   2.939   5.550   3.282
 9428SOL     OW29182   6.490   1.052   1.372
 9428SOL    HW129183   6.437   1.103   1.304
 9428SOL    HW229184   6.564   1.002   1.326
 9429SOL     OW29185   2.125   4.009   3.268
 9429SOL    HW129186   2.183   4.072   3.319
 9429SOL    HW229187   2.119   3.922   3.316
 9430SOL     OW29188   0.413   2.960   5.131
 9430SOL    HW129189   0.393   2.865   5.156
 9430SOL    HW229190   0.511   2.977   5.143
 9431SOL     OW29191   6.729   4.467   0.799
 9431SOL    HW129192   6.630   4.476   0.802
 9431SOL    HW229193   6.753   4.384   0.748
 9432SOL     OW29194   5.737   0.390   3.822
 9432SOL    HW129195   5.822   0.441   3.813
 9432SOL    HW229196   5.668   0.448   3.865
 9433SOL     OW29197   3.170   6.257   3.500
 9433SOL    HW129198   3.245   6.307   3.543
 9433SOL    HW229199   3.131   6.313   3.426
 9434SOL     OW29200   5.754   5.916   2.067
 9434SOL    HW129201   5.793   5.828   2.039
 9434SOL    HW229202   5.673   5.900   2.123
 9435SOL     OW29203   0.536   2.868   3.520
 9435SOL    HW129204   0.467   2.818   3.469
 9435SOL    HW229205   0.617   2.882   3.463
 9436SOL     OW29206   1.362   2.664   1.379
 9436SOL    HW129207   1.417   2.630   1.302
 9436SOL    HW229208   1.411   2.738   1.425
 9437SOL     OW29209   1.017   6.003   2.706
 9437SOL    HW129210   1.000   5.966   2.797
 9437SOL    HW229211   0.995   6.101   2.705
 9438SOL     OW29212   0.660   0.034   1.750
 9438SOL    HW129213   0.560   0.031   1.750
 9438SOL    HW229214   0.691   0.072   1.663
 9439SOL     OW29215   0.857   2.820   6.818
 9439SOL    HW129216   0.925   2.765   6.769
 9439SOL    HW229217   0.850   2.789   6.912
 9440SOL     OW29218   3.807   4.829   3.027
 9440SOL    HW129219   3.825   4.928   3.026
 9440SOL    HW229220   3.818   4.795   3.121
 9441SOL     OW29221   5.850   4.778   6.038
 9441SOL    HW129222   5.941   4.753   6.007
 9441SOL    HW229223   5.809   4.702   6.089
 9442SOL     OW29224   5.056   3.695   1.508
 9442SOL    HW129225   5.083   3.658   1.597
 9442SOL    HW229226   4.968   3.742   1.517
 9443SOL     OW29227   2.388   5.124   0.548
 9443SOL    HW129228   2.400   5.188   0.472
 9443SOL    HW229229   2.290   5.115   0.568
 9444SOL     OW29230   1.816   3.472   0.854
 9444SOL    HW129231   1.873   3.542   0.897
 9444SOL    HW229232   1.848   3.381   0.882
 9445SOL     OW29233   6.031   3.428   2.678
 9445SOL    HW129234   6.087   3.461   2.601
 9445SOL    HW229235   6.060   3.335   2.702
 9446SOL     OW29236   6.434   5.396   4.862
 9446SOL    HW129237   6.356   5.440   4.908
 9446SOL    HW229238   6.432   5.420   4.765
 9447SOL     OW29239   5.779   4.941   3.536
 9447SOL    HW129240   5.845   4.869   3.561
 9447SOL    HW229241   5.686   4.910   3.556
 9448SOL     OW29242   0.017   0.065   5.936
 9448SOL    HW129243   0.032   0.038   5.841
 9448SOL    HW229244   6.978   0.148   5.938
 9449SOL     OW29245   5.542   6.823   0.365
 9449SOL    HW129246   5.459   6.805   0.419
 9449SOL    HW229247   5.516   6.847   0.271
 9450SOL     OW29248   2.294   5.907   3.545
 9450SOL    HW129249   2.262   5.829   3.599
 9450SOL    HW229250   2.275   5.890   3.448
 9451SOL     OW29251   4.267   6.440   5.740
 9451SOL    HW129252   4.342   6.503   5.759
 9451SOL    HW229253   4.278   6.357   5.796
 9452SOL     OW29254   1.878   3.801   0.017
 9452SOL    HW129255   1.919   3.824   6.944
 9452SOL    HW229256   1.944   3.817   0.090
 9453SOL     OW29257   2.808   5.315   3.134
 9453SOL    HW129258   2.880   5.263   3.088
 9453SOL    HW229259   2.839   5.341   3.225
 9454SOL     OW29260   3.497   3.450   6.318
 9454SOL    HW129261   3.477   3.397   6.236
 9454SOL    HW229262   3.584   3.421   6.357
 9455SOL     OW29263   2.291   2.036   3.540
 9455SOL    HW129264   2.283   2.000   3.447
 9455SOL    HW229265   2.285   1.961   3.605
 9456SOL     OW29266   0.091   3.350   0.629
 9456SOL    HW129267   0.034   3.419   0.585
 9456SOL    HW229268   0.158   3.395   0.689
 9457SOL     OW29269   1.401   4.028   3.934
 9457SOL    HW129270   1.382   4.048   4.030
 9457SOL    HW229271   1.472   4.090   3.900
 9458SOL     OW29272   0.860   3.536   6.228
 9458SOL    HW129273   0.814   3.559   6.142
 9458SOL    HW229274   0.852   3.612   6.292
 9459SOL     OW29275   5.104   4.774   3.356
 9459SOL    HW129276   5.035   4.827   3.404
 9459SOL    HW229277   5.141   4.827   3.280
 9460SOL     OW29278   1.849   4.023   3.987
 9460SOL    HW129279   1.803   3.959   4.049
 9460SOL    HW229280   1.875   4.105   4.038
 9461SOL     OW29281   0.208   2.047   1.906
 9461SOL    HW129282   0.237   2.037   1.811
 9461SOL    HW229283   0.270   2.109   1.954
 9462SOL     OW29284   1.638   3.446   3.551
 9462SOL    HW129285   1.602   3.524   3.602
 9462SOL    HW229286   1.735   3.460   3.531
 9463SOL     OW29287   6.145   0.361   1.616
 9463SOL    HW129288   6.061   0.313   1.640
 9463SOL    HW229289   6.197   0.306   1.551
 9464SOL     OW29290   5.903   0.368   1.067
 9464SOL    HW129291   5.934   0.444   1.124
 9464SOL    HW229292   5.933   0.282   1.107
 9465SOL     OW29293   0.283   4.224   1.624
 9465SOL    HW129294   0.298   4.200   1.720
 9465SOL    HW229295   0.366   4.205   1.572
 9466SOL     OW29296   3.473   4.719   5.279
 9466SOL    HW129297   3.515   4.807   5.298
 9466SOL    HW229298   3.416   4.727   5.197
 9467SOL     OW29299   1.480   2.200   1.238
 9467SOL    HW129300   1.520   2.165   1.154
 9467SOL    HW229301   1.444   2.292   1.222
 9468SOL     OW29302   5.499   4.020   6.393
 9468SOL    HW129303   5.586   4.064   6.416
 9468SOL    HW229304   5.457   4.069   6.316
 9469SOL     OW29305   0.208   4.833   2.033
 9469SOL    HW129306   0.227   4.736   2.024
 9469SOL    HW229307   0.140   4.860   1.965
 9470SOL     OW29308   5.003   3.120   6.718
 9470SOL    HW129309   5.082   3.105   6.777
 9470SOL    HW229310   4.919   3.113   6.773
 9471SOL     OW29311   6.357   2.504   4.150
 9471SOL    HW129312   6.282   2.467   4.205
 9471SOL    HW229313   6.321   2.535   4.062
 9472SOL     OW29314   6.101   2.793   5.053
 9472SOL    HW129315   6.138   2.813   4.963
 9472SOL    HW229316   6.158   2.836   5.123
 9473SOL     OW29317   3.010   5.269   0.455
 9473SOL    HW129318   2.914   5.254   0.429
 9473SOL    HW229319   3.020   5.260   0.554
 9474SOL     OW29320   0.268   3.593   0.410
 9474SOL    HW129321   0.310   3.510   0.373
 9474SOL    HW229322   0.194   3.622   0.349
 9475SOL     OW29323   3.755   3.012   0.665
 9475SOL    HW129324   3.747   3.092   0.724
 9475SOL    HW229325   3.795   3.039   0.578
 9476SOL     OW29326   4.017   3.856   4.294
 9476SOL    HW129327   4.008   3.917   4.215
 9476SOL    HW229328   4.030   3.762   4.263
 9477SOL     OW29329   0.787   2.696   0.034
 9477SOL    HW129330   0.725   2.620   0.015
 9477SOL    HW229331   0.735   2.773   0.072
 9478SOL     OW29332   5.197   3.313   1.118
 9478SOL    HW129333   5.139   3.365   1.180
 9478SOL    HW229334   5.144   3.290   1.035
 9479SOL     OW29335   4.112   6.640   0.376
 9479SOL    HW129336   4.200   6.655   0.420
 9479SOL    HW229337   4.096   6.542   0.365
 9480SOL     OW29338   5.192   4.811   0.245
 9480SOL    HW129339   5.185   4.715   0.271
 9480SOL    HW229340   5.101   4.851   0.240
 9481SOL     OW29341   4.900   3.306   2.597
 9481SOL    HW129342   4.989   3.277   2.630
 9481SOL    HW229343   4.902   3.314   2.498
 9482SOL     OW29344   0.117   1.145   2.663
 9482SOL    HW129345   0.156   1.204   2.591
 9482SOL    HW229346   0.150   1.052   2.649
 9483SOL     OW29347   1.674   0.297   0.887
 9483SOL    HW129348   1.658   0.344   0.974
 9483SOL    HW229349   1.717   0.209   0.905
 9484SOL     OW29350   4.050   0.175   4.391
 9484SOL    HW129351   4.104   0.091   4.386
 9484SOL    HW229352   3.983   0.176   4.317
 9485SOL     OW29353   0.450   0.721   0.975
 9485SOL    HW129354   0.549   0.710   0.968
 9485SOL    HW229355   0.425   0.814   0.948
 9486SOL     OW29356   3.866   6.307   0.837
 9486SOL    HW129357   3.924   6.226   0.835
 9486SOL    HW229358   3.847   6.332   0.932
 9487SOL     OW29359   3.262   3.815   3.915
 9487SOL    HW129360   3.300   3.731   3.954
 9487SOL    HW229361   3.169   3.828   3.949
 9488SOL     OW29362   2.723   0.293   1.397
 9488SOL    HW129363   2.684   0.378   1.360
 9488SOL    HW229364   2.812   0.313   1.437
 9489SOL     OW29365   4.802   4.345   1.395
 9489SOL    HW129366   4.807   4.443   1.414
 9489SOL    HW229367   4.711   4.322   1.362
 9490SOL     OW29368   5.855   5.408   2.404
 9490SOL    HW129369   5.866   5.423   2.306
 9490SOL    HW229370   5.944   5.387   2.445
 9491SOL     OW29371   5.354   4.577   4.115
 9491SOL    HW129372   5.358   4.479   4.095
 9491SOL    HW229373   5.299   4.593   4.197
 9492SOL     OW29374   3.633   3.254   4.645
 9492SOL    HW129375   3.696   3.301   4.706
 9492SOL    HW229376   3.653   3.156   4.645
 9493SOL     OW29377   2.771   6.033   4.402
 9493SOL    HW129378   2.818   6.006   4.486
 9493SOL    HW229379   2.699   5.967   4.381
 9494SOL     OW29380   5.392   2.787   2.621
 9494SOL    HW129381   5.478   2.745   2.649
 9494SOL    HW229382   5.333   2.717   2.580
 9495SOL     OW29383   6.846   2.059   3.048
 9495SOL    HW129384   6.920   1.998   3.077
 9495SOL    HW229385   6.866   2.094   2.957
 9496SOL     OW29386   6.263   3.542   1.580
 9496SOL    HW129387   6.190   3.607   1.602
 9496SOL    HW229388   6.310   3.516   1.665
 9497SOL     OW29389   5.673   0.159   5.934
 9497SOL    HW129390   5.597   0.223   5.935
 9497SOL    HW229391   5.740   0.186   6.003
 9498SOL     OW29392   5.576   6.140   4.298
 9498SOL    HW129393   5.615   6.162   4.388
 9498SOL    HW229394   5.650   6.135   4.231
 9499SOL     OW29395   2.249   4.661   6.236
 9499SOL    HW129396   2.167   4.618   6.274
 9499SOL    HW229397   2.252   4.757   6.264
 9500SOL     OW29398   4.814   0.517   0.600
 9500SOL    HW129399   4.738   0.461   0.633
 9500SOL    HW229400   4.863   0.467   0.529
 9501SOL     OW29401   2.814   0.900   5.443
 9501SOL    HW129402   2.775   0.895   5.535
 9501SOL    HW229403   2.857   0.989   5.431
 9502SOL     OW29404   5.824   2.330   5.182
 9502SOL    HW129405   5.770   2.408   5.213
 9502SOL    HW229406   5.919   2.359   5.168
 9503SOL     OW29407   0.569   1.278   0.773
 9503SOL    HW129408   0.531   1.328   0.850
 9503SOL    HW229409   0.553   1.329   0.689
 9504SOL     OW29410   6.709   3.178   0.359
 9504SOL    HW129411   6.693   3.085   0.391
 9504SOL    HW229412   6.710   3.179   0.259
 9505SOL     OW29413   5.177   4.355   4.267
 9505SOL    HW129414   5.201   4.283   4.332
 9505SOL    HW229415   5.212   4.443   4.300
 9506SOL     OW29416   1.669   2.313   6.679
 9506SOL    HW129417   1.736   2.263   6.735
 9506SOL    HW229418   1.578   2.301   6.718
 9507SOL     OW29419   0.188   0.982   2.163
 9507SOL    HW129420   0.202   0.901   2.221
 9507SOL    HW229421   0.092   1.009   2.166
 9508SOL     OW29422   6.111   1.815   1.570
 9508SOL    HW129423   6.120   1.732   1.626
 9508SOL    HW229424   6.026   1.811   1.517
 9509SOL     OW29425   0.136   1.038   3.820
 9509SOL    HW129426   0.085   1.098   3.759
 9509SOL    HW229427   0.228   1.076   3.836
 9510SOL     OW29428   1.872   3.857   3.567
 9510SOL    HW129429   1.884   3.850   3.468
 9510SOL    HW229430   1.882   3.767   3.608
 9511SOL     OW29431   1.727   0.160   1.288
 9511SOL    HW129432   1.693   0.170   1.381
 9511SOL    HW229433   1.662   0.105   1.234
 9512SOL     OW29434   6.534   1.849   1.610
 9512SOL    HW129435   6.619   1.896   1.585
 9512SOL    HW229436   6.460   1.877   1.549
 9513SOL     OW29437   2.243   3.632   5.987
 9513SOL    HW129438   2.277   3.681   6.067
 9513SOL    HW229439   2.251   3.533   6.003
 9514SOL     OW29440   2.145   5.358   5.936
 9514SOL    HW129441   2.203   5.335   5.858
 9514SOL    HW229442   2.084   5.282   5.956
 9515SOL     OW29443   1.489   5.657   1.040
 9515SOL    HW129444   1.478   5.558   1.026
 9515SOL    HW229445   1.401   5.697   1.064
 9516SOL     OW29446   6.225   5.060   6.731
 9516SOL    HW129447   6.169   5.020   6.658
 9516SOL    HW229448   6.196   5.155   6.746
 9517SOL     OW29449   1.217   4.020   1.090
 9517SOL    HW129450   1.294   3.960   1.113
 9517SOL    HW229451   1.247   4.116   1.097
 9518SOL     OW29452   2.232   1.796   0.593
 9518SOL    HW129453   2.197   1.884   0.625
 9518SOL    HW229454   2.173   1.761   0.520
 9519SOL     OW29455   3.125   3.387   4.776
 9519SOL    HW129456   3.120   3.487   4.779
 9519SOL    HW229457   3.068   3.349   4.849
 9520SOL     OW29458   1.722   2.047   3.140
 9520SOL    HW129459   1.809   2.058   3.092
 9520SOL    HW229460   1.670   1.972   3.098
 9521SOL     OW29461   5.205   5.817   2.041
 9521SOL    HW129462   5.185   5.731   1.995
 9521SOL    HW229463   5.149   5.825   2.124
 9522SOL     OW29464   2.275   5.595   1.092
 9522SOL    HW129465   2.277   5.625   0.997
 9522SOL    HW229466   2.181   5.575   1.119
 9523SOL     OW29467   3.133   5.385   4.975
 9523SOL    HW129468   3.142   5.356   5.070
 9523SOL    HW229469   3.224   5.400   4.936
 9524SOL     OW29470   3.704   2.923   1.424
 9524SOL    HW129471   3.789   2.878   1.397
 9524SOL    HW229472   3.643   2.856   1.467
 9525SOL     OW29473   2.283   2.904   5.730
 9525SOL    HW129474   2.283   2.879   5.827
 9525SOL    HW229475   2.188   2.917   5.700
 9526SOL     OW29476   5.198   5.566   1.929
 9526SOL    HW129477   5.167   5.526   1.842
 9526SOL    HW229478   5.284   5.524   1.956
 9527SOL     OW29479   0.864   0.421   3.286
 9527SOL    HW129480   0.941   0.446   3.228
 9527SOL    HW229481   0.885   0.336   3.335
 9528SOL     OW29482   0.399   1.204   6.760
 9528SOL    HW129483   0.477   1.185   6.819
 9528SOL    HW229484   0.322   1.145   6.786
 9529SOL     OW29485   6.254   2.933   5.230
 9529SOL    HW129486   6.348   2.906   5.209
 9529SOL    HW229487   6.229   3.013   5.175
 9530SOL     OW29488   1.761   3.635   2.301
 9530SOL    HW129489   1.724   3.545   2.324
 9530SOL    HW229490   1.711   3.705   2.353
 9531SOL     OW29491   4.956   5.718   3.099
 9531SOL    HW129492   4.935   5.698   3.195
 9531SOL    HW229493   4.876   5.696   3.043
 9532SOL     OW29494   0.454   0.136   2.282
 9532SOL    HW129495   0.380   0.097   2.228
 9532SOL    HW229496   0.483   0.070   2.352
 9533SOL     OW29497   6.631   6.952   5.150
 9533SOL    HW129498   6.539   6.977   5.119
 9533SOL    HW229499   6.695   6.958   5.074
 9534SOL     OW29500   6.482   3.122   5.436
 9534SOL    HW129501   6.518   3.199   5.490
 9534SOL    HW229502   6.493   3.143   5.339
 9535SOL     OW29503   2.646   1.504   5.740
 9535SOL    HW129504   2.658   1.487   5.642
 9535SOL    HW229505   2.677   1.597   5.762
 9536SOL     OW29506   2.966   4.702   5.371
 9536SOL    HW129507   2.988   4.624   5.429
 9536SOL    HW229508   2.943   4.669   5.279
 9537SOL     OW29509   2.701   6.513   2.918
 9537SOL    HW129510   2.732   6.479   3.007
 9537SOL    HW229511   2.735   6.453   2.846
 9538SOL     OW29512   6.841   2.328   3.929
 9538SOL    HW129513   6.857   2.232   3.903
 9538SOL    HW229514   6.742   2.344   3.935
 9539SOL     OW29515   1.760   4.035   5.146
 9539SOL    HW129516   1.763   4.129   5.113
 9539SOL    HW229517   1.817   3.978   5.087
 9540SOL     OW29518   5.325   3.987   4.211
 9540SOL    HW129519   5.370   3.928   4.143
 9540SOL    HW229520   5.238   3.946   4.238
 9541SOL     OW29521   3.169   1.868   5.745
 9541SOL    HW129522   3.146   1.773   5.724
 9541SOL    HW229523   3.087   1.925   5.735
 9542SOL     OW29524   5.070   4.023   4.356
 9542SOL    HW129525   4.984   3.973   4.364
 9542SOL    HW229526   5.136   3.989   4.424
 9543SOL     OW29527   3.441   1.008   4.605
 9543SOL    HW129528   3.439   1.059   4.691
 9543SOL    HW229529   3.396   1.061   4.533
 9544SOL     OW29530   0.370   1.428   2.870
 9544SOL    HW129531   0.391   1.369   2.793
 9544SOL    HW229532   0.309   1.380   2.933
 9545SOL     OW29533   6.366   5.030   3.634
 9545SOL    HW129534   6.417   4.953   3.596
 9545SOL    HW229535   6.270   5.005   3.643
 9546SOL     OW29536   3.004   2.685   6.179
 9546SOL    HW129537   2.979   2.781   6.163
 9546SOL    HW229538   2.997   2.665   6.277
 9547SOL     OW29539   2.144   6.344   4.006
 9547SOL    HW129540   2.095   6.314   4.089
 9547SOL    HW229541   2.217   6.408   4.032
 9548SOL     OW29542   5.817   6.171   5.346
 9548SOL    HW129543   5.748   6.099   5.337
 9548SOL    HW229544   5.903   6.139   5.307
 9549SOL     OW29545   2.725   3.707   1.434
 9549SOL    HW129546   2.767   3.633   1.485
 9549SOL    HW229547   2.642   3.674   1.389
 9550SOL     OW29548   0.334   1.212   0.093
 9550SOL    HW129549   0.314   1.123   0.052
 9550SOL    HW229550   0.432   1.229   0.090
 9551SOL     OW29551   6.139   0.957   4.040
 9551SOL    HW129552   6.114   0.895   3.966
 9551SOL    HW229553   6.236   0.946   4.061
 9552SOL     OW29554   1.177   6.182   2.401
 9552SOL    HW129555   1.247   6.124   2.359
 9552SOL    HW229556   1.106   6.124   2.441
 9553SOL     OW29557   6.162   4.204   0.025
 9553SOL    HW129558   6.085   4.153   0.063
 9553SOL    HW229559   6.175   4.289   0.077
 9554SOL     OW29560   2.503   0.561   1.660
 9554SOL    HW129561   2.486   0.467   1.631
 9554SOL    HW229562   2.423   0.597   1.707
 9555SOL     OW29563   0.937   0.930   1.667
 9555SOL    HW129564   0.870   0.856   1.656
 9555SOL    HW229565   0.951   0.949   1.764
 9556SOL     OW29566   2.722   2.503   1.340
 9556SOL    HW129567   2.653   2.534   1.274
 9556SOL    HW229568   2.784   2.578   1.360
 9557SOL     OW29569   6.782   0.674   2.681
 9557SOL    HW129570   6.843   0.739   2.635
 9557SOL    HW229571   6.835   0.594   2.710
 9558SOL     OW29572   6.434   5.829   4.768
 9558SOL    HW129573   6.526   5.844   4.733
 9558SOL    HW229574   6.427   5.864   4.862
 9559SOL     OW29575   0.161   3.832   1.425
 9559SOL    HW129576   0.141   3.735   1.443
 9559SOL    HW229577   0.082   3.873   1.379
 9560SOL     OW29578   1.445   1.436   2.541
 9560SOL    HW129579   1.487   1.414   2.629
 9560SOL    HW229580   1.375   1.368   2.520
 9561SOL     OW29581   1.608   6.599   0.404
 9561SOL    HW129582   1.570   6.661   0.473
 9561SOL    HW229583   1.642   6.652   0.326
 9562SOL     OW29584   3.268   6.632   4.977
 9562SOL    HW129585   3.182   6.591   5.009
 9562SOL    HW229586   3.335   6.631   5.051
 9563SOL     OW29587   6.232   6.670   0.006
 9563SOL    HW129588   6.314   6.672   6.965
 9563SOL    HW229589   6.170   6.600   6.988
 9564SOL     OW29590   2.692   0.117   6.748
 9564SOL    HW129591   2.773   0.060   6.761
 9564SOL    HW229592   2.626   0.100   6.821
 9565SOL     OW29593   3.728   6.181   5.106
 9565SOL    HW129594   3.719   6.147   5.199
 9565SOL    HW229595   3.820   6.216   5.091
 9566SOL     OW29596   3.175   4.964   6.935
 9566SOL    HW129597   3.131   4.887   6.890
 9566SOL    HW229598   3.115   5.000   7.007
 9567SOL     OW29599   6.660   4.870   6.531
 9567SOL    HW129600   6.609   4.896   6.613
 9567SOL    HW229601   6.758   4.884   6.546
 9568SOL     OW29602   5.062   2.841   0.127
 9568SOL    HW129603   5.052   2.798   0.217
 9568SOL    HW229604   5.075   2.770   0.058
 9569SOL     OW29605   6.985   0.868   2.626
 9569SOL    HW129606   0.063   0.840   2.648
 9569SOL    HW229607   6.962   0.948   2.681
 9570SOL     OW29608   1.154   2.226   2.091
 9570SOL    HW129609   1.215   2.220   2.013
 9570SOL    HW229610   1.185   2.298   2.153
 9571SOL     OW29611   2.660   4.017   0.067
 9571SOL    HW129612   2.679   3.920   0.082
 9571SOL    HW229613   2.581   4.045   0.122
 9572SOL     OW29614   1.450   5.005   1.077
 9572SOL    HW129615   1.502   5.068   1.135
 9572SOL    HW229616   1.487   5.007   0.984
 9573SOL     OW29617   0.633   1.500   6.286
 9573SOL    HW129618   0.696   1.455   6.349
 9573SOL    HW229619   0.676   1.581   6.248
 9574SOL     OW29620   3.770   2.961   4.355
 9574SOL    HW129621   3.711   2.928   4.281
 9574SOL    HW229622   3.740   2.924   4.442
 9575SOL     OW29623   5.637   0.454   1.082
 9575SOL    HW129624   5.663   0.551   1.087
 9575SOL    HW229625   5.720   0.398   1.082
 9576SOL     OW29626   3.082   0.432   2.674
 9576SOL    HW129627   3.010   0.423   2.742
 9576SOL    HW229628   3.160   0.482   2.713
 9577SOL     OW29629   1.023   0.935   3.551
 9577SOL    HW129630   1.062   1.001   3.615
 9577SOL    HW229631   1.006   0.981   3.463
 9578SOL     OW29632   6.771   3.672   3.733
 9578SOL    HW129633   6.866   3.701   3.742
 9578SOL    HW229634   6.733   3.654   3.824
 9579SOL     OW29635   1.870   5.167   3.323
 9579SOL    HW129636   1.941   5.167   3.394
 9579SOL    HW229637   1.787   5.209   3.359
 9580SOL     OW29638   4.655   3.007   1.029
 9580SOL    HW129639   4.578   2.974   1.084
 9580SOL    HW229640   4.650   2.967   0.938
 9581SOL     OW29641   1.118   5.297   6.702
 9581SOL    HW129642   1.166   5.295   6.790
 9581SOL    HW229643   1.019   5.297   6.718
 9582SOL     OW29644   4.402   4.684   4.761
 9582SOL    HW129645   4.384   4.639   4.849
 9582SOL    HW229646   4.487   4.736   4.767
 9583SOL     OW29647   2.812   3.465   1.188
 9583SOL    HW129648   2.763   3.505   1.265
 9583SOL    HW229649   2.823   3.367   1.204
 9584SOL     OW29650   6.277   6.346   6.962
 9584SOL    HW129651   6.230   6.398   6.891
 9584SOL    HW229652   6.363   6.392   6.984
 9585SOL     OW29653   6.751   1.215   2.950
 9585SOL    HW129654   6.801   1.281   2.894
 9585SOL    HW229655   6.665   1.254   2.980
 9586SOL     OW29656   6.240   3.980   1.889
 9586SOL    HW129657   6.312   4.032   1.934
 9586SOL    HW229658   6.157   4.036   1.884
 9587SOL     OW29659   6.064   0.513   2.383
 9587SOL    HW129660   6.050   0.567   2.301
 9587SOL    HW229661   6.151   0.537   2.425
 9588SOL     OW29662   0.747   1.801   2.384
 9588SOL    HW129663   0.687   1.873   2.349
 9588SOL    HW229664   0.843   1.829   2.372
 9589SOL     OW29665   3.130   5.661   6.217
 9589SOL    HW129666   3.089   5.739   6.171
 9589SOL    HW229667   3.230   5.671   6.217
 9590SOL     OW29668   6.976   5.139   2.655
 9590SOL    HW129669   6.966   5.110   2.560
 9590SOL    HW229670   0.008   5.067   2.707
 9591SOL     OW29671   2.866   5.939   6.930
 9591SOL    HW129672   2.881   5.842   6.909
 9591SOL    HW229673   2.776   5.950   6.971
 9592SOL     OW29674   3.655   4.965   1.801
 9592SOL    HW129675   3.603   4.886   1.834
 9592SOL    HW229676   3.593   5.027   1.752
 9593SOL     OW29677   5.701   1.160   4.737
 9593SOL    HW129678   5.666   1.117   4.820
 9593SOL    HW229679   5.643   1.238   4.713
 9594SOL     OW29680   0.379   5.911   3.410
 9594SOL    HW129681   0.442   5.983   3.437
 9594SOL    HW229682   0.414   5.822   3.441
 9595SOL     OW29683   1.920   4.408   4.345
 9595SOL    HW129684   1.999   4.447   4.298
 9595SOL    HW229685   1.909   4.452   4.434
 9596SOL     OW29686   0.070   5.782   0.455
 9596SOL    HW129687   0.113   5.850   0.396
 9596SOL    HW229688   0.117   5.779   0.543
 9597SOL     OW29689   6.717   4.103   1.077
 9597SOL    HW129690   6.708   4.004   1.066
 9597SOL    HW229691   6.804   4.133   1.039
 9598SOL     OW29692   0.276   3.596   4.973
 9598SOL    HW129693   0.305   3.539   4.896
 9598SOL    HW229694   0.335   3.578   5.051
 9599SOL     OW29695   3.086   0.807   4.747
 9599SOL    HW129696   3.106   0.795   4.650
 9599SOL    HW229697   2.994   0.846   4.757
 9600SOL     OW29698   2.192   6.966   5.706
 9600SOL    HW129699   2.267   6.916   5.664
 9600SOL    HW229700   2.106   6.941   5.662
 9601SOL     OW29701   6.351   3.924   6.359
 9601SOL    HW129702   6.300   3.993   6.308
 9601SOL    HW229703   6.413   3.969   6.424
 9602SOL     OW29704   6.881   4.640   6.404
 9602SOL    HW129705   6.902   4.595   6.317
 9602SOL    HW229706   6.785   4.668   6.405
 9603SOL     OW29707   2.533   0.071   4.291
 9603SOL    HW129708   2.444   0.107   4.321
 9603SOL    HW229709   2.519   7.007   4.232
 9604SOL     OW29710   5.062   0.160   0.589
 9604SOL    HW129711   5.123   0.115   0.654
 9604SOL    HW229712   5.102   0.247   0.559
 9605SOL     OW29713   0.216   4.368   5.653
 9605SOL    HW129714   0.285   4.298   5.673
 9605SOL    HW229715   0.236   4.411   5.565
 9606SOL     OW29716   1.084   6.560   4.988
 9606SOL    HW129717   1.060   6.633   4.925
 9606SOL    HW229718   1.175   6.525   4.965
 9607SOL     OW29719   1.556   2.086   2.031
 9607SOL    HW129720   1.628   2.018   2.024
 9607SOL    HW229721   1.468   2.044   2.011
 9608SOL     OW29722   0.260   6.625   2.745
 9608SOL    HW129723   0.341   6.684   2.741
 9608SOL    HW229724   0.178   6.683   2.746
 9609SOL     OW29725   1.380   3.794   5.023
 9609SOL    HW129726   1.388   3.706   4.975
 9609SOL    HW229727   1.305   3.847   4.984
 9610SOL     OW29728   1.457   3.764   5.320
 9610SOL    HW129729   1.462   3.851   5.273
 9610SOL    HW229730   1.546   3.744   5.362
 9611SOL     OW29731   0.459   6.546   1.035
 9611SOL    HW129732   0.436   6.572   1.128
 9611SOL    HW229733   0.535   6.603   1.003
 9612SOL     OW29734   6.134   2.937   1.354
 9612SOL    HW129735   6.074   2.871   1.310
 9612SOL    HW229736   6.098   2.959   1.445
 9613SOL     OW29737   4.874   5.760   3.774
 9613SOL    HW129738   4.893   5.744   3.871
 9613SOL    HW229739   4.960   5.767   3.724
 9614SOL     OW29740   4.118   3.723   1.293
 9614SOL    HW129741   4.124   3.772   1.207
 9614SOL    HW229742   4.080   3.783   1.364
 9615SOL     OW29743   1.424   6.339   2.477
 9615SOL    HW129744   1.487   6.325   2.554
 9615SOL    HW229745   1.352   6.270   2.480
 9616SOL     OW29746   4.154   3.798   0.578
 9616SOL    HW129747   4.226   3.731   0.565
 9616SOL    HW229748   4.154   3.863   0.501
 9617SOL     OW29749   0.900   4.053   4.481
 9617SOL    HW129750   0.970   4.098   4.537
 9617SOL    HW229751   0.810   4.066   4.525
 9618SOL     OW29752   3.478   6.978   6.376
 9618SOL    HW129753   3.432   0.039   6.421
 9618SOL    HW229754   3.576   6.984   6.391
 9619SOL     OW29755   1.142   6.964   0.784
 9619SOL    HW129756   1.200   6.975   0.703
 9619SOL    HW229757   1.165   6.878   0.829
 9620SOL     OW29758   4.946   1.874   6.778
 9620SOL    HW129759   4.985   1.786   6.750
 9620SOL    HW229760   4.880   1.904   6.709
 9621SOL     OW29761   1.253   1.057   2.284
 9621SOL    HW129762   1.274   0.959   2.281
 9621SOL    HW229763   1.318   1.107   2.226
 9622SOL     OW29764   6.135   1.590   6.946
 9622SOL    HW129765   6.040   1.574   6.970
 9622SOL    HW229766   6.194   1.544   7.012
 9623SOL     OW29767   4.479   5.139   6.093
 9623SOL    HW129768   4.525   5.226   6.076
 9623SOL    HW229769   4.383   5.146   6.066
 9624SOL     OW29770   5.381   4.062   5.029
 9624SOL    HW129771   5.434   4.083   4.947
 9624SOL    HW229772   5.442   4.036   5.103
 9625SOL     OW29773   4.889   4.476   0.051
 9625SOL    HW129774   4.831   4.410   0.003
 9625SOL    HW229775   4.831   4.539   0.102
 9626SOL     OW29776   2.621   5.834   5.304
 9626SOL    HW129777   2.697   5.774   5.280
 9626SOL    HW229778   2.599   5.893   5.226
 9627SOL     OW29779   0.339   4.308   4.745
 9627SOL    HW129780   0.398   4.387   4.727
 9627SOL    HW229781   0.358   4.236   4.678
 9628SOL     OW29782   5.789   3.506   0.903
 9628SOL    HW129783   5.825   3.441   0.970
 9628SOL    HW229784   5.863   3.566   0.871
 9629SOL     OW29785   6.815   5.970   3.140
 9629SOL    HW129786   6.841   6.041   3.075
 9629SOL    HW229787   6.716   5.953   3.133
 9630SOL     OW29788   6.536   6.301   5.711
 9630SOL    HW129789   6.462   6.330   5.651
 9630SOL    HW229790   6.555   6.372   5.778
 9631SOL     OW29791   4.546   1.762   0.798
 9631SOL    HW129792   4.523   1.770   0.895
 9631SOL    HW229793   4.543   1.666   0.771
 9632SOL     OW29794   1.982   5.236   2.180
 9632SOL    HW129795   2.064   5.267   2.228
 9632SOL    HW229796   1.903   5.291   2.209
 9633SOL     OW29797   3.890   4.142   0.361
 9633SOL    HW129798   3.948   4.187   0.429
 9633SOL    HW229799   3.934   4.056   0.333
 9634SOL     OW29800   6.442   5.517   3.435
 9634SOL    HW129801   6.513   5.589   3.434
 9634SOL    HW229802   6.404   5.506   3.344
 9635SOL     OW29803   1.030   4.412   5.662
 9635SOL    HW129804   0.976   4.494   5.681
 9635SOL    HW229805   1.026   4.391   5.564
 9636SOL     OW29806   3.745   1.536   6.211
 9636SOL    HW129807   3.715   1.448   6.175
 9636SOL    HW229808   3.842   1.532   6.232
 9637SOL     OW29809   3.709   3.341   1.289
 9637SOL    HW129810   3.732   3.289   1.372
 9637SOL    HW229811   3.715   3.280   1.209
 9638SOL     OW29812   6.811   3.334   6.073
 9638SOL    HW129813   6.727   3.291   6.107
 9638SOL    HW229814   6.845   3.284   5.994
 9639SOL     OW29815   4.135   2.254   1.997
 9639SOL    HW129816   4.199   2.329   1.981
 9639SOL    HW229817   4.110   2.213   1.909
 9640SOL     OW29818   3.274   0.537   1.883
 9640SOL    HW129819   3.308   0.582   1.965
 9640SOL    HW229820   3.177   0.517   1.893
 9641SOL     OW29821   5.767   6.374   2.090
 9641SOL    HW129822   5.679   6.341   2.058
 9641SOL    HW229823   5.828   6.297   2.109
 9642SOL     OW29824   1.383   6.655   4.067
 9642SOL    HW129825   1.354   6.625   3.976
 9642SOL    HW229826   1.335   6.602   4.137
 9643SOL     OW29827   5.307   3.767   3.759
 9643SOL    HW129828   5.365   3.839   3.796
 9643SOL    HW229829   5.318   3.763   3.659
 9644SOL     OW29830   1.708   5.768   5.666
 9644SOL    HW129831   1.808   5.771   5.675
 9644SOL    HW229832   1.679   5.675   5.644
 9645SOL     OW29833   2.418   4.617   4.749
 9645SOL    HW129834   2.375   4.561   4.820
 9645SOL    HW229835   2.430   4.710   4.783
 9646SOL     OW29836   2.902   5.705   2.409
 9646SOL    HW129837   2.813   5.728   2.368
 9646SOL    HW229838   2.889   5.635   2.479
 9647SOL     OW29839   0.146   6.972   3.489
 9647SOL    HW129840   0.156   0.012   3.406
 9647SOL    HW229841   0.087   6.894   3.470
 9648SOL     OW29842   4.402   2.569   0.871
 9648SOL    HW129843   4.366   2.535   0.958
 9648SOL    HW229844   4.327   2.583   0.807
 9649SOL     OW29845   2.473   4.146   6.654
 9649SOL    HW129846   2.547   4.098   6.702
 9649SOL    HW229847   2.507   4.233   6.619
 9650SOL     OW29848   4.675   4.294   3.064
 9650SOL    HW129849   4.666   4.239   3.147
 9650SOL    HW229850   4.664   4.235   2.984
 9651SOL     OW29851   4.313   1.454   1.101
 9651SOL    HW129852   4.287   1.486   1.010
 9651SOL    HW229853   4.413   1.448   1.108
 9652SOL     OW29854   1.064   4.734   1.509
 9652SOL    HW129855   1.044   4.742   1.411
 9652SOL    HW229856   1.162   4.720   1.521
 9653SOL     OW29857   4.810   4.508   5.247
 9653SOL    HW129858   4.785   4.437   5.182
 9653SOL    HW229859   4.910   4.519   5.249
 9654SOL     OW29860   3.126   3.482   3.023
 9654SOL    HW129861   3.054   3.539   3.061
 9654SOL    HW229862   3.087   3.419   2.956
 9655SOL     OW29863   0.397   1.640   0.272
 9655SOL    HW129864   0.358   1.720   0.226
 9655SOL    HW229865   0.347   1.558   0.244
 9656SOL     OW29866   4.575   2.663   1.218
 9656SOL    HW129867   4.535   2.753   1.202
 9656SOL    HW229868   4.674   2.667   1.206
 9657SOL     OW29869   5.927   4.454   2.520
 9657SOL    HW129870   5.865   4.512   2.574
 9657SOL    HW229871   5.909   4.470   2.423
 9658SOL     OW29872   5.504   1.843   2.317
 9658SOL    HW129873   5.554   1.763   2.283
 9658SOL    HW229874   5.569   1.912   2.348
 9659SOL     OW29875   0.912   2.425   0.139
 9659SOL    HW129876   0.957   2.513   0.123
 9659SOL    HW229877   0.863   2.428   0.226
 9660SOL     OW29878   0.710   0.051   2.496
 9660SOL    HW129879   0.657   0.010   2.570
 9660SOL    HW229880   0.762   0.129   2.530
 9661SOL     OW29881   3.892   6.080   1.305
 9661SOL    HW129882   3.828   6.072   1.381
 9661SOL    HW229883   3.975   6.027   1.326
 9662SOL     OW29884   5.113   3.971   6.918
 9662SOL    HW129885   5.101   4.033   6.996
 9662SOL    HW229886   5.112   3.876   6.950
 9663SOL     OW29887   0.298   5.664   2.674
 9663SOL    HW129888   0.206   5.656   2.715
 9663SOL    HW229889   0.363   5.693   2.744
 9664SOL     OW29890   5.548   4.759   4.147
 9664SOL    HW129891   5.479   4.697   4.109
 9664SOL    HW229892   5.504   4.841   4.181
 9665SOL     OW29893   5.986   6.423   6.003
 9665SOL    HW129894   5.999   6.357   6.077
 9665SOL    HW229895   6.067   6.424   5.945
 9666SOL     OW29896   6.343   3.789   2.252
 9666SOL    HW129897   6.313   3.759   2.343
 9666SOL    HW229898   6.263   3.803   2.194
 9667SOL     OW29899   3.722   3.705   0.391
 9667SOL    HW129900   3.661   3.700   0.470
 9667SOL    HW229901   3.740   3.612   0.357
 9668SOL     OW29902   0.925   0.616   6.530
 9668SOL    HW129903   0.906   0.599   6.433
 9668SOL    HW229904   0.850   0.581   6.585
 9669SOL     OW29905   2.010   6.862   2.049
 9669SOL    HW129906   2.059   6.945   2.025
 9669SOL    HW229907   2.074   6.794   2.085
 9670SOL     OW29908   0.388   5.112   5.583
 9670SOL    HW129909   0.443   5.039   5.623
 9670SOL    HW229910   0.436   5.199   5.594
 9671SOL     OW29911   6.674   4.088   0.219
 9671SOL    HW129912   6.700   4.051   0.130
 9671SOL    HW229913   6.641   4.013   0.277
 9672SOL     OW29914   2.173   4.947   3.618
 9672SOL    HW129915   2.101   4.878   3.617
 9672SOL    HW229916   2.254   4.910   3.662
 9673SOL     OW29917   3.392   3.535   0.860
 9673SOL    HW129918   3.457   3.465   0.888
 9673SOL    HW229919   3.300   3.496   0.859
 9674SOL     OW29920   4.000   6.546   3.315
 9674SOL    HW129921   4.070   6.555   3.244
 9674SOL    HW229922   3.981   6.636   3.355
 9675SOL     OW29923   4.889   2.454   6.878
 9675SOL    HW129924   4.924   2.386   6.814
 9675SOL    HW229925   4.898   2.419   6.972
 9676SOL     OW29926   1.574   3.221   6.176
 9676SOL    HW129927   1.593   3.237   6.273
 9676SOL    HW229928   1.628   3.285   6.121
 9677SOL     OW29929   6.382   5.082   4.901
 9677SOL    HW129930   6.474   5.101   4.934
 9677SOL    HW229931   6.361   4.985   4.917
 9678SOL     OW29932   2.870   3.481   4.183
 9678SOL    HW129933   2.817   3.486   4.098
 9678SOL    HW229934   2.927   3.563   4.191
 9679SOL     OW29935   2.366   0.015   3.818
 9679SOL    HW129936   2.299   0.065   3.763
 9679SOL    HW229937   2.450   0.002   3.765
 9680SOL     OW29938   4.543   0.152   4.159
 9680SOL    HW129939   4.490   0.194   4.086
 9680SOL    HW229940   4.556   0.055   4.139
 9681SOL     OW29941   2.883   2.422   0.849
 9681SOL    HW129942   2.942   2.488   0.895
 9681SOL    HW229943   2.835   2.367   0.917
 9682SOL     OW29944   4.775   4.147   3.648
 9682SOL    HW129945   4.762   4.065   3.593
 9682SOL    HW229946   4.704   4.214   3.626
 9683SOL     OW29947   2.994   6.539   1.412
 9683SOL    HW129948   3.088   6.571   1.400
 9683SOL    HW229949   2.983   6.451   1.367
 9684SOL     OW29950   0.983   3.571   5.462
 9684SOL    HW129951   0.972   3.535   5.369
 9684SOL    HW229952   1.078   3.597   5.476
 9685SOL     OW29953   4.899   4.192   1.007
 9685SOL    HW129954   4.947   4.223   1.089
 9685SOL    HW229955   4.956   4.208   0.927
 9686SOL     OW29956   0.563   3.143   6.213
 9686SOL    HW129957   0.588   3.217   6.276
 9686SOL    HW229958   0.492   3.086   6.255
 9687SOL     OW29959   0.438   1.123   3.425
 9687SOL    HW129960   0.343   1.112   3.454
 9687SOL    HW229961   0.487   1.178   3.493
 9688SOL     OW29962   1.086   2.710   0.826
 9688SOL    HW129963   1.119   2.756   0.743
 9688SOL    HW229964   1.012   2.764   0.867
 9689SOL     OW29965   1.541   4.658   6.722
 9689SOL    HW129966   1.504   4.576   6.766
 9689SOL    HW229967   1.597   4.709   6.787
 9690SOL     OW29968   6.009   6.239   6.208
 9690SOL    HW129969   5.967   6.169   6.266
 9690SOL    HW229970   6.101   6.259   6.242
 9691SOL     OW29971   2.528   4.184   1.523
 9691SOL    HW129972   2.533   4.084   1.527
 9691SOL    HW229973   2.620   4.221   1.512
 9692SOL     OW29974   4.130   5.961   1.315
 9692SOL    HW129975   4.208   6.024   1.310
 9692SOL    HW229976   4.157   5.877   1.361
 9693SOL     OW29977   6.080   4.233   2.650
 9693SOL    HW129978   6.123   4.174   2.582
 9693SOL    HW229979   6.056   4.321   2.609
 9694SOL     OW29980   3.209   1.497   1.546
 9694SOL    HW129981   3.297   1.480   1.501
 9694SOL    HW229982   3.169   1.411   1.575
 9695SOL     OW29983   6.780   2.610   3.153
 9695SOL    HW129984   6.774   2.543   3.227
 9695SOL    HW229985   6.876   2.630   3.134
 9696SOL     OW29986   5.277   2.732   1.361
 9696SOL    HW129987   5.305   2.644   1.324
 9696SOL    HW229988   5.185   2.725   1.398
 9697SOL     OW29989   0.489   5.456   0.032
 9697SOL    HW129990   0.493   5.500   0.121
 9697SOL    HW229991   0.434   5.373   0.038
 9698SOL     OW29992   5.331   2.451   6.251
 9698SOL    HW129993   5.425   2.418   6.244
 9698SOL    HW229994   5.317   2.526   6.186
 9699SOL     OW29995   6.937   5.745   0.068
 9699SOL    HW129996   6.931   5.690   0.150
 9699SOL    HW229997   6.995   5.699   0.000
 9700SOL     OW29998   6.152   5.198   5.004
 9700SOL    HW129999   6.107   5.188   4.915
 9700SOL    HW230000   6.243   5.157   5.000
 9701SOL     OW30001   4.928   4.474   5.703
 9701SOL    HW130002   4.981   4.404   5.653
 9701SOL    HW230003   4.840   4.486   5.659
 9702SOL     OW30004   3.452   2.508   0.080
 9702SOL    HW130005   3.381   2.561   0.125
 9702SOL    HW230006   3.526   2.568   0.049
 9703SOL     OW30007   5.013   3.634   3.526
 9703SOL    HW130008   5.010   3.600   3.620
 9703SOL    HW230009   5.098   3.605   3.482
 9704SOL     OW30010   2.960   6.223   1.371
 9704SOL    HW130011   3.000   6.140   1.411
 9704SOL    HW230012   2.896   6.263   1.436
 9705SOL     OW30013   5.409   4.199   6.218
 9705SOL    HW130014   5.490   4.246   6.253
 9705SOL    HW230015   5.423   4.177   6.121
 9706SOL     OW30016   2.383   2.440   1.111
 9706SOL    HW130017   2.372   2.343   1.131
 9706SOL    HW230018   2.466   2.454   1.057
 9707SOL     OW30019   6.458   4.811   2.461
 9707SOL    HW130020   6.385   4.866   2.501
 9707SOL    HW230021   6.529   4.796   2.529
 9708SOL     OW30022   0.351   1.634   3.559
 9708SOL    HW130023   0.339   1.703   3.488
 9708SOL    HW230024   0.301   1.551   3.534
 9709SOL     OW30025   5.260   6.201   2.444
 9709SOL    HW130026   5.214   6.113   2.447
 9709SOL    HW230027   5.194   6.274   2.457
 9710SOL     OW30028   6.744   1.579   1.431
 9710SOL    HW130029   6.725   1.500   1.372
 9710SOL    HW230030   6.694   1.568   1.517
 9711SOL     OW30031   3.871   5.394   5.564
 9711SOL    HW130032   3.881   5.401   5.465
 9711SOL    HW230033   3.864   5.298   5.591
 9712SOL     OW30034   5.495   3.615   6.910
 9712SOL    HW130035   5.508   3.691   6.973
 9712SOL    HW230036   5.450   3.539   6.957
 9713SOL     OW30037   2.077   4.494   3.493
 9713SOL    HW130038   2.137   4.426   3.535
 9713SOL    HW230039   2.132   4.572   3.462
 9714SOL     OW30040   4.394   6.459   6.638
 9714SOL    HW130041   4.415   6.553   6.663
 9714SOL    HW230042   4.321   6.458   6.569
 9715SOL     OW30043   5.817   4.322   0.096
 9715SOL    HW130044   5.863   4.233   0.094
 9715SOL    HW230045   5.718   4.307   0.096
 9716SOL     OW30046   3.510   4.473   0.131
 9716SOL    HW130047   3.482   4.388   0.177
 9716SOL    HW230048   3.436   4.540   0.136
 9717SOL     OW30049   5.154   6.803   6.045
 9717SOL    HW130050   5.076   6.866   6.052
 9717SOL    HW230051   5.229   6.849   5.998
 9718SOL     OW30052   5.024   3.463   0.761
 9718SOL    HW130053   4.951   3.522   0.726
 9718SOL    HW230054   5.081   3.514   0.825
 9719SOL     OW30055   5.863   0.915   5.946
 9719SOL    HW130056   5.816   0.940   6.031
 9719SOL    HW230057   5.886   0.998   5.895
 9720SOL     OW30058   0.834   4.337   2.406
 9720SOL    HW130059   0.884   4.251   2.411
 9720SOL    HW230060   0.795   4.358   2.495
 9721SOL     OW30061   0.556   1.362   0.481
 9721SOL    HW130062   0.498   1.329   0.406
 9721SOL    HW230063   0.642   1.396   0.444
 9722SOL     OW30064   3.545   1.535   4.867
 9722SOL    HW130065   3.535   1.634   4.863
 9722SOL    HW230066   3.563   1.499   4.776
 9723SOL     OW30067   4.006   6.791   3.473
 9723SOL    HW130068   4.056   6.826   3.552
 9723SOL    HW230069   3.937   6.857   3.445
 9724SOL     OW30070   1.604   5.306   6.970
 9724SOL    HW130071   1.569   5.381   6.914
 9724SOL    HW230072   1.627   5.228   6.912
 9725SOL     OW30073   4.370   6.161   6.120
 9725SOL    HW130074   4.351   6.227   6.193
 9725SOL    HW230075   4.446   6.102   6.147
 9726SOL     OW30076   4.704   1.090   3.413
 9726SOL    HW130077   4.622   1.103   3.468
 9726SOL    HW230078   4.693   1.136   3.325
 9727SOL     OW30079   0.984   2.393   6.847
 9727SOL    HW130080   0.982   2.428   6.941
 9727SOL    HW230081   0.942   2.302   6.845
 9728SOL     OW30082   0.541   0.657   5.469
 9728SOL    HW130083   0.533   0.707   5.383
 9728SOL    HW230084   0.465   0.593   5.478
 9729SOL     OW30085   1.221   4.291   3.557
 9729SOL    HW130086   1.175   4.328   3.476
 9729SOL    HW230087   1.318   4.278   3.537
 9730SOL     OW30088   1.845   4.938   2.905
 9730SOL    HW130089   1.904   4.911   2.981
 9730SOL    HW230090   1.882   4.901   2.820
 9731SOL     OW30091   5.322   5.601   1.258
 9731SOL    HW130092   5.253   5.672   1.240
 9731SOL    HW230093   5.412   5.634   1.228
 9732SOL     OW30094   0.366   4.293   2.372
 9732SOL    HW130095   0.421   4.374   2.349
 9732SOL    HW230096   0.420   4.233   2.431
 9733SOL     OW30097   5.044   5.405   0.280
 9733SOL    HW130098   5.084   5.471   0.216
 9733SOL    HW230099   5.037   5.316   0.235
 9734SOL     OW30100   6.987   0.615   0.497
 9734SOL    HW130101   0.053   0.673   0.498
 9734SOL    HW230102   6.985   0.560   0.414
 9735SOL     OW30103   1.881   3.437   3.285
 9735SOL    HW130104   1.927   3.495   3.217
 9735SOL    HW230105   1.852   3.351   3.243
 9736SOL     OW30106   5.606   1.175   5.451
 9736SOL    HW130107   5.567   1.094   5.407
 9736SOL    HW230108   5.706   1.170   5.448
 9737SOL     OW30109   5.347   2.265   3.062
 9737SOL    HW130110   5.355   2.167   3.045
 9737SOL    HW230111   5.251   2.289   3.076
 9738SOL     OW30112   2.572   6.822   0.422
 9738SOL    HW130113   2.655   6.783   0.462
 9738SOL    HW230114   2.575   6.813   0.323
 9739SOL     OW30115   4.856   6.000   0.589
 9739SOL    HW130116   4.870   5.933   0.662
 9739SOL    HW230117   4.911   5.976   0.509
 9740SOL     OW30118   0.189   2.020   3.316
 9740SOL    HW130119   0.267   2.078   3.297
 9740SOL    HW230120   0.132   2.062   3.387
 9741SOL     OW30121   2.622   1.444   2.470
 9741SOL    HW130122   2.632   1.362   2.526
 9741SOL    HW230123   2.624   1.420   2.373
 9742SOL     OW30124   3.532   1.222   0.277
 9742SOL    HW130125   3.473   1.301   0.260
 9742SOL    HW230126   3.527   1.197   0.374
 9743SOL     OW30127   6.888   3.512   4.077
 9743SOL    HW130128   6.945   3.561   4.143
 9743SOL    HW230129   6.938   3.503   3.991
 9744SOL     OW30130   1.066   0.051   1.875
 9744SOL    HW130131   1.101   6.986   1.922
 9744SOL    HW230132   1.112   0.060   1.786
 9745SOL     OW30133   4.745   2.663   6.801
 9745SOL    HW130134   4.748   2.744   6.861
 9745SOL    HW230135   4.782   2.584   6.850
 9746SOL     OW30136   5.734   0.604   5.891
 9746SOL    HW130137   5.703   0.608   5.796
 9746SOL    HW230138   5.821   0.651   5.901
 9747SOL     OW30139   2.639   2.112   1.694
 9747SOL    HW130140   2.596   2.192   1.651
 9747SOL    HW230141   2.664   2.134   1.788
 9748SOL     OW30142   6.222   6.893   3.702
 9748SOL    HW130143   6.275   6.873   3.619
 9748SOL    HW230144   6.269   6.963   3.756
 9749SOL     OW30145   1.671   0.269   4.433
 9749SOL    HW130146   1.727   0.190   4.458
 9749SOL    HW230147   1.636   0.313   4.515
 9750SOL     OW30148   5.528   5.325   3.345
 9750SOL    HW130149   5.497   5.275   3.264
 9750SOL    HW230150   5.463   5.311   3.420
 9751SOL     OW30151   2.249   0.245   1.327
 9751SOL    HW130152   2.333   0.192   1.333
 9751SOL    HW230153   2.170   0.184   1.336
 9752SOL     OW30154   3.945   1.696   5.341
 9752SOL    HW130155   3.874   1.766   5.338
 9752SOL    HW230156   3.938   1.639   5.259
 9753SOL     OW30157   0.171   5.699   6.477
 9753SOL    HW130158   0.252   5.713   6.533
 9753SOL    HW230159   0.199   5.682   6.382
 9754SOL     OW30160   1.807   0.056   0.904
 9754SOL    HW130161   1.898   0.058   0.946
 9754SOL    HW230162   1.757   6.991   0.936
 9755SOL     OW30163   3.693   3.507   4.478
 9755SOL    HW130164   3.786   3.499   4.514
 9755SOL    HW230165   3.645   3.420   4.490
 9756SOL     OW30166   5.427   2.686   6.065
 9756SOL    HW130167   5.525   2.678   6.043
 9756SOL    HW230168   5.376   2.619   6.011
 9757SOL     OW30169   5.773   4.621   4.019
 9757SOL    HW130170   5.736   4.673   4.096
 9757SOL    HW230171   5.850   4.671   3.980
 9758SOL     OW30172   2.181   0.764   6.976
 9758SOL    HW130173   2.143   0.696   0.023
 9758SOL    HW230174   2.280   0.769   6.990
 9759SOL     OW30175   1.114   0.809   0.285
 9759SOL    HW130176   1.161   0.723   0.302
 9759SOL    HW230177   1.112   0.863   0.369
 9760SOL     OW30178   4.952   3.128   5.875
 9760SOL    HW130179   4.986   3.078   5.954
 9760SOL    HW230180   5.008   3.106   5.795
 9761SOL     OW30181   0.621   1.510   1.765
 9761SOL    HW130182   0.604   1.432   1.704
 9761SOL    HW230183   0.574   1.591   1.730
 9762SOL     OW30184   3.295   2.035   4.683
 9762SOL    HW130185   3.315   2.083   4.598
 9762SOL    HW230186   3.206   2.064   4.718
 9763SOL     OW30187   4.553   1.724   2.880
 9763SOL    HW130188   4.649   1.749   2.881
 9763SOL    HW230189   4.529   1.684   2.791
 9764SOL     OW30190   6.318   3.139   3.385
 9764SOL    HW130191   6.236   3.183   3.346
 9764SOL    HW230192   6.333   3.051   3.340
 9765SOL     OW30193   6.531   6.602   3.469
 9765SOL    HW130194   6.460   6.656   3.515
 9765SOL    HW230195   6.574   6.539   3.534
 9766SOL     OW30196   2.633   6.769   2.067
 9766SOL    HW130197   2.679   6.850   2.104
 9766SOL    HW230198   2.701   6.700   2.044
 9767SOL     OW30199   3.760   1.664   5.589
 9767SOL    HW130200   3.799   1.733   5.650
 9767SOL    HW230201   3.755   1.700   5.496
 9768SOL     OW30202   5.252   1.220   1.632
 9768SOL    HW130203   5.332   1.191   1.684
 9768SOL    HW230204   5.174   1.160   1.653
 9769SOL     OW30205   4.460   0.548   4.478
 9769SOL    HW130206   4.527   0.555   4.404
 9769SOL    HW230207   4.502   0.573   4.565
 9770SOL     OW30208   3.771   0.909   6.047
 9770SOL    HW130209   3.832   0.843   6.091
 9770SOL    HW230210   3.801   0.925   5.953
 9771SOL     OW30211   2.749   5.690   0.531
 9771SOL    HW130212   2.715   5.777   0.564
 9771SOL    HW230213   2.819   5.706   0.461
 9772SOL     OW30214   1.215   5.908   1.566
 9772SOL    HW130215   1.201   5.911   1.467
 9772SOL    HW230216   1.303   5.864   1.586
 9773SOL     OW30217   5.316   5.213   4.522
 9773SOL    HW130218   5.351   5.189   4.431
 9773SOL    HW230219   5.309   5.129   4.577
 9774SOL     OW30220   6.668   5.678   2.070
 9774SOL    HW130221   6.614   5.622   2.008
 9774SOL    HW230222   6.764   5.679   2.040
 9775SOL     OW30223   2.938   0.658   3.446
 9775SOL    HW130224   2.961   0.720   3.520
 9775SOL    HW230225   2.842   0.630   3.455
 9776SOL     OW30226   6.996   4.847   5.334
 9776SOL    HW130227   6.918   4.894   5.292
 9776SOL    HW230228   0.061   4.906   5.329
 9777SOL     OW30229   5.957   5.940   0.036
 9777SOL    HW130230   6.034   5.925   0.099
 9777SOL    HW230231   5.981   6.011   6.986
 9778SOL     OW30232   0.181   1.812   4.422
 9778SOL    HW130233   0.097   1.797   4.370
 9778SOL    HW230234   0.252   1.848   4.361
 9779SOL     OW30235   0.512   1.855   3.917
 9779SOL    HW130236   0.531   1.805   3.832
 9779SOL    HW230237   0.418   1.838   3.945
 9780SOL     OW30238   2.224   2.457   0.453
 9780SOL    HW130239   2.267   2.537   0.495
 9780SOL    HW230240   2.263   2.442   0.362
 9781SOL     OW30241   2.320   2.166   4.844
 9781SOL    HW130242   2.303   2.261   4.867
 9781SOL    HW230243   2.354   2.117   4.924
 9782SOL     OW30244   0.412   1.089   1.083
 9782SOL    HW130245   0.478   1.095   1.008
 9782SOL    HW230246   0.330   1.141   1.058
 9783SOL     OW30247   4.721   2.746   3.146
 9783SOL    HW130248   4.813   2.740   3.109
 9783SOL    HW230249   4.717   2.699   3.235
 9784SOL     OW30250   3.582   2.464   6.332
 9784SOL    HW130251   3.572   2.365   6.317
 9784SOL    HW230252   3.494   2.501   6.363
 9785SOL     OW30253   0.748   2.014   5.923
 9785SOL    HW130254   0.677   1.969   5.977
 9785SOL    HW230255   0.837   1.999   5.966
 9786SOL     OW30256   3.096   3.877   0.380
 9786SOL    HW130257   3.178   3.932   0.365
 9786SOL    HW230258   3.120   3.793   0.428
 9787SOL     OW30259   3.362   3.318   2.425
 9787SOL    HW130260   3.458   3.298   2.447
 9787SOL    HW230261   3.316   3.233   2.399
 9788SOL     OW30262   0.501   0.407   3.584
 9788SOL    HW130263   0.506   0.481   3.651
 9788SOL    HW230264   0.585   0.352   3.589
 9789SOL     OW30265   1.613   5.232   0.516
 9789SOL    HW130266   1.539   5.297   0.535
 9789SOL    HW230267   1.574   5.146   0.484
 9790SOL     OW30268   6.903   5.236   6.636
 9790SOL    HW130269   6.990   5.243   6.586
 9790SOL    HW230270   6.843   5.312   6.610
 9791SOL     OW30271   0.639   0.223   0.226
 9791SOL    HW130272   0.656   0.214   0.324
 9791SOL    HW230273   0.568   0.291   0.211
 9792SOL     OW30274   3.446   4.343   0.777
 9792SOL    HW130275   3.536   4.333   0.734
 9792SOL    HW230276   3.392   4.260   0.763
 9793SOL     OW30277   3.796   6.907   2.428
 9793SOL    HW130278   3.843   6.845   2.365
 9793SOL    HW230279   3.822   6.885   2.522
 9794SOL     OW30280   0.073   4.093   6.814
 9794SOL    HW130281   0.086   4.183   6.771
 9794SOL    HW230282   0.162   4.051   6.832
 9795SOL     OW30283   1.454   1.855   4.184
 9795SOL    HW130284   1.551   1.834   4.179
 9795SOL    HW230285   1.412   1.799   4.256
 9796SOL     OW30286   3.344   2.949   2.573
 9796SOL    HW130287   3.318   2.990   2.485
 9796SOL    HW230288   3.265   2.946   2.634
 9797SOL     OW30289   2.031   5.640   0.272
 9797SOL    HW130290   1.957   5.618   0.209
 9797SOL    HW230291   2.022   5.734   0.303
 9798SOL     OW30292   3.213   0.301   2.445
 9798SOL    HW130293   3.163   0.215   2.434
 9798SOL    HW230294   3.172   0.354   2.520
 9799SOL     OW30295   2.830   4.086   5.329
 9799SOL    HW130296   2.825   4.014   5.259
 9799SOL    HW230297   2.747   4.084   5.384
 9800SOL     OW30298   4.668   4.808   4.813
 9800SOL    HW130299   4.639   4.857   4.896
 9800SOL    HW230300   4.730   4.734   4.838
 9801SOL     OW30301   4.879   3.869   0.230
 9801SOL    HW130302   4.870   3.965   0.201
 9801SOL    HW230303   4.899   3.812   0.151
 9802SOL     OW30304   6.865   4.129   1.929
 9802SOL    HW130305   6.934   4.060   1.950
 9802SOL    HW230306   6.785   4.115   1.987
 9803SOL     OW30307   1.701   2.019   6.374
 9803SOL    HW130308   1.764   2.073   6.318
 9803SOL    HW230309   1.639   1.968   6.314
 9804SOL     OW30310   1.131   6.114   3.155
 9804SOL    HW130311   1.093   6.093   3.245
 9804SOL    HW230312   1.199   6.045   3.130
 9805SOL     OW30313   0.725   6.733   3.430
 9805SOL    HW130314   0.685   6.686   3.351
 9805SOL    HW230315   0.704   6.831   3.424
 9806SOL     OW30316   1.581   0.961   6.599
 9806SOL    HW130317   1.588   0.968   6.698
 9806SOL    HW230318   1.492   0.996   6.569
 9807SOL     OW30319   3.782   4.429   0.891
 9807SOL    HW130320   3.795   4.390   0.799
 9807SOL    HW230321   3.730   4.364   0.947
 9808SOL     OW30322   3.728   0.062   5.256
 9808SOL    HW130323   3.658   0.025   5.195
 9808SOL    HW230324   3.816   0.063   5.208
 9809SOL     OW30325   0.938   3.304   6.455
 9809SOL    HW130326   0.996   3.368   6.406
 9809SOL    HW230327   0.978   3.212   6.451
 9810SOL     OW30328   2.061   2.629   3.863
 9810SOL    HW130329   2.079   2.727   3.858
 9810SOL    HW230330   2.076   2.588   3.773
 9811SOL     OW30331   5.466   5.039   2.973
 9811SOL    HW130332   5.515   5.026   2.887
 9811SOL    HW230333   5.530   5.039   3.049
 9812SOL     OW30334   3.899   1.784   5.794
 9812SOL    HW130335   3.955   1.832   5.861
 9812SOL    HW230336   3.942   1.790   5.704
 9813SOL     OW30337   4.850   1.474   0.748
 9813SOL    HW130338   4.880   1.439   0.837
 9813SOL    HW230339   4.752   1.494   0.751
 9814SOL     OW30340   6.715   0.303   6.845
 9814SOL    HW130341   6.791   0.301   6.779
 9814SOL    HW230342   6.654   0.380   6.823
 9815SOL     OW30343   5.465   3.789   4.680
 9815SOL    HW130344   5.413   3.721   4.732
 9815SOL    HW230345   5.539   3.743   4.630
 9816SOL     OW30346   0.876   0.712   6.243
 9816SOL    HW130347   0.971   0.730   6.216
 9816SOL    HW230348   0.839   0.639   6.186
 9817SOL     OW30349   2.975   6.669   3.359
 9817SOL    HW130350   2.903   6.627   3.304
 9817SOL    HW230351   3.001   6.757   3.319
 9818SOL     OW30352   0.803   0.356   3.850
 9818SOL    HW130353   0.730   0.313   3.902
 9818SOL    HW230354   0.887   0.356   3.904
 9819SOL     OW30355   4.989   3.518   3.770
 9819SOL    HW130356   4.966   3.444   3.707
 9819SOL    HW230357   5.024   3.479   3.856
 9820SOL     OW30358   4.147   3.269   6.255
 9820SOL    HW130359   4.153   3.257   6.156
 9820SOL    HW230360   4.118   3.362   6.276
 9821SOL     OW30361   5.229   1.147   6.477
 9821SOL    HW130362   5.303   1.091   6.515
 9821SOL    HW230363   5.171   1.090   6.419
 9822SOL     OW30364   1.965   0.047   3.480
 9822SOL    HW130365   1.915   6.977   3.470
 9822SOL    HW230366   1.905   0.116   3.521
 9823SOL     OW30367   2.603   0.955   0.367
 9823SOL    HW130368   2.554   1.010   0.299
 9823SOL    HW230369   2.672   0.899   0.320
 9824SOL     OW30370   1.583   5.042   4.512
 9824SOL    HW130371   1.575   4.942   4.511
 9824SOL    HW230372   1.519   5.081   4.578
 9825SOL     OW30373   5.118   5.669   5.374
 9825SOL    HW130374   5.144   5.587   5.325
 9825SOL    HW230375   5.196   5.703   5.426
 9826SOL     OW30376   4.499   4.898   6.218
 9826SOL    HW130377   4.474   4.837   6.143
 9826SOL    HW230378   4.481   4.993   6.191
 9827SOL     OW30379   2.098   3.230   3.897
 9827SOL    HW130380   2.001   3.231   3.919
 9827SOL    HW230381   2.136   3.322   3.905
 9828SOL     OW30382   2.543   2.620   5.516
 9828SOL    HW130383   2.544   2.637   5.417
 9828SOL    HW230384   2.590   2.534   5.536
 9829SOL     OW30385   3.856   5.108   6.682
 9829SOL    HW130386   3.941   5.119   6.630
 9829SOL    HW230387   3.875   5.058   6.767
 9830SOL     OW30388   6.048   2.234   1.946
 9830SOL    HW130389   6.115   2.200   1.881
 9830SOL    HW230390   5.956   2.220   1.910
 9831SOL     OW30391   2.460   5.112   0.941
 9831SOL    HW130392   2.490   5.077   1.029
 9831SOL    HW230393   2.421   5.203   0.953
 9832SOL     OW30394   5.004   5.478   2.795
 9832SOL    HW130395   4.983   5.390   2.837
 9832SOL    HW230396   4.987   5.472   2.696
 9833SOL     OW30397   3.246   3.441   5.115
 9833SOL    HW130398   3.306   3.515   5.086
 9833SOL    HW230399   3.267   3.357   5.065
 9834SOL     OW30400   2.955   4.385   5.379
 9834SOL    HW130401   2.954   4.462   5.315
 9834SOL    HW230402   2.879   4.323   5.357
 9835SOL     OW30403   4.036   3.443   5.237
 9835SOL    HW130404   4.086   3.378   5.295
 9835SOL    HW230405   3.945   3.458   5.276
 9836SOL     OW30406   6.554   4.565   3.404
 9836SOL    HW130407   6.549   4.653   3.355
 9836SOL    HW230408   6.531   4.491   3.341
 9837SOL     OW30409   3.305   0.537   2.828
 9837SOL    HW130410   3.374   0.588   2.880
 9837SOL    HW230411   3.313   0.439   2.849
 9838SOL     OW30412   1.571   0.041   6.787
 9838SOL    HW130413   1.547   6.970   6.830
 9838SOL    HW230414   1.554   0.036   6.689
 9839SOL     OW30415   5.561   0.443   3.609
 9839SOL    HW130416   5.643   0.445   3.667
 9839SOL    HW230417   5.498   0.375   3.644
 9840SOL     OW30418   5.812   1.506   0.634
 9840SOL    HW130419   5.835   1.496   0.537
 9840SOL    HW230420   5.755   1.429   0.663
 9841SOL     OW30421   1.765   4.860   5.158
 9841SOL    HW130422   1.836   4.817   5.103
 9841SOL    HW230423   1.776   4.959   5.156
 9842SOL     OW30424   3.737   3.455   2.164
 9842SOL    HW130425   3.824   3.446   2.115
 9842SOL    HW230426   3.680   3.375   2.145
 9843SOL     OW30427   6.188   0.997   1.258
 9843SOL    HW130428   6.267   1.058   1.261
 9843SOL    HW230429   6.185   0.950   1.170
 9844SOL     OW30430   6.287   0.829   2.214
 9844SOL    HW130431   6.187   0.826   2.212
 9844SOL    HW230432   6.318   0.815   2.308
 9845SOL     OW30433   1.967   2.801   3.121
 9845SOL    HW130434   2.024   2.876   3.089
 9845SOL    HW230435   1.870   2.823   3.104
 9846SOL     OW30436   3.955   3.333   2.395
 9846SOL    HW130437   3.864   3.370   2.415
 9846SOL    HW230438   3.961   3.239   2.427
 9847SOL     OW30439   3.589   2.908   4.133
 9847SOL    HW130440   3.647   2.839   4.090
 9847SOL    HW230441   3.581   2.988   4.073
 9848SOL     OW30442   3.423   3.237   4.991
 9848SOL    HW130443   3.421   3.272   4.897
 9848SOL    HW230444   3.487   3.292   5.045
 9849SOL     OW30445   1.114   6.978   6.852
 9849SOL    HW130446   1.091   6.992   6.948
 9849SOL    HW230447   1.122   0.051   6.807
 9850SOL     OW30448   5.915   6.715   4.139
 9850SOL    HW130449   5.932   6.643   4.073
 9850SOL    HW230450   5.907   6.675   4.231
 9851SOL     OW30451   6.246   0.587   4.375
 9851SOL    HW130452   6.264   0.605   4.472
 9851SOL    HW230453   6.148   0.585   4.360
 9852SOL     OW30454   3.920   2.180   3.831
 9852SOL    HW130455   3.903   2.186   3.929
 9852SOL    HW230456   3.993   2.243   3.806
 9853SOL     OW30457   5.258   3.988   4.551
 9853SOL    HW130458   5.271   4.056   4.624
 9853SOL    HW230459   5.305   3.903   4.575
 9854SOL     OW30460   6.775   5.747   5.238
 9854SOL    HW130461   6.781   5.647   5.241
 9854SOL    HW230462   6.843   5.786   5.300
 9855SOL     OW30463   2.229   3.585   1.115
 9855SOL    HW130464   2.278   3.500   1.133
 9855SOL    HW230465   2.281   3.662   1.153
 9856SOL     OW30466   4.984   4.375   4.905
 9856SOL    HW130467   4.953   4.339   4.993
 9856SOL    HW230468   4.984   4.301   4.838
 9857SOL     OW30469   4.769   2.713   2.753
 9857SOL    HW130470   4.786   2.722   2.655
 9857SOL    HW230471   4.812   2.789   2.802
 9858SOL     OW30472   0.153   0.815   1.290
 9858SOL    HW130473   0.210   0.734   1.299
 9858SOL    HW230474   0.199   0.894   1.330
 9859SOL     OW30475   6.122   6.938   2.341
 9859SOL    HW130476   6.185   6.977   2.274
 9859SOL    HW230477   6.046   7.002   2.356
 9860SOL     OW30478   1.217   1.548   3.300
 9860SOL    HW130479   1.207   1.617   3.372
 9860SOL    HW230480   1.255   1.591   3.218
 9861SOL     OW30481   3.131   0.209   3.493
 9861SOL    HW130482   3.106   0.305   3.483
 9861SOL    HW230483   3.060   0.152   3.452
 9862SOL     OW30484   3.838   3.083   0.407
 9862SOL    HW130485   3.857   3.181   0.402
 9862SOL    HW230486   3.888   3.036   0.334
 9863SOL     OW30487   3.286   0.033   2.689
 9863SOL    HW130488   3.266   0.004   2.595
 9863SOL    HW230489   3.361   6.993   2.725
 9864SOL     OW30490   3.518   6.645   3.788
 9864SOL    HW130491   3.474   6.616   3.703
 9864SOL    HW230492   3.448   6.674   3.853
 9865SOL     OW30493   1.266   0.207   4.509
 9865SOL    HW130494   1.172   0.234   4.490
 9865SOL    HW230495   1.272   0.107   4.516
 9866SOL     OW30496   4.997   4.480   6.205
 9866SOL    HW130497   4.949   4.494   6.291
 9866SOL    HW230498   4.938   4.430   6.141
 9867SOL     OW30499   6.553   1.156   0.697
 9867SOL    HW130500   6.499   1.211   0.634
 9867SOL    HW230501   6.492   1.106   0.758
 9868SOL     OW30502   0.519   3.673   5.581
 9868SOL    HW130503   0.491   3.580   5.605
 9868SOL    HW230504   0.616   3.673   5.558
 9869SOL     OW30505   1.109   2.681   1.517
 9869SOL    HW130506   1.117   2.776   1.545
 9869SOL    HW230507   1.194   2.651   1.474
 9870SOL     OW30508   3.600   6.424   2.705
 9870SOL    HW130509   3.656   6.505   2.725
 9870SOL    HW230510   3.654   6.341   2.718
 9871SOL     OW30511   0.275   5.826   5.987
 9871SOL    HW130512   0.281   5.851   6.083
 9871SOL    HW230513   0.236   5.734   5.979
 9872SOL     OW30514   2.440   5.537   4.564
 9872SOL    HW130515   2.460   5.482   4.483
 9872SOL    HW230516   2.524   5.555   4.614
 9873SOL     OW30517   2.331   2.681   0.520
 9873SOL    HW130518   2.293   2.754   0.464
 9873SOL    HW230519   2.431   2.688   0.521
 9874SOL     OW30520   5.716   3.105   5.173
 9874SOL    HW130521   5.780   3.044   5.221
 9874SOL    HW230522   5.767   3.179   5.130
 9875SOL     OW30523   5.647   6.056   1.815
 9875SOL    HW130524   5.584   6.130   1.838
 9875SOL    HW230525   5.670   6.004   1.897
 9876SOL     OW30526   6.348   0.534   3.867
 9876SOL    HW130527   6.383   0.443   3.891
 9876SOL    HW230528   6.292   0.568   3.941
 9877SOL     OW30529   6.808   5.372   4.497
 9877SOL    HW130530   6.709   5.380   4.508
 9877SOL    HW230531   6.834   5.409   4.407
 9878SOL     OW30532   2.687   4.091   5.907
 9878SOL    HW130533   2.687   4.130   5.999
 9878SOL    HW230534   2.683   4.165   5.840
 9879SOL     OW30535   5.680   5.941   5.360
 9879SOL    HW130536   5.648   5.854   5.323
 9879SOL    HW230537   5.757   5.925   5.422
 9880SOL     OW30538   3.966   0.505   0.031
 9880SOL    HW130539   3.905   0.502   0.111
 9880SOL    HW230540   4.047   0.449   0.049
 9881SOL     OW30541   1.214   1.158   4.055
 9881SOL    HW130542   1.305   1.121   4.038
 9881SOL    HW230543   1.219   1.258   4.063
 9882SOL     OW30544   1.518   3.311   4.212
 9882SOL    HW130545   1.448   3.362   4.162
 9882SOL    HW230546   1.474   3.252   4.280
 9883SOL     OW30547   1.439   6.104   1.135
 9883SOL    HW130548   1.525   6.068   1.099
 9883SOL    HW230549   1.395   6.161   1.066
 9884SOL     OW30550   4.573   2.285   1.692
 9884SOL    HW130551   4.592   2.195   1.732
 9884SOL    HW230552   4.475   2.304   1.699
 9885SOL     OW30553   0.320   2.050   4.813
 9885SOL    HW130554   0.352   2.115   4.743
 9885SOL    HW230555   0.238   2.004   4.780
 9886SOL     OW30556   1.086   4.604   2.015
 9886SOL    HW130557   1.043   4.609   1.925
 9886SOL    HW230558   1.029   4.550   2.077
 9887SOL     OW30559   4.544   0.310   6.783
 9887SOL    HW130560   4.567   0.407   6.771
 9887SOL    HW230561   4.559   0.283   6.878
 9888SOL     OW30562   5.472   5.021   2.362
 9888SOL    HW130563   5.429   5.038   2.273
 9888SOL    HW230564   5.403   4.984   2.425
 9889SOL     OW30565   6.311   5.036   0.699
 9889SOL    HW130566   6.371   5.013   0.622
 9889SOL    HW230567   6.233   5.089   0.666
 9890SOL     OW30568   0.946   3.134   1.138
 9890SOL    HW130569   0.953   3.038   1.167
 9890SOL    HW230570   1.018   3.154   1.071
 9891SOL     OW30571   5.880   3.204   1.391
 9891SOL    HW130572   5.816   3.273   1.424
 9891SOL    HW230573   5.973   3.226   1.421
 9892SOL     OW30574   1.445   4.580   1.999
 9892SOL    HW130575   1.529   4.561   1.948
 9892SOL    HW230576   1.367   4.578   1.936
 9893SOL     OW30577   0.347   0.440   2.348
 9893SOL    HW130578   0.404   0.414   2.270
 9893SOL    HW230579   0.405   0.459   2.427
 9894SOL     OW30580   3.015   2.692   0.206
 9894SOL    HW130581   2.944   2.696   0.276
 9894SOL    HW230582   2.974   2.706   0.116
 9895SOL     OW30583   5.536   3.692   5.079
 9895SOL    HW130584   5.484   3.625   5.131
 9895SOL    HW230585   5.542   3.662   4.983
 9896SOL     OW30586   6.258   0.986   0.653
 9896SOL    HW130587   6.275   1.056   0.583
 9896SOL    HW230588   6.335   0.923   0.657
 9897SOL     OW30589   5.900   0.076   2.396
 9897SOL    HW130590   5.946   0.161   2.419
 9897SOL    HW230591   5.812   0.096   2.352
 9898SOL     OW30592   1.191   5.223   5.913
 9898SOL    HW130593   1.227   5.130   5.916
 9898SOL    HW230594   1.182   5.252   5.818
 9899SOL     OW30595   0.970   5.349   1.631
 9899SOL    HW130596   0.999   5.424   1.572
 9899SOL    HW230597   1.029   5.345   1.711
 9900SOL     OW30598   1.464   3.051   2.608
 9900SOL    HW130599   1.407   3.055   2.690
 9900SOL    HW230600   1.466   3.141   2.564
 9901SOL     OW30601   2.931   0.609   6.432
 9901SOL    HW130602   2.896   0.610   6.339
 9901SOL    HW230603   2.997   0.534   6.443
 9902SOL     OW30604   3.280   4.241   1.363
 9902SOL    HW130605   3.294   4.148   1.397
 9902SOL    HW230606   3.239   4.297   1.435
 9903SOL     OW30607   5.580   1.426   1.171
 9903SOL    HW130608   5.679   1.426   1.181
 9903SOL    HW230609   5.550   1.514   1.135
 9904SOL     OW30610   0.513   3.604   6.373
 9904SOL    HW130611   0.529   3.535   6.444
 9904SOL    HW230612   0.435   3.577   6.317
 9905SOL     OW30613   2.549   0.205   5.633
 9905SOL    HW130614   2.586   0.297   5.618
 9905SOL    HW230615   2.458   0.212   5.674
 9906SOL     OW30616   1.766   3.003   0.641
 9906SOL    HW130617   1.688   3.063   0.656
 9906SOL    HW230618   1.815   2.989   0.728
 9907SOL     OW30619   1.659   0.605   1.279
 9907SOL    HW130620   1.687   0.634   1.371
 9907SOL    HW230621   1.571   0.647   1.256
 9908SOL     OW30622   6.387   2.374   4.816
 9908SOL    HW130623   6.409   2.290   4.766
 9908SOL    HW230624   6.466   2.403   4.869
 9909SOL     OW30625   3.787   0.666   2.375
 9909SOL    HW130626   3.854   0.604   2.416
 9909SOL    HW230627   3.828   0.712   2.296
 9910SOL     OW30628   1.098   5.027   1.831
 9910SOL    HW130629   1.144   5.116   1.835
 9910SOL    HW230630   1.059   5.006   1.921
 9911SOL     OW30631   2.433   6.124   2.068
 9911SOL    HW130632   2.524   6.166   2.066
 9911SOL    HW230633   2.392   6.129   1.977
 9912SOL     OW30634   3.875   1.680   0.936
 9912SOL    HW130635   3.819   1.628   0.872
 9912SOL    HW230636   3.956   1.715   0.890
 9913SOL     OW30637   6.241   3.317   0.748
 9913SOL    HW130638   6.206   3.229   0.716
 9913SOL    HW230639   6.322   3.341   0.696
 9914SOL     OW30640   6.261   0.127   5.957
 9914SOL    HW130641   6.303   0.188   6.023
 9914SOL    HW230642   6.325   0.111   5.882
 9915SOL     OW30643   5.913   0.964   3.671
 9915SOL    HW130644   5.838   1.019   3.707
 9915SOL    HW230645   5.927   0.883   3.729
 9916SOL     OW30646   2.060   2.541   3.108
 9916SOL    HW130647   2.024   2.629   3.078
 9916SOL    HW230648   2.159   2.538   3.092
 9917SOL     OW30649   3.858   3.926   5.872
 9917SOL    HW130650   3.886   3.917   5.968
 9917SOL    HW230651   3.790   3.999   5.865
 9918SOL     OW30652   1.384   2.631   2.901
 9918SOL    HW130653   1.311   2.622   2.834
 9918SOL    HW230654   1.472   2.634   2.853
 9919SOL     OW30655   2.138   5.244   1.118
 9919SOL    HW130656   2.208   5.275   1.053
 9919SOL    HW230657   2.115   5.149   1.099
 9920SOL     OW30658   5.044   0.584   2.270
 9920SOL    HW130659   5.019   0.654   2.337
 9920SOL    HW230660   4.995   0.602   2.184
 9921SOL     OW30661   4.408   6.259   4.189
 9921SOL    HW130662   4.452   6.283   4.102
 9921SOL    HW230663   4.338   6.190   4.173
 9922SOL     OW30664   4.043   4.497   0.810
 9922SOL    HW130665   3.961   4.465   0.857
 9922SOL    HW230666   4.062   4.592   0.836
 9923SOL     OW30667   5.925   4.070   0.120
 9923SOL    HW130668   5.935   4.054   0.219
 9923SOL    HW230669   5.909   3.983   0.074
 9924SOL     OW30670   5.758   2.169   2.775
 9924SOL    HW130671   5.735   2.193   2.869
 9924SOL    HW230672   5.778   2.251   2.722
 9925SOL     OW30673   0.177   5.170   4.047
 9925SOL    HW130674   0.258   5.153   4.102
 9925SOL    HW230675   0.106   5.104   4.072
 9926SOL     OW30676   4.273   2.430   1.054
 9926SOL    HW130677   4.322   2.344   1.068
 9926SOL    HW230678   4.178   2.411   1.031
 9927SOL     OW30679   1.584   1.334   0.724
 9927SOL    HW130680   1.683   1.325   0.724
 9927SOL    HW230681   1.542   1.249   0.756
 9928SOL     OW30682   4.927   4.545   3.393
 9928SOL    HW130683   4.988   4.624   3.385
 9928SOL    HW230684   4.897   4.517   3.302
 9929SOL     OW30685   3.611   4.153   4.661
 9929SOL    HW130686   3.536   4.094   4.691
 9929SOL    HW230687   3.685   4.149   4.729
 9930SOL     OW30688   0.411   6.856   5.982
 9930SOL    HW130689   0.394   6.758   5.988
 9930SOL    HW230690   0.330   6.906   6.010
 9931SOL     OW30691   6.868   4.864   4.963
 9931SOL    HW130692   6.794   4.886   4.900
 9931SOL    HW230693   6.848   4.903   5.053
 9932SOL     OW30694   2.513   2.935   5.591
 9932SOL    HW130695   2.423   2.918   5.632
 9932SOL    HW230696   2.559   2.848   5.575
 9933SOL     OW30697   2.318   6.554   4.139
 9933SOL    HW130698   2.399   6.588   4.187
 9933SOL    HW230699   2.243   6.620   4.148
 9934SOL     OW30700   0.477   2.224   6.200
 9934SOL    HW130701   0.398   2.286   6.204
 9934SOL    HW230702   0.531   2.235   6.283
 9935SOL     OW30703   2.496   0.036   1.251
 9935SOL    HW130704   2.567   6.983   1.235
 9935SOL    HW230705   2.495   0.061   1.348
 9936SOL     OW30706   6.366   4.580   0.334
 9936SOL    HW130707   6.454   4.545   0.368
 9936SOL    HW230708   6.334   4.652   0.396
 9937SOL     OW30709   0.595   1.775   1.712
 9937SOL    HW130710   0.629   1.779   1.618
 9937SOL    HW230711   0.666   1.809   1.774
 9938SOL     OW30712   5.475   5.110   3.700
 9938SOL    HW130713   5.377   5.119   3.721
 9938SOL    HW230714   5.489   5.029   3.644
 9939SOL     OW30715   3.615   2.662   1.063
 9939SOL    HW130716   3.590   2.754   1.094
 9939SOL    HW230717   3.617   2.660   0.963
 9940SOL     OW30718   0.897   0.438   1.574
 9940SOL    HW130719   0.957   0.420   1.652
 9940SOL    HW230720   0.826   0.368   1.570
 9941SOL     OW30721   3.082   4.337   5.815
 9941SOL    HW130722   3.160   4.329   5.752
 9941SOL    HW230723   3.041   4.247   5.829
 9942SOL     OW30724   3.367   5.547   2.645
 9942SOL    HW130725   3.429   5.475   2.675
 9942SOL    HW230726   3.344   5.533   2.548
 9943SOL     OW30727   1.152   4.798   6.580
 9943SOL    HW130728   1.224   4.754   6.633
 9943SOL    HW230729   1.176   4.894   6.564
 9944SOL     OW30730   0.747   4.422   6.554
 9944SOL    HW130731   0.776   4.467   6.638
 9944SOL    HW230732   0.790   4.467   6.475
 9945SOL     OW30733   4.665   5.558   6.881
 9945SOL    HW130734   4.722   5.555   6.799
 9945SOL    HW230735   4.592   5.625   6.869
 9946SOL     OW30736   6.329   0.229   3.409
 9946SOL    HW130737   6.298   0.135   3.396
 9946SOL    HW230738   6.372   0.262   3.325
 9947SOL     OW30739   2.530   2.156   4.357
 9947SOL    HW130740   2.570   2.243   4.330
 9947SOL    HW230741   2.485   2.165   4.446
 9948SOL     OW30742   6.821   4.761   5.513
 9948SOL    HW130743   6.754   4.723   5.449
 9948SOL    HW230744   6.907   4.780   5.464
 9949SOL     OW30745   6.776   4.858   3.893
 9949SOL    HW130746   6.767   4.852   3.993
 9949SOL    HW230747   6.872   4.850   3.867
 9950SOL     OW30748   5.567   5.962   6.090
 9950SOL    HW130749   5.507   5.890   6.055
 9950SOL    HW230750   5.563   6.041   6.028
 9951SOL     OW30751   1.342   2.447   3.350
 9951SOL    HW130752   1.356   2.514   3.278
 9951SOL    HW230753   1.266   2.476   3.409
 9952SOL     OW30754   1.629   4.185   0.615
 9952SOL    HW130755   1.686   4.186   0.697
 9952SOL    HW230756   1.686   4.168   0.534
 9953SOL     OW30757   6.105   2.378   4.264
 9953SOL    HW130758   6.043   2.300   4.260
 9953SOL    HW230759   6.147   2.383   4.355
 9954SOL     OW30760   1.149   0.230   5.542
 9954SOL    HW130761   1.182   0.216   5.449
 9954SOL    HW230762   1.057   0.269   5.539
 9955SOL     OW30763   4.623   4.136   6.365
 9955SOL    HW130764   4.632   4.223   6.414
 9955SOL    HW230765   4.667   4.063   6.417
 9956SOL     OW30766   0.970   5.509   4.278
 9956SOL    HW130767   0.979   5.464   4.368
 9956SOL    HW230768   0.946   5.441   4.209
 9957SOL     OW30769   5.842   6.967   1.561
 9957SOL    HW130770   5.845   0.050   1.581
 9957SOL    HW230771   5.748   6.934   1.568
 9958SOL     OW30772   2.220   5.914   0.043
 9958SOL    HW130773   2.129   5.954   0.031
 9958SOL    HW230774   2.242   5.909   0.140
 9959SOL     OW30775   4.124   3.598   3.906
 9959SOL    HW130776   4.201   3.534   3.900
 9959SOL    HW230777   4.100   3.630   3.815
 9960SOL     OW30778   0.513   0.440   2.150
 9960SOL    HW130779   0.491   0.524   2.101
 9960SOL    HW230780   0.522   0.365   2.085
 9961SOL     OW30781   1.209   5.178   4.883
 9961SOL    HW130782   1.236   5.158   4.789
 9961SOL    HW230783   1.255   5.261   4.914
 9962SOL     OW30784   4.625   0.456   2.579
 9962SOL    HW130785   4.606   0.360   2.556
 9962SOL    HW230786   4.593   0.475   2.672
 9963SOL     OW30787   2.459   2.314   6.155
 9963SOL    HW130788   2.505   2.246   6.099
 9963SOL    HW230789   2.520   2.392   6.170
 9964SOL     OW30790   4.329   4.341   6.114
 9964SOL    HW130791   4.338   4.369   6.018
 9964SOL    HW230792   4.381   4.257   6.129
 9965SOL     OW30793   4.130   5.213   5.574
 9965SOL    HW130794   4.033   5.191   5.586
 9965SOL    HW230795   4.180   5.190   5.658
 9966SOL     OW30796   2.550   5.811   2.109
 9966SOL    HW130797   2.619   5.883   2.115
 9966SOL    HW230798   2.461   5.851   2.089
 9967SOL     OW30799   5.910   5.833   1.337
 9967SOL    HW130800   5.833   5.801   1.393
 9967SOL    HW230801   5.970   5.890   1.392
 9968SOL     OW30802   3.422   4.591   6.746
 9968SOL    HW130803   3.352   4.654   6.713
 9968SOL    HW230804   3.380   4.522   6.804
 9969SOL     OW30805   1.423   2.522   3.925
 9969SOL    HW130806   1.521   2.535   3.910
 9969SOL    HW230807   1.401   2.425   3.923
 9970SOL     OW30808   5.903   4.619   2.174
 9970SOL    HW130809   5.858   4.598   2.087
 9970SOL    HW230810   5.839   4.668   2.234
 9971SOL     OW30811   2.796   3.774   0.374
 9971SOL    HW130812   2.896   3.769   0.366
 9971SOL    HW230813   2.755   3.764   0.284
 9972SOL     OW30814   3.546   4.605   0.854
 9972SOL    HW130815   3.645   4.592   0.861
 9972SOL    HW230816   3.502   4.516   0.841
 9973SOL     OW30817   4.511   2.126   4.637
 9973SOL    HW130818   4.609   2.119   4.656
 9973SOL    HW230819   4.460   2.115   4.722
 9974SOL     OW30820   6.154   3.596   3.546
 9974SOL    HW130821   6.207   3.512   3.557
 9974SOL    HW230822   6.210   3.675   3.572
 9975SOL     OW30823   6.802   4.360   0.232
 9975SOL    HW130824   6.809   4.459   0.216
 9975SOL    HW230825   6.707   4.331   0.220
 9976SOL     OW30826   0.360   5.516   5.658
 9976SOL    HW130827   0.280   5.468   5.695
 9976SOL    HW230828   0.435   5.451   5.647
 9977SOL     OW30829   0.032   5.387   6.229
 9977SOL    HW130830   6.950   5.370   6.234
 9977SOL    HW230831   0.081   5.300   6.222
 9978SOL     OW30832   6.314   2.814   3.651
 9978SOL    HW130833   6.317   2.893   3.712
 9978SOL    HW230834   6.371   2.741   3.687
 9979SOL     OW30835   6.120   4.728   6.053
 9979SOL    HW130836   6.203   4.779   6.076
 9979SOL    HW230837   6.116   4.644   6.107
 9980SOL     OW30838   1.756   1.432   6.678
 9980SOL    HW130839   1.840   1.408   6.727
 9980SOL    HW230840   1.716   1.514   6.718
 9981SOL     OW30841   2.435   1.661   1.220
 9981SOL    HW130842   2.471   1.704   1.137
 9981SOL    HW230843   2.446   1.723   1.297
 9982SOL     OW30844   0.665   1.282   3.198
 9982SOL    HW130845   0.597   1.209   3.200
 9982SOL    HW230846   0.652   1.338   3.116
 9983SOL     OW30847   1.287   2.228   2.417
 9983SOL    HW130848   1.226   2.161   2.374
 9983SOL    HW230849   1.260   2.320   2.388
 9984SOL     OW30850   1.414   0.119   0.891
 9984SOL    HW130851   1.327   0.162   0.866
 9984SOL    HW230852   1.486   0.153   0.831
 9985SOL     OW30853   2.833   0.955   2.153
 9985SOL    HW130854   2.845   0.858   2.176
 9985SOL    HW230855   2.922   0.995   2.132
 9986SOL     OW30856   5.214   3.979   6.672
 9986SOL    HW130857   5.169   3.976   6.761
 9986SOL    HW230858   5.289   3.914   6.669
 9987SOL     OW30859   5.817   1.751   3.121
 9987SOL    HW130860   5.808   1.848   3.099
 9987SOL    HW230861   5.744   1.700   3.076
 9988SOL     OW30862   0.192   4.999   5.289
 9988SOL    HW130863   0.172   5.050   5.205
 9988SOL    HW230864   0.192   5.061   5.367
 9989SOL     OW30865   5.458   4.396   2.826
 9989SOL    HW130866   5.431   4.310   2.869
 9989SOL    HW230867   5.557   4.397   2.813
 9990SOL     OW30868   2.392   0.385   2.432
 9990SOL    HW130869   2.459   0.458   2.443
 9990SOL    HW230870   2.414   0.309   2.493
 9991SOL     OW30871   1.969   3.379   4.569
 9991SOL    HW130872   1.976   3.464   4.621
 9991SOL    HW230873   1.965   3.301   4.632
 9992SOL     OW30874   4.545   3.640   0.347
 9992SOL    HW130875   4.641   3.630   0.373
 9992SOL    HW230876   4.522   3.738   0.343
 9993SOL     OW30877   4.005   0.324   1.871
 9993SOL    HW130878   3.923   0.381   1.866
 9993SOL    HW230879   4.015   0.287   1.963
 9994SOL     OW30880   6.800   3.852   4.013
 9994SOL    HW130881   6.757   3.943   4.019
 9994SOL    HW230882   6.890   3.860   3.971
 9995SOL     OW30883   2.746   0.306   2.478
 9995SOL    HW130884   2.660   0.296   2.428
 9995SOL    HW230885   2.750   0.237   2.550
 9996SOL     OW30886   2.825   3.502   1.565
 9996SOL    HW130887   2.789   3.409   1.561
 9996SOL    HW230888   2.812   3.540   1.656
 9997SOL     OW30889   4.416   2.042   0.780
 9997SOL    HW130890   4.487   1.981   0.815
 9997SOL    HW230891   4.377   2.003   0.697
 9998SOL     OW30892   6.773   3.822   1.939
 9998SOL    HW130893   6.800   3.906   1.985
 9998SOL    HW230894   6.781   3.834   1.840
 9999SOL     OW30895   6.209   4.279   4.635
 9999SOL    HW130896   6.120   4.245   4.666
 9999SOL    HW230897   6.207   4.379   4.630
10000SOL     OW30898   5.603   3.029   6.963
10000SOL    HW130899   5.666   2.952   6.956
10000SOL    HW230900   5.523   3.002   7.016
10001SOL     OW30901   5.283   1.344   2.021
10001SOL    HW130902   5.196   1.315   1.980
10001SOL    HW230903   5.265   1.410   2.094
10002SOL     OW30904   1.438   0.483   0.752
10002SOL    HW130905   1.418   0.494   0.849
10002SOL    HW230906   1.362   0.436   0.708
10003SOL     OW30907   3.699   1.831   3.593
10003SOL    HW130908   3.611   1.794   3.561
10003SOL    HW230909   3.706   1.927   3.569
10004SOL     OW30910   4.582   2.497   4.466
10004SOL    HW130911   4.680   2.517   4.468
10004SOL    HW230912   4.546   2.517   4.375
10005SOL     OW30913   4.710   6.648   3.399
10005SOL    HW130914   4.648   6.714   3.441
10005SOL    HW230915   4.770   6.608   3.469
10006SOL     OW30916   5.301   1.039   3.987
10006SOL    HW130917   5.247   1.075   3.910
10006SOL    HW230918   5.242   1.031   4.067
10007SOL     OW30919   0.675   4.676   4.865
10007SOL    HW130920   0.703   4.771   4.872
10007SOL    HW230921   0.687   4.631   4.954
10008SOL     OW30922   4.695   1.264   3.725
10008SOL    HW130923   4.789   1.255   3.756
10008SOL    HW230924   4.646   1.179   3.742
10009SOL     OW30925   1.851   4.014   1.551
10009SOL    HW130926   1.890   3.982   1.637
10009SOL    HW230927   1.764   4.060   1.569
10010SOL     OW30928   2.347   6.738   6.696
10010SOL    HW130929   2.325   6.815   6.636
10010SOL    HW230930   2.318   6.758   6.789
10011SOL     OW30931   6.087   1.921   4.841
10011SOL    HW130932   5.993   1.893   4.861
10011SOL    HW230933   6.087   2.002   4.782
10012SOL     OW30934   4.912   0.183   2.883
10012SOL    HW130935   4.848   0.113   2.852
10012SOL    HW230936   4.983   0.142   2.940
10013SOL     OW30937   1.459   1.533   3.633
10013SOL    HW130938   1.505   1.568   3.715
10013SOL    HW230939   1.363   1.517   3.654
10014SOL     OW30940   6.231   3.096   6.849
10014SOL    HW130941   6.222   3.010   6.900
10014SOL    HW230942   6.323   3.101   6.808
10015SOL     OW30943   2.293   4.368   0.654
10015SOL    HW130944   2.207   4.323   0.676
10015SOL    HW230945   2.355   4.364   0.732
10016SOL     OW30946   1.891   7.012   4.752
10016SOL    HW130947   1.943   6.942   4.800
10016SOL    HW230948   1.942   0.082   4.753
10017SOL     OW30949   2.258   2.271   2.172
10017SOL    HW130950   2.250   2.173   2.157
10017SOL    HW230951   2.249   2.291   2.270
10018SOL     OW30952   4.820   6.822   5.825
10018SOL    HW130953   4.786   6.906   5.783
10018SOL    HW230954   4.795   6.744   5.769
10019SOL     OW30955   1.341   1.669   3.078
10019SOL    HW130956   1.369   1.765   3.077
10019SOL    HW230957   1.348   1.631   2.986
10020SOL     OW30958   0.710   3.092   1.564
10020SOL    HW130959   0.764   3.176   1.573
10020SOL    HW230960   0.768   3.013   1.583
10021SOL     OW30961   0.379   3.047   1.044
10021SOL    HW130962   0.358   3.031   1.141
10021SOL    HW230963   0.294   3.063   0.994
10022SOL     OW30964   3.632   6.884   0.496
10022SOL    HW130965   3.541   6.923   0.508
10022SOL    HW230966   3.696   6.956   0.468
10023SOL     OW30967   1.662   5.065   6.150
10023SOL    HW130968   1.661   4.969   6.122
10023SOL    HW230969   1.595   5.079   6.222
10024SOL     OW30970   2.289   6.853   1.902
10024SOL    HW130971   2.262   6.824   1.810
10024SOL    HW230972   2.273   6.778   1.967
10025SOL     OW30973   1.185   1.291   1.583
10025SOL    HW130974   1.202   1.223   1.512
10025SOL    HW230975   1.091   1.282   1.615
10026SOL     OW30976   4.672   6.752   3.789
10026SOL    HW130977   4.701   6.660   3.817
10026SOL    HW230978   4.581   6.770   3.826
10027SOL     OW30979   0.306   4.058   5.084
10027SOL    HW130980   0.238   4.116   5.039
10027SOL    HW230981   0.282   4.048   5.180
10028SOL     OW30982   1.162   1.792   1.235
10028SOL    HW130983   1.079   1.802   1.291
10028SOL    HW230984   1.136   1.790   1.138
10029SOL     OW30985   3.516   2.134   4.210
10029SOL    HW130986   3.488   2.208   4.149
10029SOL    HW230987   3.458   2.054   4.194
10030SOL     OW30988   2.261   6.764   3.850
10030SOL    HW130989   2.348   6.722   3.873
10030SOL    HW230990   2.267   6.863   3.862
10031SOL     OW30991   6.125   5.062   3.831
10031SOL    HW130992   6.133   5.096   3.925
10031SOL    HW230993   6.059   5.118   3.782
10032SOL     OW30994   2.862   1.714   4.917
10032SOL    HW130995   2.825   1.743   5.006
10032SOL    HW230996   2.789   1.669   4.865
10033SOL     OW30997   5.324   2.324   3.590
10033SOL    HW130998   5.261   2.360   3.658
10033SOL    HW230999   5.317   2.225   3.586
10034SOL     OW31000   2.845   0.340   4.047
10034SOL    HW131001   2.889   0.250   4.057
10034SOL    HW231002   2.915   0.411   4.040
10035SOL     OW31003   6.372   4.336   1.841
10035SOL    HW131004   6.323   4.421   1.857
10035SOL    HW231005   6.453   4.354   1.785
10036SOL     OW31006   5.878   1.588   1.565
10036SOL    HW131007   5.942   1.511   1.566
10036SOL    HW231008   5.836   1.594   1.474
10037SOL     OW31009   6.712   0.885   0.873
10037SOL    HW131010   6.786   0.849   0.815
10037SOL    HW231011   6.635   0.910   0.815
10038SOL     OW31012   4.986   0.587   0.058
10038SOL    HW131013   4.929   0.506   0.043
10038SOL    HW231014   4.969   0.624   0.149
10039SOL     OW31015   3.501   0.360   3.277
10039SOL    HW131016   3.515   0.284   3.341
10039SOL    HW231017   3.404   0.371   3.259
10040SOL     OW31018   4.582   5.973   6.085
10040SOL    HW131019   4.515   5.937   6.020
10040SOL    HW231020   4.574   5.923   6.171
10041SOL     OW31021   4.308   6.011   6.707
10041SOL    HW131022   4.254   6.022   6.624
10041SOL    HW231023   4.323   6.101   6.749
10042SOL     OW31024   0.994   1.779   4.057
10042SOL    HW131025   0.967   1.694   4.103
10042SOL    HW231026   0.940   1.789   3.973
10043SOL     OW31027   6.562   1.208   5.153
10043SOL    HW131028   6.591   1.139   5.219
10043SOL    HW231029   6.476   1.248   5.183
10044SOL     OW31030   2.479   1.319   4.689
10044SOL    HW131031   2.506   1.264   4.610
10044SOL    HW231032   2.383   1.346   4.680
10045SOL     OW31033   3.835   0.184   2.991
10045SOL    HW131034   3.915   0.242   3.008
10045SOL    HW231035   3.778   0.182   3.073
10046SOL     OW31036   2.242   3.780   0.618
10046SOL    HW131037   2.219   3.876   0.604
10046SOL    HW231038   2.234   3.757   0.715
10047SOL     OW31039   0.860   3.513   4.774
10047SOL    HW131040   0.817   3.518   4.865
10047SOL    HW231041   0.959   3.512   4.784
10048SOL     OW31042   6.563   0.522   2.336
10048SOL    HW131043   6.465   0.541   2.334
10048SOL    HW231044   6.587   0.475   2.421
10049SOL     OW31045   1.092   1.984   5.805
10049SOL    HW131046   1.019   1.954   5.743
10049SOL    HW231047   1.172   1.925   5.794
10050SOL     OW31048   5.452   3.499   5.299
10050SOL    HW131049   5.449   3.410   5.253
10050SOL    HW231050   5.412   3.491   5.390
10051SOL     OW31051   6.315   4.183   5.335
10051SOL    HW131052   6.353   4.223   5.419
10051SOL    HW231053   6.361   4.222   5.256
10052SOL     OW31054   2.094   1.015   3.002
10052SOL    HW131055   2.160   1.056   3.065
10052SOL    HW231056   2.125   0.922   2.978
10053SOL     OW31057   4.388   5.515   3.275
10053SOL    HW131058   4.466   5.505   3.214
10053SOL    HW231059   4.319   5.573   3.232
10054SOL     OW31060   5.381   6.137   5.694
10054SOL    HW131061   5.304   6.122   5.757
10054SOL    HW231062   5.360   6.214   5.635
10055SOL     OW31063   5.796   1.483   5.392
10055SOL    HW131064   5.890   1.488   5.357
10055SOL    HW231065   5.793   1.420   5.469
10056SOL     OW31066   5.214   4.718   2.717
10056SOL    HW131067   5.244   4.687   2.807
10056SOL    HW231068   5.117   4.696   2.704
10057SOL     OW31069   4.510   3.257   5.333
10057SOL    HW131070   4.529   3.236   5.429
10057SOL    HW231071   4.596   3.260   5.281
10058SOL     OW31072   6.287   3.475   4.649
10058SOL    HW131073   6.349   3.538   4.604
10058SOL    HW231074   6.193   3.493   4.619
10059SOL     OW31075   0.352   1.754   6.659
10059SOL    HW131076   0.372   1.668   6.706
10059SOL    HW231077   0.266   1.745   6.609
10060SOL     OW31078   2.397   2.663   2.133
10060SOL    HW131079   2.474   2.613   2.094
10060SOL    HW231080   2.393   2.755   2.094
10061SOL     OW31081   4.737   1.533   3.695
10061SOL    HW131082   4.709   1.437   3.685
10061SOL    HW231083   4.736   1.559   3.791
10062SOL     OW31084   5.630   0.667   3.838
10062SOL    HW131085   5.611   0.691   3.743
10062SOL    HW231086   5.676   0.745   3.882
10063SOL     OW31087   3.236   1.363   4.474
10063SOL    HW131088   3.329   1.376   4.439
10063SOL    HW231089   3.232   1.387   4.571
10064SOL     OW31090   4.353   6.239   0.438
10064SOL    HW131091   4.326   6.170   0.370
10064SOL    HW231092   4.433   6.289   0.405
10065SOL     OW31093   2.557   0.732   2.329
10065SOL    HW131094   2.531   0.656   2.388
10065SOL    HW231095   2.643   0.710   2.282
10066SOL     OW31096   0.584   2.815   4.847
10066SOL    HW131097   0.674   2.824   4.890
10066SOL    HW231098   0.520   2.773   4.912
10067SOL     OW31099   0.111   3.403   5.379
10067SOL    HW131100   0.148   3.322   5.424
10067SOL    HW231101   0.083   3.470   5.449
10068SOL     OW31102   0.949   3.658   4.136
10068SOL    HW131103   0.885   3.636   4.063
10068SOL    HW231104   1.001   3.576   4.160
10069SOL     OW31105   3.098   5.074   1.941
10069SOL    HW131106   3.026   5.023   1.893
10069SOL    HW231107   3.184   5.025   1.935
10070SOL     OW31108   0.296   6.041   5.183
10070SOL    HW131109   0.210   5.991   5.191
10070SOL    HW231110   0.299   6.089   5.095
10071SOL     OW31111   0.029   6.220   4.625
10071SOL    HW131112   6.950   6.202   4.652
10071SOL    HW231113   0.061   6.146   4.566
10072SOL     OW31114   0.005   0.362   4.159
10072SOL    HW131115   0.095   0.343   4.122
10072SOL    HW231116   6.975   0.432   4.104
10073SOL     OW31117   6.958   3.763   4.232
10073SOL    HW131118   6.874   3.780   4.181
10073SOL    HW231119   0.020   3.804   4.184
10074SOL     OW31120   2.335   6.882   6.384
10074SOL    HW131121   2.382   6.802   6.345
10074SOL    HW231122   2.390   6.920   6.457
10075SOL     OW31123   1.701   2.332   1.945
10075SOL    HW131124   1.790   2.298   1.915
10075SOL    HW231125   1.644   2.255   1.973
10076SOL     OW31126   5.259   6.316   2.988
10076SOL    HW131127   5.234   6.357   3.075
10076SOL    HW231128   5.348   6.271   2.996
10077SOL     OW31129   4.024   3.436   0.833
10077SOL    HW131130   4.098   3.408   0.894
10077SOL    HW231131   4.027   3.535   0.820
10078SOL     OW31132   6.065   6.010   4.611
10078SOL    HW131133   6.083   5.968   4.700
10078SOL    HW231134   6.032   6.104   4.624
10079SOL     OW31135   6.048   3.291   3.017
10079SOL    HW131136   6.020   3.384   3.040
10079SOL    HW231137   5.974   3.245   2.967
10080SOL     OW31138   4.679   1.512   6.205
10080SOL    HW131139   4.595   1.565   6.215
10080SOL    HW231140   4.672   1.428   6.258
10081SOL     OW31141   0.819   1.691   6.921
10081SOL    HW131142   0.735   1.675   6.973
10081SOL    HW231143   0.892   1.632   6.955
10082SOL     OW31144   0.650   5.375   2.330
10082SOL    HW131145   0.694   5.306   2.273
10082SOL    HW231146   0.572   5.335   2.378
10083SOL     OW31147   3.067   0.362   3.785
10083SOL    HW131148   3.157   0.352   3.826
10083SOL    HW231149   3.065   0.314   3.697
10084SOL     OW31150   0.577   0.356   5.552
10084SOL    HW131151   0.588   0.321   5.459
10084SOL    HW231152   0.481   0.373   5.571
10085SOL     OW31153   3.383   0.085   0.992
10085SOL    HW131154   3.334   0.057   0.909
10085SOL    HW231155   3.418   0.004   1.039
10086SOL     OW31156   5.869   5.863   3.113
10086SOL    HW131157   5.900   5.933   3.049
10086SOL    HW231158   5.891   5.891   3.207
10087SOL     OW31159   6.196   5.898   4.350
10087SOL    HW131160   6.143   5.918   4.432
10087SOL    HW231161   6.134   5.882   4.274
10088SOL     OW31162   6.898   0.145   1.686
10088SOL    HW131163   6.904   0.222   1.623
10088SOL    HW231164   6.864   0.177   1.774
10089SOL     OW31165   3.223   2.075   3.146
10089SOL    HW131166   3.183   2.106   3.059
10089SOL    HW231167   3.321   2.096   3.147
10090SOL     OW31168   0.081   5.193   2.179
10090SOL    HW131169   0.027   5.176   2.096
10090SOL    HW231170   0.071   5.289   2.206
10091SOL     OW31171   6.745   5.787   6.483
10091SOL    HW131172   6.656   5.809   6.524
10091SOL    HW231173   6.740   5.696   6.442
10092SOL     OW31174   1.537   2.576   6.045
10092SOL    HW131175   1.612   2.641   6.040
10092SOL    HW231176   1.491   2.585   6.133
10093SOL     OW31177   4.756   3.320   5.260
10093SOL    HW131178   4.846   3.310   5.303
10093SOL    HW231179   4.731   3.417   5.259
10094SOL     OW31180   2.189   6.165   1.002
10094SOL    HW131181   2.181   6.136   1.097
10094SOL    HW231182   2.272   6.220   0.991
10095SOL     OW31183   4.944   1.595   4.590
10095SOL    HW131184   5.037   1.631   4.588
10095SOL    HW231185   4.890   1.645   4.657
10096SOL     OW31186   4.437   6.710   2.734
10096SOL    HW131187   4.518   6.680   2.684
10096SOL    HW231188   4.441   6.675   2.828
10097SOL     OW31189   1.931   2.200   6.838
10097SOL    HW131190   1.899   2.211   6.932
10097SOL    HW231191   2.010   2.260   6.823
10098SOL     OW31192   2.914   6.833   4.943
10098SOL    HW131193   2.932   6.916   4.891
10098SOL    HW231194   2.815   6.817   4.948
10099SOL     OW31195   7.013   4.832   1.827
10099SOL    HW131196   6.973   4.869   1.744
10099SOL    HW231197   7.003   4.732   1.828
10100SOL     OW31198   5.204   6.093   5.200
10100SOL    HW131199   5.302   6.082   5.185
10100SOL    HW231200   5.190   6.147   5.283
10101SOL     OW31201   6.918   3.536   1.775
10101SOL    HW131202   6.944   3.443   1.748
10101SOL    HW231203   7.000   3.591   1.790
10102SOL     OW31204   6.900   0.698   1.107
10102SOL    HW131205   6.926   0.615   1.058
10102SOL    HW231206   6.872   0.768   1.042
10103SOL     OW31207   1.890   0.409   5.414
10103SOL    HW131208   1.908   0.499   5.454
10103SOL    HW231209   1.902   0.415   5.315
10104SOL     OW31210   1.300   1.154   5.352
10104SOL    HW131211   1.269   1.064   5.320
10104SOL    HW231212   1.352   1.199   5.279
10105SOL     OW31213   1.963   0.470   5.878
10105SOL    HW131214   1.916   0.415   5.946
10105SOL    HW231215   2.059   0.483   5.905
10106SOL     OW31216   4.097   6.517   0.974
10106SOL    HW131217   4.148   6.559   1.049
10106SOL    HW231218   4.150   6.526   0.889
10107SOL     OW31219   5.370   1.460   6.156
10107SOL    HW131220   5.444   1.525   6.140
10107SOL    HW231221   5.397   1.394   6.226
10108SOL     OW31222   0.375   2.077   0.078
10108SOL    HW131223   0.431   2.104   7.016
10108SOL    HW231224   0.345   2.159   0.127
10109SOL     OW31225   0.623   1.048   0.919
10109SOL    HW131226   0.722   1.048   0.904
10109SOL    HW231227   0.577   1.081   0.837
10110SOL     OW31228   4.503   4.446   4.089
10110SOL    HW131229   4.535   4.390   4.012
10110SOL    HW231230   4.508   4.392   4.173
10111SOL     OW31231   0.001   3.713   3.262
10111SOL    HW131232   0.044   3.796   3.295
10111SOL    HW231233   6.985   3.658   3.339
10112SOL     OW31234   5.780   3.669   2.670
10112SOL    HW131235   5.811   3.735   2.602
10112SOL    HW231236   5.848   3.596   2.679
10113SOL     OW31237   4.352   0.129   0.915
10113SOL    HW131238   4.362   0.223   0.882
10113SOL    HW231239   4.268   0.090   0.878
10114SOL     OW31240   4.214   1.836   3.094
10114SOL    HW131241   4.231   1.802   3.186
10114SOL    HW231242   4.291   1.892   3.064
10115SOL     OW31243   3.826   1.735   4.997
10115SOL    HW131244   3.845   1.760   4.902
10115SOL    HW231245   3.740   1.778   5.026
10116SOL     OW31246   0.473   6.666   6.894
10116SOL    HW131247   0.518   6.581   6.870
10116SOL    HW231248   0.506   6.739   6.834
10117SOL     OW31249   6.906   6.354   5.987
10117SOL    HW131250   6.932   6.269   5.940
10117SOL    HW231251   6.894   6.427   5.919
10118SOL     OW31252   2.419   4.525   3.933
10118SOL    HW131253   2.347   4.465   3.899
10118SOL    HW231254   2.426   4.516   4.032
10119SOL     OW31255   6.169   4.826   3.697
10119SOL    HW131256   6.083   4.781   3.674
10119SOL    HW231257   6.150   4.907   3.753
10120SOL     OW31258   1.851   3.205   3.996
10120SOL    HW131259   1.757   3.192   3.963
10120SOL    HW231260   1.857   3.170   4.090
10121SOL     OW31261   5.995   3.997   0.390
10121SOL    HW131262   6.060   3.934   0.434
10121SOL    HW231263   5.902   3.972   0.417
10122SOL     OW31264   6.048   2.286   3.676
10122SOL    HW131265   6.106   2.224   3.622
10122SOL    HW231266   6.069   2.276   3.773
10123SOL     OW31267   6.043   6.404   1.229
10123SOL    HW131268   5.992   6.438   1.308
10123SOL    HW231269   6.019   6.458   1.148
10124SOL     OW31270   1.455   5.239   0.771
10124SOL    HW131271   1.510   5.156   0.779
10124SOL    HW231272   1.369   5.217   0.725
10125SOL     OW31273   2.614   1.469   0.728
10125SOL    HW131274   2.556   1.520   0.665
10125SOL    HW231275   2.567   1.385   0.758
10126SOL     OW31276   6.812   6.898   5.968
10126SOL    HW131277   6.827   6.964   6.042
10126SOL    HW231278   6.718   6.906   5.935
10127SOL     OW31279   2.184   3.369   0.546
10127SOL    HW131280   2.096   3.322   0.533
10127SOL    HW231281   2.167   3.467   0.560
10128SOL     OW31282   2.723   1.038   5.988
10128SOL    HW131283   2.637   1.089   5.979
10128SOL    HW231284   2.750   1.035   6.084
10129SOL     OW31285   0.009   2.248   2.287
10129SOL    HW131286   6.986   2.324   2.236
10129SOL    HW231287   0.007   2.165   2.230
10130SOL     OW31288   0.712   3.362   1.652
10130SOL    HW131289   0.755   3.305   1.723
10130SOL    HW231290   0.773   3.438   1.630
10131SOL     OW31291   1.356   0.352   4.276
10131SOL    HW131292   1.322   0.306   4.358
10131SOL    HW231293   1.445   0.394   4.295
10132SOL     OW31294   1.435   0.356   2.992
10132SOL    HW131295   1.499   0.403   3.052
10132SOL    HW231296   1.424   0.261   3.021
10133SOL     OW31297   4.660   6.391   0.845
10133SOL    HW131298   4.647   6.387   0.945
10133SOL    HW231299   4.715   6.472   0.823
10134SOL     OW31300   6.170   1.307   3.241
10134SOL    HW131301   6.136   1.226   3.289
10134SOL    HW231302   6.154   1.296   3.142
10135SOL     OW31303   4.607   2.189   3.516
10135SOL    HW131304   4.687   2.249   3.511
10135SOL    HW231305   4.524   2.243   3.501
10136SOL     OW31306   5.649   2.322   2.195
10136SOL    HW131307   5.655   2.413   2.153
10136SOL    HW231308   5.590   2.264   2.140
10137SOL     OW31309   0.299   4.876   5.806
10137SOL    HW131310   0.250   4.789   5.799
10137SOL    HW231311   0.391   4.866   5.768
10138SOL     OW31312   5.568   2.836   0.692
10138SOL    HW131313   5.512   2.756   0.714
10138SOL    HW231314   5.534   2.878   0.608
10139SOL     OW31315   3.123   3.655   4.874
10139SOL    HW131316   3.040   3.668   4.928
10139SOL    HW231317   3.203   3.682   4.928
10140SOL     OW31318   0.256   6.335   6.372
10140SOL    HW131319   0.225   6.422   6.409
10140SOL    HW231320   0.194   6.307   6.298
10141SOL     OW31321   4.264   0.901   4.499
10141SOL    HW131322   4.217   0.952   4.572
10141SOL    HW231323   4.356   0.937   4.488
10142SOL     OW31324   6.124   6.686   5.661
10142SOL    HW131325   6.118   6.592   5.695
10142SOL    HW231326   6.053   6.741   5.703
10143SOL     OW31327   5.705   2.702   0.169
10143SOL    HW131328   5.788   2.659   0.205
10143SOL    HW231329   5.626   2.669   0.220
10144SOL     OW31330   4.827   6.599   5.069
10144SOL    HW131331   4.728   6.601   5.084
10144SOL    HW231332   4.852   6.512   5.027
10145SOL     OW31333   3.707   5.902   3.231
10145SOL    HW131334   3.667   5.993   3.240
10145SOL    HW231335   3.673   5.843   3.305
10146SOL     OW31336   6.798   4.136   4.439
10146SOL    HW131337   6.706   4.097   4.438
10146SOL    HW231338   6.799   4.218   4.496
10147SOL     OW31339   4.904   4.543   6.461
10147SOL    HW131340   4.991   4.533   6.510
10147SOL    HW231341   4.829   4.513   6.520
10148SOL     OW31342   5.659   3.951   0.718
10148SOL    HW131343   5.689   3.868   0.671
10148SOL    HW231344   5.739   4.009   0.735
10149SOL     OW31345   5.188   4.866   1.344
10149SOL    HW131346   5.251   4.875   1.422
10149SOL    HW231347   5.154   4.772   1.341
10150SOL     OW31348   4.640   3.212   1.493
10150SOL    HW131349   4.682   3.154   1.562
10150SOL    HW231350   4.704   3.226   1.417
10151SOL     OW31351   0.651   6.868   6.128
10151SOL    HW131352   0.582   6.841   6.195
10151SOL    HW231353   0.607   6.889   6.041
10152SOL     OW31354   6.388   5.673   3.968
10152SOL    HW131355   6.351   5.624   4.047
10152SOL    HW231356   6.342   5.761   3.958
10153SOL     OW31357   4.583   5.894   4.356
10153SOL    HW131358   4.625   5.864   4.442
10153SOL    HW231359   4.644   5.874   4.280
10154SOL     OW31360   3.098   6.531   6.180
10154SOL    HW131361   3.043   6.614   6.187
10154SOL    HW231362   3.147   6.516   6.266
10155SOL     OW31363   4.879   2.586   5.633
10155SOL    HW131364   4.935   2.663   5.601
10155SOL    HW231365   4.787   2.618   5.656
10156SOL     OW31366   5.240   0.540   1.292
10156SOL    HW131367   5.270   0.548   1.387
10156SOL    HW231368   5.151   0.495   1.289
10157SOL     OW31369   6.916   2.280   0.061
10157SOL    HW131370   6.962   2.286   0.149
10157SOL    HW231371   6.952   2.203   0.009
10158SOL     OW31372   6.117   6.657   2.050
10158SOL    HW131373   6.194   6.593   2.044
10158SOL    HW231374   6.048   6.632   1.982
10159SOL     OW31375   3.781   3.271   2.876
10159SOL    HW131376   3.765   3.369   2.866
10159SOL    HW231377   3.708   3.220   2.831
10160SOL     OW31378   1.663   3.735   3.324
10160SOL    HW131379   1.601   3.764   3.397
10160SOL    HW231380   1.646   3.639   3.301
10161SOL     OW31381   3.659   4.999   0.052
10161SOL    HW131382   3.595   5.019   0.127
10161SOL    HW231383   3.607   4.962   6.990
10162SOL     OW31384   2.196   4.013   0.947
10162SOL    HW131385   2.288   3.979   0.927
10162SOL    HW231386   2.200   4.075   1.026
10163SOL     OW31387   0.767   5.372   6.349
10163SOL    HW131388   0.733   5.412   6.434
10163SOL    HW231389   0.695   5.374   6.280
10164SOL     OW31390   5.904   3.100   4.202
10164SOL    HW131391   5.940   3.128   4.291
10164SOL    HW231392   5.889   3.180   4.144
10165SOL     OW31393   6.348   3.020   3.799
10165SOL    HW131394   6.357   2.981   3.891
10165SOL    HW231395   6.265   3.075   3.794
10166SOL     OW31396   1.220   2.064   1.193
10166SOL    HW131397   1.282   2.104   1.260
10166SOL    HW231398   1.183   1.978   1.228
10167SOL     OW31399   6.923   5.633   0.303
10167SOL    HW131400   6.941   5.537   0.323
10167SOL    HW231401   6.948   5.688   0.382
10168SOL     OW31402   6.390   1.812   6.182
10168SOL    HW131403   6.356   1.905   6.166
10168SOL    HW231404   6.382   1.790   6.279
10169SOL     OW31405   6.463   3.886   3.363
10169SOL    HW131406   6.381   3.926   3.321
10169SOL    HW231407   6.545   3.926   3.322
10170SOL     OW31408   6.448   5.551   6.289
10170SOL    HW131409   6.496   5.467   6.312
10170SOL    HW231410   6.510   5.611   6.237
10171SOL     OW31411   0.547   2.688   4.587
10171SOL    HW131412   0.456   2.667   4.623
10171SOL    HW231413   0.601   2.735   4.657
10172SOL     OW31414   0.388   0.007   4.497
10172SOL    HW131415   0.405   0.067   4.575
10172SOL    HW231416   0.463   6.957   4.488
10173SOL     OW31417   2.593   3.426   6.660
10173SOL    HW131418   2.671   3.419   6.597
10173SOL    HW231419   2.508   3.435   6.607
10174SOL     OW31420   4.408   4.532   3.653
10174SOL    HW131421   4.366   4.537   3.743
10174SOL    HW231422   4.349   4.576   3.586
10175SOL     OW31423   6.305   1.612   3.887
10175SOL    HW131424   6.382   1.612   3.823
10175SOL    HW231425   6.329   1.663   3.969
10176SOL     OW31426   6.319   3.521   5.462
10176SOL    HW131427   6.232   3.473   5.451
10176SOL    HW231428   6.314   3.611   5.418
10177SOL     OW31429   1.675   6.743   1.079
10177SOL    HW131430   1.634   6.812   1.139
10177SOL    HW231431   1.604   6.698   1.026
10178SOL     OW31432   1.867   1.263   0.795
10178SOL    HW131433   1.952   1.289   0.748
10178SOL    HW231434   1.826   1.185   0.748
10179SOL     OW31435   0.521   3.828   6.648
10179SOL    HW131436   0.507   3.730   6.662
10179SOL    HW231437   0.491   3.853   6.556
10180SOL     OW31438   4.408   0.659   0.423
10180SOL    HW131439   4.346   0.682   0.348
10180SOL    HW231440   4.485   0.605   0.387
10181SOL     OW31441   0.642   3.164   1.043
10181SOL    HW131442   0.551   3.123   1.033
10181SOL    HW231443   0.691   3.119   1.117
10182SOL     OW31444   5.218   1.085   0.072
10182SOL    HW131445   5.202   1.005   0.014
10182SOL    HW231446   5.145   1.093   0.139
10183SOL     OW31447   6.076   2.936   6.206
10183SOL    HW131448   5.978   2.934   6.188
10183SOL    HW231449   6.118   3.013   6.156
10184SOL     OW31450   5.297   2.950   7.015
10184SOL    HW131451   5.233   2.917   0.069
10184SOL    HW231452   5.348   2.873   6.977
10185SOL     OW31453   5.549   6.425   2.451
10185SOL    HW131454   5.634   6.440   2.399
10185SOL    HW231455   5.541   6.327   2.472
10186SOL     OW31456   4.942   3.846   4.872
10186SOL    HW131457   4.931   3.755   4.911
10186SOL    HW231458   5.027   3.887   4.906
10187SOL     OW31459   1.764   4.294   5.475
10187SOL    HW131460   1.711   4.259   5.553
10187SOL    HW231461   1.803   4.383   5.498
10188SOL     OW31462   2.612   5.136   6.587
10188SOL    HW131463   2.687   5.199   6.566
10188SOL    HW231464   2.535   5.187   6.624
10189SOL     OW31465   1.833   0.787   6.348
10189SOL    HW131466   1.743   0.752   6.373
10189SOL    HW231467   1.828   0.886   6.333
10190SOL     OW31468   4.448   3.400   1.744
10190SOL    HW131469   4.546   3.411   1.733
10190SOL    HW231470   4.404   3.490   1.744
10191SOL     OW31471   5.683   5.874   0.398
10191SOL    HW131472   5.702   5.777   0.384
10191SOL    HW231473   5.645   5.887   0.490
10192SOL     OW31474   3.238   1.891   5.048
10192SOL    HW131475   3.296   1.958   5.001
10192SOL    HW231476   3.197   1.830   4.981
10193SOL     OW31477   2.940   3.796   2.468
10193SOL    HW131478   3.008   3.852   2.514
10193SOL    HW231479   2.916   3.838   2.381
10194SOL     OW31480   4.575   0.559   4.737
10194SOL    HW131481   4.539   0.473   4.771
10194SOL    HW231482   4.645   0.593   4.800
10195SOL     OW31483   0.025   6.950   1.801
10195SOL    HW131484   0.114   6.914   1.776
10195SOL    HW231485   7.011   0.002   1.732
10196SOL     OW31486   5.187   1.953   3.068
10196SOL    HW131487   5.102   1.915   3.032
10196SOL    HW231488   5.247   1.978   2.992
10197SOL     OW31489   4.755   1.665   3.936
10197SOL    HW131490   4.825   1.731   3.909
10197SOL    HW231491   4.795   1.595   3.995
10198SOL     OW31492   3.602   6.503   0.877
10198SOL    HW131493   3.614   6.538   0.784
10198SOL    HW231494   3.686   6.518   0.929
10199SOL     OW31495   0.494   1.908   6.355
10199SOL    HW131496   0.548   1.953   6.426
10199SOL    HW231497   0.414   1.864   6.396
10200SOL     OW31498   5.042   3.318   5.184
10200SOL    HW131499   5.123   3.315   5.126
10200SOL    HW231500   5.059   3.267   5.268
10201SOL     OW31501   0.508   5.969   1.325
10201SOL    HW131502   0.445   5.975   1.248
10201SOL    HW231503   0.560   6.054   1.332
10202SOL     OW31504   1.419   3.605   0.421
10202SOL    HW131505   1.319   3.602   0.416
10202SOL    HW231506   1.457   3.591   0.330
10203SOL     OW31507   1.229   2.912   1.574
10203SOL    HW131508   1.320   2.902   1.533
10203SOL    HW231509   1.233   2.886   1.671
10204SOL     OW31510   3.373   5.462   6.434
10204SOL    HW131511   3.381   5.364   6.452
10204SOL    HW231512   3.370   5.479   6.336
10205SOL     OW31513   3.190   1.410   2.533
10205SOL    HW131514   3.132   1.343   2.579
10205SOL    HW231515   3.286   1.383   2.539
10206SOL     OW31516   4.910   6.442   6.657
10206SOL    HW131517   4.829   6.461   6.713
10206SOL    HW231518   4.884   6.439   6.561
10207SOL     OW31519   2.051   1.136   0.536
10207SOL    HW131520   1.959   1.096   0.538
10207SOL    HW231521   2.114   1.077   0.587
10208SOL     OW31522   6.293   4.797   4.070
10208SOL    HW131523   6.248   4.837   4.150
10208SOL    HW231524   6.345   4.868   4.022
10209SOL     OW31525   0.661   0.388   5.802
10209SOL    HW131526   0.728   0.460   5.822
10209SOL    HW231527   0.645   0.384   5.703
10210SOL     OW31528   5.042   6.979   1.623
10210SOL    HW131529   4.946   6.958   1.642
10210SOL    HW231530   5.079   6.910   1.560
10211SOL     OW31531   4.231   6.244   5.312
10211SOL    HW131532   4.277   6.333   5.323
10211SOL    HW231533   4.258   6.203   5.225
10212SOL     OW31534   0.127   1.109   4.865
10212SOL    HW131535   0.135   1.186   4.929
10212SOL    HW231536   0.070   1.038   4.904
10213SOL     OW31537   5.792   2.316   1.843
10213SOL    HW131538   5.762   2.378   1.916
10213SOL    HW231539   5.759   2.349   1.755
10214SOL     OW31540   0.935   1.979   2.468
10214SOL    HW131541   1.017   1.991   2.413
10214SOL    HW231542   0.932   2.048   2.540
10215SOL     OW31543   3.415   2.889   4.371
10215SOL    HW131544   3.331   2.933   4.338
10215SOL    HW231545   3.478   2.877   4.295
10216SOL     OW31546   0.940   0.135   0.676
10216SOL    HW131547   1.012   0.078   0.716
10216SOL    HW231548   0.966   0.161   0.583
10217SOL     OW31549   2.649   1.578   4.018
10217SOL    HW131550   2.556   1.611   4.005
10217SOL    HW231551   2.695   1.569   3.929
10218SOL     OW31552   1.645   0.770   1.771
10218SOL    HW131553   1.612   0.862   1.793
10218SOL    HW231554   1.741   0.762   1.796
10219SOL     OW31555   0.592   3.179   2.091
10219SOL    HW131556   0.493   3.196   2.094
10219SOL    HW231557   0.619   3.128   2.173
10220SOL     OW31558   4.307   1.546   2.130
10220SOL    HW131559   4.334   1.471   2.191
10220SOL    HW231560   4.213   1.533   2.100
10221SOL     OW31561   1.767   2.334   3.675
10221SOL    HW131562   1.694   2.266   3.670
10221SOL    HW231563   1.834   2.318   3.603
10222SOL     OW31564   2.220   2.836   6.322
10222SOL    HW131565   2.241   2.930   6.296
10222SOL    HW231566   2.268   2.773   6.261
10223SOL     OW31567   1.493   6.114   6.757
10223SOL    HW131568   1.560   6.127   6.829
10223SOL    HW231569   1.486   6.198   6.703
10224SOL     OW31570   6.451   1.602   5.091
10224SOL    HW131571   6.403   1.567   5.010
10224SOL    HW231572   6.419   1.694   5.112
10225SOL     OW31573   1.950   6.269   5.783
10225SOL    HW131574   1.998   6.183   5.798
10225SOL    HW231575   1.874   6.255   5.720
10226SOL     OW31576   2.558   0.114   7.006
10226SOL    HW131577   2.461   0.102   0.007
10226SOL    HW231578   2.611   0.065   0.060
10227SOL     OW31579   5.051   5.056   0.868
10227SOL    HW131580   5.126   5.094   0.815
10227SOL    HW231581   5.039   4.959   0.844
10228SOL     OW31582   1.224   5.553   2.217
10228SOL    HW131583   1.268   5.599   2.295
10228SOL    HW231584   1.125   5.567   2.222
10229SOL     OW31585   0.364   1.270   4.252
10229SOL    HW131586   0.269   1.298   4.239
10229SOL    HW231587   0.370   1.170   4.254
10230SOL     OW31588   6.239   6.760   3.443
10230SOL    HW131589   6.220   6.670   3.482
10230SOL    HW231590   6.256   6.751   3.345
10231SOL     OW31591   6.726   5.634   5.907
10231SOL    HW131592   6.796   5.660   5.973
10231SOL    HW231593   6.754   5.550   5.860
10232SOL     OW31594   2.492   0.620   3.836
10232SOL    HW131595   2.510   0.718   3.828
10232SOL    HW231596   2.505   0.593   3.932
10233SOL     OW31597   4.962   3.572   5.246
10233SOL    HW131598   4.887   3.594   5.182
10233SOL    HW231599   5.003   3.485   5.219
10234SOL     OW31600   4.924   1.077   1.076
10234SOL    HW131601   5.004   1.019   1.094
10234SOL    HW231602   4.858   1.066   1.150
10235SOL     OW31603   4.983   2.732   0.385
10235SOL    HW131604   5.010   2.677   0.464
10235SOL    HW231605   4.914   2.682   0.332
10236SOL     OW31606   2.194   6.688   2.130
10236SOL    HW131607   2.243   6.731   2.207
10236SOL    HW231608   2.161   6.598   2.158
10237SOL     OW31609   6.298   3.635   1.032
10237SOL    HW131610   6.236   3.557   1.018
10237SOL    HW231611   6.392   3.604   1.025
10238SOL     OW31612   3.284   4.111   3.915
10238SOL    HW131613   3.370   4.151   3.947
10238SOL    HW231614   3.285   4.013   3.931
10239SOL     OW31615   0.912   4.297   5.138
10239SOL    HW131616   0.995   4.250   5.106
10239SOL    HW231617   0.934   4.392   5.161
10240SOL     OW31618   2.278   5.108   3.148
10240SOL    HW131619   2.314   5.194   3.182
10240SOL    HW231620   2.202   5.126   3.085
10241SOL     OW31621   7.012   0.659   2.334
10241SOL    HW131622   0.032   0.662   2.428
10241SOL    HW231623   6.982   0.567   2.312
10242SOL     OW31624   6.902   1.491   6.396
10242SOL    HW131625   6.954   1.446   6.324
10242SOL    HW231626   6.958   1.499   6.479
10243SOL     OW31627   0.719   4.909   1.396
10243SOL    HW131628   0.792   4.849   1.364
10243SOL    HW231629   0.757   4.999   1.421
10244SOL     OW31630   1.279   4.526   0.357
10244SOL    HW131631   1.339   4.548   0.434
10244SOL    HW231632   1.330   4.475   0.288
10245SOL     OW31633   3.007   5.087   0.096
10245SOL    HW131634   3.053   5.102   0.184
10245SOL    HW231635   2.942   5.161   0.080
10246SOL     OW31636   2.986   3.895   3.986
10246SOL    HW131637   2.964   3.823   4.052
10246SOL    HW231638   2.962   3.984   4.025
10247SOL     OW31639   0.147   5.189   5.505
10247SOL    HW131640   0.236   5.151   5.529
10247SOL    HW231641   0.153   5.289   5.503
10248SOL     OW31642   3.704   6.784   2.135
10248SOL    HW131643   3.741   6.855   2.074
10248SOL    HW231644   3.611   6.808   2.161
10249SOL     OW31645   3.640   1.296   6.134
10249SOL    HW131646   3.696   1.232   6.186
10249SOL    HW231647   3.646   1.273   6.037
10250SOL     OW31648   6.923   2.769   0.959
10250SOL    HW131649   6.984   2.737   0.886
10250SOL    HW231650   6.922   2.702   1.033
10251SOL     OW31651   2.812   1.954   5.123
10251SOL    HW131652   2.756   1.967   5.205
10251SOL    HW231653   2.903   1.993   5.138
10252SOL     OW31654   5.845   6.059   0.242
10252SOL    HW131655   5.885   6.014   0.162
10252SOL    HW231656   5.782   5.996   0.288
10253SOL     OW31657   4.965   5.910   0.348
10253SOL    HW131658   5.054   5.950   0.326
10253SOL    HW231659   4.919   5.882   0.263
10254SOL     OW31660   4.093   1.742   5.054
10254SOL    HW131661   3.994   1.734   5.044
10254SOL    HW231662   4.133   1.778   4.970
10255SOL     OW31663   1.951   5.854   1.465
10255SOL    HW131664   1.987   5.761   1.465
10255SOL    HW231665   1.899   5.869   1.549
10256SOL     OW31666   6.322   0.456   2.002
10256SOL    HW131667   6.419   0.445   2.023
10256SOL    HW231668   6.308   0.541   1.952
10257SOL     OW31669   1.840   5.336   4.138
10257SOL    HW131670   1.898   5.311   4.216
10257SOL    HW231671   1.804   5.428   4.152
10258SOL     OW31672   4.454   0.484   3.931
10258SOL    HW131673   4.436   0.389   3.906
10258SOL    HW231674   4.393   0.512   4.005
10259SOL     OW31675   0.312   4.539   3.280
10259SOL    HW131676   0.302   4.459   3.221
10259SOL    HW231677   0.338   4.618   3.224
10260SOL     OW31678   0.205   0.090   3.232
10260SOL    HW131679   0.225   0.005   3.185
10260SOL    HW231680   0.283   0.153   3.222
10261SOL     OW31681   6.348   5.453   3.201
10261SOL    HW131682   6.282   5.431   3.129
10261SOL    HW231683   6.440   5.434   3.167
10262SOL     OW31684   2.510   6.946   4.607
10262SOL    HW131685   2.417   6.977   4.629
10262SOL    HW231686   2.574   6.984   4.673
10263SOL     OW31687   4.646   0.916   6.230
10263SOL    HW131688   4.710   0.988   6.256
10263SOL    HW231689   4.678   0.829   6.269
10264SOL     OW31690   5.717   2.284   6.456
10264SOL    HW131691   5.726   2.292   6.356
10264SOL    HW231692   5.800   2.243   6.494
10265SOL     OW31693   3.396   1.929   3.320
10265SOL    HW131694   3.467   1.947   3.252
10265SOL    HW231695   3.310   1.971   3.290
10266SOL     OW31696   2.962   3.108   5.641
10266SOL    HW131697   2.883   3.168   5.626
10266SOL    HW231698   3.045   3.155   5.613
10267SOL     OW31699   5.529   1.754   6.938
10267SOL    HW131700   5.563   1.843   6.907
10267SOL    HW231701   5.443   1.766   6.987
10268SOL     OW31702   4.603   5.134   1.651
10268SOL    HW131703   4.611   5.096   1.558
10268SOL    HW231704   4.668   5.088   1.711
10269SOL     OW31705   1.081   2.599   5.092
10269SOL    HW131706   1.154   2.607   5.025
10269SOL    HW231707   1.023   2.680   5.088
10270SOL     OW31708   2.664   5.513   3.811
10270SOL    HW131709   2.749   5.461   3.800
10270SOL    HW231710   2.686   5.609   3.829
10271SOL     OW31711   3.928   2.718   0.372
10271SOL    HW131712   3.856   2.779   0.339
10271SOL    HW231713   4.014   2.768   0.381
10272SOL     OW31714   0.447   0.088   4.755
10272SOL    HW131715   0.377   0.092   4.826
10272SOL    HW231716   0.530   0.047   4.792
10273SOL     OW31717   4.258   5.233   3.717
10273SOL    HW131718   4.329   5.168   3.743
10273SOL    HW231719   4.168   5.195   3.740
10274SOL     OW31720   0.721   4.265   4.806
10274SOL    HW131721   0.765   4.347   4.768
10274SOL    HW231722   0.712   4.196   4.734
10275SOL     OW31723   0.751   6.369   2.333
10275SOL    HW131724   0.755   6.328   2.242
10275SOL    HW231725   0.786   6.462   2.329
10276SOL     OW31726   6.342   5.866   5.738
10276SOL    HW131727   6.359   5.770   5.760
10276SOL    HW231728   6.429   5.915   5.731
10277SOL     OW31729   2.955   5.389   4.226
10277SOL    HW131730   2.866   5.379   4.271
10277SOL    HW231731   2.988   5.299   4.196
10278SOL     OW31732   5.895   1.358   4.483
10278SOL    HW131733   5.856   1.431   4.427
10278SOL    HW231734   5.831   1.282   4.488
10279SOL     OW31735   2.289   5.824   4.484
10279SOL    HW131736   2.252   5.745   4.533
10279SOL    HW231737   2.344   5.879   4.547
10280SOL     OW31738   1.437   3.477   1.066
10280SOL    HW131739   1.482   3.540   1.130
10280SOL    HW231740   1.500   3.402   1.044
10281SOL     OW31741   6.179   1.732   2.843
10281SOL    HW131742   6.159   1.824   2.877
10281SOL    HW231743   6.141   1.664   2.905
10282SOL     OW31744   6.180   4.205   4.031
10282SOL    HW131745   6.213   4.291   4.070
10282SOL    HW231746   6.083   4.194   4.053
10283SOL     OW31747   0.832   3.411   0.372
10283SOL    HW131748   0.780   3.334   0.333
10283SOL    HW231749   0.798   3.432   0.463
10284SOL     OW31750   5.438   3.899   5.260
10284SOL    HW131751   5.450   3.829   5.189
10284SOL    HW231752   5.341   3.907   5.282
10285SOL     OW31753   4.569   1.332   1.054
10285SOL    HW131754   4.542   1.263   1.121
10285SOL    HW231755   4.668   1.342   1.055
10286SOL     OW31756   3.128   2.177   3.911
10286SOL    HW131757   3.132   2.227   3.825
10286SOL    HW231758   3.032   2.168   3.940
10287SOL     OW31759   2.581   6.239   1.671
10287SOL    HW131760   2.557   6.328   1.634
10287SOL    HW231761   2.560   6.167   1.605
10288SOL     OW31762   5.117   6.507   2.160
10288SOL    HW131763   5.142   6.435   2.096
10288SOL    HW231764   5.150   6.483   2.252
10289SOL     OW31765   3.100   0.971   2.193
10289SOL    HW131766   3.113   0.979   2.292
10289SOL    HW231767   3.168   0.906   2.156
10290SOL     OW31768   3.310   4.030   1.807
10290SOL    HW131769   3.249   4.078   1.869
10290SOL    HW231770   3.371   3.971   1.859
10291SOL     OW31771   4.212   1.523   4.147
10291SOL    HW131772   4.176   1.548   4.237
10291SOL    HW231773   4.311   1.516   4.152
10292SOL     OW31774   1.862   0.601   4.825
10292SOL    HW131775   1.772   0.616   4.784
10292SOL    HW231776   1.916   0.543   4.765
10293SOL     OW31777   2.259   5.880   4.075
10293SOL    HW131778   2.221   5.804   4.021
10293SOL    HW231779   2.206   5.891   4.159
10294SOL     OW31780   4.648   4.254   2.527
10294SOL    HW131781   4.557   4.241   2.568
10294SOL    HW231782   4.676   4.169   2.482
10295SOL     OW31783   6.108   5.435   5.771
10295SOL    HW131784   6.039   5.506   5.781
10295SOL    HW231785   6.070   5.347   5.802
10296SOL     OW31786   4.474   3.117   6.638
10296SOL    HW131787   4.477   3.142   6.735
10296SOL    HW231788   4.551   3.055   6.617
10297SOL     OW31789   1.907   6.616   5.642
10297SOL    HW131790   1.826   6.606   5.700
10297SOL    HW231791   1.905   6.706   5.598
10298SOL     OW31792   3.602   5.205   2.104
10298SOL    HW131793   3.663   5.248   2.038
10298SOL    HW231794   3.621   5.107   2.108
10299SOL     OW31795   4.956   4.903   2.793
10299SOL    HW131796   4.973   4.810   2.824
10299SOL    HW231797   4.902   4.901   2.709
10300SOL     OW31798   1.865   4.909   3.238
10300SOL    HW131799   1.852   4.995   3.288
10300SOL    HW231800   1.806   4.839   3.277
10301SOL     OW31801   6.533   2.381   3.458
10301SOL    HW131802   6.445   2.406   3.418
10301SOL    HW231803   6.604   2.388   3.388
10302SOL     OW31804   0.767   5.865   3.943
10302SOL    HW131805   0.686   5.923   3.936
10302SOL    HW231806   0.846   5.920   3.971
10303SOL     OW31807   2.407   5.353   1.712
10303SOL    HW131808   2.482   5.323   1.653
10303SOL    HW231809   2.347   5.415   1.660
10304SOL     OW31810   5.269   0.763   2.733
10304SOL    HW131811   5.325   0.703   2.790
10304SOL    HW231812   5.306   0.764   2.640
10305SOL     OW31813   0.624   5.108   6.890
10305SOL    HW131814   0.561   5.186   6.899
10305SOL    HW231815   0.712   5.131   6.930
10306SOL     OW31816   4.381   6.397   0.023
10306SOL    HW131817   4.435   6.473   0.059
10306SOL    HW231818   4.284   6.423   0.021
10307SOL     OW31819   2.163   1.902   4.418
10307SOL    HW131820   2.225   1.967   4.375
10307SOL    HW231821   2.163   1.917   4.517
10308SOL     OW31822   2.630   5.113   4.168
10308SOL    HW131823   2.725   5.098   4.196
10308SOL    HW231824   2.625   5.194   4.109
10309SOL     OW31825   6.239   0.867   3.379
10309SOL    HW131826   6.197   0.828   3.461
10309SOL    HW231827   6.336   0.882   3.396
10310SOL     OW31828   4.394   2.638   1.695
10310SOL    HW131829   4.437   2.583   1.624
10310SOL    HW231830   4.300   2.607   1.710
10311SOL     OW31831   0.561   5.493   1.505
10311SOL    HW131832   0.513   5.581   1.509
10311SOL    HW231833   0.529   5.435   1.580
10312SOL     OW31834   2.142   5.962   0.815
10312SOL    HW131835   2.165   6.046   0.865
10312SOL    HW231836   2.110   5.893   0.880
10313SOL     OW31837   3.709   6.999   1.449
10313SOL    HW131838   3.699   0.003   1.352
10313SOL    HW231839   3.722   0.068   1.500
10314SOL     OW31840   6.923   0.445   1.570
10314SOL    HW131841   6.947   0.404   1.482
10314SOL    HW231842   6.824   0.458   1.575
10315SOL     OW31843   5.985   5.569   4.606
10315SOL    HW131844   5.957   5.655   4.563
10315SOL    HW231845   5.953   5.567   4.701
10316SOL     OW31846   6.211   2.574   4.711
10316SOL    HW131847   6.201   2.564   4.613
10316SOL    HW231848   6.278   2.507   4.745
10317SOL     OW31849   3.337   5.932   6.215
10317SOL    HW131850   3.299   6.023   6.227
10317SOL    HW231851   3.304   5.872   6.288
10318SOL     OW31852   4.805   6.180   0.312
10318SOL    HW131853   4.848   6.098   0.274
10318SOL    HW231854   4.714   6.191   0.272
10319SOL     OW31855   1.425   2.761   5.516
10319SOL    HW131856   1.327   2.777   5.526
10319SOL    HW231857   1.475   2.837   5.559
10320SOL     OW31858   0.773   0.731   1.008
10320SOL    HW131859   0.751   0.654   1.068
10320SOL    HW231860   0.770   0.816   1.061
10321SOL     OW31861   4.010   0.431   3.628
10321SOL    HW131862   3.945   0.384   3.569
10321SOL    HW231863   3.968   0.514   3.666
10322SOL     OW31864   6.152   5.576   6.379
10322SOL    HW131865   6.053   5.571   6.363
10322SOL    HW231866   6.176   5.669   6.408
10323SOL     OW31867   6.325   3.859   5.955
10323SOL    HW131868   6.251   3.887   5.894
10323SOL    HW231869   6.328   3.759   5.959
10324SOL     OW31870   3.181   3.074   3.011
10324SOL    HW131871   3.108   3.050   3.075
10324SOL    HW231872   3.266   3.089   3.061
10325SOL     OW31873   6.683   4.487   2.978
10325SOL    HW131874   6.759   4.435   3.017
10325SOL    HW231875   6.630   4.529   3.052
10326SOL     OW31876   4.012   2.900   0.061
10326SOL    HW131877   3.922   2.881   0.101
10326SOL    HW231878   4.030   2.998   0.064
10327SOL     OW31879   2.644   1.526   1.866
10327SOL    HW131880   2.650   1.614   1.913
10327SOL    HW231881   2.717   1.466   1.900
10328SOL     OW31882   6.573   3.140   1.758
10328SOL    HW131883   6.627   3.217   1.793
10328SOL    HW231884   6.600   3.056   1.806
10329SOL     OW31885   3.747   0.456   3.898
10329SOL    HW131886   3.744   0.549   3.935
10329SOL    HW231887   3.699   0.453   3.810
10330SOL     OW31888   3.028   5.393   2.967
10330SOL    HW131889   2.941   5.385   2.918
10330SOL    HW231890   3.015   5.450   3.048
10331SOL     OW31891   6.599   0.507   3.506
10331SOL    HW131892   6.517   0.549   3.468
10331SOL    HW231893   6.680   0.542   3.457
10332SOL     OW31894   6.018   1.902   0.417
10332SOL    HW131895   6.104   1.933   0.376
10332SOL    HW231896   5.946   1.967   0.394
10333SOL     OW31897   6.451   4.270   4.513
10333SOL    HW131898   6.367   4.245   4.561
10333SOL    HW231899   6.480   4.193   4.456
10334SOL     OW31900   2.115   5.643   3.986
10334SOL    HW131901   2.019   5.666   3.999
10334SOL    HW231902   2.136   5.559   4.036
10335SOL     OW31903   2.171   4.940   6.941
10335SOL    HW131904   2.163   4.996   0.008
10335SOL    HW231905   2.159   4.844   6.965
10336SOL     OW31906   5.925   6.302   3.335
10336SOL    HW131907   5.891   6.343   3.250
10336SOL    HW231908   6.025   6.299   3.332
10337SOL     OW31909   6.442   6.701   5.346
10337SOL    HW131910   6.353   6.659   5.364
10337SOL    HW231911   6.487   6.652   5.271
10338SOL     OW31912   2.986   6.582   1.687
10338SOL    HW131913   2.927   6.663   1.693
10338SOL    HW231914   2.972   6.536   1.600
10339SOL     OW31915   3.744   4.899   0.834
10339SOL    HW131916   3.726   4.979   0.892
10339SOL    HW231917   3.798   4.833   0.886
10340SOL     OW31918   1.476   5.161   0.156
10340SOL    HW131919   1.510   5.237   0.101
10340SOL    HW231920   1.455   5.084   0.096
10341SOL     OW31921   2.181   3.248   1.563
10341SOL    HW131922   2.141   3.340   1.569
10341SOL    HW231923   2.158   3.196   1.645
10342SOL     OW31924   2.396   5.694   5.382
10342SOL    HW131925   2.477   5.746   5.355
10342SOL    HW231926   2.318   5.722   5.325
10343SOL     OW31927   2.412   4.001   0.294
10343SOL    HW131928   2.454   3.946   0.367
10343SOL    HW231929   2.384   3.941   0.219
10344SOL     OW31930   3.983   3.735   2.354
10344SOL    HW131931   4.033   3.691   2.280
10344SOL    HW231932   3.946   3.822   2.322
10345SOL     OW31933   1.789   0.572   6.060
10345SOL    HW131934   1.815   0.532   5.972
10345SOL    HW231935   1.862   0.632   6.092
10346SOL     OW31936   6.383   1.191   1.151
10346SOL    HW131937   6.463   1.242   1.122
10346SOL    HW231938   6.305   1.215   1.094
10347SOL     OW31939   5.336   2.506   1.629
10347SOL    HW131940   5.311   2.572   1.699
10347SOL    HW231941   5.326   2.548   1.539
10348SOL     OW31942   6.702   1.275   6.771
10348SOL    HW131943   6.687   1.204   6.701
10348SOL    HW231944   6.706   1.364   6.727
10349SOL     OW31945   6.805   1.539   0.047
10349SOL    HW131946   6.844   1.602   0.115
10349SOL    HW231947   6.743   1.475   0.093
10350SOL     OW31948   2.828   6.420   4.872
10350SOL    HW131949   2.863   6.503   4.830
10350SOL    HW231950   2.728   6.418   4.864
10351SOL     OW31951   6.123   5.160   5.912
10351SOL    HW131952   6.068   5.164   5.996
10351SOL    HW231953   6.195   5.092   5.922
10352SOL     OW31954   5.282   1.890   6.565
10352SOL    HW131955   5.234   1.803   6.554
10352SOL    HW231956   5.248   1.936   6.647
10353SOL     OW31957   6.710   3.038   4.267
10353SOL    HW131958   6.669   2.972   4.203
10353SOL    HW231959   6.764   3.105   4.215
10354SOL     OW31960   0.926   2.869   1.187
10354SOL    HW131961   0.843   2.867   1.242
10354SOL    HW231962   0.979   2.785   1.203
10355SOL     OW31963   1.399   0.800   0.791
10355SOL    HW131964   1.399   0.705   0.758
10355SOL    HW231965   1.484   0.844   0.765
10356SOL     OW31966   6.701   3.740   5.719
10356SOL    HW131967   6.682   3.744   5.621
10356SOL    HW231968   6.800   3.731   5.732
10357SOL     OW31969   3.774   2.516   5.677
10357SOL    HW131970   3.782   2.426   5.633
10357SOL    HW231971   3.776   2.588   5.607
10358SOL     OW31972   0.957   3.096   3.959
10358SOL    HW131973   0.903   3.153   3.897
10358SOL    HW231974   0.901   3.020   3.992
10359SOL     OW31975   5.018   1.964   1.913
10359SOL    HW131976   5.076   1.954   1.994
10359SOL    HW231977   5.058   2.032   1.852
10360SOL     OW31978   5.491   6.117   2.250
10360SOL    HW131979   5.489   6.025   2.213
10360SOL    HW231980   5.404   6.138   2.295
10361SOL     OW31981   2.611   1.104   2.627
10361SOL    HW131982   2.650   1.063   2.545
10361SOL    HW231983   2.511   1.094   2.624
10362SOL     OW31984   0.506   5.323   3.035
10362SOL    HW131985   0.417   5.354   3.069
10362SOL    HW231986   0.498   5.231   2.999
10363SOL     OW31987   5.392   2.483   1.296
10363SOL    HW131988   5.382   2.385   1.281
10363SOL    HW231989   5.488   2.506   1.309
10364SOL     OW31990   4.903   4.188   1.599
10364SOL    HW131991   4.859   4.246   1.530
10364SOL    HW231992   4.834   4.153   1.662
10365SOL     OW31993   6.007   4.799   0.166
10365SOL    HW131994   5.974   4.708   0.142
10365SOL    HW231995   6.044   4.843   0.085
10366SOL     OW31996   3.319   6.881   3.547
10366SOL    HW131997   3.384   6.934   3.600
10366SOL    HW231998   3.337   6.783   3.559
10367SOL     OW31999   0.249   2.010   1.629
10367SOL    HW132000   0.204   2.075   1.568
10367SOL    HW232001   0.195   1.927   1.636
10368SOL     OW32002   2.182   1.076   2.329
10368SOL    HW132003   2.110   1.087   2.261
10368SOL    HW232004   2.204   1.165   2.369
10369SOL     OW32005   2.732   6.623   5.900
10369SOL    HW132006   2.820   6.661   5.928
10369SOL    HW232007   2.664   6.696   5.896
10370SOL     OW32008   6.328   1.479   5.299
10370SOL    HW132009   6.316   1.544   5.374
10370SOL    HW232010   6.383   1.522   5.227
10371SOL     OW32011   2.291   6.713   4.435
10371SOL    HW132012   2.361   6.760   4.380
10371SOL    HW232013   2.270   6.624   4.394
10372SOL     OW32014   2.554   0.950   0.820
10372SOL    HW132015   2.560   0.906   0.731
10372SOL    HW232016   2.468   0.923   0.864
10373SOL     OW32017   0.996   6.843   4.967
10373SOL    HW132018   0.932   6.905   5.012
10373SOL    HW232019   1.075   6.828   5.026
10374SOL     OW32020   3.327   0.390   3.897
10374SOL    HW132021   3.376   0.343   3.970
10374SOL    HW232022   3.377   0.377   3.811
10375SOL     OW32023   2.674   2.244   5.807
10375SOL    HW132024   2.742   2.210   5.743
10375SOL    HW232025   2.710   2.239   5.900
10376SOL     OW32026   1.157   6.358   4.430
10376SOL    HW132027   1.250   6.394   4.435
10376SOL    HW232028   1.109   6.377   4.515
10377SOL     OW32029   0.360   1.187   2.095
10377SOL    HW132030   0.325   1.279   2.116
10377SOL    HW232031   0.299   1.119   2.136
10378SOL     OW32032   5.930   5.829   5.469
10378SOL    HW132033   6.005   5.887   5.500
10378SOL    HW232034   5.957   5.733   5.474
10379SOL     OW32035   3.571   5.731   4.513
10379SOL    HW132036   3.601   5.670   4.586
10379SOL    HW232037   3.507   5.683   4.453
10380SOL     OW32038   1.151   2.668   4.687
10380SOL    HW132039   1.206   2.701   4.610
10380SOL    HW232040   1.058   2.706   4.680
10381SOL     OW32041   4.494   4.009   1.304
10381SOL    HW132042   4.465   4.024   1.399
10381SOL    HW232043   4.532   3.917   1.296
10382SOL     OW32044   2.992   5.883   1.643
10382SOL    HW132045   2.997   5.785   1.624
10382SOL    HW232046   2.904   5.918   1.612
10383SOL     OW32047   1.008   4.225   0.645
10383SOL    HW132048   1.098   4.195   0.677
10383SOL    HW232049   1.017   4.310   0.594
10384SOL     OW32050   6.832   6.656   0.555
10384SOL    HW132051   6.902   6.689   0.492
10384SOL    HW232052   6.876   6.605   0.629
10385SOL     OW32053   4.152   5.922   6.407
10385SOL    HW132054   4.149   5.838   6.353
10385SOL    HW232055   4.080   5.920   6.476
10386SOL     OW32056   0.156   1.001   5.871
10386SOL    HW132057   0.115   1.005   5.962
10386SOL    HW232058   0.197   0.910   5.858
10387SOL     OW32059   4.898   2.951   2.853
10387SOL    HW132060   4.985   2.922   2.894
10387SOL    HW232061   4.854   3.018   2.912
10388SOL     OW32062   1.078   5.544   1.858
10388SOL    HW132063   1.115   5.556   1.766
10388SOL    HW232064   1.153   5.545   1.924
10389SOL     OW32065   6.208   3.953   1.225
10389SOL    HW132066   6.285   3.898   1.257
10389SOL    HW232067   6.237   4.047   1.213
10390SOL     OW32068   2.091   3.081   0.060
10390SOL    HW132069   2.143   3.038   0.134
10390SOL    HW232070   2.057   3.011   7.014
10391SOL     OW32071   0.495   6.098   4.354
10391SOL    HW132072   0.525   6.193   4.348
10391SOL    HW232073   0.428   6.089   4.428
10392SOL     OW32074   6.032   4.851   5.783
10392SOL    HW132075   5.987   4.771   5.825
10392SOL    HW232076   6.119   4.868   5.829
10393SOL     OW32077   2.238   2.989   3.067
10393SOL    HW132078   2.228   3.023   2.973
10393SOL    HW232079   2.225   3.064   3.131
10394SOL     OW32080   2.937   5.330   5.479
10394SOL    HW132081   2.883   5.295   5.555
10394SOL    HW232082   2.991   5.408   5.509
10395SOL     OW32083   0.138   0.590   1.630
10395SOL    HW132084   0.213   0.536   1.590
10395SOL    HW232085   0.051   0.549   1.606
10396SOL     OW32086   3.620   1.479   4.004
10396SOL    HW132087   3.714   1.483   3.971
10396SOL    HW232088   3.607   1.396   4.059
10397SOL     OW32089   3.744   0.925   4.324
10397SOL    HW132090   3.776   1.009   4.368
10397SOL    HW232091   3.781   0.845   4.373
10398SOL     OW32092   5.741   2.590   0.666
10398SOL    HW132093   5.783   2.562   0.752
10398SOL    HW232094   5.642   2.588   0.675
10399SOL     OW32095   4.464   1.900   3.244
10399SOL    HW132096   4.397   1.952   3.298
10399SOL    HW232097   4.481   1.949   3.158
10400SOL     OW32098   4.491   5.802   6.830
10400SOL    HW132099   4.440   5.846   6.756
10400SOL    HW232100   4.432   5.790   6.910
10401SOL     OW32101   0.115   6.245   2.749
10401SOL    HW132102   0.204   6.286   2.732
10401SOL    HW232103   0.074   6.217   2.662
10402SOL     OW32104   6.968   1.847   5.765
10402SOL    HW132105   6.914   1.770   5.729
10402SOL    HW232106   6.907   1.923   5.787
10403SOL     OW32107   4.590   2.611   2.948
10403SOL    HW132108   4.599   2.668   3.029
10403SOL    HW232109   4.651   2.646   2.876
10404SOL     OW32110   5.845   6.477   4.338
10404SOL    HW132111   5.790   6.409   4.387
10404SOL    HW232112   5.927   6.433   4.302
10405SOL     OW32113   1.316   6.464   4.877
10405SOL    HW132114   1.360   6.378   4.851
10405SOL    HW232115   1.285   6.511   4.795
10406SOL     OW32116   2.159   3.219   3.587
10406SOL    HW132117   2.234   3.156   3.566
10406SOL    HW232118   2.136   3.213   3.684
10407SOL     OW32119   2.797   6.786   6.461
10407SOL    HW132120   2.786   6.862   6.397
10407SOL    HW232121   2.755   6.810   6.548
10408SOL     OW32122   4.959   0.505   1.036
10408SOL    HW132123   5.052   0.539   1.021
10408SOL    HW232124   4.932   0.446   0.960
10409SOL     OW32125   6.664   4.770   0.911
10409SOL    HW132126   6.717   4.853   0.895
10409SOL    HW232127   6.685   4.703   0.840
10410SOL     OW32128   5.084   1.708   1.620
10410SOL    HW132129   5.068   1.763   1.702
10410SOL    HW232130   5.124   1.620   1.646
10411SOL     OW32131   2.910   6.335   3.775
10411SOL    HW132132   2.877   6.306   3.865
10411SOL    HW232133   2.837   6.386   3.728
10412SOL     OW32134   0.214   1.379   0.368
10412SOL    HW132135   0.253   1.370   0.277
10412SOL    HW232136   0.223   1.292   0.417
10413SOL     OW32137   6.653   2.591   0.737
10413SOL    HW132138   6.682   2.604   0.642
10413SOL    HW232139   6.690   2.664   0.794
10414SOL     OW32140   3.775   5.266   5.180
10414SOL    HW132141   3.859   5.234   5.223
10414SOL    HW232142   3.724   5.322   5.245
10415SOL     OW32143   1.167   3.899   4.851
10415SOL    HW132144   1.107   3.841   4.907
10415SOL    HW232145   1.152   3.880   4.755
10416SOL     OW32146   5.593   0.089   5.495
10416SOL    HW132147   5.668   0.129   5.548
10416SOL    HW232148   5.568   0.001   5.534
10417SOL     OW32149   3.160   4.960   3.889
10417SOL    HW132150   3.111   4.878   3.860
10417SOL    HW232151   3.254   4.957   3.853
10418SOL     OW32152   6.442   4.144   6.035
10418SOL    HW132153   6.437   4.044   6.026
10418SOL    HW232154   6.535   4.170   6.063
10419SOL     OW32155   3.285   6.681   6.044
10419SOL    HW132156   3.225   6.632   6.107
10419SOL    HW232157   3.257   6.664   5.950
10420SOL     OW32158   0.210   3.675   4.300
10420SOL    HW132159   0.267   3.593   4.291
10420SOL    HW232160   0.119   3.649   4.334
10421SOL     OW32161   1.405   2.797   4.008
10421SOL    HW132162   1.390   2.701   3.981
10421SOL    HW232163   1.451   2.846   3.934
10422SOL     OW32164   6.102   3.302   5.191
10422SOL    HW132165   6.014   3.326   5.150
10422SOL    HW232166   6.149   3.237   5.132
10423SOL     OW32167   5.773   5.185   5.405
10423SOL    HW132168   5.795   5.098   5.361
10423SOL    HW232169   5.745   5.252   5.337
10424SOL     OW32170   4.200   3.351   1.060
10424SOL    HW132171   4.294   3.328   1.032
10424SOL    HW232172   4.161   3.276   1.113
10425SOL     OW32173   1.196   6.852   2.065
10425SOL    HW132174   1.127   6.783   2.044
10425SOL    HW232175   1.287   6.811   2.065
10426SOL     OW32176   4.962   5.187   0.134
10426SOL    HW132177   5.020   5.157   0.058
10426SOL    HW232178   4.884   5.238   0.099
10427SOL     OW32179   3.992   1.005   6.913
10427SOL    HW132180   3.906   1.047   6.885
10427SOL    HW232181   4.046   1.070   6.966
10428SOL     OW32182   3.833   1.002   3.591
10428SOL    HW132183   3.799   1.080   3.539
10428SOL    HW232184   3.933   1.002   3.589
10429SOL     OW32185   6.799   4.234   1.698
10429SOL    HW132186   6.828   4.192   1.784
10429SOL    HW232187   6.806   4.167   1.624
10430SOL     OW32188   4.945   0.242   4.740
10430SOL    HW132189   4.966   0.248   4.837
10430SOL    HW232190   4.981   0.156   4.703
10431SOL     OW32191   2.673   6.289   4.333
10431SOL    HW132192   2.702   6.194   4.346
10431SOL    HW232193   2.651   6.330   4.422
10432SOL     OW32194   5.604   0.323   4.764
10432SOL    HW132195   5.661   0.387   4.815
10432SOL    HW232196   5.642   0.311   4.672
10433SOL     OW32197   1.002   5.987   2.460
10433SOL    HW132198   1.009   5.969   2.558
10433SOL    HW232199   0.918   5.947   2.424
10434SOL     OW32200   3.733   5.986   2.946
10434SOL    HW132201   3.654   5.948   2.898
10434SOL    HW232202   3.754   5.930   3.026
10435SOL     OW32203   0.751   1.085   5.506
10435SOL    HW132204   0.714   1.166   5.552
10435SOL    HW232205   0.838   1.060   5.548
10436SOL     OW32206   6.425   4.647   5.746
10436SOL    HW132207   6.522   4.669   5.757
10436SOL    HW232208   6.399   4.576   5.812
10437SOL     OW32209   4.482   4.114   6.129
10437SOL    HW132210   4.479   4.022   6.090
10437SOL    HW232211   4.526   4.111   6.218
10438SOL     OW32212   6.479   6.415   6.715
10438SOL    HW132213   6.524   6.417   6.625
10438SOL    HW232214   6.395   6.361   6.709
10439SOL     OW32215   4.067   1.131   4.746
10439SOL    HW132216   4.006   1.144   4.825
10439SOL    HW232217   4.032   1.055   4.690
10440SOL     OW32218   1.525   6.467   0.909
10440SOL    HW132219   1.593   6.488   0.839
10440SOL    HW232220   1.434   6.487   0.873
10441SOL     OW32221   3.871   1.325   1.214
10441SOL    HW132222   3.879   1.425   1.211
10441SOL    HW232223   3.957   1.286   1.248
10442SOL     OW32224   3.943   6.434   6.746
10442SOL    HW132225   4.007   6.512   6.747
10442SOL    HW232226   3.980   6.362   6.688
10443SOL     OW32227   4.847   3.747   3.845
10443SOL    HW132228   4.760   3.726   3.888
10443SOL    HW232229   4.890   3.663   3.812
10444SOL     OW32230   4.487   5.644   4.032
10444SOL    HW132231   4.440   5.643   3.943
10444SOL    HW232232   4.427   5.686   4.101
10445SOL     OW32233   0.820   4.652   4.303
10445SOL    HW132234   0.814   4.617   4.209
10445SOL    HW232235   0.903   4.707   4.312
10446SOL     OW32236   1.525   2.998   5.602
10446SOL    HW132237   1.598   3.051   5.647
10446SOL    HW232238   1.437   3.045   5.616
10447SOL     OW32239   6.933   1.397   2.443
10447SOL    HW132240   6.983   1.400   2.529
10447SOL    HW232241   6.966   1.470   2.383
10448SOL     OW32242   4.588   0.458   2.308
10448SOL    HW132243   4.581   0.471   2.407
10448SOL    HW232244   4.534   0.528   2.261
10449SOL     OW32245   2.047   5.471   4.834
10449SOL    HW132246   2.087   5.523   4.759
10449SOL    HW232247   2.117   5.453   4.903
10450SOL     OW32248   0.831   1.308   0.803
10450SOL    HW132249   0.735   1.293   0.779
10450SOL    HW232250   0.870   1.225   0.841
10451SOL     OW32251   2.028   5.489   2.356
10451SOL    HW132252   2.056   5.482   2.451
10451SOL    HW232253   1.928   5.493   2.351
10452SOL     OW32254   6.771   3.234   2.067
10452SOL    HW132255   6.682   3.218   2.109
10452SOL    HW232256   6.843   3.219   2.135
10453SOL     OW32257   3.817   6.668   1.296
10453SOL    HW132258   3.725   6.693   1.328
10453SOL    HW232259   3.809   6.618   1.209
10454SOL     OW32260   4.725   3.342   0.456
10454SOL    HW132261   4.645   3.283   0.468
10454SOL    HW232262   4.739   3.359   0.358
10455SOL     OW32263   6.367   6.027   3.531
10455SOL    HW132264   6.449   6.080   3.511
10455SOL    HW232265   6.307   6.027   3.452
10456SOL     OW32266   2.022   5.986   0.559
10456SOL    HW132267   2.093   5.983   0.630
10456SOL    HW232268   1.947   6.044   0.591
10457SOL     OW32269   3.434   3.132   1.541
10457SOL    HW132270   3.356   3.098   1.488
10457SOL    HW232271   3.452   3.070   1.617
10458SOL     OW32272   6.185   1.257   6.445
10458SOL    HW132273   6.230   1.192   6.506
10458SOL    HW232274   6.089   1.230   6.434
10459SOL     OW32275   5.056   5.756   1.546
10459SOL    HW132276   5.085   5.676   1.494
10459SOL    HW232277   5.120   5.772   1.621
10460SOL     OW32278   0.733   4.445   2.648
10460SOL    HW132279   0.792   4.523   2.666
10460SOL    HW232280   0.765   4.366   2.699
10461SOL     OW32281   6.836   4.923   5.973
10461SOL    HW132282   6.742   4.958   5.982
10461SOL    HW232283   6.869   4.940   5.881
10462SOL     OW32284   5.937   1.450   3.440
10462SOL    HW132285   5.977   1.409   3.358
10462SOL    HW232286   6.002   1.442   3.516
10463SOL     OW32287   4.339   3.086   5.588
10463SOL    HW132288   4.422   3.135   5.617
10463SOL    HW232289   4.288   3.143   5.524
10464SOL     OW32290   6.555   0.426   1.159
10464SOL    HW132291   6.479   0.367   1.131
10464SOL    HW232292   6.552   0.439   1.258
10465SOL     OW32293   6.377   5.283   0.887
10465SOL    HW132294   6.417   5.192   0.885
10465SOL    HW232295   6.322   5.297   0.805
10466SOL     OW32296   4.216   4.788   6.213
10466SOL    HW132297   4.152   4.839   6.156
10466SOL    HW232298   4.266   4.722   6.156
10467SOL     OW32299   2.644   1.369   6.503
10467SOL    HW132300   2.694   1.454   6.517
10467SOL    HW232301   2.564   1.367   6.563
10468SOL     OW32302   3.965   5.326   3.365
10468SOL    HW132303   3.911   5.389   3.421
10468SOL    HW232304   3.955   5.233   3.400
10469SOL     OW32305   4.131   4.397   5.574
10469SOL    HW132306   4.083   4.311   5.587
10469SOL    HW232307   4.077   4.458   5.516
10470SOL     OW32308   2.437   2.724   3.605
10470SOL    HW132309   2.445   2.686   3.513
10470SOL    HW232310   2.516   2.696   3.660
10471SOL     OW32311   2.938   2.299   1.297
10471SOL    HW132312   2.931   2.257   1.388
10471SOL    HW232313   2.868   2.370   1.289
10472SOL     OW32314   4.027   5.516   0.460
10472SOL    HW132315   4.065   5.543   0.371
10472SOL    HW232316   3.990   5.596   0.506
10473SOL     OW32317   6.671   0.348   6.470
10473SOL    HW132318   6.739   0.339   6.542
10473SOL    HW232319   6.598   0.410   6.500
10474SOL     OW32320   3.833   2.130   4.616
10474SOL    HW132321   3.795   2.154   4.705
10474SOL    HW232322   3.930   2.153   4.613
10475SOL     OW32323   4.390   6.501   1.513
10475SOL    HW132324   4.321   6.465   1.449
10475SOL    HW232325   4.470   6.530   1.462
10476SOL     OW32326   0.108   6.004   0.084
10476SOL    HW132327   0.064   5.926   0.039
10476SOL    HW232328   0.150   5.973   0.170
10477SOL     OW32329   6.944   1.765   4.334
10477SOL    HW132330   6.946   1.862   4.307
10477SOL    HW232331   6.928   1.709   4.253
10478SOL     OW32332   0.004   0.292   1.363
10478SOL    HW132333   0.053   0.214   1.399
10478SOL    HW232334   0.031   0.309   1.269
10479SOL     OW32335   0.268   2.685   1.775
10479SOL    HW132336   0.264   2.660   1.678
10479SOL    HW232337   0.242   2.781   1.786
10480SOL     OW32338   6.666   0.060   1.431
10480SOL    HW132339   6.713   7.011   1.370
10480SOL    HW232340   6.685   0.035   1.526
10481SOL     OW32341   2.258   7.002   4.709
10481SOL    HW132342   2.293   0.012   4.799
10481SOL    HW232343   2.203   6.919   4.716
10482SOL     OW32344   6.435   5.553   4.628
10482SOL    HW132345   6.385   5.596   4.553
10482SOL    HW232346   6.454   5.622   4.698
10483SOL     OW32347   6.534   4.837   0.023
10483SOL    HW132348   6.632   4.852   0.031
10483SOL    HW232349   6.512   4.742   0.045
10484SOL     OW32350   6.057   1.199   1.612
10484SOL    HW132351   6.003   1.212   1.695
10484SOL    HW232352   6.036   1.110   1.571
10485SOL     OW32353   3.389   4.041   1.499
10485SOL    HW132354   3.478   4.085   1.511
10485SOL    HW232355   3.389   3.953   1.548
10486SOL     OW32356   6.482   0.542   6.492
10486SOL    HW132357   6.412   0.527   6.422
10486SOL    HW232358   6.528   0.629   6.476
10487SOL     OW32359   4.884   1.668   2.335
10487SOL    HW132360   4.830   1.732   2.281
10487SOL    HW232361   4.914   1.713   2.419
10488SOL     OW32362   2.752   1.778   5.423
10488SOL    HW132363   2.794   1.731   5.501
10488SOL    HW232364   2.776   1.731   5.339
10489SOL     OW32365   6.529   6.979   4.431
10489SOL    HW132366   6.580   6.986   4.345
10489SOL    HW232367   6.431   6.969   4.411
10490SOL     OW32368   6.282   1.885   0.711
10490SOL    HW132369   6.230   1.946   0.651
10490SOL    HW232370   6.378   1.915   0.712
10491SOL     OW32371   2.916   2.205   5.646
10491SOL    HW132372   3.009   2.207   5.683
10491SOL    HW232373   2.918   2.237   5.551
10492SOL     OW32374   5.301   5.793   0.738
10492SOL    HW132375   5.287   5.886   0.704
10492SOL    HW232376   5.214   5.755   0.768
10493SOL     OW32377   2.967   6.698   2.221
10493SOL    HW132378   2.951   6.599   2.211
10493SOL    HW232379   2.973   6.739   2.130
10494SOL     OW32380   5.608   4.328   6.366
10494SOL    HW132381   5.562   4.350   6.452
10494SOL    HW232382   5.698   4.291   6.385
10495SOL     OW32383   0.819   6.405   1.067
10495SOL    HW132384   0.785   6.485   1.018
10495SOL    HW232385   0.894   6.433   1.127
10496SOL     OW32386   5.930   4.160   6.169
10496SOL    HW132387   5.871   4.222   6.118
10496SOL    HW232388   5.957   4.084   6.110
10497SOL     OW32389   1.653   6.879   2.367
10497SOL    HW132390   1.587   6.874   2.291
10497SOL    HW232391   1.604   6.879   2.454
10498SOL     OW32392   5.256   5.412   0.546
10498SOL    HW132393   5.197   5.440   0.470
10498SOL    HW232394   5.343   5.460   0.540
10499SOL     OW32395   4.793   0.066   2.374
10499SOL    HW132396   4.843   0.147   2.342
10499SOL    HW232397   4.741   0.090   2.456
10500SOL     OW32398   5.915   1.130   5.738
10500SOL    HW132399   5.851   1.085   5.676
10500SOL    HW232400   5.997   1.074   5.748
10501SOL     OW32401   2.210   5.274   2.321
10501SOL    HW132402   2.256   5.246   2.405
10501SOL    HW232403   2.153   5.354   2.340
10502SOL     OW32404   2.620   2.360   1.546
10502SOL    HW132405   2.653   2.422   1.475
10502SOL    HW232406   2.647   2.395   1.636
10503SOL     OW32407   4.908   2.593   1.036
10503SOL    HW132408   4.898   2.690   1.058
10503SOL    HW232409   4.979   2.553   1.094
10504SOL     OW32410   1.191   2.835   5.746
10504SOL    HW132411   1.143   2.831   5.834
10504SOL    HW232412   1.241   2.922   5.740
10505SOL     OW32413   5.644   5.210   0.763
10505SOL    HW132414   5.658   5.127   0.816
10505SOL    HW232415   5.621   5.286   0.824
10506SOL     OW32416   0.324   3.998   6.844
10506SOL    HW132417   0.381   3.940   6.785
10506SOL    HW232418   0.381   4.067   6.889
10507SOL     OW32419   1.699   5.725   1.189
10507SOL    HW132420   1.776   5.767   1.142
10507SOL    HW232421   1.638   5.682   1.123
10508SOL     OW32422   7.005   5.668   4.983
10508SOL    HW132423   0.015   5.571   4.981
10508SOL    HW232424   6.935   5.685   4.914
10509SOL     OW32425   6.922   5.505   5.294
10509SOL    HW132426   6.922   5.427   5.232
10509SOL    HW232427   0.000   5.526   5.320
10510SOL     OW32428   4.647   6.729   0.272
10510SOL    HW132429   4.580   6.715   0.344
10510SOL    HW232430   4.732   6.765   0.312
10511SOL     OW32431   2.597   1.383   2.207
10511SOL    HW132432   2.579   1.473   2.167
10511SOL    HW232433   2.686   1.349   2.175
10512SOL     OW32434   3.988   0.517   5.301
10512SOL    HW132435   3.927   0.596   5.307
10512SOL    HW232436   4.060   0.525   5.370
10513SOL     OW32437   6.505   3.487   3.661
10513SOL    HW132438   6.536   3.582   3.664
10513SOL    HW232439   6.405   3.485   3.653
10514SOL     OW32440   0.837   3.283   0.865
10514SOL    HW132441   0.771   3.256   0.935
10514SOL    HW232442   0.928   3.252   0.892
10515SOL     OW32443   1.481   3.886   4.297
10515SOL    HW132444   1.443   3.965   4.249
10515SOL    HW232445   1.505   3.912   4.390
10516SOL     OW32446   3.079   1.933   0.672
10516SOL    HW132447   3.032   1.899   0.753
10516SOL    HW232448   3.062   2.031   0.662
10517SOL     OW32449   0.832   3.134   0.535
10517SOL    HW132450   0.896   3.158   0.608
10517SOL    HW232451   0.744   3.179   0.552
10518SOL     OW32452   6.719   5.948   1.045
10518SOL    HW132453   6.639   5.958   1.105
10518SOL    HW232454   6.795   5.909   1.097
10519SOL     OW32455   3.089   3.669   0.766
10519SOL    HW132456   3.119   3.763   0.750
10519SOL    HW232457   3.033   3.665   0.849
10520SOL     OW32458   0.946   2.342   5.838
10520SOL    HW132459   1.007   2.267   5.863
10520SOL    HW232460   0.953   2.415   5.906
10521SOL     OW32461   6.504   5.055   1.184
10521SOL    HW132462   6.528   5.026   1.091
10521SOL    HW232463   6.586   5.055   1.241
10522SOL     OW32464   0.314   1.266   4.549
10522SOL    HW132465   0.302   1.365   4.540
10522SOL    HW232466   0.327   1.226   4.458
10523SOL     OW32467   0.872   4.677   2.710
10523SOL    HW132468   0.908   4.757   2.660
10523SOL    HW232469   0.893   4.687   2.807
10524SOL     OW32470   0.569   6.361   4.340
10524SOL    HW132471   0.655   6.317   4.366
10524SOL    HW232472   0.574   6.459   4.362
10525SOL     OW32473   3.889   0.768   5.412
10525SOL    HW132474   3.967   0.831   5.417
10525SOL    HW232475   3.881   0.719   5.499
10526SOL     OW32476   0.893   6.871   2.408
10526SOL    HW132477   0.970   6.931   2.387
10526SOL    HW232478   0.809   6.924   2.412
10527SOL     OW32479   1.033   0.947   5.418
10527SOL    HW132480   1.098   0.989   5.482
10527SOL    HW232481   0.959   0.903   5.470
10528SOL     OW32482   1.596   3.883   6.149
10528SOL    HW132483   1.619   3.974   6.183
10528SOL    HW232484   1.680   3.833   6.129
10529SOL     OW32485   2.550   6.631   4.251
10529SOL    HW132486   2.621   6.582   4.200
10529SOL    HW232487   2.592   6.687   4.322
10530SOL     OW32488   1.517   0.302   6.346
10530SOL    HW132489   1.487   0.357   6.424
10530SOL    HW232490   1.616   0.287   6.353
10531SOL     OW32491   1.802   2.398   4.035
10531SOL    HW132492   1.871   2.440   4.095
10531SOL    HW232493   1.767   2.467   3.972
10532SOL     OW32494   0.565   6.873   6.756
10532SOL    HW132495   0.482   6.905   6.709
10532SOL    HW232496   0.604   6.948   6.810
10533SOL     OW32497   3.051   6.888   3.234
10533SOL    HW132498   3.100   6.873   3.149
10533SOL    HW232499   2.972   6.947   3.217
10534SOL     OW32500   6.086   5.510   2.183
10534SOL    HW132501   6.102   5.444   2.255
10534SOL    HW232502   6.017   5.476   2.120
10535SOL     OW32503   1.821   2.076   2.283
10535SOL    HW132504   1.723   2.066   2.296
10535SOL    HW232505   1.864   2.098   2.371
10536SOL     OW32506   4.626   0.644   4.259
10536SOL    HW132507   4.664   0.719   4.204
10536SOL    HW232508   4.528   0.636   4.240
10537SOL     OW32509   4.275   6.287   4.445
10537SOL    HW132510   4.192   6.343   4.445
10537SOL    HW232511   4.329   6.306   4.363
10538SOL     OW32512   6.560   3.580   1.007
10538SOL    HW132513   6.618   3.561   0.928
10538SOL    HW232514   6.604   3.546   1.090
10539SOL     OW32515   6.953   4.668   0.429
10539SOL    HW132516   6.898   4.648   0.348
10539SOL    HW232517   0.013   4.604   0.434
10540SOL     OW32518   1.632   3.237   5.446
10540SOL    HW132519   1.593   3.161   5.496
10540SOL    HW232520   1.655   3.208   5.353
10541SOL     OW32521   3.659   4.036   2.141
10541SOL    HW132522   3.587   3.972   2.166
10541SOL    HW232523   3.634   4.083   2.056
10542SOL     OW32524   6.926   1.337   5.448
10542SOL    HW132525   6.840   1.291   5.469
10542SOL    HW232526   6.974   1.357   5.533
10543SOL     OW32527   0.566   1.758   4.694
10543SOL    HW132528   0.574   1.836   4.633
10543SOL    HW232529   0.583   1.788   4.788
10544SOL     OW32530   2.555   6.726   1.791
10544SOL    HW132531   2.486   6.797   1.779
10544SOL    HW232532   2.597   6.735   1.881
10545SOL     OW32533   0.552   2.017   1.076
10545SOL    HW132534   0.595   1.982   0.992
10545SOL    HW232535   0.535   1.941   1.139
10546SOL     OW32536   2.069   6.783   0.652
10546SOL    HW132537   2.099   6.687   0.651
10546SOL    HW232538   2.140   6.840   0.693
10547SOL     OW32539   5.134   2.830   3.226
10547SOL    HW132540   5.050   2.873   3.194
10547SOL    HW232541   5.129   2.731   3.208
10548SOL     OW32542   6.337   4.384   4.190
10548SOL    HW132543   6.428   4.405   4.225
10548SOL    HW232544   6.281   4.346   4.264
10549SOL     OW32545   0.627   1.235   1.451
10549SOL    HW132546   0.536   1.200   1.474
10549SOL    HW232547   0.661   1.189   1.369
10550SOL     OW32548   4.860   6.566   3.614
10550SOL    HW132549   4.951   6.538   3.585
10550SOL    HW232550   4.866   6.610   3.704
10551SOL     OW32551   2.103   2.211   6.392
10551SOL    HW132552   2.103   2.118   6.430
10551SOL    HW232553   2.132   2.209   6.297
10552SOL     OW32554   2.054   0.726   5.709
10552SOL    HW132555   2.058   0.792   5.784
10552SOL    HW232556   2.146   0.691   5.690
10553SOL     OW32557   0.481   4.591   1.809
10553SOL    HW132558   0.512   4.570   1.901
10553SOL    HW232559   0.513   4.520   1.746
10554SOL     OW32560   5.036   4.759   0.929
10554SOL    HW132561   4.985   4.733   1.010
10554SOL    HW232562   5.127   4.790   0.955
10555SOL     OW32563   2.898   2.694   0.926
10555SOL    HW132564   2.863   2.761   0.991
10555SOL    HW232565   2.979   2.731   0.880
10556SOL     OW32566   1.005   1.393   3.855
10556SOL    HW132567   0.931   1.459   3.839
10556SOL    HW232568   0.968   1.313   3.903
10557SOL     OW32569   2.133   3.072   2.803
10557SOL    HW132570   2.056   3.115   2.851
10557SOL    HW232571   2.106   3.048   2.710
10558SOL     OW32572   3.927   6.307   4.983
10558SOL    HW132573   3.883   6.300   4.894
10558SOL    HW232574   3.999   6.238   4.990
10559SOL     OW32575   4.516   1.092   1.935
10559SOL    HW132576   4.440   1.110   1.998
10559SOL    HW232577   4.491   1.123   1.844
10560SOL     OW32578   4.668   0.015   2.813
10560SOL    HW132579   4.584   7.014   2.865
10560SOL    HW232580   4.709   6.943   2.788
10561SOL     OW32581   3.642   4.365   1.688
10561SOL    HW132582   3.604   4.361   1.596
10561SOL    HW232583   3.612   4.449   1.733
10562SOL     OW32584   4.143   5.397   6.903
10562SOL    HW132585   4.238   5.395   6.872
10562SOL    HW232586   4.111   5.303   6.917
10563SOL     OW32587   0.269   0.886   2.633
10563SOL    HW132588   0.362   0.883   2.671
10563SOL    HW232589   0.253   0.803   2.578
10564SOL     OW32590   5.499   6.367   3.424
10564SOL    HW132591   5.582   6.313   3.439
10564SOL    HW232592   5.481   6.422   3.505
10565SOL     OW32593   0.011   6.720   5.952
10565SOL    HW132594   0.080   6.726   5.880
10565SOL    HW232595   6.977   6.807   5.956
10566SOL     OW32596   4.054   2.336   6.935
10566SOL    HW132597   4.104   2.409   6.982
10566SOL    HW232598   4.119   2.269   6.899
10567SOL     OW32599   2.717   2.546   5.253
10567SOL    HW132600   2.656   2.624   5.244
10567SOL    HW232601   2.695   2.479   5.181
10568SOL     OW32602   6.853   3.091   0.708
10568SOL    HW132603   6.920   3.119   0.776
10568SOL    HW232604   6.765   3.075   0.752
10569SOL     OW32605   5.681   1.229   2.296
10569SOL    HW132606   5.626   1.296   2.246
10569SOL    HW232607   5.734   1.276   2.366
10570SOL     OW32608   1.827   4.618   3.490
10570SOL    HW132609   1.760   4.562   3.540
10570SOL    HW232610   1.915   4.570   3.489
10571SOL     OW32611   0.433   4.588   4.708
10571SOL    HW132612   0.375   4.570   4.788
10571SOL    HW232613   0.526   4.609   4.738
10572SOL     OW32614   6.909   4.544   2.770
10572SOL    HW132615   6.824   4.494   2.784
10572SOL    HW232616   6.984   4.495   2.814
10573SOL     OW32617   5.422   0.803   4.978
10573SOL    HW132618   5.358   0.744   5.027
10573SOL    HW232619   5.427   0.892   5.024
10574SOL     OW32620   0.666   1.506   4.596
10574SOL    HW132621   0.632   1.589   4.638
10574SOL    HW232622   0.754   1.525   4.552
10575SOL     OW32623   6.759   0.980   3.956
10575SOL    HW132624   6.727   0.888   3.979
10575SOL    HW232625   6.847   0.997   4.000
10576SOL     OW32626   0.514   5.619   4.562
10576SOL    HW132627   0.492   5.560   4.484
10576SOL    HW232628   0.594   5.582   4.609
10577SOL     OW32629   1.967   4.674   0.442
10577SOL    HW132630   1.959   4.581   0.406
10577SOL    HW232631   1.885   4.726   0.419
10578SOL     OW32632   4.205   1.323   2.904
10578SOL    HW132633   4.283   1.361   2.854
10578SOL    HW232634   4.159   1.395   2.955
10579SOL     OW32635   4.254   2.886   1.642
10579SOL    HW132636   4.262   2.977   1.682
10579SOL    HW232637   4.337   2.833   1.663
10580SOL     OW32638   6.866   0.264   6.636
10580SOL    HW132639   6.895   0.207   6.559
10580SOL    HW232640   6.947   0.301   6.682
10581SOL     OW32641   5.572   0.390   2.974
10581SOL    HW132642   5.583   0.382   3.073
10581SOL    HW232643   5.642   0.336   2.928
10582SOL     OW32644   4.734   4.490   5.525
10582SOL    HW132645   4.701   4.396   5.521
10582SOL    HW232646   4.737   4.528   5.433
10583SOL     OW32647   3.981   1.216   4.100
10583SOL    HW132648   4.033   1.221   4.185
10583SOL    HW232649   4.034   1.259   4.026
10584SOL     OW32650   6.714   0.505   0.591
10584SOL    HW132651   6.814   0.507   0.585
10584SOL    HW232652   6.675   0.502   0.499
10585SOL     OW32653   2.755   1.587   5.223
10585SOL    HW132654   2.788   1.518   5.158
10585SOL    HW232655   2.683   1.642   5.179
10586SOL     OW32656   5.652   4.549   5.817
10586SOL    HW132657   5.614   4.512   5.902
10586SOL    HW232658   5.751   4.561   5.827
10587SOL     OW32659   6.407   5.149   7.014
10587SOL    HW132660   6.488   5.169   6.959
10587SOL    HW232661   6.391   5.050   7.014
10588SOL     OW32662   1.594   2.203   4.936
10588SOL    HW132663   1.544   2.252   4.865
10588SOL    HW232664   1.563   2.234   5.026
10589SOL     OW32665   5.684   1.084   4.474
10589SOL    HW132666   5.675   1.102   4.572
10589SOL    HW232667   5.637   0.999   4.451
10590SOL     OW32668   0.614   0.210   0.500
10590SOL    HW132669   0.667   0.156   0.566
10590SOL    HW232670   0.520   0.220   0.533
10591SOL     OW32671   1.493   2.396   0.023
10591SOL    HW132672   1.418   2.433   0.078
10591SOL    HW232673   1.460   2.376   6.947
10592SOL     OW32674   5.784   3.721   3.277
10592SOL    HW132675   5.856   3.788   3.263
10592SOL    HW232676   5.788   3.686   3.371
10593SOL     OW32677   2.846   5.782   0.959
10593SOL    HW132678   2.747   5.789   0.949
10593SOL    HW232679   2.891   5.834   0.887
10594SOL     OW32680   5.291   1.544   2.893
10594SOL    HW132681   5.365   1.594   2.848
10594SOL    HW232682   5.306   1.544   2.992
10595SOL     OW32683   5.546   6.964   0.093
10595SOL    HW132684   5.481   6.957   0.017
10595SOL    HW232685   5.619   0.012   0.069
10596SOL     OW32686   4.098   0.761   0.004
10596SOL    HW132687   4.030   0.820   6.977
10596SOL    HW232688   4.052   0.698   0.067
10597SOL     OW32689   3.505   1.341   5.826
10597SOL    HW132690   3.579   1.401   5.855
10597SOL    HW232691   3.493   1.347   5.727
10598SOL     OW32692   3.089   3.163   0.301
10598SOL    HW132693   3.005   3.141   0.350
10598SOL    HW232694   3.093   3.111   0.216
10599SOL     OW32695   5.324   3.576   6.674
10599SOL    HW132696   5.379   3.603   6.753
10599SOL    HW232697   5.342   3.637   6.598
10600SOL     OW32698   3.558   2.699   1.509
10600SOL    HW132699   3.582   2.658   1.597
10600SOL    HW232700   3.568   2.631   1.436
10601SOL     OW32701   1.310   4.713   5.030
10601SOL    HW132702   1.374   4.724   4.954
10601SOL    HW232703   1.244   4.641   5.008
10602SOL     OW32704   1.434   0.580   1.796
10602SOL    HW132705   1.491   0.500   1.814
10602SOL    HW232706   1.491   0.662   1.792
10603SOL     OW32707   4.106   0.185   3.317
10603SOL    HW132708   4.149   0.209   3.230
10603SOL    HW232709   4.077   0.089   3.315
10604SOL     OW32710   6.579   6.026   5.259
10604SOL    HW132711   6.578   5.926   5.260
10604SOL    HW232712   6.667   6.059   5.293
10605SOL     OW32713   2.082   6.458   6.542
10605SOL    HW132714   2.129   6.382   6.496
10605SOL    HW232715   2.032   6.512   6.474
10606SOL     OW32716   0.466   0.246   0.783
10606SOL    HW132717   0.430   0.253   0.876
10606SOL    HW232718   0.537   0.176   0.780
10607SOL     OW32719   3.980   5.445   6.223
10607SOL    HW132720   3.930   5.467   6.306
10607SOL    HW232721   4.008   5.348   6.225
10608SOL     OW32722   6.846   3.398   4.540
10608SOL    HW132723   6.864   3.352   4.627
10608SOL    HW232724   6.885   3.490   4.541
10609SOL     OW32725   2.883   6.937   6.752
10609SOL    HW132726   2.975   6.907   6.775
10609SOL    HW232727   2.818   6.863   6.772
10610SOL     OW32728   0.706   2.462   3.935
10610SOL    HW132729   0.628   2.491   3.990
10610SOL    HW232730   0.705   2.362   3.927
10611SOL     OW32731   2.571   4.494   0.128
10611SOL    HW132732   2.502   4.439   0.175
10611SOL    HW232733   2.580   4.582   0.173
10612SOL     OW32734   3.823   2.075   4.955
10612SOL    HW132735   3.910   2.124   4.950
10612SOL    HW232736   3.775   2.100   5.039
10613SOL     OW32737   5.840   5.843   5.979
10613SOL    HW132738   5.914   5.906   6.006
10613SOL    HW232739   5.787   5.818   6.060
10614SOL     OW32740   4.504   1.811   5.103
10614SOL    HW132741   4.468   1.895   5.145
10614SOL    HW232742   4.428   1.761   5.060
10615SOL     OW32743   3.799   0.942   5.738
10615SOL    HW132744   3.791   0.843   5.733
10615SOL    HW232745   3.857   0.976   5.664
10616SOL     OW32746   2.355   6.819   0.171
10616SOL    HW132747   2.296   6.779   0.242
10616SOL    HW232748   2.420   6.750   0.140
10617SOL     OW32749   3.097   3.939   1.104
10617SOL    HW132750   3.048   3.924   1.190
10617SOL    HW232751   3.193   3.914   1.115
10618SOL     OW32752   1.091   4.224   5.865
10618SOL    HW132753   1.081   4.278   5.781
10618SOL    HW232754   1.111   4.129   5.840
10619SOL     OW32755   0.662   3.459   3.602
10619SOL    HW132756   0.691   3.419   3.689
10619SOL    HW232757   0.693   3.554   3.597
10620SOL     OW32758   1.226   6.872   5.149
10620SOL    HW132759   1.212   6.883   5.247
10620SOL    HW232760   1.279   6.789   5.131
10621SOL     OW32761   0.927   4.832   1.734
10621SOL    HW132762   0.989   4.892   1.786
10621SOL    HW232763   0.973   4.798   1.653
10622SOL     OW32764   5.049   1.278   2.235
10622SOL    HW132765   5.041   1.252   2.331
10622SOL    HW232766   4.970   1.244   2.184
10623SOL     OW32767   0.119   5.086   5.871
10623SOL    HW132768   0.041   5.037   5.908
10623SOL    HW232769   0.173   5.025   5.813
10624SOL     OW32770   1.058   2.321   4.998
10624SOL    HW132771   1.090   2.358   5.085
10624SOL    HW232772   1.125   2.341   4.927
10625SOL     OW32773   0.221   4.574   1.170
10625SOL    HW132774   0.266   4.534   1.250
10625SOL    HW232775   0.256   4.531   1.087
10626SOL     OW32776   3.366   2.744   0.855
10626SOL    HW132777   3.354   2.645   0.842
10626SOL    HW232778   3.453   2.772   0.813
10627SOL     OW32779   5.743   1.049   6.752
10627SOL    HW132780   5.800   0.970   6.776
10627SOL    HW232781   5.663   1.053   6.811
10628SOL     OW32782   4.835   5.845   0.858
10628SOL    HW132783   4.886   5.759   0.863
10628SOL    HW232784   4.821   5.881   0.950
10629SOL     OW32785   2.504   5.225   4.860
10629SOL    HW132786   2.561   5.191   4.934
10629SOL    HW232787   2.536   5.188   4.773
10630SOL     OW32788   6.399   1.479   3.216
10630SOL    HW132789   6.310   1.444   3.244
10630SOL    HW232790   6.460   1.403   3.195
10631SOL     OW32791   3.498   5.308   5.078
10631SOL    HW132792   3.559   5.232   5.103
10631SOL    HW232793   3.412   5.298   5.128
10632SOL     OW32794   5.406   6.941   3.562
10632SOL    HW132795   5.449   6.953   3.652
10632SOL    HW232796   5.365   6.850   3.556
10633SOL     OW32797   3.090   2.552   1.145
10633SOL    HW132798   3.146   2.635   1.141
10633SOL    HW232799   3.001   2.570   1.104
10634SOL     OW32800   2.530   4.368   0.834
10634SOL    HW132801   2.545   4.316   0.918
10634SOL    HW232802   2.536   4.466   0.853
10635SOL     OW32803   1.937   3.797   6.772
10635SOL    HW132804   2.005   3.755   6.712
10635SOL    HW232805   1.856   3.739   6.777
10636SOL     OW32806   0.401   1.865   0.773
10636SOL    HW132807   0.478   1.875   0.837
10636SOL    HW232808   0.434   1.822   0.689
10637SOL     OW32809   1.523   4.594   5.711
10637SOL    HW132810   1.456   4.530   5.749
10637SOL    HW232811   1.517   4.593   5.611
10638SOL     OW32812   5.643   5.959   2.659
10638SOL    HW132813   5.549   5.964   2.693
10638SOL    HW232814   5.666   6.045   2.613
10639SOL     OW32815   1.088   4.038   3.503
10639SOL    HW132816   1.115   4.133   3.519
10639SOL    HW232817   0.992   4.035   3.474
10640SOL     OW32818   4.841   6.971   3.974
10640SOL    HW132819   4.789   0.030   3.932
10640SOL    HW232820   4.862   6.902   3.904
10641SOL     OW32821   1.911   2.155   2.541
10641SOL    HW132822   1.913   2.254   2.536
10641SOL    HW232823   2.002   2.120   2.564
10642SOL     OW32824   6.514   2.204   0.795
10642SOL    HW132825   6.555   2.176   0.882
10642SOL    HW232826   6.585   2.233   0.732
10643SOL     OW32827   1.590   5.899   4.567
10643SOL    HW132828   1.517   5.939   4.511
10643SOL    HW232829   1.607   5.958   4.646
10644SOL     OW32830   6.030   2.803   1.939
10644SOL    HW132831   6.079   2.890   1.932
10644SOL    HW232832   6.054   2.758   2.025
10645SOL     OW32833   2.060   2.438   4.783
10645SOL    HW132834   2.111   2.522   4.761
10645SOL    HW232835   2.068   2.374   4.708
10646SOL     OW32836   0.066   6.818   6.265
10646SOL    HW132837   0.120   6.743   6.227
10646SOL    HW232838   0.029   6.790   6.354
10647SOL     OW32839   3.146   5.702   4.948
10647SOL    HW132840   3.137   5.674   4.852
10647SOL    HW232841   3.175   5.623   5.003
10648SOL     OW32842   5.775   4.136   6.492
10648SOL    HW132843   5.708   4.139   6.566
10648SOL    HW232844   5.866   4.149   6.529
10649SOL     OW32845   0.225   4.425   2.568
10649SOL    HW132846   0.222   4.368   2.486
10649SOL    HW232847   0.311   4.410   2.615
10650SOL     OW32848   0.499   0.629   3.745
10650SOL    HW132849   0.551   0.692   3.686
10650SOL    HW232850   0.410   0.669   3.765
10651SOL     OW32851   5.608   6.426   6.916
10651SOL    HW132852   5.520   6.382   6.896
10651SOL    HW232853   5.657   6.442   6.831
10652SOL     OW32854   3.583   6.687   5.540
10652SOL    HW132855   3.574   6.786   5.539
10652SOL    HW232856   3.512   6.648   5.600
10653SOL     OW32857   4.163   5.490   4.130
10653SOL    HW132858   4.230   5.466   4.201
10653SOL    HW232859   4.177   5.431   4.050
10654SOL     OW32860   5.588   0.721   0.442
10654SOL    HW132861   5.688   0.732   0.433
10654SOL    HW232862   5.544   0.807   0.418
10655SOL     OW32863   2.372   5.277   0.323
10655SOL    HW132864   2.447   5.343   0.313
10655SOL    HW232865   2.285   5.323   0.310
10656SOL     OW32866   0.356   1.709   2.840
10656SOL    HW132867   0.378   1.692   2.744
10656SOL    HW232868   0.328   1.623   2.883
10657SOL     OW32869   5.260   0.358   5.510
10657SOL    HW132870   5.174   0.400   5.480
10657SOL    HW232871   5.281   0.280   5.452
10658SOL     OW32872   6.576   4.857   4.977
10658SOL    HW132873   6.661   4.841   5.028
10658SOL    HW232874   6.510   4.785   5.000
10659SOL     OW32875   0.424   5.390   1.711
10659SOL    HW132876   0.429   5.470   1.771
10659SOL    HW232877   0.430   5.307   1.766
10660SOL     OW32878   5.137   3.594   5.918
10660SOL    HW132879   5.214   3.586   5.982
10660SOL    HW232880   5.063   3.533   5.947
10661SOL     OW32881   1.466   6.844   1.728
10661SOL    HW132882   1.519   6.879   1.805
10661SOL    HW232883   1.378   6.810   1.760
10662SOL     OW32884   5.255   6.980   2.380
10662SOL    HW132885   5.349   7.014   2.377
10662SOL    HW232886   5.244   6.918   2.458
10663SOL     OW32887   0.557   2.318   2.725
10663SOL    HW132888   0.459   2.341   2.720
10663SOL    HW232889   0.602   2.382   2.787
10664SOL     OW32890   6.392   4.045   4.971
10664SOL    HW132891   6.377   4.129   5.022
10664SOL    HW232892   6.339   3.971   5.013
10665SOL     OW32893   0.485   1.986   0.389
10665SOL    HW132894   0.494   1.991   0.290
10665SOL    HW232895   0.525   2.068   0.431
10666SOL     OW32896   3.900   3.656   1.751
10666SOL    HW132897   3.846   3.729   1.793
10666SOL    HW232898   3.848   3.570   1.756
10667SOL     OW32899   5.072   2.656   4.584
10667SOL    HW132900   4.982   2.693   4.561
10667SOL    HW232901   5.126   2.727   4.630
10668SOL     OW32902   2.297   0.435   4.941
10668SOL    HW132903   2.397   0.438   4.943
10668SOL    HW232904   2.262   0.507   4.882
10669SOL     OW32905   6.000   6.970   1.796
10669SOL    HW132906   6.057   6.888   1.795
10669SOL    HW232907   5.936   6.967   1.720
10670SOL     OW32908   5.565   4.166   5.312
10670SOL    HW132909   5.522   4.078   5.332
10670SOL    HW232910   5.576   4.217   5.397
10671SOL     OW32911   2.474   2.631   3.349
10671SOL    HW132912   2.543   2.589   3.290
10671SOL    HW232913   2.409   2.682   3.293
10672SOL     OW32914   6.489   3.258   0.934
10672SOL    HW132915   6.450   3.285   0.846
10672SOL    HW232916   6.444   3.308   1.007
10673SOL     OW32917   0.964   0.837   6.676
10673SOL    HW132918   0.974   0.762   6.611
10673SOL    HW232919   0.910   0.807   6.754
10674SOL     OW32920   3.453   3.875   2.214
10674SOL    HW132921   3.478   3.857   2.309
10674SOL    HW232922   3.362   3.917   2.211
10675SOL     OW32923   1.876   6.878   6.426
10675SOL    HW132924   1.813   6.929   6.368
10675SOL    HW232925   1.826   6.837   6.502
10676SOL     OW32926   6.804   6.249   5.649
10676SOL    HW132927   6.708   6.274   5.665
10676SOL    HW232928   6.844   6.215   5.734
10677SOL     OW32929   1.231   0.545   2.004
10677SOL    HW132930   1.312   0.541   1.945
10677SOL    HW232931   1.149   0.534   1.948
10678SOL     OW32932   4.492   4.908   4.105
10678SOL    HW132933   4.563   4.840   4.119
10678SOL    HW232934   4.410   4.882   4.156
10679SOL     OW32935   4.834   5.499   6.672
10679SOL    HW132936   4.871   5.551   6.594
10679SOL    HW232937   4.866   5.404   6.665
10680SOL     OW32938   4.166   1.815   3.812
10680SOL    HW132939   4.078   1.835   3.769
10680SOL    HW232940   4.154   1.807   3.911
10681SOL     OW32941   1.072   3.830   0.445
10681SOL    HW132942   1.112   3.908   0.396
10681SOL    HW232943   0.986   3.805   0.401
10682SOL     OW32944   0.796   1.116   5.239
10682SOL    HW132945   0.880   1.169   5.224
10682SOL    HW232946   0.778   1.110   5.337
10683SOL     OW32947   3.684   2.132   3.583
10683SOL    HW132948   3.775   2.171   3.570
10683SOL    HW232949   3.671   2.108   3.679
10684SOL     OW32950   5.418   4.518   2.293
10684SOL    HW132951   5.442   4.422   2.277
10684SOL    HW232952   5.355   4.549   2.222
10685SOL     OW32953   0.672   5.722   2.729
10685SOL    HW132954   0.749   5.721   2.666
10685SOL    HW232955   0.613   5.643   2.710
10686SOL     OW32956   0.800   4.706   6.224
10686SOL    HW132957   0.817   4.758   6.307
10686SOL    HW232958   0.701   4.690   6.215
10687SOL     OW32959   6.189   5.794   2.209
10687SOL    HW132960   6.160   5.699   2.199
10687SOL    HW232961   6.288   5.800   2.197
10688SOL     OW32962   6.519   3.972   2.387
10688SOL    HW132963   6.518   3.931   2.478
10688SOL    HW232964   6.474   3.910   2.322
10689SOL     OW32965   0.332   5.664   3.530
10689SOL    HW132966   0.375   5.590   3.478
10689SOL    HW232967   0.357   5.654   3.627
10690SOL     OW32968   6.865   6.500   3.495
10690SOL    HW132969   6.818   6.412   3.490
10690SOL    HW232970   6.964   6.485   3.492
10691SOL     OW32971   0.288   2.403   2.363
10691SOL    HW132972   0.352   2.416   2.287
10691SOL    HW232973   0.194   2.406   2.329
10692SOL     OW32974   3.393   5.851   3.565
10692SOL    HW132975   3.399   5.784   3.491
10692SOL    HW232976   3.310   5.906   3.554
10693SOL     OW32977   2.363   6.334   6.854
10693SOL    HW132978   2.335   6.423   6.818
10693SOL    HW232979   2.451   6.308   6.815
10694SOL     OW32980   5.183   6.610   1.790
10694SOL    HW132981   5.199   6.657   1.877
10694SOL    HW232982   5.085   6.598   1.776
10695SOL     OW32983   6.395   2.463   3.145
10695SOL    HW132984   6.441   2.498   3.063
10695SOL    HW232985   6.435   2.374   3.169
10696SOL     OW32986   0.224   3.569   3.646
10696SOL    HW132987   0.313   3.608   3.622
10696SOL    HW232988   0.225   3.471   3.628
10697SOL     OW32989   7.006   5.854   4.667
10697SOL    HW132990   0.050   5.774   4.658
10697SOL    HW232991   6.959   5.871   4.581
10698SOL     OW32992   4.638   5.085   5.807
10698SOL    HW132993   4.691   5.030   5.871
10698SOL    HW232994   4.618   5.174   5.849
10699SOL     OW32995   4.236   3.374   1.924
10699SOL    HW132996   4.245   3.351   2.021
10699SOL    HW232997   4.323   3.360   1.878
10700SOL     OW32998   6.890   6.596   1.329
10700SOL    HW132999   6.932   6.519   1.377
10700SOL    HW233000   6.823   6.561   1.263
10701SOL     OW33001   3.492   6.063   0.151
10701SOL    HW133002   3.514   5.986   0.091
10701SOL    HW233003   3.414   6.114   0.114
10702SOL     OW33004   6.002   2.708   1.682
10702SOL    HW133005   6.083   2.658   1.652
10702SOL    HW233006   6.000   2.713   1.782
10703SOL     OW33007   2.868   3.792   4.958
10703SOL    HW133008   2.847   3.803   5.055
10703SOL    HW233009   2.784   3.773   4.908
10704SOL     OW33010   6.516   5.710   1.509
10704SOL    HW133011   6.476   5.790   1.464
10704SOL    HW233012   6.598   5.737   1.559
10705SOL     OW33013   6.387   4.223   1.474
10705SOL    HW133014   6.313   4.159   1.492
10705SOL    HW233015   6.440   4.190   1.395
10706SOL     OW33016   5.032   6.197   1.694
10706SOL    HW133017   4.971   6.119   1.707
10706SOL    HW233018   4.985   6.281   1.724
10707SOL     OW33019   0.593   6.049   4.112
10707SOL    HW133020   0.559   6.050   4.206
10707SOL    HW233021   0.673   6.109   4.104
10708SOL     OW33022   4.178   0.494   2.272
10708SOL    HW133023   4.202   0.419   2.210
10708SOL    HW233024   4.260   0.547   2.294
10709SOL     OW33025   6.470   6.225   5.086
10709SOL    HW133026   6.396   6.270   5.136
10709SOL    HW233027   6.518   6.163   5.148
10710SOL     OW33028   0.390   6.493   4.702
10710SOL    HW133029   0.381   6.393   4.692
10710SOL    HW233030   0.422   6.514   4.794
10711SOL     OW33031   1.494   6.470   3.774
10711SOL    HW133032   1.432   6.450   3.697
10711SOL    HW233033   1.446   6.454   3.860
10712SOL     OW33034   2.726   1.584   1.227
10712SOL    HW133035   2.642   1.608   1.276
10712SOL    HW233036   2.805   1.605   1.283
10713SOL     OW33037   0.975   3.969   1.638
10713SOL    HW133038   1.009   4.053   1.680
10713SOL    HW233039   1.049   3.925   1.587
10714SOL     OW33040   6.022   4.008   4.378
10714SOL    HW133041   6.056   4.102   4.373
10714SOL    HW233042   5.935   4.006   4.428
10715SOL     OW33043   5.332   6.819   2.600
10715SOL    HW133044   5.389   6.895   2.631
10715SOL    HW233045   5.285   6.779   2.679
10716SOL     OW33046   5.456   2.272   4.176
10716SOL    HW133047   5.477   2.212   4.252
10716SOL    HW233048   5.470   2.367   4.203
10717SOL     OW33049   1.141   2.731   0.504
10717SOL    HW133050   1.198   2.809   0.480
10717SOL    HW233051   1.197   2.648   0.510
10718SOL     OW33052   1.144   2.401   6.415
10718SOL    HW133053   1.236   2.419   6.378
10718SOL    HW233054   1.076   2.431   6.349
10719SOL     OW33055   5.700   5.493   1.244
10719SOL    HW133056   5.654   5.575   1.209
10719SOL    HW233057   5.701   5.494   1.344
10720SOL     OW33058   0.036   3.691   5.054
10720SOL    HW133059   0.099   3.635   5.001
10720SOL    HW233060   6.960   3.650   5.051
10721SOL     OW33061   5.981   4.217   4.778
10721SOL    HW133062   5.990   4.125   4.816
10721SOL    HW233063   5.956   4.281   4.851
10722SOL     OW33064   0.485   4.040   0.914
10722SOL    HW133065   0.421   3.993   0.974
10722SOL    HW233066   0.576   3.999   0.924
10723SOL     OW33067   0.983   3.946   6.294
10723SOL    HW133068   1.012   3.872   6.234
10723SOL    HW233069   1.036   3.944   6.378
10724SOL     OW33070   4.700   1.008   6.840
10724SOL    HW133071   4.760   1.006   6.760
10724SOL    HW233072   4.735   0.946   6.909
10725SOL     OW33073   0.754   4.480   4.656
10725SOL    HW133074   0.769   4.554   4.721
10725SOL    HW233075   0.670   4.498   4.604
10726SOL     OW33076   4.931   0.139   5.530
10726SOL    HW133077   5.007   0.076   5.515
10726SOL    HW233078   4.963   0.233   5.522
10727SOL     OW33079   0.227   4.643   4.154
10727SOL    HW133080   0.176   4.729   4.163
10727SOL    HW233081   0.183   4.585   4.086
10728SOL     OW33082   6.539   6.208   0.567
10728SOL    HW133083   6.458   6.152   0.583
10728SOL    HW233084   6.601   6.201   0.646
10729SOL     OW33085   5.945   1.089   2.648
10729SOL    HW133086   5.989   1.032   2.578
10729SOL    HW233087   5.848   1.063   2.656
10730SOL     OW33088   2.466   0.040   1.981
10730SOL    HW133089   2.417   0.076   2.061
10730SOL    HW233090   2.427   6.967   1.955
10731SOL     OW33091   3.064   6.097   0.506
10731SOL    HW133092   3.103   6.015   0.549
10731SOL    HW233093   3.069   6.088   0.407
10732SOL     OW33094   4.823   5.250   2.455
10732SOL    HW133095   4.730   5.282   2.472
10732SOL    HW233096   4.834   5.229   2.358
10733SOL     OW33097   5.229   2.224   6.899
10733SOL    HW133098   5.170   2.255   6.974
10733SOL    HW233099   5.325   2.239   6.925
10734SOL     OW33100   1.497   0.196   0.249
10734SOL    HW133101   1.555   0.254   0.307
10734SOL    HW233102   1.406   0.187   0.290
10735SOL     OW33103   1.564   4.554   3.015
10735SOL    HW133104   1.632   4.542   3.087
10735SOL    HW233105   1.605   4.605   2.939
10736SOL     OW33106   6.920   0.514   3.441
10736SOL    HW133107   7.015   0.520   3.473
10736SOL    HW233108   6.919   0.496   3.343
10737SOL     OW33109   1.299   1.943   0.353
10737SOL    HW133110   1.320   1.848   0.330
10737SOL    HW233111   1.321   2.002   0.276
10738SOL     OW33112   2.640   1.129   3.190
10738SOL    HW133113   2.714   1.077   3.148
10738SOL    HW233114   2.660   1.227   3.183
10739SOL     OW33115   0.283   1.142   1.329
10739SOL    HW133116   0.337   1.109   1.251
10739SOL    HW233117   0.229   1.221   1.301
10740SOL     OW33118   0.669   4.541   5.862
10740SOL    HW133119   0.609   4.615   5.833
10740SOL    HW233120   0.661   4.528   5.961
10741SOL     OW33121   0.580   0.825   3.080
10741SOL    HW133122   0.515   0.779   3.140
10741SOL    HW233123   0.666   0.775   3.079
10742SOL     OW33124   5.834   0.330   1.926
10742SOL    HW133125   5.912   0.327   1.988
10742SOL    HW233126   5.796   0.422   1.924
10743SOL     OW33127   2.243   1.924   5.157
10743SOL    HW133128   2.210   2.002   5.209
10743SOL    HW233129   2.335   1.944   5.122
10744SOL     OW33130   2.587   1.666   2.174
10744SOL    HW133131   2.612   1.695   2.266
10744SOL    HW233132   2.635   1.722   2.107
10745SOL     OW33133   1.053   4.742   0.654
10745SOL    HW133134   1.130   4.742   0.717
10745SOL    HW233135   0.972   4.705   0.700
10746SOL     OW33136   1.971   3.878   1.319
10746SOL    HW133137   1.919   3.917   1.395
10746SOL    HW233138   2.038   3.813   1.354
10747SOL     OW33139   4.277   0.494   3.018
10747SOL    HW133140   4.337   0.531   2.948
10747SOL    HW233141   4.323   0.495   3.106
10748SOL     OW33142   3.552   0.817   1.307
10748SOL    HW133143   3.459   0.830   1.273
10748SOL    HW233144   3.580   0.898   1.359
10749SOL     OW33145   6.720   5.159   3.305
10749SOL    HW133146   6.643   5.179   3.365
10749SOL    HW233147   6.806   5.180   3.353
10750SOL     OW33148   4.113   6.190   4.123
10750SOL    HW133149   4.067   6.279   4.121
10750SOL    HW233150   4.070   6.129   4.055
10751SOL     OW33151   1.320   4.195   4.475
10751SOL    HW133152   1.261   4.201   4.555
10751SOL    HW233153   1.413   4.170   4.503
10752SOL     OW33154   6.036   3.761   6.173
10752SOL    HW133155   6.099   3.787   6.246
10752SOL    HW233156   6.030   3.661   6.168
10753SOL     OW33157   4.115   6.831   4.482
10753SOL    HW133158   4.045   6.759   4.483
10753SOL    HW233159   4.136   6.859   4.576
10754SOL     OW33160   1.095   1.717   3.537
10754SOL    HW133161   1.004   1.731   3.576
10754SOL    HW233162   1.116   1.792   3.474
10755SOL     OW33163   0.525   1.960   6.628
10755SOL    HW133164   0.466   1.885   6.661
10755SOL    HW233165   0.618   1.947   6.662
10756SOL     OW33166   6.520   4.336   0.178
10756SOL    HW133167   6.547   4.240   0.179
10756SOL    HW233168   6.520   4.371   0.272
10757SOL     OW33169   1.325   2.879   6.716
10757SOL    HW133170   1.253   2.908   6.779
10757SOL    HW233171   1.373   2.800   6.754
10758SOL     OW33172   1.000   6.586   5.455
10758SOL    HW133173   1.015   6.678   5.491
10758SOL    HW233174   1.087   6.537   5.453
10759SOL     OW33175   1.984   2.942   6.859
10759SOL    HW133176   1.910   2.923   6.924
10759SOL    HW233177   1.994   2.865   6.797
10760SOL     OW33178   6.272   1.183   0.462
10760SOL    HW133179   6.280   1.275   0.498
10760SOL    HW233180   6.286   1.184   0.363
10761SOL     OW33181   1.426   1.714   6.221
10761SOL    HW133182   1.477   1.647   6.167
10761SOL    HW233183   1.428   1.688   6.318
10762SOL     OW33184   3.530   1.809   4.953
10762SOL    HW133185   3.493   1.895   4.918
10762SOL    HW233186   3.518   1.805   5.053
10763SOL     OW33187   4.436   6.368   1.116
10763SOL    HW133188   4.371   6.444   1.119
10763SOL    HW233189   4.386   6.282   1.107
10764SOL     OW33190   5.792   2.134   6.114
10764SOL    HW133191   5.697   2.166   6.115
10764SOL    HW233192   5.819   2.109   6.207
10765SOL     OW33193   5.970   2.868   1.032
10765SOL    HW133194   5.963   2.843   1.129
10765SOL    HW233195   5.989   2.786   0.978
10766SOL     OW33196   3.935   2.709   1.352
10766SOL    HW133197   3.919   2.727   1.255
10766SOL    HW233198   3.929   2.611   1.369
10767SOL     OW33199   1.120   0.515   6.961
10767SOL    HW133200   1.144   0.418   6.959
10767SOL    HW233201   1.198   0.569   6.993
10768SOL     OW33202   4.354   5.159   0.796
10768SOL    HW133203   4.318   5.238   0.845
10768SOL    HW233204   4.315   5.075   0.833
10769SOL     OW33205   2.044   5.258   4.638
10769SOL    HW133206   2.096   5.183   4.679
10769SOL    HW233207   2.066   5.343   4.685
10770SOL     OW33208   5.186   0.159   4.952
10770SOL    HW133209   5.107   0.185   5.007
10770SOL    HW233210   5.182   0.061   4.932
10771SOL     OW33211   5.132   1.052   4.193
10771SOL    HW133212   5.033   1.066   4.191
10771SOL    HW233213   5.168   1.080   4.282
10772SOL     OW33214   0.067   6.419   4.441
10772SOL    HW133215   0.148   6.477   4.448
10772SOL    HW233216   0.072   6.346   4.508
10773SOL     OW33217   0.260   5.267   6.849
10773SOL    HW133218   0.323   5.322   6.795
10773SOL    HW233219   0.308   5.227   6.926
10774SOL     OW33220   1.475   1.665   6.723
10774SOL    HW133221   1.555   1.711   6.764
10774SOL    HW233222   1.399   1.729   6.719
10775SOL     OW33223   0.282   2.690   0.548
10775SOL    HW133224   0.290   2.591   0.537
10775SOL    HW233225   0.372   2.728   0.572
10776SOL     OW33226   1.407   6.357   0.086
10776SOL    HW133227   1.432   6.316   0.174
10776SOL    HW233228   1.353   6.292   0.033
10777SOL     OW33229   3.656   5.800   4.172
10777SOL    HW133230   3.571   5.851   4.184
10777SOL    HW233231   3.660   5.725   4.239
10778SOL     OW33232   5.533   6.373   5.334
10778SOL    HW133233   5.542   6.273   5.335
10778SOL    HW233234   5.524   6.405   5.240
10779SOL     OW33235   5.984   4.773   3.279
10779SOL    HW133236   6.074   4.754   3.318
10779SOL    HW233237   5.929   4.690   3.281
10780SOL     OW33238   1.549   0.156   3.993
10780SOL    HW133239   1.596   0.174   4.079
10780SOL    HW233240   1.496   0.071   4.001
10781SOL     OW33241   4.014   0.971   3.122
10781SOL    HW133242   4.106   0.953   3.086
10781SOL    HW233243   3.950   0.906   3.082
10782SOL     OW33244   7.008   2.101   3.497
10782SOL    HW133245   6.917   2.064   3.519
10782SOL    HW233246   7.013   2.196   3.527
10783SOL     OW33247   1.039   3.676   3.495
10783SOL    HW133248   1.064   3.655   3.589
10783SOL    HW233249   1.110   3.643   3.433
10784SOL     OW33250   3.468   1.044   3.776
10784SOL    HW133251   3.446   1.141   3.774
10784SOL    HW233252   3.534   1.026   3.849
10785SOL     OW33253   6.904   5.064   1.294
10785SOL    HW133254   6.850   5.073   1.377
10785SOL    HW233255   6.989   5.117   1.303
10786SOL     OW33256   4.732   4.989   2.194
10786SOL    HW133257   4.646   4.945   2.217
10786SOL    HW233258   4.796   4.921   2.159
10787SOL     OW33259   3.095   1.711   4.542
10787SOL    HW133260   3.164   1.740   4.476
10787SOL    HW233261   3.086   1.781   4.613
10788SOL     OW33262   2.319   4.918   6.324
10788SOL    HW133263   2.288   4.894   6.416
10788SOL    HW233264   2.416   4.944   6.328
10789SOL     OW33265   6.159   2.844   6.970
10789SOL    HW133266   6.113   2.865   0.041
10789SOL    HW233267   6.099   2.790   6.912
10790SOL     OW33268   1.030   0.768   2.576
10790SOL    HW133269   0.997   0.675   2.564
10790SOL    HW233270   1.019   0.820   2.491
10791SOL     OW33271   0.202   7.005   0.565
10791SOL    HW133272   0.231   6.918   0.606
10791SOL    HW233273   0.218   7.001   0.466
10792SOL     OW33274   3.534   3.818   3.001
10792SOL    HW133275   3.529   3.744   2.934
10792SOL    HW233276   3.627   3.824   3.038
10793SOL     OW33277   5.023   2.688   3.974
10793SOL    HW133278   4.940   2.641   3.944
10793SOL    HW233279   5.076   2.716   3.893
10794SOL     OW33280   2.939   3.759   3.730
10794SOL    HW133281   2.972   3.818   3.804
10794SOL    HW233282   3.005   3.686   3.714
10795SOL     OW33283   0.123   4.251   3.364
10795SOL    HW133284   0.172   4.260   3.450
10795SOL    HW233285   0.024   4.253   3.381
10796SOL     OW33286   5.848   6.706   0.653
10796SOL    HW133287   5.931   6.652   0.665
10796SOL    HW233288   5.821   6.705   0.556
10797SOL     OW33289   3.740   1.818   1.590
10797SOL    HW133290   3.671   1.814   1.662
10797SOL    HW233291   3.756   1.914   1.565
10798SOL     OW33292   2.418   6.359   1.013
10798SOL    HW133293   2.336   6.405   1.048
10798SOL    HW233294   2.499   6.392   1.062
10799SOL     OW33295   3.287   0.521   2.260
10799SOL    HW133296   3.346   0.587   2.308
10799SOL    HW233297   3.245   0.459   2.326
10800SOL     OW33298   0.283   0.102   0.166
10800SOL    HW133299   0.234   0.028   0.211
10800SOL    HW233300   0.357   0.064   0.109
10801SOL     OW33301   0.583   6.443   6.240
10801SOL    HW133302   0.622   6.515   6.298
10801SOL    HW233303   0.520   6.483   6.174
10802SOL     OW33304   0.982   2.746   3.414
10802SOL    HW133305   0.930   2.758   3.329
10802SOL    HW233306   0.923   2.764   3.492
10803SOL     OW33307   3.288   3.479   5.845
10803SOL    HW133308   3.270   3.573   5.872
10803SOL    HW233309   3.209   3.442   5.797
10804SOL     OW33310   5.667   3.881   1.658
10804SOL    HW133311   5.568   3.867   1.646
10804SOL    HW233312   5.714   3.793   1.648
10805SOL     OW33313   3.901   6.897   0.213
10805SOL    HW133314   3.836   6.827   0.241
10805SOL    HW233315   3.988   6.853   0.187
10806SOL     OW33316   4.768   3.775   6.009
10806SOL    HW133317   4.800   3.790   6.102
10806SOL    HW233318   4.720   3.688   6.003
10807SOL     OW33319   1.394   0.177   2.376
10807SOL    HW133320   1.476   0.217   2.416
10807SOL    HW233321   1.353   0.242   2.312
10808SOL     OW33322   6.410   2.937   6.634
10808SOL    HW133323   6.438   2.844   6.657
10808SOL    HW233324   6.440   3.000   6.706
10809SOL     OW33325   3.108   6.004   3.920
10809SOL    HW133326   3.010   5.987   3.926
10809SOL    HW233327   3.124   6.090   3.872
10810SOL     OW33328   2.244   0.676   4.824
10810SOL    HW133329   2.276   0.743   4.891
10810SOL    HW233330   2.273   0.705   4.733
10811SOL     OW33331   3.917   4.720   5.436
10811SOL    HW133332   3.970   4.660   5.375
10811SOL    HW233333   3.933   4.815   5.411
10812SOL     OW33334   0.864   3.504   1.496
10812SOL    HW133335   0.905   3.433   1.438
10812SOL    HW233336   0.936   3.560   1.537
10813SOL     OW33337   2.317   4.855   6.616
10813SOL    HW133338   2.414   4.840   6.635
10813SOL    HW233339   2.282   4.928   6.675
10814SOL     OW33340   1.561   6.601   6.643
10814SOL    HW133341   1.561   6.657   6.560
10814SOL    HW233342   1.480   6.624   6.698
10815SOL     OW33343   4.772   4.448   3.878
10815SOL    HW133344   4.742   4.358   3.910
10815SOL    HW233345   4.746   4.460   3.782
10816SOL     OW33346   2.122   2.510   1.290
10816SOL    HW133347   2.189   2.470   1.353
10816SOL    HW233348   2.109   2.449   1.212
10817SOL     OW33349   5.117   6.494   2.839
10817SOL    HW133350   5.068   6.468   2.756
10817SOL    HW233351   5.153   6.412   2.883
10818SOL     OW33352   4.361   4.705   5.372
10818SOL    HW133353   4.438   4.714   5.435
10818SOL    HW233354   4.279   4.743   5.414
10819SOL     OW33355   6.938   4.535   6.651
10819SOL    HW133356   6.925   4.586   6.565
10819SOL    HW233357   6.980   4.595   6.719
10820SOL     OW33358   5.776   5.764   4.228
10820SOL    HW133359   5.822   5.719   4.153
10820SOL    HW233360   5.715   5.835   4.192
10821SOL     OW33361   5.553   6.789   1.900
10821SOL    HW133362   5.469   6.826   1.860
10821SOL    HW233363   5.534   6.756   1.992
10822SOL     OW33364   0.429   3.077   3.006
10822SOL    HW133365   0.484   3.129   2.942
10822SOL    HW233366   0.446   3.109   3.099
10823SOL     OW33367   1.578   5.484   1.502
10823SOL    HW133368   1.543   5.452   1.589
10823SOL    HW233369   1.508   5.475   1.431
10824SOL     OW33370   6.548   1.140   3.536
10824SOL    HW133371   6.485   1.186   3.600
10824SOL    HW233372   6.521   1.045   3.526
10825SOL     OW33373   2.805   0.600   6.174
10825SOL    HW133374   2.862   0.652   6.111
10825SOL    HW233375   2.725   0.655   6.200
10826SOL     OW33376   0.785   3.160   3.655
10826SOL    HW133377   0.821   3.239   3.704
10826SOL    HW233378   0.694   3.138   3.690
10827SOL     OW33379   5.743   4.167   4.270
10827SOL    HW133380   5.752   4.232   4.346
10827SOL    HW233381   5.687   4.090   4.299
10828SOL     OW33382   0.969   5.631   2.252
10828SOL    HW133383   0.932   5.710   2.299
10828SOL    HW233384   0.918   5.615   2.167
10829SOL     OW33385   3.777   2.165   1.294
10829SOL    HW133386   3.823   2.095   1.239
10829SOL    HW233387   3.699   2.201   1.242
10830SOL     OW33388   5.047   1.656   3.484
10830SOL    HW133389   5.141   1.683   3.467
10830SOL    HW233390   5.014   1.599   3.409
10831SOL     OW33391   3.664   5.682   2.595
10831SOL    HW133392   3.626   5.601   2.552
10831SOL    HW233393   3.696   5.746   2.525
10832SOL     OW33394   1.285   2.554   0.196
10832SOL    HW133395   1.209   2.618   0.188
10832SOL    HW233396   1.291   2.521   0.291
10833SOL     OW33397   1.639   1.052   1.861
10833SOL    HW133398   1.643   1.150   1.842
10833SOL    HW233399   1.636   1.037   1.960
10834SOL     OW33400   1.122   2.073   6.296
10834SOL    HW133401   1.131   1.984   6.341
10834SOL    HW233402   1.200   2.130   6.321
10835SOL     OW33403   6.465   1.819   0.056
10835SOL    HW133404   6.490   1.748   7.005
10835SOL    HW233405   6.407   1.779   0.127
10836SOL     OW33406   6.885   2.120   4.643
10836SOL    HW133407   6.856   2.139   4.550
10836SOL    HW233408   6.810   2.140   4.706
10837SOL     OW33409   0.171   4.740   0.730
10837SOL    HW133410   0.082   4.696   0.726
10837SOL    HW233411   0.170   4.823   0.674
10838SOL     OW33412   5.786   6.344   4.786
10838SOL    HW133413   5.721   6.321   4.858
10838SOL    HW233414   5.750   6.417   4.729
10839SOL     OW33415   3.973   3.145   1.307
10839SOL    HW133416   3.925   3.129   1.220
10839SOL    HW233417   3.907   3.148   1.381
10840SOL     OW33418   3.230   5.424   2.322
10840SOL    HW133419   3.296   5.477   2.269
10840SOL    HW233420   3.142   5.423   2.275
10841SOL     OW33421   5.084   5.459   6.928
10841SOL    HW133422   5.117   5.486   6.838
10841SOL    HW233423   5.127   5.372   6.954
10842SOL     OW33424   5.045   2.458   1.487
10842SOL    HW133425   5.026   2.527   1.557
10842SOL    HW233426   5.124   2.403   1.514
10843SOL     OW33427   1.411   2.465   1.182
10843SOL    HW133428   1.329   2.516   1.156
10843SOL    HW233429   1.457   2.433   1.100
10844SOL     OW33430   0.222   6.662   3.783
10844SOL    HW133431   0.277   6.677   3.865
10844SOL    HW233432   0.214   6.564   3.766
10845SOL     OW33433   3.062   0.115   5.629
10845SOL    HW133434   3.033   0.183   5.561
10845SOL    HW233435   3.113   0.161   5.702
10846SOL     OW33436   4.959   2.187   0.667
10846SOL    HW133437   4.895   2.128   0.716
10846SOL    HW233438   4.933   2.283   0.679
10847SOL     OW33439   4.069   3.523   6.318
10847SOL    HW133440   4.121   3.585   6.377
10847SOL    HW233441   3.977   3.559   6.304
10848SOL     OW33442   2.907   3.656   6.843
10848SOL    HW133443   2.966   3.578   6.824
10848SOL    HW233444   2.963   3.739   6.851
10849SOL     OW33445   2.756   6.281   3.168
10849SOL    HW133446   2.660   6.283   3.199
10849SOL    HW233447   2.769   6.202   3.108
10850SOL     OW33448   3.396   5.344   0.295
10850SOL    HW133449   3.429   5.285   0.369
10850SOL    HW233450   3.448   5.430   0.296
10851SOL     OW33451   2.603   2.801   6.434
10851SOL    HW133452   2.604   2.837   6.527
10851SOL    HW233453   2.675   2.845   6.380
10852SOL     OW33454   1.259   0.241   6.628
10852SOL    HW133455   1.340   0.184   6.620
10852SOL    HW233456   1.185   0.202   6.573
10853SOL     OW33457   3.129   2.338   5.851
10853SOL    HW133458   3.096   2.254   5.894
10853SOL    HW233459   3.226   2.328   5.828
10854SOL     OW33460   4.565   6.342   5.109
10854SOL    HW133461   4.657   6.319   5.078
10854SOL    HW233462   4.511   6.259   5.120
10855SOL     OW33463   2.552   6.642   1.284
10855SOL    HW133464   2.543   6.715   1.216
10855SOL    HW233465   2.630   6.661   1.344
10856SOL     OW33466   6.201   1.559   1.729
10856SOL    HW133467   6.283   1.508   1.754
10856SOL    HW233468   6.133   1.551   1.802
10857SOL     OW33469   6.151   2.591   3.193
10857SOL    HW133470   6.126   2.559   3.285
10857SOL    HW233471   6.241   2.554   3.169
10858SOL     OW33472   0.816   2.011   6.266
10858SOL    HW133473   0.838   2.088   6.325
10858SOL    HW233474   0.900   1.964   6.239
10859SOL     OW33475   2.275   2.883   4.094
10859SOL    HW133476   2.262   2.979   4.120
10859SOL    HW233477   2.228   2.865   4.008
10860SOL     OW33478   6.355   1.809   5.880
10860SOL    HW133479   6.439   1.768   5.846
10860SOL    HW233480   6.326   1.762   5.964
10861SOL     OW33481   3.740   3.354   3.429
10861SOL    HW133482   3.728   3.452   3.444
10861SOL    HW233483   3.735   3.334   3.331
10862SOL     OW33484   2.417   1.646   6.467
10862SOL    HW133485   2.496   1.608   6.516
10862SOL    HW233486   2.436   1.742   6.443
10863SOL     OW33487   4.003   0.565   3.073
10863SOL    HW133488   3.978   0.535   3.166
10863SOL    HW233489   4.099   0.544   3.057
10864SOL     OW33490   3.131   5.313   0.717
10864SOL    HW133491   3.220   5.358   0.710
10864SOL    HW233492   3.084   5.344   0.800
10865SOL     OW33493   6.218   1.359   2.936
10865SOL    HW133494   6.158   1.281   2.954
10865SOL    HW233495   6.200   1.395   2.844
10866SOL     OW33496   4.915   4.719   0.378
10866SOL    HW133497   4.879   4.725   0.285
10866SOL    HW233498   4.887   4.801   0.429
10867SOL     OW33499   3.454   4.267   0.293
10867SOL    HW133500   3.512   4.199   0.339
10867SOL    HW233501   3.361   4.263   0.332
10868SOL     OW33502   2.938   2.222   3.703
10868SOL    HW133503   3.020   2.176   3.671
10868SOL    HW233504   2.864   2.155   3.713
10869NA      NA33505   0.707   2.250   5.834
10870NA      NA33506   4.408   4.688   5.146
10871NA      NA33507   1.857   4.214   2.526
10872NA      NA33508   5.020   4.153   3.643
10873NA      NA33509   4.104   2.319   5.266
10874NA      NA33510   3.141   4.790   1.706
10875NA      NA33511   0.087   4.345   0.229
10876NA      NA33512   3.340   3.465   3.110
10877NA      NA33513   4.858   5.110   1.028
10878NA      NA33514   3.931   6.618   5.351
10879NA      NA33515   6.118   5.368   1.291
10880NA      NA33516   1.844   0.843   4.861
10881NA      NA33517   3.868   4.953   1.709
10882NA      NA33518   4.139   3.272   1.746
   7.01575   7.01575   7.01575
