Generated by trjconv : CNT in water t= 283.00000
33518
    1C        C    1   2.846   2.769   4.745
    1C        C    2   2.895   2.717   4.866
    1C        C    3   2.836   2.765   4.984
    1C        C    4   2.849   2.773   4.259
    1C        C    5   2.899   2.723   4.381
    1C        C    6   2.846   2.770   4.504
    1C        C    7   3.015   2.638   4.624
    1C        C    8   2.900   2.719   4.624
    1C        C    9   3.075   2.601   4.746
    1C        C   10   3.007   2.631   4.866
    1C        C   11   3.183   2.495   4.979
    1C        C   12   3.063   2.567   4.978
    1C        C   13   2.847   2.765   3.770
    1C        C   14   2.901   2.720   3.892
    1C        C   15   2.850   2.770   4.014
    1C        C   16   3.015   2.639   4.136
    1C        C   17   2.902   2.724   4.137
    1C        C   18   3.073   2.602   4.260
    1C        C   19   3.014   2.641   4.382
    1C        C   20   3.208   2.550   4.500
    1C        C   21   3.076   2.600   4.502
    1C        C   22   3.274   2.528   4.623
    1C        C   23   3.207   2.548   4.745
    1C        C   24   3.410   2.480   4.863
    1C        C   25   3.268   2.499   4.864
    1C        C   26   3.487   2.471   4.980
    1C        C   27   2.848   2.769   3.277
    1C        C   28   2.903   2.725   3.400
    1C        C   29   2.851   2.767   3.524
    1C        C   30   3.013   2.634   3.649
    1C        C   31   2.899   2.718   3.647
    1C        C   32   3.076   2.599   3.770
    1C        C   33   3.014   2.637   3.892
    1C        C   34   3.206   2.545   4.014
    1C        C   35   3.078   2.604   4.014
    1C        C   36   3.274   2.529   4.137
    1C        C   37   3.204   2.549   4.259
    1C        C   38   3.415   2.503   4.381
    1C        C   39   3.276   2.527   4.378
    1C        C   40   3.485   2.501   4.503
    1C        C   41   3.412   2.497   4.624
    1C        C   42   3.629   2.482   4.745
    1C        C   43   3.487   2.480   4.743
    1C        C   44   3.705   2.489   4.864
    1C        C   45   3.626   2.481   4.979
    1C        C   46   2.839   2.756   2.792
    1C        C   47   2.897   2.712   2.913
    1C        C   48   2.846   2.764   3.034
    1C        C   49   3.011   2.629   3.161
    1C        C   50   2.900   2.717   3.156
    1C        C   51   3.076   2.601   3.284
    1C        C   52   3.018   2.643   3.406
    1C        C   53   3.205   2.542   3.523
    1C        C   54   3.076   2.600   3.527
    1C        C   55   3.273   2.525   3.646
    1C        C   56   3.207   2.547   3.770
    1C        C   57   3.414   2.502   3.894
    1C        C   58   3.275   2.526   3.892
    1C        C   59   3.485   2.503   4.016
    1C        C   60   3.414   2.510   4.137
    1C        C   61   3.627   2.503   4.260
    1C        C   62   3.486   2.504   4.259
    1C        C   63   3.699   2.502   4.381
    1C        C   64   3.626   2.502   4.502
    1C        C   65   3.832   2.550   4.622
    1C        C   66   3.698   2.503   4.624
    1C        C   67   3.902   2.571   4.743
    1C        C   68   3.840   2.530   4.863
    1C        C   69   4.052   2.584   4.974
    1C        C   70   3.922   2.532   4.977
    1C        C   71   2.817   2.727   2.307
    1C        C   72   2.878   2.687   2.428
    1C        C   73   2.830   2.744   2.548
    1C        C   74   3.005   2.625   2.669
    1C        C   75   2.885   2.699   2.671
    1C        C   76   3.070   2.593   2.791
    1C        C   77   3.012   2.630   2.914
    1C        C   78   3.203   2.545   3.036
    1C        C   79   3.073   2.599   3.038
    1C        C   80   3.273   2.530   3.158
    1C        C   81   3.206   2.547   3.281
    1C        C   82   3.414   2.497   3.402
    1C        C   83   3.275   2.521   3.402
    1C        C   84   3.483   2.495   3.525
    1C        C   85   3.412   2.501   3.647
    1C        C   86   3.623   2.501   3.766
    1C        C   87   3.482   2.499   3.770
    1C        C   88   3.695   2.512   3.888
    1C        C   89   3.626   2.508   4.011
    1C        C   90   3.830   2.549   4.134
    1C        C   91   3.693   2.515   4.135
    1C        C   92   3.898   2.573   4.256
    1C        C   93   3.836   2.539   4.378
    1C        C   94   4.027   2.631   4.497
    1C        C   95   3.899   2.571   4.500
    1C        C   96   4.095   2.665   4.617
    1C        C   97   4.030   2.632   4.738
    1C        C   98   4.194   2.764   4.862
    1C        C   99   4.099   2.656   4.860
    1C        C  100   4.204   2.852   4.970
    1C        C  101   2.824   2.734   2.068
    1C        C  102   2.985   2.590   2.188
    1C        C  103   2.870   2.674   2.186
    1C        C  104   3.060   2.575   2.308
    1C        C  105   2.998   2.614   2.429
    1C        C  106   3.197   2.530   2.549
    1C        C  107   3.069   2.588   2.549
    1C        C  108   3.267   2.516   2.671
    1C        C  109   3.200   2.538   2.793
    1C        C  110   3.409   2.499   2.913
    1C        C  111   3.269   2.516   2.914
    1C        C  112   3.481   2.491   3.035
    1C        C  113   3.411   2.500   3.157
    1C        C  114   3.624   2.497   3.279
    1C        C  115   3.483   2.492   3.279
    1C        C  116   3.695   2.503   3.401
    1C        C  117   3.625   2.497   3.523
    1C        C  118   3.830   2.546   3.643
    1C        C  119   3.696   2.504   3.645
    1C        C  120   3.894   2.574   3.766
    1C        C  121   3.831   2.549   3.890
    1C        C  122   4.024   2.636   4.014
    1C        C  123   3.898   2.572   4.012
    1C        C  124   4.088   2.670   4.135
    1C        C  125   4.025   2.635   4.257
    1C        C  126   4.197   2.762   4.374
    1C        C  127   4.088   2.673   4.377
    1C        C  128   4.245   2.816   4.496
    1C        C  129   4.199   2.760   4.617
    1C        C  130   4.329   2.929   4.738
    1C        C  131   4.244   2.816   4.739
    1C        C  132   4.362   2.998   4.857
    1C        C  133   4.287   2.963   4.970
    1C        C  134   3.168   2.463   2.083
    1C        C  135   3.033   2.502   2.086
    1C        C  136   3.255   2.472   2.192
    1C        C  137   3.189   2.516   2.309
    1C        C  138   3.404   2.483   2.425
    1C        C  139   3.264   2.501   2.428
    1C        C  140   3.477   2.481   2.546
    1C        C  141   3.406   2.489   2.668
    1C        C  142   3.618   2.492   2.790
    1C        C  143   3.477   2.487   2.790
    1C        C  144   3.690   2.503   2.912
    1C        C  145   3.622   2.498   3.035
    1C        C  146   3.832   2.538   3.153
    1C        C  147   3.694   2.505   3.157
    1C        C  148   3.898   2.565   3.275
    1C        C  149   3.831   2.541   3.397
    1C        C  150   4.025   2.625   3.521
    1C        C  151   3.897   2.566   3.520
    1C        C  152   4.081   2.669   3.643
    1C        C  153   4.021   2.637   3.767
    1C        C  154   4.192   2.760   3.888
    1C        C  155   4.080   2.674   3.889
    1C        C  156   4.247   2.807   4.009
    1C        C  157   4.198   2.759   4.133
    1C        C  158   4.336   2.925   4.248
    1C        C  159   4.249   2.813   4.253
    1C        C  160   4.379   2.980   4.371
    1C        C  161   4.332   2.927   4.493
    1C        C  162   4.439   3.109   4.612
    1C        C  163   4.372   2.985   4.615
    1C        C  164   4.472   3.178   4.731
    1C        C  165   4.441   3.115   4.854
    1C        C  166   4.519   3.314   4.971
    1C        C  167   4.479   3.181   4.971
    1C        C  168   3.471   2.435   2.072
    1C        C  169   3.395   2.451   2.189
    1C        C  170   3.617   2.467   2.305
    1C        C  171   3.475   2.467   2.304
    1C        C  172   3.689   2.484   2.426
    1C        C  173   3.618   2.487   2.548
    1C        C  174   3.824   2.543   2.665
    1C        C  175   3.690   2.498   2.669
    1C        C  176   3.890   2.570   2.787
    1C        C  177   3.826   2.541   2.910
    1C        C  178   4.023   2.626   3.029
    1C        C  179   3.895   2.566   3.030
    1C        C  180   4.086   2.661   3.150
    1C        C  181   4.026   2.625   3.273
    1C        C  182   4.192   2.750   3.398
    1C        C  183   4.082   2.662   3.397
    1C        C  184   4.246   2.798   3.520
    1C        C  185   4.197   2.750   3.643
    1C        C  186   4.331   2.916   3.763
    1C        C  187   4.247   2.803   3.765
    1C        C  188   4.374   2.977   3.883
    1C        C  189   4.337   2.916   4.005
    1C        C  190   4.448   3.102   4.126
    1C        C  191   4.379   2.978   4.124
    1C        C  192   4.475   3.169   4.247
    1C        C  193   4.444   3.106   4.369
    1C        C  194   4.498   3.312   4.490
    1C        C  195   4.471   3.173   4.490
    1C        C  196   4.521   3.382   4.610
    1C        C  197   4.513   3.314   4.733
    1C        C  198   4.551   3.529   4.850
    1C        C  199   4.538   3.387   4.853
    1C        C  200   4.580   3.616   4.960
    1C        C  201   3.609   2.413   2.077
    1C        C  202   3.825   2.511   2.184
    1C        C  203   3.692   2.459   2.185
    1C        C  204   3.898   2.539   2.303
    1C        C  205   3.827   2.516   2.423
    1C        C  206   4.020   2.614   2.542
    1C        C  207   3.893   2.551   2.542
    1C        C  208   4.082   2.654   2.662
    1C        C  209   4.020   2.626   2.786
    1C        C  210   4.193   2.752   2.908
    1C        C  211   4.082   2.665   2.906
    1C        C  212   4.244   2.801   3.030
    1C        C  213   4.199   2.746   3.153
    1C        C  214   4.340   2.899   3.273
    1C        C  215   4.252   2.789   3.276
    1C        C  216   4.370   2.967   3.393
    1C        C  217   4.333   2.910   3.516
    1C        C  218   4.430   3.098   3.637
    1C        C  219   4.369   2.970   3.638
    1C        C  220   4.460   3.167   3.757
    1C        C  221   4.438   3.103   3.881
    1C        C  222   4.504   3.304   4.000
    1C        C  223   4.470   3.167   4.002
    1C        C  224   4.511   3.375   4.122
    1C        C  225   4.503   3.308   4.246
    1C        C  226   4.514   3.522   4.363
    1C        C  227   4.510   3.380   4.367
    1C        C  228   4.512   3.593   4.485
    1C        C  229   4.523   3.523   4.607
    1C        C  230   4.498   3.737   4.727
    1C        C  231   4.529   3.598   4.727
    1C        C  232   4.484   3.813   4.845
    1C        C  233   4.546   3.752   4.955
    1C        C  234   4.018   2.607   2.061
    1C        C  235   3.893   2.547   2.067
    1C        C  236   4.085   2.644   2.177
    1C        C  237   4.021   2.611   2.298
    1C        C  238   4.200   2.728   2.422
    1C        C  239   4.083   2.647   2.420
    1C        C  240   4.252   2.781   2.542
    1C        C  241   4.195   2.738   2.665
    1C        C  242   4.342   2.898   2.784
    1C        C  243   4.243   2.797   2.784
    1C        C  244   4.381   2.958   2.905
    1C        C  245   4.338   2.906   3.029
    1C        C  246   4.437   3.091   3.149
    1C        C  247   4.379   2.962   3.153
    1C        C  248   4.457   3.158   3.271
    1C        C  249   4.426   3.097   3.395
    1C        C  250   4.496   3.300   3.513
    1C        C  251   4.455   3.165   3.515
    1C        C  252   4.507   3.374   3.633
    1C        C  253   4.500   3.303   3.755
    1C        C  254   4.519   3.514   3.876
    1C        C  255   4.513   3.373   3.877
    1C        C  256   4.519   3.586   3.998
    1C        C  257   4.518   3.516   4.120
    1C        C  258   4.491   3.730   4.240
    1C        C  259   4.515   3.591   4.240
    1C        C  260   4.465   3.798   4.362
    1C        C  261   4.485   3.732   4.485
    1C        C  262   4.417   3.934   4.603
    1C        C  263   4.470   3.803   4.606
    1C        C  264   4.390   4.005   4.723
    1C        C  265   4.424   3.941   4.843
    1C        C  266   4.315   4.131   4.957
    1C        C  267   4.387   4.012   4.958
    1C        C  268   4.259   2.773   2.061
    1C        C  269   4.197   2.731   2.180
    1C        C  270   4.345   2.885   2.298
    1C        C  271   4.254   2.776   2.301
    1C        C  272   4.382   2.949   2.419
    1C        C  273   4.341   2.890   2.541
    1C        C  274   4.447   3.078   2.661
    1C        C  275   4.384   2.952   2.660
    1C        C  276   4.478   3.146   2.781
    1C        C  277   4.452   3.081   2.904
    1C        C  278   4.498   3.290   3.024
    1C        C  279   4.470   3.151   3.025
    1C        C  280   4.505   3.363   3.144
    1C        C  281   4.491   3.296   3.267
    1C        C  282   4.506   3.508   3.386
    1C        C  283   4.505   3.367   3.389
    1C        C  284   4.511   3.580   3.507
    1C        C  285   4.514   3.515   3.632
    1C        C  286   4.483   3.724   3.751
    1C        C  287   4.511   3.586   3.754
    1C        C  288   4.462   3.790   3.874
    1C        C  289   4.487   3.724   3.997
    1C        C  290   4.416   3.926   4.114
    1C        C  291   4.472   3.797   4.117
    1C        C  292   4.385   3.993   4.235
    1C        C  293   4.414   3.930   4.358
    1C        C  294   4.318   4.119   4.477
    1C        C  295   4.385   3.994   4.480
    1C        C  296   4.276   4.182   4.596
    1C        C  297   4.321   4.129   4.719
    1C        C  298   4.194   4.310   4.837
    1C        C  299   4.278   4.194   4.838
    1C        C  300   4.163   4.397   4.947
    1C        C  301   4.346   2.881   2.059
    1C        C  302   4.469   3.062   2.174
    1C        C  303   4.396   2.939   2.177
    1C        C  304   4.480   3.137   2.295
    1C        C  305   4.449   3.073   2.417
    1C        C  306   4.506   3.279   2.535
    1C        C  307   4.473   3.142   2.538
    1C        C  308   4.510   3.352   2.656
    1C        C  309   4.504   3.285   2.780
    1C        C  310   4.521   3.498   2.897
    1C        C  311   4.515   3.357   2.901
    1C        C  312   4.513   3.572   3.017
    1C        C  313   4.514   3.504   3.141
    1C        C  314   4.481   3.716   3.262
    1C        C  315   4.504   3.577   3.262
    1C        C  316   4.466   3.786   3.383
    1C        C  317   4.487   3.720   3.506
    1C        C  318   4.422   3.925   3.628
    1C        C  319   4.465   3.790   3.627
    1C        C  320   4.389   3.988   3.749
    1C        C  321   4.418   3.924   3.872
    1C        C  322   4.308   4.109   3.989
    1C        C  323   4.386   3.991   3.992
    1C        C  324   4.271   4.167   4.112
    1C        C  325   4.320   4.119   4.235
    1C        C  326   4.183   4.282   4.351
    1C        C  327   4.283   4.182   4.356
    1C        C  328   4.128   4.332   4.471
    1C        C  329   4.185   4.290   4.594
    1C        C  330   4.023   4.434   4.711
    1C        C  331   4.136   4.348   4.713
    1C        C  332   3.970   4.495   4.827
    1C        C  333   4.054   4.484   4.939
    1C        C  334   4.555   3.264   2.062
    1C        C  335   4.531   3.126   2.063
    1C        C  336   4.535   3.346   2.174
    1C        C  337   4.509   3.276   2.294
    1C        C  338   4.516   3.492   2.410
    1C        C  339   4.512   3.351   2.414
    1C        C  340   4.511   3.563   2.532
    1C        C  341   4.515   3.494   2.655
    1C        C  342   4.487   3.707   2.771
    1C        C  343   4.513   3.569   2.775
    1C        C  344   4.470   3.779   2.892
    1C        C  345   4.487   3.711   3.015
    1C        C  346   4.422   3.914   3.137
    1C        C  347   4.468   3.780   3.136
    1C        C  348   4.387   3.980   3.257
    1C        C  349   4.416   3.918   3.381
    1C        C  350   4.312   4.102   3.500
    1C        C  351   4.390   3.983   3.503
    1C        C  352   4.272   4.163   3.621
    1C        C  353   4.315   4.109   3.744
    1C        C  354   4.176   4.269   3.863
    1C        C  355   4.276   4.169   3.865
    1C        C  356   4.128   4.321   3.986
    1C        C  357   4.179   4.275   4.109
    1C        C  358   4.015   4.411   4.227
    1C        C  359   4.131   4.331   4.229
    1C        C  360   3.954   4.452   4.348
    1C        C  361   4.015   4.416   4.471
    1C        C  362   3.826   4.517   4.591
    1C        C  363   3.958   4.466   4.590
    1C        C  364   3.758   4.545   4.711
    1C        C  365   3.836   4.541   4.829
    1C        C  366   3.625   4.592   4.944
    1C        C  367   3.761   4.565   4.944
    1C        C  368   4.504   3.560   2.054
    1C        C  369   4.522   3.487   2.172
    1C        C  370   4.498   3.705   2.285
    1C        C  371   4.513   3.565   2.289
    1C        C  372   4.473   3.773   2.406
    1C        C  373   4.491   3.703   2.527
    1C        C  374   4.427   3.907   2.648
    1C        C  375   4.477   3.775   2.648
    1C        C  376   4.394   3.973   2.769
    1C        C  377   4.425   3.913   2.892
    1C        C  378   4.314   4.095   3.009
    1C        C  379   4.390   3.975   3.014
    1C        C  380   4.269   4.152   3.131
    1C        C  381   4.309   4.098   3.255
    1C        C  382   4.179   4.265   3.376
    1C        C  383   4.271   4.158   3.377
    1C        C  384   4.125   4.316   3.496
    1C        C  385   4.177   4.268   3.618
    1C        C  386   4.009   4.397   3.741
    1C        C  387   4.122   4.312   3.740
    1C        C  388   3.945   4.430   3.863
    1C        C  389   4.007   4.395   3.984
    1C        C  390   3.817   4.491   4.107
    1C        C  391   3.946   4.434   4.106
    1C        C  392   3.750   4.516   4.229
    1C        C  393   3.822   4.502   4.350
    1C        C  394   3.613   4.546   4.471
    1C        C  395   3.753   4.528   4.470
    1C        C  396   3.541   4.561   4.592
    1C        C  397   3.618   4.562   4.710
    1C        C  398   3.406   4.542   4.836
    1C        C  399   3.546   4.562   4.832
    1C        C  400   3.338   4.512   4.955
    1C        C  401   4.500   3.699   2.050
    1C        C  402   4.463   3.916   2.164
    1C        C  403   4.495   3.779   2.165
    1C        C  404   4.417   3.978   2.282
    1C        C  405   4.434   3.909   2.404
    1C        C  406   4.326   4.092   2.522
    1C        C  407   4.401   3.973   2.526
    1C        C  408   4.280   4.149   2.643
    1C        C  409   4.319   4.094   2.767
    1C        C  410   4.173   4.253   2.884
    1C        C  411   4.272   4.151   2.887
    1C        C  412   4.121   4.298   3.007
    1C        C  413   4.173   4.256   3.131
    1C        C  414   4.004   4.383   3.249
    1C        C  415   4.123   4.307   3.253
    1C        C  416   3.942   4.414   3.371
    1C        C  417   4.004   4.389   3.496
    1C        C  418   3.811   4.471   3.618
    1C        C  419   3.945   4.427   3.618
    1C        C  420   3.745   4.501   3.739
    1C        C  421   3.814   4.482   3.861
    1C        C  422   3.610   4.531   3.983
    1C        C  423   3.748   4.503   3.985
    1C        C  424   3.539   4.537   4.105
    1C        C  425   3.611   4.543   4.226
    1C        C  426   3.401   4.536   4.353
    1C        C  427   3.542   4.548   4.349
    1C        C  428   3.329   4.539   4.475
    1C        C  429   3.400   4.553   4.596
    1C        C  430   3.191   4.513   4.720
    1C        C  431   3.330   4.546   4.718
    1C        C  432   3.121   4.488   4.841
    1C        C  433   3.201   4.488   4.956
    1C        C  434   4.379   4.119   2.048
    1C        C  435   4.441   3.993   2.049
    1C        C  436   4.298   4.156   2.159
    1C        C  437   4.333   4.093   2.282
    1C        C  438   4.180   4.247   2.402
    1C        C  439   4.284   4.151   2.401
    1C        C  440   4.126   4.298   2.522
    1C        C  441   4.181   4.250   2.643
    1C        C  442   4.001   4.374   2.761
    1C        C  443   4.117   4.294   2.761
    1C        C  444   3.942   4.412   2.883
    1C        C  445   4.001   4.373   3.005
    1C        C  446   3.810   4.466   3.127
    1C        C  447   3.942   4.416   3.126
    1C        C  448   3.745   4.490   3.251
    1C        C  449   3.809   4.464   3.374
    1C        C  450   3.605   4.522   3.495
    1C        C  451   3.741   4.487   3.496
    1C        C  452   3.539   4.540   3.619
    1C        C  453   3.609   4.537   3.741
    1C        C  454   3.397   4.536   3.864
    1C        C  455   3.538   4.547   3.863
    1C        C  456   3.328   4.519   3.986
    1C        C  457   3.398   4.527   4.109
    1C        C  458   3.190   4.497   4.235
    1C        C  459   3.329   4.524   4.232
    1C        C  460   3.123   4.477   4.357
    1C        C  461   3.192   4.506   4.478
    1C        C  462   2.993   4.432   4.601
    1C        C  463   3.123   4.485   4.599
    1C        C  464   2.928   4.398   4.722
    1C        C  465   2.986   4.439   4.845
    1C        C  466   2.797   4.336   4.957
    1C        C  467   2.901   4.430   4.960
    1C        C  468   4.121   4.287   2.039
    1C        C  469   4.183   4.241   2.156
    1C        C  470   4.007   4.365   2.277
    1C        C  471   4.127   4.288   2.278
    1C        C  472   3.941   4.398   2.397
    1C        C  473   4.008   4.376   2.520
    1C        C  474   3.808   4.462   2.638
    1C        C  475   3.939   4.409   2.638
    1C        C  476   3.743   4.489   2.761
    1C        C  477   3.813   4.470   2.882
    1C        C  478   3.605   4.515   3.006
    1C        C  479   3.743   4.487   3.004
    1C        C  480   3.536   4.522   3.129
    1C        C  481   3.606   4.517   3.251
    1C        C  482   3.393   4.522   3.373
    1C        C  483   3.535   4.527   3.372
    1C        C  484   3.325   4.522   3.497
    1C        C  485   3.397   4.536   3.618
    1C        C  486   3.190   4.500   3.743
    1C        C  487   3.328   4.531   3.741
    1C        C  488   3.122   4.474   3.864
    1C        C  489   3.189   4.491   3.987
    1C        C  490   2.995   4.418   4.111
    1C        C  491   3.124   4.478   4.112
    1C        C  492   2.937   4.381   4.235
    1C        C  493   2.994   4.421   4.358
    1C        C  494   2.821   4.301   4.483
    1C        C  495   2.935   4.385   4.481
    1C        C  496   2.770   4.251   4.604
    1C        C  497   2.816   4.310   4.724
    1C        C  498   2.665   4.158   4.846
    1C        C  499   2.750   4.271   4.842
    1C        C  500   2.597   4.115   4.960
    1C        C  501   4.001   4.357   2.039
    1C        C  502   3.813   4.460   2.153
    1C        C  503   3.941   4.402   2.157
    1C        C  504   3.742   4.479   2.274
    1C        C  505   3.809   4.449   2.394
    1C        C  506   3.601   4.497   2.518
    1C        C  507   3.740   4.471   2.515
    1C        C  508   3.532   4.513   2.640
    1C        C  509   3.604   4.514   2.762
    1C        C  510   3.392   4.523   2.883
    1C        C  511   3.534   4.524   2.884
    1C        C  512   3.323   4.516   3.005
    1C        C  513   3.394   4.523   3.127
    1C        C  514   3.187   4.487   3.255
    1C        C  515   3.325   4.520   3.250
    1C        C  516   3.120   4.464   3.377
    1C        C  517   3.188   4.490   3.498
    1C        C  518   2.999   4.404   3.623
    1C        C  519   3.123   4.472   3.622
    1C        C  520   2.935   4.371   3.745
    1C        C  521   2.998   4.408   3.866
    1C        C  522   2.827   4.286   3.993
    1C        C  523   2.939   4.373   3.990
    1C        C  524   2.783   4.235   4.117
    1C        C  525   2.831   4.288   4.238
    1C        C  526   2.688   4.136   4.361
    1C        C  527   2.774   4.248   4.361
    1C        C  528   2.644   4.079   4.482
    1C        C  529   2.679   4.142   4.604
    1C        C  530   2.574   3.960   4.730
    1C        C  531   2.638   4.087   4.727
    1C        C  532   2.534   3.901   4.853
    1C        C  533   2.526   3.994   4.962
    1C        C  534   3.614   4.553   2.035
    1C        C  535   3.746   4.506   2.039
    1C        C  536   3.535   4.529   2.152
    1C        C  537   3.604   4.511   2.275
    1C        C  538   3.389   4.517   2.397
    1C        C  539   3.531   4.512   2.396
    1C        C  540   3.319   4.502   2.519
    1C        C  541   3.391   4.507   2.640
    1C        C  542   3.182   4.481   2.767
    1C        C  543   3.320   4.509   2.762
    1C        C  544   3.116   4.459   2.890
    1C        C  545   3.186   4.481   3.011
    1C        C  546   2.993   4.399   3.132
    1C        C  547   3.120   4.460   3.134
    1C        C  548   2.935   4.361   3.255
    1C        C  549   2.995   4.397   3.378
    1C        C  550   2.824   4.280   3.502
    1C        C  551   2.937   4.366   3.502
    1C        C  552   2.772   4.235   3.625
    1C        C  553   2.822   4.286   3.747
    1C        C  554   2.693   4.122   3.873
    1C        C  555   2.778   4.235   3.871
    1C        C  556   2.657   4.062   3.996
    1C        C  557   2.694   4.125   4.117
    1C        C  558   2.592   3.942   4.244
    1C        C  559   2.658   4.067   4.241
    1C        C  560   2.568   3.879   4.368
    1C        C  561   2.587   3.950   4.489
    1C        C  562   2.523   3.748   4.616
    1C        C  563   2.557   3.885   4.611
    1C        C  564   2.505   3.678   4.737
    1C        C  565   2.514   3.760   4.853
    1C        C  566   2.537   3.545   4.974
    1C        C  567   2.520   3.683   4.970
    1C        C  568   3.324   4.476   2.037
    1C        C  569   3.394   4.507   2.154
    1C        C  570   3.180   4.482   2.280
    1C        C  571   3.320   4.505   2.275
    1C        C  572   3.109   4.461   2.400
    1C        C  573   3.179   4.481   2.521
    1C        C  574   2.987   4.399   2.644
    1C        C  575   3.113   4.463   2.645
    1C        C  576   2.928   4.359   2.766
    1C        C  577   2.990   4.394   2.888
    1C        C  578   2.823   4.270   3.013
    1C        C  579   2.928   4.364   3.011
    1C        C  580   2.775   4.221   3.136
    1C        C  581   2.826   4.271   3.258
    1C        C  582   2.689   4.112   3.383
    1C        C  583   2.775   4.224   3.382
    1C        C  584   2.654   4.056   3.508
    1C        C  585   2.689   4.121   3.629
    1C        C  586   2.587   3.936   3.754
    1C        C  587   2.651   4.063   3.752
    1C        C  588   2.565   3.873   3.878
    1C        C  589   2.593   3.936   4.001
    1C        C  590   2.533   3.735   4.126
    1C        C  591   2.567   3.872   4.124
    1C        C  592   2.523   3.670   4.251
    1C        C  593   2.534   3.742   4.372
    1C        C  594   2.515   3.533   4.496
    1C        C  595   2.520   3.674   4.495
    1C        C  596   2.518   3.461   4.618
    1C        C  597   2.511   3.536   4.737
    1C        C  598   2.535   3.325   4.858
    1C        C  599   2.530   3.466   4.859
    1C        C  600   2.532   3.246   4.973
    1C        C  601   3.192   4.437   2.044
    1C        C  602   2.978   4.399   2.158
    1C        C  603   3.112   4.449   2.159
    1C        C  604   2.922   4.357   2.282
    1C        C  605   2.986   4.392   2.403
    1C        C  606   2.811   4.273   2.527
    1C        C  607   2.922   4.361   2.525
    1C        C  608   2.760   4.224   2.649
    1C        C  609   2.816   4.273   2.769
    1C        C  610   2.687   4.106   2.892
    1C        C  611   2.772   4.218   2.891
    1C        C  612   2.655   4.048   3.017
    1C        C  613   2.694   4.105   3.140
    1C        C  614   2.584   3.926   3.263
    1C        C  615   2.649   4.052   3.262
    1C        C  616   2.560   3.864   3.388
    1C        C  617   2.590   3.929   3.509
    1C        C  618   2.528   3.730   3.634
    1C        C  619   2.563   3.867   3.633
    1C        C  620   2.513   3.664   3.758
    1C        C  621   2.528   3.736   3.878
    1C        C  622   2.514   3.527   4.007
    1C        C  623   2.523   3.668   4.002
    1C        C  624   2.511   3.457   4.130
    1C        C  625   2.513   3.529   4.251
    1C        C  626   2.540   3.322   4.376
    1C        C  627   2.514   3.461   4.375
    1C        C  628   2.553   3.251   4.497
    1C        C  629   2.533   3.321   4.619
    1C        C  630   2.600   3.117   4.741
    1C        C  631   2.547   3.249   4.739
    1C        C  632   2.617   3.046   4.863
    1C        C  633   2.555   3.108   4.977
    1C        C  634   2.780   4.303   2.050
    1C        C  635   2.889   4.391   2.047
    1C        C  636   2.742   4.232   2.165
    1C        C  637   2.809   4.271   2.283
    1C        C  638   2.676   4.108   2.407
    1C        C  639   2.758   4.223   2.406
    1C        C  640   2.639   4.048   2.529
    1C        C  641   2.680   4.107   2.650
    1C        C  642   2.578   3.920   2.775
    1C        C  643   2.644   4.045   2.772
    1C        C  644   2.561   3.855   2.900
    1C        C  645   2.592   3.921   3.021
    1C        C  646   2.525   3.720   3.145
    1C        C  647   2.562   3.856   3.142
    1C        C  648   2.509   3.655   3.269
    1C        C  649   2.527   3.726   3.390
    1C        C  650   2.515   3.516   3.518
    1C        C  651   2.525   3.657   3.513
    1C        C  652   2.514   3.448   3.642
    1C        C  653   2.507   3.523   3.762
    1C        C  654   2.536   3.315   3.887
    1C        C  655   2.511   3.454   3.886
    1C        C  656   2.556   3.250   4.011
    1C        C  657   2.538   3.319   4.133
    1C        C  658   2.611   3.120   4.255
    1C        C  659   2.560   3.252   4.255
    1C        C  660   2.640   3.055   4.378
    1C        C  661   2.601   3.118   4.499
    1C        C  662   2.707   2.933   4.623
    1C        C  663   2.629   3.050   4.620
    1C        C  664   2.751   2.876   4.745
    1C        C  665   2.696   2.927   4.865
    1C        C  666   2.738   2.864   4.983
    1C        C  667   2.678   4.024   2.055
    1C        C  668   2.670   4.110   2.166
    1C        C  669   2.587   3.912   2.291
    1C        C  670   2.643   4.042   2.287
    1C        C  671   2.551   3.850   2.413
    1C        C  672   2.580   3.919   2.532
    1C        C  673   2.519   3.715   2.659
    1C        C  674   2.555   3.852   2.654
    1C        C  675   2.509   3.645   2.781
    1C        C  676   2.526   3.719   2.900
    1C        C  677   2.504   3.508   3.029
    1C        C  678   2.515   3.649   3.023
    1C        C  679   2.510   3.440   3.152
    1C        C  680   2.508   3.513   3.273
    1C        C  681   2.532   3.305   3.397
    1C        C  682   2.512   3.445   3.396
    1C        C  683   2.555   3.240   3.521
    1C        C  684   2.541   3.310   3.643
    1C        C  685   2.606   3.112   3.768
    1C        C  686   2.555   3.243   3.767
    1C        C  687   2.643   3.053   3.891
    1C        C  688   2.615   3.121   4.011
    1C        C  689   2.711   2.933   4.136
    1C        C  690   2.640   3.055   4.134
    1C        C  691   2.754   2.877   4.258
    1C        C  692   2.709   2.932   4.380
    1C        C  693   2.756   2.879   4.502
    1C        C  694   2.625   3.895   2.056
    1C        C  695   2.526   3.703   2.174
    1C        C  696   2.576   3.835   2.173
    1C        C  697   2.503   3.637   2.297
    1C        C  698   2.514   3.713   2.415
    1C        C  699   2.492   3.503   2.541
    1C        C  700   2.503   3.644   2.538
    1C        C  701   2.497   3.434   2.664
    1C        C  702   2.492   3.505   2.786
    1C        C  703   2.518   3.294   2.912
    1C        C  704   2.498   3.434   2.908
    1C        C  705   2.533   3.227   3.035
    1C        C  706   2.525   3.299   3.156
    1C        C  707   2.579   3.093   3.278
    1C        C  708   2.542   3.229   3.278
    1C        C  709   2.624   3.038   3.401
    1C        C  710   2.599   3.106   3.522
    1C        C  711   2.709   2.927   3.647
    1C        C  712   2.634   3.047   3.646
    1C        C  713   2.753   2.871   3.769
    1C        C  714   2.717   2.932   3.891
    1C        C  715   2.756   2.876   4.014
    1C        C  716   2.451   3.498   2.061
    1C        C  717   2.493   3.631   2.059
    1C        C  718   2.463   3.421   2.181
    1C        C  719   2.484   3.496   2.300
    1C        C  720   2.510   3.286   2.424
    1C        C  721   2.486   3.425   2.423
    1C        C  722   2.533   3.220   2.547
    1C        C  723   2.522   3.295   2.666
    1C        C  724   2.586   3.095   2.790
    1C        C  725   2.537   3.227   2.789
    1C        C  726   2.619   3.034   2.914
    1C        C  727   2.583   3.095   3.036
    1C        C  728   2.702   2.919   3.156
    1C        C  729   2.610   3.027   3.157
    1C        C  730   2.751   2.872   3.279
    1C        C  731   2.708   2.924   3.403
    1C        C  732   2.756   2.872   3.526
    1C        C  733   2.484   3.195   2.074
    1C        C  734   2.480   3.279   2.186
    1C        C  735   2.584   3.084   2.302
    1C        C  736   2.524   3.213   2.304
    1C        C  737   2.617   3.023   2.425
    1C        C  738   2.592   3.092   2.545
    1C        C  739   2.704   2.916   2.668
    1C        C  740   2.624   3.032   2.670
    1C        C  741   2.743   2.859   2.791
    1C        C  742   2.696   2.916   2.912
    1C        C  743   2.745   2.863   3.033
    1C        C  744   2.541   3.068   2.070
    1C        C  745   2.684   2.897   2.184
    1C        C  746   2.606   3.015   2.181
    1C        C  747   2.725   2.835   2.304
    1C        C  748   2.689   2.901   2.424
    1C        C  749   2.738   2.851   2.547
    1C        C  750   2.732   2.839   2.066
    1C        C  751   3.648   2.291   2.004
    1C        O  752   3.669   2.184   2.068
    1C        O  753   3.697   2.292   1.872
    1C        C  754   4.575   3.058   1.939
    1C        O  755   4.537   3.097   1.825
    1C        O  756   4.694   2.985   1.927
    1C        C  757   4.417   4.213   1.940
    1C        O  758   4.499   4.304   1.972
    1C        O  759   4.431   4.175   1.806
    1C        C  760   3.610   4.686   1.970
    1C        O  761   3.534   4.781   2.003
    1C        O  762   3.651   4.703   1.838
    1C        C  763   2.888   4.481   1.929
    1C        O  764   2.891   4.426   1.816
    1C        O  765   2.815   4.601   1.929
    1C        C  766   2.349   3.473   1.957
    1C        O  767   2.371   3.485   1.834
    1C        O  768   2.217   3.503   1.993
    1C        C  769   4.695   3.585   5.048
    1C        O  770   4.697   3.550   5.169
    1C        O  771   4.821   3.623   5.000
    1C        C  772   4.280   4.461   5.011
    1C        O  773   4.286   4.451   5.137
    1C        O  774   4.342   4.579   4.966
    1C        C  775   4.140   2.548   5.087
    1C        O  776   4.202   2.439   5.086
    1C        O  777   4.106   2.578   5.219
    1C        C  778   2.882   4.545   5.051
    1C        O  779   2.849   4.660   5.010
    1C        O  780   2.867   4.521   5.188
    1C        C  781   2.484   3.030   5.080
    1C        O  782   2.381   2.960   5.062
    1C        O  783   2.495   3.055   5.217
    1C        C  784   2.417   4.001   5.062
    1C        O  785   2.302   4.048   5.042
    1C        O  786   2.445   4.026   5.197
    1C        C  787   2.950   2.441   1.979
    1C        O  788   2.947   2.477   1.858
    1C        O  789   2.888   2.322   2.013
    1C        C  790   3.181   2.378   5.070
    1C        O  791   3.165   2.260   5.028
    1C        O  792   3.194   2.399   5.207
    1C        H  793   4.252   3.048   5.024
    1C        H  794   4.176   2.818   5.068
    1C        H  795   4.473   3.138   5.069
    1C        H  796   4.537   3.359   5.067
    1C        H  797   4.581   3.818   5.032
    1C        H  798   4.450   4.000   5.044
    1C        H  799   4.291   4.173   5.052
    1C        H  800   4.043   4.558   5.015
    1C        H  801   3.815   4.596   5.031
    1C        H  802   3.601   4.684   4.993
    1C        H  803   3.395   4.483   5.041
    1C        H  804   3.156   4.467   5.051
    1C        H  805   3.894   2.466   5.057
    1C        H  806   3.676   2.465   5.072
    1C        H  807   3.030   2.605   5.072
    1C        H  808   3.449   2.425   5.069
    1C        H  809   2.907   2.792   5.059
    1C        H  810   2.690   2.884   5.077
    1C        H  811   2.475   3.287   5.053
    1C        H  812   2.544   3.493   5.068
    1C        H  813   2.563   3.735   5.053
    1C        H  814   2.575   4.180   5.043
    1C        H  815   2.790   4.281   5.049
    1C        H  816   2.699   2.875   1.971
    1C        H  817   2.880   2.716   1.978
    1C        H  818   3.199   2.405   1.998
    1C        H  819   3.425   2.455   1.977
    1C        H  820   3.827   2.558   1.983
    1C        H  821   4.067   2.600   1.966
    1C        H  822   4.255   2.712   1.973
    1C        H  823   4.395   2.897   1.965
    1C        H  824   4.546   3.306   1.964
    1C        H  825   4.473   3.505   1.967
    1C        H  826   4.553   3.742   1.967
    1C        H  827   3.805   4.513   1.950
    1C        H  828   3.952   4.366   1.944
    1C        H  829   4.176   4.289   1.947
    1C        H  830   4.478   3.956   1.955
    1C        H  831   2.645   3.834   1.970
    1C        H  832   2.715   4.064   1.963
    1C        H  833   2.707   4.320   1.974
    1C        H  834   3.350   4.532   1.949
    1C        H  835   3.159   4.377   1.962
    1C        H  836   2.506   3.007   1.989
    1C        H  837   2.431   3.222   1.985
    1C        H  838   2.484   3.680   1.964
    2V3OU   H29  839   2.817   3.547   2.720
    2V3OU   C27  840   2.793   3.500   2.819
    2V3OU   H27  841   2.728   3.567   2.881
    2V3OU   H28  842   2.743   3.401   2.804
    2V3OU   O11  843   2.915   3.477   2.890
    2V3OU   C15  844   2.930   3.394   2.999
    2V3OU   C13  845   3.057   3.371   3.058
    2V3OU   C14  846   3.080   3.265   3.146
    2V3OU   C16  847   2.976   3.181   3.182
    2V3OU    H6  848   2.990   3.100   3.255
    2V3OU   C12  849   3.210   3.228   3.208
    2V3OU    O2  850   3.235   3.118   3.261
    2V3OU   C10  851   3.323   3.313   3.167
    2V3OU    C8  852   3.451   3.271   3.201
    2V3OU   O10  853   3.488   3.154   3.260
    2V3OU   H26  854   3.403   3.111   3.278
    2V3OU    C6  855   3.563   3.346   3.151
    2V3OU    C5  856   3.533   3.466   3.088
    2V3OU    C4  857   3.702   3.294   3.162
    2V3OU    H4  858   3.720   3.231   3.254
    2V3OU    H5  859   3.706   3.225   3.073
    2V3OU    C2  860   3.814   3.398   3.154
    2V3OU    O6  861   3.797   3.474   3.274
    2V3OU   H21  862   3.764   3.558   3.240
    2V3OU    C3  863   3.782   3.492   3.037
    2V3OU    H2  864   3.861   3.571   3.028
    2V3OU    H3  865   3.779   3.438   2.939
    2V3OU   C25  866   3.949   3.329   3.136
    2V3OU    O7  867   4.003   3.296   3.030
    2V3OU   C26  868   4.028   3.294   3.261
    2V3OU   H22  869   4.062   3.384   3.318
    2V3OU   H23  870   4.114   3.227   3.234
    2V3OU    O8  871   3.966   3.212   3.358
    2V3OU   H24  872   3.926   3.270   3.425
    2V3OU    C1  873   3.648   3.558   3.063
    2V3OU    H1  874   3.622   3.614   2.969
    2V3OU    O3  875   3.648   3.650   3.173
    2V3OU   C19  876   3.620   3.790   3.169
    2V3OU    H9  877   3.522   3.799   3.113
    2V3OU    O4  878   3.715   3.843   3.079
    2V3OU   C20  879   3.843   3.869   3.136
    2V3OU   H10  880   3.904   3.774   3.144
    2V3OU   C24  881   3.610   3.853   3.308
    2V3OU   H16  882   3.538   3.793   3.369
    2V3OU   H17  883   3.563   3.954   3.294
    2V3OU   C23  884   3.748   3.874   3.371
    2V3OU   H15  885   3.793   3.770   3.386
    2V3OU    N1  886   3.739   3.953   3.492
    2V3OU   H19  887   3.800   3.919   3.564
    2V3OU   H20  888   3.647   3.932   3.525
    2V3OU   C21  889   3.841   3.945   3.269
    2V3OU   H11  890   3.946   3.918   3.299
    2V3OU    O5  891   3.822   4.086   3.274
    2V3OU   H18  892   3.788   4.103   3.364
    2V3OU   C22  893   3.910   3.946   3.024
    2V3OU   H12  894   3.853   4.041   3.005
    2V3OU   H13  895   3.897   3.890   2.928
    2V3OU   H14  896   4.018   3.960   3.050
    2V3OU   C11  897   3.161   3.473   3.042
    2V3OU    O1  898   3.140   3.582   2.985
    2V3OU    C9  899   3.294   3.429   3.091
    2V3OU    C7  900   3.401   3.511   3.056
    2V3OU    O9  901   3.381   3.617   2.969
    2V3OU   H25  902   3.286   3.636   2.975
    2V3OU   C17  903   2.824   3.314   3.045
    2V3OU    H7  904   2.726   3.356   3.021
    2V3OU   C18  905   2.848   3.211   3.135
    2V3OU    H8  906   2.776   3.169   3.207
    3SOL     OW  907   2.409   5.440   6.328
    3SOL    HW1  908   2.418   5.366   6.395
    3SOL    HW2  909   2.445   5.525   6.367
    4SOL     OW  910   6.853   0.684   1.370
    4SOL    HW1  911   6.754   0.672   1.377
    4SOL    HW2  912   6.890   0.707   1.460
    5SOL     OW  913   4.273   2.276   2.202
    5SOL    HW1  914   4.307   2.309   2.114
    5SOL    HW2  915   4.173   2.270   2.199
    6SOL     OW  916   4.586   1.375   1.163
    6SOL    HW1  917   4.599   1.441   1.090
    6SOL    HW2  918   4.597   1.421   1.252
    7SOL     OW  919   0.635   4.194   4.088
    7SOL    HW1  920   0.548   4.227   4.053
    7SOL    HW2  921   0.637   4.203   4.188
    8SOL     OW  922   3.136   1.730   5.540
    8SOL    HW1  923   3.169   1.642   5.506
    8SOL    HW2  924   3.068   1.715   5.612
    9SOL     OW  925   4.462   1.466   5.643
    9SOL    HW1  926   4.363   1.473   5.656
    9SOL    HW2  927   4.508   1.523   5.711
   10SOL     OW  928   2.029   5.288   4.833
   10SOL    HW1  929   1.967   5.235   4.775
   10SOL    HW2  930   1.998   5.283   4.928
   11SOL     OW  931   2.551   1.004   5.753
   11SOL    HW1  932   2.535   1.100   5.773
   11SOL    HW2  933   2.649   0.983   5.764
   12SOL     OW  934   2.912   5.130   3.652
   12SOL    HW1  935   2.918   5.163   3.558
   12SOL    HW2  936   2.957   5.196   3.713
   13SOL     OW  937   3.527   6.679   4.321
   13SOL    HW1  938   3.502   6.703   4.227
   13SOL    HW2  939   3.446   6.643   4.369
   14SOL     OW  940   3.606   5.622   6.287
   14SOL    HW1  941   3.627   5.591   6.194
   14SOL    HW2  942   3.679   5.683   6.319
   15SOL     OW  943   0.793   6.790   1.121
   15SOL    HW1  944   0.773   6.692   1.115
   15SOL    HW2  945   0.858   6.815   1.050
   16SOL     OW  946   5.465   2.772   6.462
   16SOL    HW1  947   5.365   2.766   6.463
   16SOL    HW2  948   5.493   2.851   6.406
   17SOL     OW  949   5.919   5.717   6.800
   17SOL    HW1  950   5.936   5.739   6.896
   17SOL    HW2  951   5.963   5.631   6.777
   18SOL     OW  952   2.945   1.082   5.484
   18SOL    HW1  953   2.920   1.145   5.558
   18SOL    HW2  954   3.036   1.045   5.502
   19SOL     OW  955   0.349   2.067   3.309
   19SOL    HW1  956   0.295   2.008   3.249
   19SOL    HW2  957   0.445   2.040   3.304
   20SOL     OW  958   4.466   1.661   4.817
   20SOL    HW1  959   4.473   1.615   4.906
   20SOL    HW2  960   4.409   1.743   4.827
   21SOL     OW  961   3.150   0.901   2.171
   21SOL    HW1  962   3.091   0.857   2.239
   21SOL    HW2  963   3.236   0.851   2.165
   22SOL     OW  964   1.523   6.415   6.662
   22SOL    HW1  965   1.438   6.364   6.676
   22SOL    HW2  966   1.564   6.435   6.751
   23SOL     OW  967   4.691   5.299   2.420
   23SOL    HW1  968   4.726   5.375   2.474
   23SOL    HW2  969   4.599   5.276   2.450
   24SOL     OW  970   3.470   0.717   2.722
   24SOL    HW1  971   3.570   0.712   2.724
   24SOL    HW2  972   3.440   0.756   2.635
   25SOL     OW  973   3.685   6.847   3.448
   25SOL    HW1  974   3.628   6.848   3.366
   25SOL    HW2  975   3.651   6.916   3.513
   26SOL     OW  976   6.673   1.433   0.735
   26SOL    HW1  977   6.762   1.447   0.780
   26SOL    HW2  978   6.627   1.521   0.727
   27SOL     OW  979   1.935   1.400   2.362
   27SOL    HW1  980   1.904   1.484   2.406
   27SOL    HW2  981   1.886   1.322   2.402
   28SOL     OW  982   1.668   6.886   5.102
   28SOL    HW1  983   1.573   6.862   5.083
   28SOL    HW2  984   1.677   6.916   5.197
   29SOL     OW  985   6.286   1.777   1.908
   29SOL    HW1  986   6.266   1.681   1.885
   29SOL    HW2  987   6.385   1.791   1.909
   30SOL     OW  988   4.470   0.363   3.459
   30SOL    HW1  989   4.539   0.356   3.531
   30SOL    HW2  990   4.408   0.285   3.465
   31SOL     OW  991   0.223   2.683   6.832
   31SOL    HW1  992   0.207   2.618   6.757
   31SOL    HW2  993   0.300   2.651   6.888
   32SOL     OW  994   0.633   2.042   3.228
   32SOL    HW1  995   0.652   2.091   3.313
   32SOL    HW2  996   0.719   2.010   3.188
   33SOL     OW  997   1.400   4.483   4.864
   33SOL    HW1  998   1.484   4.474   4.918
   33SOL    HW2  999   1.394   4.576   4.827
   34SOL     OW 1000   2.652   6.695   4.973
   34SOL    HW1 1001   2.651   6.690   5.073
   34SOL    HW2 1002   2.644   6.791   4.945
   35SOL     OW 1003   4.639   3.066   6.134
   35SOL    HW1 1004   4.633   2.969   6.157
   35SOL    HW2 1005   4.629   3.120   6.217
   36SOL     OW 1006   4.826   2.042   4.441
   36SOL    HW1 1007   4.839   1.958   4.389
   36SOL    HW2 1008   4.834   2.023   4.539
   37SOL     OW 1009   1.545   1.505   5.720
   37SOL    HW1 1010   1.554   1.577   5.789
   37SOL    HW2 1011   1.478   1.534   5.651
   38SOL     OW 1012   1.036   5.296   2.260
   38SOL    HW1 1013   1.097   5.258   2.190
   38SOL    HW2 1014   0.987   5.222   2.305
   39SOL     OW 1015   6.181   4.151   6.437
   39SOL    HW1 1016   6.156   4.180   6.345
   39SOL    HW2 1017   6.180   4.230   6.498
   40SOL     OW 1018   4.621   1.912   0.690
   40SOL    HW1 1019   4.625   2.009   0.664
   40SOL    HW2 1020   4.569   1.861   0.622
   41SOL     OW 1021   6.104   3.759   4.048
   41SOL    HW1 1022   6.099   3.662   4.072
   41SOL    HW2 1023   6.047   3.776   3.968
   42SOL     OW 1024   3.170   5.626   4.062
   42SOL    HW1 1025   3.083   5.594   4.099
   42SOL    HW2 1026   3.196   5.569   3.984
   43SOL     OW 1027   4.837   6.883   5.721
   43SOL    HW1 1028   4.888   6.915   5.641
   43SOL    HW2 1029   4.784   6.802   5.696
   44SOL     OW 1030   4.815   2.044   6.154
   44SOL    HW1 1031   4.779   2.137   6.145
   44SOL    HW2 1032   4.902   2.038   6.106
   45SOL     OW 1033   4.811   4.736   1.289
   45SOL    HW1 1034   4.870   4.657   1.304
   45SOL    HW2 1035   4.840   4.783   1.206
   46SOL     OW 1036   0.397   3.124   3.759
   46SOL    HW1 1037   0.480   3.075   3.786
   46SOL    HW2 1038   0.414   3.222   3.761
   47SOL     OW 1039   4.745   3.999   0.664
   47SOL    HW1 1040   4.671   3.959   0.719
   47SOL    HW2 1041   4.740   3.965   0.570
   48SOL     OW 1042   6.585   2.726   5.924
   48SOL    HW1 1043   6.659   2.745   5.859
   48SOL    HW2 1044   6.603   2.639   5.970
   49SOL     OW 1045   5.868   3.022   2.690
   49SOL    HW1 1046   5.912   2.954   2.749
   49SOL    HW2 1047   5.856   2.983   2.598
   50SOL     OW 1048   5.721   1.197   4.797
   50SOL    HW1 1049   5.643   1.250   4.765
   50SOL    HW2 1050   5.724   1.109   4.750
   51SOL     OW 1051   2.531   6.613   2.988
   51SOL    HW1 1052   2.557   6.521   3.014
   51SOL    HW2 1053   2.612   6.663   2.956
   52SOL     OW 1054   6.054   2.874   2.116
   52SOL    HW1 1055   5.966   2.895   2.158
   52SOL    HW2 1056   6.057   2.911   2.023
   53SOL     OW 1057   4.861   1.170   3.787
   53SOL    HW1 1058   4.868   1.087   3.732
   53SOL    HW2 1059   4.825   1.244   3.732
   54SOL     OW 1060   5.319   5.490   0.985
   54SOL    HW1 1061   5.308   5.475   1.083
   54SOL    HW2 1062   5.245   5.444   0.936
   55SOL     OW 1063   1.983   2.532   5.207
   55SOL    HW1 1064   2.055   2.566   5.267
   55SOL    HW2 1065   2.016   2.453   5.156
   56SOL     OW 1066   0.377   1.021   1.232
   56SOL    HW1 1067   0.289   0.975   1.217
   56SOL    HW2 1068   0.420   1.041   1.144
   57SOL     OW 1069   4.216   0.857   1.423
   57SOL    HW1 1070   4.193   0.949   1.455
   57SOL    HW2 1071   4.221   0.856   1.323
   58SOL     OW 1072   1.019   6.975   5.044
   58SOL    HW1 1073   0.927   6.946   5.015
   58SOL    HW2 1074   1.070   6.896   5.078
   59SOL     OW 1075   0.144   2.837   6.209
   59SOL    HW1 1076   0.119   2.764   6.273
   59SOL    HW2 1077   0.165   2.797   6.120
   60SOL     OW 1078   5.045   2.690   4.607
   60SOL    HW1 1079   4.994   2.710   4.523
   60SOL    HW2 1080   4.989   2.633   4.667
   61SOL     OW 1081   6.326   1.964   4.024
   61SOL    HW1 1082   6.421   1.994   4.037
   61SOL    HW2 1083   6.324   1.882   3.968
   62SOL     OW 1084   1.859   1.069   2.042
   62SOL    HW1 1085   1.838   1.166   2.057
   62SOL    HW2 1086   1.792   1.031   1.978
   63SOL     OW 1087   4.642   0.644   4.410
   63SOL    HW1 1088   4.643   0.549   4.379
   63SOL    HW2 1089   4.713   0.657   4.479
   64SOL     OW 1090   6.776   2.838   5.772
   64SOL    HW1 1091   6.789   2.844   5.673
   64SOL    HW2 1092   6.858   2.800   5.814
   65SOL     OW 1093   0.587   4.386   6.783
   65SOL    HW1 1094   0.520   4.316   6.808
   65SOL    HW2 1095   0.540   4.472   6.765
   66SOL     OW 1096   3.447   0.630   3.906
   66SOL    HW1 1097   3.453   0.728   3.925
   66SOL    HW2 1098   3.487   0.610   3.816
   67SOL     OW 1099   6.502   2.392   5.715
   67SOL    HW1 1100   6.594   2.358   5.701
   67SOL    HW2 1101   6.478   2.384   5.812
   68SOL     OW 1102   0.158   1.276   6.733
   68SOL    HW1 1103   0.061   1.284   6.707
   68SOL    HW2 1104   0.174   1.187   6.775
   69SOL     OW 1105   1.322   2.871   5.621
   69SOL    HW1 1106   1.396   2.836   5.679
   69SOL    HW2 1107   1.281   2.951   5.664
   70SOL     OW 1108   4.923   4.376   4.265
   70SOL    HW1 1109   4.882   4.333   4.345
   70SOL    HW2 1110   4.899   4.473   4.263
   71SOL     OW 1111   4.084   2.159   3.636
   71SOL    HW1 1112   4.167   2.134   3.587
   71SOL    HW2 1113   4.108   2.200   3.724
   72SOL     OW 1114   1.326   0.980   3.473
   72SOL    HW1 1115   1.303   0.884   3.485
   72SOL    HW2 1116   1.379   1.013   3.552
   73SOL     OW 1117   3.586   6.972   0.936
   73SOL    HW1 1118   3.648   6.932   1.004
   73SOL    HW2 1119   3.540   0.032   0.976
   74SOL     OW 1120   4.118   0.392   0.323
   74SOL    HW1 1121   4.097   0.449   0.402
   74SOL    HW2 1122   4.211   0.355   0.331
   75SOL     OW 1123   4.256   0.394   1.295
   75SOL    HW1 1124   4.198   0.340   1.233
   75SOL    HW2 1125   4.349   0.395   1.261
   76SOL     OW 1126   3.040   3.486   0.881
   76SOL    HW1 1127   2.948   3.522   0.887
   76SOL    HW2 1128   3.058   3.427   0.960
   77SOL     OW 1129   1.251   0.377   3.648
   77SOL    HW1 1130   1.350   0.383   3.635
   77SOL    HW2 1131   1.231   0.317   3.725
   78SOL     OW 1132   5.210   1.472   0.738
   78SOL    HW1 1133   5.176   1.510   0.652
   78SOL    HW2 1134   5.308   1.487   0.744
   79SOL     OW 1135   3.277   5.794   1.229
   79SOL    HW1 1136   3.338   5.868   1.202
   79SOL    HW2 1137   3.263   5.796   1.328
   80SOL     OW 1138   4.510   1.284   3.934
   80SOL    HW1 1139   4.592   1.230   3.953
   80SOL    HW2 1140   4.437   1.258   3.998
   81SOL     OW 1141   2.177   0.234   2.254
   81SOL    HW1 1142   2.267   0.259   2.290
   81SOL    HW2 1143   2.159   0.138   2.274
   82SOL     OW 1144   5.742   4.949   0.883
   82SOL    HW1 1145   5.787   4.871   0.926
   82SOL    HW2 1146   5.673   4.916   0.818
   83SOL     OW 1147   0.204   0.349   0.333
   83SOL    HW1 1148   0.186   0.332   0.236
   83SOL    HW2 1149   0.202   0.448   0.350
   84SOL     OW 1150   6.303   3.388   2.704
   84SOL    HW1 1151   6.238   3.356   2.774
   84SOL    HW2 1152   6.353   3.467   2.740
   85SOL     OW 1153   1.802   1.435   2.711
   85SOL    HW1 1154   1.705   1.426   2.734
   85SOL    HW2 1155   1.852   1.466   2.792
   86SOL     OW 1156   0.123   1.504   6.314
   86SOL    HW1 1157   0.188   1.576   6.338
   86SOL    HW2 1158   0.038   1.518   6.366
   87SOL     OW 1159   5.060   4.338   0.959
   87SOL    HW1 1160   5.024   4.266   0.900
   87SOL    HW2 1161   5.156   4.317   0.981
   88SOL     OW 1162   3.099   1.631   6.114
   88SOL    HW1 1163   3.018   1.690   6.115
   88SOL    HW2 1164   3.104   1.580   6.200
   89SOL     OW 1165   2.455   2.987   0.195
   89SOL    HW1 1166   2.543   2.943   0.211
   89SOL    HW2 1167   2.381   2.928   0.227
   90SOL     OW 1168   4.134   5.411   2.239
   90SOL    HW1 1169   4.077   5.353   2.297
   90SOL    HW2 1170   4.082   5.493   2.213
   91SOL     OW 1171   6.932   4.052   6.427
   91SOL    HW1 1172   0.000   4.018   6.392
   91SOL    HW2 1173   6.895   3.986   6.492
   92SOL     OW 1174   4.972   4.191   1.341
   92SOL    HW1 1175   4.912   4.193   1.420
   92SOL    HW2 1176   4.963   4.277   1.290
   93SOL     OW 1177   3.121   3.552   0.223
   93SOL    HW1 1178   3.107   3.574   0.126
   93SOL    HW2 1179   3.034   3.521   0.263
   94SOL     OW 1180   3.159   5.829   6.793
   94SOL    HW1 1181   3.145   5.926   6.817
   94SOL    HW2 1182   3.178   5.777   6.877
   95SOL     OW 1183   1.928   1.191   2.723
   95SOL    HW1 1184   1.889   1.279   2.696
   95SOL    HW2 1185   2.015   1.177   2.676
   96SOL     OW 1186   4.097   6.172   5.324
   96SOL    HW1 1187   4.002   6.199   5.337
   96SOL    HW2 1188   4.142   6.162   5.413
   97SOL     OW 1189   2.226   3.360   6.303
   97SOL    HW1 1190   2.245   3.289   6.371
   97SOL    HW2 1191   2.297   3.358   6.233
   98SOL     OW 1192   1.381   2.150   0.104
   98SOL    HW1 1193   1.464   2.112   0.147
   98SOL    HW2 1194   1.302   2.132   0.163
   99SOL     OW 1195   4.476   3.431   1.435
   99SOL    HW1 1196   4.508   3.402   1.345
   99SOL    HW2 1197   4.522   3.378   1.506
  100SOL     OW 1198   0.681   6.477   3.950
  100SOL    HW1 1199   0.771   6.471   3.992
  100SOL    HW2 1200   0.611   6.484   4.021
  101SOL     OW 1201   1.342   4.395   2.097
  101SOL    HW1 1202   1.371   4.480   2.052
  101SOL    HW2 1203   1.351   4.318   2.033
  102SOL     OW 1204   3.906   5.438   1.910
  102SOL    HW1 1205   3.972   5.363   1.908
  102SOL    HW2 1206   3.834   5.421   1.842
  103SOL     OW 1207   2.201   2.090   1.957
  103SOL    HW1 1208   2.213   2.122   1.863
  103SOL    HW2 1209   2.285   2.047   1.988
  104SOL     OW 1210   1.233   5.906   2.757
  104SOL    HW1 1211   1.192   5.944   2.840
  104SOL    HW2 1212   1.190   5.820   2.734
  105SOL     OW 1213   5.787   1.007   6.082
  105SOL    HW1 1214   5.791   1.100   6.046
  105SOL    HW2 1215   5.751   1.008   6.175
  106SOL     OW 1216   3.547   6.037   3.634
  106SOL    HW1 1217   3.622   6.040   3.699
  106SOL    HW2 1218   3.474   5.978   3.669
  107SOL     OW 1219   0.517   0.868   6.700
  107SOL    HW1 1220   0.493   0.948   6.755
  107SOL    HW2 1221   0.435   0.813   6.685
  108SOL     OW 1222   3.823   6.900   6.286
  108SOL    HW1 1223   3.899   6.963   6.304
  108SOL    HW2 1224   3.846   6.809   6.320
  109SOL     OW 1225   3.042   1.785   3.044
  109SOL    HW1 1226   3.129   1.752   3.009
  109SOL    HW2 1227   2.968   1.757   2.983
  110SOL     OW 1228   3.097   4.907   4.159
  110SOL    HW1 1229   3.157   4.847   4.107
  110SOL    HW2 1230   3.076   4.989   4.105
  111SOL     OW 1231   2.135   1.434   4.083
  111SOL    HW1 1232   2.066   1.371   4.047
  111SOL    HW2 1233   2.222   1.385   4.094
  112SOL     OW 1234   3.594   6.008   0.458
  112SOL    HW1 1235   3.535   5.977   0.384
  112SOL    HW2 1236   3.587   5.946   0.536
  113SOL     OW 1237   0.870   6.458   2.860
  113SOL    HW1 1238   0.919   6.440   2.774
  113SOL    HW2 1239   0.772   6.462   2.843
  114SOL     OW 1240   0.817   6.279   1.421
  114SOL    HW1 1241   0.824   6.297   1.323
  114SOL    HW2 1242   0.907   6.254   1.457
  115SOL     OW 1243   5.206   0.504   2.809
  115SOL    HW1 1244   5.114   0.525   2.775
  115SOL    HW2 1245   5.232   0.412   2.781
  116SOL     OW 1246   6.846   6.491   1.439
  116SOL    HW1 1247   6.772   6.558   1.436
  116SOL    HW2 1248   6.814   6.408   1.485
  117SOL     OW 1249   0.033   1.203   0.810
  117SOL    HW1 1250   0.015   1.251   0.723
  117SOL    HW2 1251   0.083   1.264   0.871
  118SOL     OW 1252   1.385   1.451   2.270
  118SOL    HW1 1253   1.446   1.463   2.348
  118SOL    HW2 1254   1.353   1.541   2.239
  119SOL     OW 1255   0.651   0.239   0.120
  119SOL    HW1 1256   0.600   0.181   0.056
  119SOL    HW2 1257   0.588   0.283   0.183
  120SOL     OW 1258   4.785   1.159   5.338
  120SOL    HW1 1259   4.707   1.156   5.399
  120SOL    HW2 1260   4.782   1.081   5.276
  121SOL     OW 1261   1.344   3.294   0.373
  121SOL    HW1 1262   1.377   3.218   0.428
  121SOL    HW2 1263   1.264   3.265   0.320
  122SOL     OW 1264   1.706   3.847   0.286
  122SOL    HW1 1265   1.706   3.864   0.187
  122SOL    HW2 1266   1.653   3.918   0.332
  123SOL     OW 1267   1.151   1.968   2.534
  123SOL    HW1 1268   1.083   1.937   2.600
  123SOL    HW2 1269   1.107   2.026   2.465
  124SOL     OW 1270   3.471   2.842   0.837
  124SOL    HW1 1271   3.372   2.826   0.839
  124SOL    HW2 1272   3.490   2.938   0.858
  125SOL     OW 1273   4.140   2.523   0.482
  125SOL    HW1 1274   4.232   2.486   0.492
  125SOL    HW2 1275   4.106   2.550   0.572
  126SOL     OW 1276   3.467   3.545   1.965
  126SOL    HW1 1277   3.425   3.617   2.022
  126SOL    HW2 1278   3.562   3.532   1.992
  127SOL     OW 1279   0.761   5.047   6.551
  127SOL    HW1 1280   0.852   5.006   6.546
  127SOL    HW2 1281   0.741   5.096   6.466
  128SOL     OW 1282   4.980   3.196   1.313
  128SOL    HW1 1283   4.900   3.255   1.321
  128SOL    HW2 1284   4.984   3.134   1.392
  129SOL     OW 1285   2.617   3.214   6.774
  129SOL    HW1 1286   2.558   3.258   6.842
  129SOL    HW2 1287   2.614   3.267   6.689
  130SOL     OW 1288   0.592   0.624   4.429
  130SOL    HW1 1289   0.689   0.602   4.442
  130SOL    HW2 1290   0.580   0.669   4.341
  131SOL     OW 1291   4.996   0.673   3.774
  131SOL    HW1 1292   5.007   0.587   3.724
  131SOL    HW2 1293   4.992   0.654   3.872
  132SOL     OW 1294   3.036   2.327   1.657
  132SOL    HW1 1295   3.118   2.376   1.628
  132SOL    HW2 1296   2.991   2.376   1.731
  133SOL     OW 1297   5.306   0.369   4.070
  133SOL    HW1 1298   5.385   0.402   4.121
  133SOL    HW2 1299   5.250   0.311   4.130
  134SOL     OW 1300   0.660   1.024   2.872
  134SOL    HW1 1301   0.615   1.092   2.814
  134SOL    HW2 1302   0.682   1.065   2.960
  135SOL     OW 1303   5.332   3.649   4.523
  135SOL    HW1 1304   5.417   3.639   4.575
  135SOL    HW2 1305   5.333   3.737   4.475
  136SOL     OW 1306   1.421   4.957   5.297
  136SOL    HW1 1307   1.476   4.992   5.373
  136SOL    HW2 1308   1.325   4.984   5.309
  137SOL     OW 1309   4.627   1.795   3.605
  137SOL    HW1 1310   4.533   1.773   3.632
  137SOL    HW2 1311   4.633   1.795   3.505
  138SOL     OW 1312   1.378   3.658   2.821
  138SOL    HW1 1313   1.369   3.575   2.765
  138SOL    HW2 1314   1.327   3.733   2.778
  139SOL     OW 1315   2.174   6.356   5.238
  139SOL    HW1 1316   2.258   6.303   5.246
  139SOL    HW2 1317   2.136   6.345   5.146
  140SOL     OW 1318   1.985   6.431   3.811
  140SOL    HW1 1319   1.985   6.408   3.714
  140SOL    HW2 1320   2.079   6.440   3.844
  141SOL     OW 1321   0.099   2.566   4.842
  141SOL    HW1 1322   0.098   2.640   4.776
  141SOL    HW2 1323   0.061   2.597   4.929
  142SOL     OW 1324   2.093   3.475   2.221
  142SOL    HW1 1325   2.026   3.548   2.237
  142SOL    HW2 1326   2.148   3.498   2.140
  143SOL     OW 1327   5.544   4.882   0.677
  143SOL    HW1 1328   5.602   4.846   0.604
  143SOL    HW2 1329   5.486   4.955   0.641
  144SOL     OW 1330   1.794   4.627   5.860
  144SOL    HW1 1331   1.765   4.545   5.910
  144SOL    HW2 1332   1.848   4.599   5.781
  145SOL     OW 1333   2.292   5.205   1.751
  145SOL    HW1 1334   2.262   5.223   1.657
  145SOL    HW2 1335   2.347   5.282   1.784
  146SOL     OW 1336   5.429   0.502   6.489
  146SOL    HW1 1337   5.442   0.532   6.394
  146SOL    HW2 1338   5.358   0.558   6.532
  147SOL     OW 1339   5.408   1.470   5.812
  147SOL    HW1 1340   5.406   1.423   5.724
  147SOL    HW2 1341   5.315   1.501   5.835
  148SOL     OW 1342   6.855   5.608   1.422
  148SOL    HW1 1343   6.816   5.555   1.497
  148SOL    HW2 1344   6.827   5.568   1.335
  149SOL     OW 1345   3.752   2.086   5.051
  149SOL    HW1 1346   3.710   2.173   5.027
  149SOL    HW2 1347   3.841   2.078   5.006
  150SOL     OW 1348   5.350   0.078   6.770
  150SOL    HW1 1349   5.448   0.099   6.775
  150SOL    HW2 1350   5.304   0.147   6.716
  151SOL     OW 1351   3.652   0.705   1.513
  151SOL    HW1 1352   3.554   0.693   1.532
  151SOL    HW2 1353   3.667   0.702   1.415
  152SOL     OW 1354   7.010   1.797   0.796
  152SOL    HW1 1355   0.007   1.853   0.715
  152SOL    HW2 1356   0.044   1.834   0.873
  153SOL     OW 1357   2.812   6.792   3.187
  153SOL    HW1 1358   2.795   6.797   3.089
  153SOL    HW2 1359   2.886   6.727   3.205
  154SOL     OW 1360   0.453   3.160   0.620
  154SOL    HW1 1361   0.514   3.195   0.548
  154SOL    HW2 1362   0.397   3.235   0.655
  155SOL     OW 1363   1.259   1.257   3.912
  155SOL    HW1 1364   1.325   1.293   3.846
  155SOL    HW2 1365   1.304   1.242   4.000
  156SOL     OW 1366   6.732   0.681   0.441
  156SOL    HW1 1367   6.727   0.616   0.365
  156SOL    HW2 1368   6.769   0.768   0.408
  157SOL     OW 1369   5.794   3.864   0.391
  157SOL    HW1 1370   5.852   3.785   0.412
  157SOL    HW2 1371   5.783   3.920   0.473
  158SOL     OW 1372   1.489   2.979   1.491
  158SOL    HW1 1373   1.558   3.031   1.440
  158SOL    HW2 1374   1.533   2.904   1.540
  159SOL     OW 1375   4.433   4.874   1.562
  159SOL    HW1 1376   4.497   4.874   1.486
  159SOL    HW2 1377   4.340   4.887   1.527
  160SOL     OW 1378   5.583   0.119   0.744
  160SOL    HW1 1379   5.620   0.207   0.775
  160SOL    HW2 1380   5.657   0.052   0.739
  161SOL     OW 1381   1.418   0.461   2.984
  161SOL    HW1 1382   1.371   0.531   2.930
  161SOL    HW2 1383   1.496   0.503   3.031
  162SOL     OW 1384   4.043   6.057   0.218
  162SOL    HW1 1385   3.952   6.021   0.239
  162SOL    HW2 1386   4.035   6.150   0.182
  163SOL     OW 1387   6.928   6.028   2.175
  163SOL    HW1 1388   6.854   5.960   2.167
  163SOL    HW2 1389   6.903   6.109   2.122
  164SOL     OW 1390   0.804   3.912   3.265
  164SOL    HW1 1391   0.795   4.009   3.290
  164SOL    HW2 1392   0.806   3.904   3.165
  165SOL     OW 1393   4.769   4.736   6.794
  165SOL    HW1 1394   4.707   4.689   6.856
  165SOL    HW2 1395   4.723   4.815   6.753
  166SOL     OW 1396   0.490   3.447   1.980
  166SOL    HW1 1397   0.447   3.359   2.002
  166SOL    HW2 1398   0.540   3.480   2.060
  167SOL     OW 1399   5.834   1.805   0.039
  167SOL    HW1 1400   5.866   1.842   0.127
  167SOL    HW2 1401   5.913   1.792   6.997
  168SOL     OW 1402   4.015   1.716   0.752
  168SOL    HW1 1403   4.082   1.702   0.679
  168SOL    HW2 1404   4.029   1.805   0.794
  169SOL     OW 1405   6.137   2.532   0.975
  169SOL    HW1 1406   6.121   2.437   1.003
  169SOL    HW2 1407   6.142   2.590   1.057
  170SOL     OW 1408   6.475   6.503   2.450
  170SOL    HW1 1409   6.547   6.480   2.385
  170SOL    HW2 1410   6.452   6.600   2.443
  171SOL     OW 1411   2.598   4.763   6.765
  171SOL    HW1 1412   2.510   4.810   6.765
  171SOL    HW2 1413   2.633   4.759   6.858
  172SOL     OW 1414   6.558   1.895   3.462
  172SOL    HW1 1415   6.556   1.805   3.419
  172SOL    HW2 1416   6.497   1.895   3.541
  173SOL     OW 1417   5.603   1.001   3.997
  173SOL    HW1 1418   5.640   1.067   3.931
  173SOL    HW2 1419   5.590   1.045   4.085
  174SOL     OW 1420   4.350   5.270   4.132
  174SOL    HW1 1421   4.320   5.363   4.110
  174SOL    HW2 1422   4.391   5.228   4.051
  175SOL     OW 1423   3.903   0.733   0.974
  175SOL    HW1 1424   3.808   0.703   0.981
  175SOL    HW2 1425   3.907   0.819   0.924
  176SOL     OW 1426   6.125   4.797   1.936
  176SOL    HW1 1427   6.060   4.831   2.004
  176SOL    HW2 1428   6.217   4.825   1.961
  177SOL     OW 1429   5.220   2.871   4.563
  177SOL    HW1 1430   5.188   2.945   4.622
  177SOL    HW2 1431   5.159   2.792   4.574
  178SOL     OW 1432   3.190   4.419   5.631
  178SOL    HW1 1433   3.119   4.448   5.695
  178SOL    HW2 1434   3.173   4.459   5.541
  179SOL     OW 1435   3.694   1.205   6.616
  179SOL    HW1 1436   3.694   1.296   6.575
  179SOL    HW2 1437   3.644   1.207   6.702
  180SOL     OW 1438   2.012   0.669   1.044
  180SOL    HW1 1439   2.039   0.617   1.125
  180SOL    HW2 1440   2.017   0.611   0.963
  181SOL     OW 1441   2.923   3.300   5.893
  181SOL    HW1 1442   2.833   3.262   5.916
  181SOL    HW2 1443   2.931   3.310   5.794
  182SOL     OW 1444   4.092   1.611   6.473
  182SOL    HW1 1445   4.112   1.653   6.561
  182SOL    HW2 1446   4.014   1.656   6.430
  183SOL     OW 1447   3.267   1.788   3.464
  183SOL    HW1 1448   3.332   1.847   3.511
  183SOL    HW2 1449   3.206   1.843   3.407
  184SOL     OW 1450   6.978   6.725   3.581
  184SOL    HW1 1451   6.985   6.661   3.658
  184SOL    HW2 1452   6.937   6.678   3.503
  185SOL     OW 1453   1.076   1.573   4.628
  185SOL    HW1 1454   1.169   1.559   4.660
  185SOL    HW2 1455   1.055   1.671   4.628
  186SOL     OW 1456   6.374   1.646   3.928
  186SOL    HW1 1457   6.359   1.639   4.027
  186SOL    HW2 1458   6.315   1.580   3.881
  187SOL     OW 1459   5.244   6.802   2.296
  187SOL    HW1 1460   5.306   6.805   2.374
  187SOL    HW2 1461   5.149   6.807   2.328
  188SOL     OW 1462   0.984   3.546   3.608
  188SOL    HW1 1463   0.922   3.497   3.547
  188SOL    HW2 1464   0.963   3.644   3.606
  189SOL     OW 1465   1.409   5.839   0.291
  189SOL    HW1 1466   1.470   5.851   0.212
  189SOL    HW2 1467   1.440   5.761   0.345
  190SOL     OW 1468   6.582   4.306   6.071
  190SOL    HW1 1469   6.586   4.235   6.000
  190SOL    HW2 1470   6.655   4.290   6.137
  191SOL     OW 1471   6.333   0.913   7.004
  191SOL    HW1 1472   6.243   0.950   0.008
  191SOL    HW2 1473   6.333   0.814   7.018
  192SOL     OW 1474   0.332   5.035   1.747
  192SOL    HW1 1475   0.411   4.982   1.777
  192SOL    HW2 1476   0.311   5.105   1.816
  193SOL     OW 1477   4.907   3.638   5.295
  193SOL    HW1 1478   4.913   3.573   5.371
  193SOL    HW2 1479   4.845   3.602   5.225
  194SOL     OW 1480   3.943   6.738   3.551
  194SOL    HW1 1481   3.936   6.691   3.638
  194SOL    HW2 1482   3.851   6.749   3.511
  195SOL     OW 1483   1.287   0.940   4.462
  195SOL    HW1 1484   1.288   1.022   4.405
  195SOL    HW2 1485   1.358   0.877   4.431
  196SOL     OW 1486   2.390   0.408   6.798
  196SOL    HW1 1487   2.453   0.446   6.730
  196SOL    HW2 1488   2.306   0.462   6.800
  197SOL     OW 1489   2.536   0.289   1.486
  197SOL    HW1 1490   2.458   0.347   1.510
  197SOL    HW2 1491   2.604   0.343   1.437
  198SOL     OW 1492   4.446   6.419   1.951
  198SOL    HW1 1493   4.467   6.517   1.949
  198SOL    HW2 1494   4.348   6.407   1.967
  199SOL     OW 1495   6.821   1.206   3.676
  199SOL    HW1 1496   6.820   1.303   3.698
  199SOL    HW2 1497   6.896   1.162   3.726
  200SOL     OW 1498   1.187   4.211   1.683
  200SOL    HW1 1499   1.096   4.185   1.715
  200SOL    HW2 1500   1.190   4.310   1.669
  201SOL     OW 1501   5.359   0.269   6.112
  201SOL    HW1 1502   5.336   0.246   6.017
  201SOL    HW2 1503   5.457   0.260   6.125
  202SOL     OW 1504   5.267   0.038   5.729
  202SOL    HW1 1505   5.306   0.059   5.639
  202SOL    HW2 1506   5.218   0.119   5.763
  203SOL     OW 1507   4.709   2.326   4.806
  203SOL    HW1 1508   4.666   2.328   4.716
  203SOL    HW2 1509   4.736   2.233   4.829
  204SOL     OW 1510   6.073   0.605   6.281
  204SOL    HW1 1511   6.010   0.578   6.354
  204SOL    HW2 1512   6.021   0.650   6.208
  205SOL     OW 1513   1.044   0.735   2.896
  205SOL    HW1 1514   1.018   0.746   2.992
  205SOL    HW2 1515   0.966   0.701   2.844
  206SOL     OW 1516   0.368   5.244   1.928
  206SOL    HW1 1517   0.391   5.312   1.858
  206SOL    HW2 1518   0.441   5.239   1.996
  207SOL     OW 1519   4.679   0.675   3.705
  207SOL    HW1 1520   4.618   0.733   3.759
  207SOL    HW2 1521   4.764   0.725   3.686
  208SOL     OW 1522   5.310   3.773   5.495
  208SOL    HW1 1523   5.225   3.789   5.546
  208SOL    HW2 1524   5.344   3.682   5.516
  209SOL     OW 1525   0.708   5.020   4.577
  209SOL    HW1 1526   0.625   4.989   4.531
  209SOL    HW2 1527   0.705   4.995   4.673
  210SOL     OW 1528   4.168   2.348   1.592
  210SOL    HW1 1529   4.079   2.306   1.574
  210SOL    HW2 1530   4.188   2.416   1.521
  211SOL     OW 1531   1.583   6.335   3.435
  211SOL    HW1 1532   1.561   6.244   3.399
  211SOL    HW2 1533   1.508   6.398   3.414
  212SOL     OW 1534   1.409   4.837   1.534
  212SOL    HW1 1535   1.450   4.754   1.496
  212SOL    HW2 1536   1.479   4.892   1.578
  213SOL     OW 1537   3.244   0.705   5.703
  213SOL    HW1 1538   3.197   0.631   5.753
  213SOL    HW2 1539   3.311   0.748   5.764
  214SOL     OW 1540   4.102   5.232   1.986
  214SOL    HW1 1541   4.109   5.209   2.083
  214SOL    HW2 1542   4.155   5.314   1.967
  215SOL     OW 1543   3.177   3.919   1.448
  215SOL    HW1 1544   3.162   4.018   1.455
  215SOL    HW2 1545   3.274   3.899   1.460
  216SOL     OW 1546   1.611   5.759   4.647
  216SOL    HW1 1547   1.655   5.669   4.643
  216SOL    HW2 1548   1.513   5.747   4.662
  217SOL     OW 1549   2.256   2.767   3.456
  217SOL    HW1 1550   2.172   2.819   3.474
  217SOL    HW2 1551   2.297   2.799   3.371
  218SOL     OW 1552   1.098   2.942   4.555
  218SOL    HW1 1553   1.013   2.917   4.600
  218SOL    HW2 1554   1.156   2.994   4.618
  219SOL     OW 1555   3.309   6.530   5.884
  219SOL    HW1 1556   3.313   6.588   5.965
  219SOL    HW2 1557   3.277   6.439   5.910
  220SOL     OW 1558   3.639   6.400   0.123
  220SOL    HW1 1559   3.719   6.450   0.156
  220SOL    HW2 1560   3.611   6.438   0.035
  221SOL     OW 1561   6.626   4.207   2.697
  221SOL    HW1 1562   6.677   4.279   2.743
  221SOL    HW2 1563   6.600   4.137   2.763
  222SOL     OW 1564   2.638   5.247   5.544
  222SOL    HW1 1565   2.656   5.171   5.606
  222SOL    HW2 1566   2.704   5.245   5.469
  223SOL     OW 1567   5.576   3.730   1.077
  223SOL    HW1 1568   5.608   3.694   1.164
  223SOL    HW2 1569   5.521   3.661   1.029
  224SOL     OW 1570   2.601   1.816   4.159
  224SOL    HW1 1571   2.645   1.864   4.083
  224SOL    HW2 1572   2.668   1.797   4.230
  225SOL     OW 1573   5.784   1.909   5.463
  225SOL    HW1 1574   5.817   1.821   5.500
  225SOL    HW2 1575   5.698   1.934   5.508
  226SOL     OW 1576   1.545   0.624   6.094
  226SOL    HW1 1577   1.622   0.615   6.031
  226SOL    HW2 1578   1.488   0.701   6.066
  227SOL     OW 1579   1.480   4.075   2.316
  227SOL    HW1 1580   1.529   4.086   2.402
  227SOL    HW2 1581   1.389   4.117   2.324
  228SOL     OW 1582   3.223   6.349   4.112
  228SOL    HW1 1583   3.232   6.448   4.123
  228SOL    HW2 1584   3.212   6.306   4.201
  229SOL     OW 1585   5.197   6.277   0.452
  229SOL    HW1 1586   5.159   6.253   0.362
  229SOL    HW2 1587   5.133   6.248   0.523
  230SOL     OW 1588   2.673   4.781   2.507
  230SOL    HW1 1589   2.603   4.825   2.450
  230SOL    HW2 1590   2.650   4.792   2.603
  231SOL     OW 1591   6.470   1.805   6.938
  231SOL    HW1 1592   6.552   1.749   6.931
  231SOL    HW2 1593   6.390   1.746   6.951
  232SOL     OW 1594   1.113   4.116   6.090
  232SOL    HW1 1595   1.025   4.118   6.042
  232SOL    HW2 1596   1.141   4.209   6.112
  233SOL     OW 1597   2.219   1.175   4.308
  233SOL    HW1 1598   2.266   1.166   4.220
  233SOL    HW2 1599   2.285   1.198   4.378
  234SOL     OW 1600   3.828   5.975   5.430
  234SOL    HW1 1601   3.832   6.062   5.381
  234SOL    HW2 1602   3.895   5.976   5.504
  235SOL     OW 1603   3.177   3.226   1.739
  235SOL    HW1 1604   3.265   3.192   1.704
  235SOL    HW2 1605   3.104   3.202   1.675
  236SOL     OW 1606   5.789   2.536   6.348
  236SOL    HW1 1607   5.839   2.478   6.412
  236SOL    HW2 1608   5.809   2.632   6.366
  237SOL     OW 1609   6.066   6.237   1.489
  237SOL    HW1 1610   6.120   6.275   1.564
  237SOL    HW2 1611   5.969   6.242   1.512
  238SOL     OW 1612   6.170   2.005   0.406
  238SOL    HW1 1613   6.240   1.993   0.477
  238SOL    HW2 1614   6.088   1.954   0.432
  239SOL     OW 1615   0.409   5.610   6.300
  239SOL    HW1 1616   0.321   5.606   6.347
  239SOL    HW2 1617   0.423   5.701   6.261
  240SOL     OW 1618   0.290   2.516   5.695
  240SOL    HW1 1619   0.332   2.426   5.698
  240SOL    HW2 1620   0.196   2.508   5.661
  241SOL     OW 1621   1.571   6.646   4.894
  241SOL    HW1 1622   1.515   6.709   4.841
  241SOL    HW2 1623   1.584   6.561   4.843
  242SOL     OW 1624   2.730   3.021   6.028
  242SOL    HW1 1625   2.753   2.926   6.007
  242SOL    HW2 1626   2.806   3.064   6.075
  243SOL     OW 1627   4.830   0.498   5.841
  243SOL    HW1 1628   4.763   0.552   5.892
  243SOL    HW2 1629   4.922   0.522   5.871
  244SOL     OW 1630   4.857   2.547   4.796
  244SOL    HW1 1631   4.779   2.608   4.811
  244SOL    HW2 1632   4.827   2.452   4.804
  245SOL     OW 1633   6.953   2.913   5.261
  245SOL    HW1 1634   7.004   2.977   5.318
  245SOL    HW2 1635   7.012   2.879   5.188
  246SOL     OW 1636   5.013   2.508   2.568
  246SOL    HW1 1637   4.968   2.595   2.546
  246SOL    HW2 1638   5.111   2.523   2.577
  247SOL     OW 1639   2.919   1.125   2.239
  247SOL    HW1 1640   2.880   1.129   2.147
  247SOL    HW2 1641   2.958   1.035   2.255
  248SOL     OW 1642   4.303   1.973   4.287
  248SOL    HW1 1643   4.344   1.910   4.353
  248SOL    HW2 1644   4.209   1.944   4.267
  249SOL     OW 1645   4.923   0.043   6.113
  249SOL    HW1 1646   4.854   6.991   6.125
  249SOL    HW2 1647   4.885   0.118   6.059
  250SOL     OW 1648   5.014   1.757   0.028
  250SOL    HW1 1649   4.935   1.762   6.986
  250SOL    HW2 1650   5.014   1.669   0.075
  251SOL     OW 1651   4.120   4.261   6.438
  251SOL    HW1 1652   4.121   4.343   6.495
  251SOL    HW2 1653   4.026   4.227   6.431
  252SOL     OW 1654   5.966   0.528   6.516
  252SOL    HW1 1655   6.055   0.544   6.558
  252SOL    HW2 1656   5.914   0.463   6.571
  253SOL     OW 1657   1.871   4.432   6.896
  253SOL    HW1 1658   1.877   4.386   6.984
  253SOL    HW2 1659   1.804   4.506   6.902
  254SOL     OW 1660   5.504   3.476   3.445
  254SOL    HW1 1661   5.440   3.401   3.431
  254SOL    HW2 1662   5.597   3.447   3.421
  255SOL     OW 1663   1.453   3.119   4.372
  255SOL    HW1 1664   1.497   3.144   4.458
  255SOL    HW2 1665   1.523   3.100   4.303
  256SOL     OW 1666   6.013   4.396   6.312
  256SOL    HW1 1667   5.932   4.382   6.370
  256SOL    HW2 1668   5.984   4.401   6.216
  257SOL     OW 1669   4.191   6.623   4.506
  257SOL    HW1 1670   4.183   6.547   4.571
  257SOL    HW2 1671   4.276   6.673   4.524
  258SOL     OW 1672   5.778   4.844   4.745
  258SOL    HW1 1673   5.850   4.774   4.749
  258SOL    HW2 1674   5.692   4.802   4.716
  259SOL     OW 1675   1.965   2.798   2.146
  259SOL    HW1 1676   2.006   2.714   2.182
  259SOL    HW2 1677   2.031   2.873   2.156
  260SOL     OW 1678   4.449   0.987   1.220
  260SOL    HW1 1679   4.437   1.068   1.162
  260SOL    HW2 1680   4.363   0.936   1.225
  261SOL     OW 1681   6.506   3.783   0.994
  261SOL    HW1 1682   6.527   3.861   0.936
  261SOL    HW2 1683   6.524   3.806   1.089
  262SOL     OW 1684   0.688   3.944   1.406
  262SOL    HW1 1685   0.699   4.024   1.464
  262SOL    HW2 1686   0.755   3.946   1.332
  263SOL     OW 1687   0.565   1.540   3.627
  263SOL    HW1 1688   0.589   1.491   3.711
  263SOL    HW2 1689   0.466   1.542   3.617
  264SOL     OW 1690   4.922   3.919   5.475
  264SOL    HW1 1691   4.989   3.932   5.402
  264SOL    HW2 1692   4.899   4.008   5.516
  265SOL     OW 1693   4.226   4.674   3.313
  265SOL    HW1 1694   4.299   4.612   3.340
  265SOL    HW2 1695   4.208   4.662   3.215
  266SOL     OW 1696   3.713   3.740   5.706
  266SOL    HW1 1697   3.618   3.740   5.737
  266SOL    HW2 1698   3.768   3.683   5.766
  267SOL     OW 1699   6.267   2.605   5.965
  267SOL    HW1 1700   6.353   2.563   5.995
  267SOL    HW2 1701   6.233   2.667   6.037
  268SOL     OW 1702   4.404   6.779   5.123
  268SOL    HW1 1703   4.496   6.741   5.126
  268SOL    HW2 1704   4.342   6.722   5.176
  269SOL     OW 1705   2.095   3.089   0.693
  269SOL    HW1 1706   2.040   3.172   0.682
  269SOL    HW2 1707   2.159   3.102   0.769
  270SOL     OW 1708   6.553   0.086   2.163
  270SOL    HW1 1709   6.584   0.107   2.071
  270SOL    HW2 1710   6.453   0.096   2.168
  271SOL     OW 1711   2.643   2.575   0.686
  271SOL    HW1 1712   2.561   2.568   0.742
  271SOL    HW2 1713   2.708   2.505   0.714
  272SOL     OW 1714   3.207   5.420   3.848
  272SOL    HW1 1715   3.233   5.340   3.902
  272SOL    HW2 1716   3.107   5.420   3.836
  273SOL     OW 1717   1.877   4.992   5.075
  273SOL    HW1 1718   1.936   4.953   5.145
  273SOL    HW2 1719   1.888   5.092   5.074
  274SOL     OW 1720   4.824   2.273   3.749
  274SOL    HW1 1721   4.743   2.228   3.713
  274SOL    HW2 1722   4.858   2.339   3.682
  275SOL     OW 1723   6.226   5.908   6.751
  275SOL    HW1 1724   6.240   5.809   6.753
  275SOL    HW2 1725   6.291   5.949   6.686
  276SOL     OW 1726   0.377   5.590   3.194
  276SOL    HW1 1727   0.471   5.555   3.201
  276SOL    HW2 1728   0.366   5.668   3.255
  277SOL     OW 1729   2.484   2.726   0.499
  277SOL    HW1 1730   2.538   2.683   0.572
  277SOL    HW2 1731   2.511   2.822   0.489
  278SOL     OW 1732   6.940   4.066   1.786
  278SOL    HW1 1733   6.867   4.105   1.729
  278SOL    HW2 1734   6.931   4.100   1.880
  279SOL     OW 1735   6.797   2.896   4.312
  279SOL    HW1 1736   6.715   2.844   4.336
  279SOL    HW2 1737   6.856   2.840   4.254
  280SOL     OW 1738   3.529   6.700   2.817
  280SOL    HW1 1739   3.481   6.787   2.800
  280SOL    HW2 1740   3.523   6.643   2.735
  281SOL     OW 1741   3.380   4.914   2.450
  281SOL    HW1 1742   3.289   4.900   2.410
  281SOL    HW2 1743   3.447   4.925   2.377
  282SOL     OW 1744   4.091   2.131   5.239
  282SOL    HW1 1745   4.019   2.161   5.177
  282SOL    HW2 1746   4.070   2.039   5.272
  283SOL     OW 1747   6.885   1.404   5.894
  283SOL    HW1 1748   6.911   1.443   5.982
  283SOL    HW2 1749   6.966   1.398   5.835
  284SOL     OW 1750   0.586   4.423   5.179
  284SOL    HW1 1751   0.506   4.477   5.207
  284SOL    HW2 1752   0.568   4.326   5.195
  285SOL     OW 1753   5.786   5.130   6.722
  285SOL    HW1 1754   5.706   5.075   6.698
  285SOL    HW2 1755   5.807   5.194   6.648
  286SOL     OW 1756   3.551   4.973   4.775
  286SOL    HW1 1757   3.545   5.060   4.726
  286SOL    HW2 1758   3.489   4.975   4.854
  287SOL     OW 1759   0.640   4.849   6.680
  287SOL    HW1 1760   0.736   4.844   6.707
  287SOL    HW2 1761   0.633   4.869   6.583
  288SOL     OW 1762   4.063   1.973   0.435
  288SOL    HW1 1763   4.120   2.048   0.468
  288SOL    HW2 1764   4.097   1.886   0.471
  289SOL     OW 1765   0.235   5.509   4.642
  289SOL    HW1 1766   0.238   5.416   4.606
  289SOL    HW2 1767   0.154   5.520   4.699
  290SOL     OW 1768   5.080   1.964   3.813
  290SOL    HW1 1769   5.087   2.062   3.835
  290SOL    HW2 1770   5.003   1.925   3.863
  291SOL     OW 1771   3.542   0.678   4.403
  291SOL    HW1 1772   3.631   0.640   4.429
  291SOL    HW2 1773   3.487   0.606   4.361
  292SOL     OW 1774   4.512   1.932   3.000
  292SOL    HW1 1775   4.491   2.029   3.012
  292SOL    HW2 1776   4.466   1.878   3.070
  293SOL     OW 1777   4.415   5.340   2.249
  293SOL    HW1 1778   4.419   5.247   2.211
  293SOL    HW2 1779   4.320   5.369   2.257
  294SOL     OW 1780   6.598   5.378   6.563
  294SOL    HW1 1781   6.587   5.413   6.656
  294SOL    HW2 1782   6.526   5.311   6.543
  295SOL     OW 1783   3.412   1.556   4.730
  295SOL    HW1 1784   3.440   1.648   4.758
  295SOL    HW2 1785   3.341   1.562   4.659
  296SOL     OW 1786   6.400   2.042   2.107
  296SOL    HW1 1787   6.320   1.990   2.136
  296SOL    HW2 1788   6.447   1.993   2.033
  297SOL     OW 1789   2.942   4.806   2.494
  297SOL    HW1 1790   2.844   4.787   2.501
  297SOL    HW2 1791   2.976   4.776   2.405
  298SOL     OW 1792   3.710   7.016   0.374
  298SOL    HW1 1793   3.716   6.921   0.406
  298SOL    HW2 1794   3.614   0.018   0.352
  299SOL     OW 1795   4.682   2.361   6.962
  299SOL    HW1 1796   4.772   2.382   6.923
  299SOL    HW2 1797   4.645   2.443   7.005
  300SOL     OW 1798   4.900   0.994   1.634
  300SOL    HW1 1799   4.870   0.955   1.547
  300SOL    HW2 1800   4.820   1.008   1.693
  301SOL     OW 1801   4.972   2.430   0.626
  301SOL    HW1 1802   5.055   2.379   0.648
  301SOL    HW2 1803   4.895   2.366   0.622
  302SOL     OW 1804   6.631   0.661   3.320
  302SOL    HW1 1805   6.535   0.688   3.330
  302SOL    HW2 1806   6.683   0.737   3.281
  303SOL     OW 1807   6.248   6.700   2.274
  303SOL    HW1 1808   6.313   6.636   2.232
  303SOL    HW2 1809   6.155   6.670   2.253
  304SOL     OW 1810   1.735   6.346   5.596
  304SOL    HW1 1811   1.790   6.426   5.619
  304SOL    HW2 1812   1.783   6.263   5.627
  305SOL     OW 1813   1.599   2.141   0.280
  305SOL    HW1 1814   1.532   2.210   0.307
  305SOL    HW2 1815   1.690   2.181   0.281
  306SOL     OW 1816   1.498   1.005   3.225
  306SOL    HW1 1817   1.443   0.975   3.303
  306SOL    HW2 1818   1.454   1.085   3.183
  307SOL     OW 1819   4.876   5.109   0.773
  307SOL    HW1 1820   4.940   5.056   0.829
  307SOL    HW2 1821   4.916   5.126   0.683
  308SOL     OW 1822   5.884   3.507   4.844
  308SOL    HW1 1823   5.964   3.452   4.822
  308SOL    HW2 1824   5.835   3.465   4.921
  309SOL     OW 1825   2.055   6.060   0.307
  309SOL    HW1 1826   2.015   6.063   0.399
  309SOL    HW2 1827   2.154   6.048   0.314
  310SOL     OW 1828   4.844   6.004   5.765
  310SOL    HW1 1829   4.763   5.946   5.777
  310SOL    HW2 1830   4.864   6.013   5.667
  311SOL     OW 1831   3.353   5.257   2.831
  311SOL    HW1 1832   3.404   5.276   2.746
  311SOL    HW2 1833   3.408   5.200   2.891
  312SOL     OW 1834   4.586   1.376   4.226
  312SOL    HW1 1835   4.652   1.426   4.283
  312SOL    HW2 1836   4.602   1.277   4.236
  313SOL     OW 1837   3.419   2.980   2.164
  313SOL    HW1 1838   3.457   2.927   2.240
  313SOL    HW2 1839   3.319   2.986   2.175
  314SOL     OW 1840   2.791   4.693   0.417
  314SOL    HW1 1841   2.797   4.792   0.432
  314SOL    HW2 1842   2.855   4.666   0.345
  315SOL     OW 1843   1.127   3.215   3.665
  315SOL    HW1 1844   1.088   3.263   3.744
  315SOL    HW2 1845   1.211   3.168   3.692
  316SOL     OW 1846   2.818   0.833   4.843
  316SOL    HW1 1847   2.888   0.776   4.799
  316SOL    HW2 1848   2.775   0.891   4.774
  317SOL     OW 1849   0.366   1.731   1.216
  317SOL    HW1 1850   0.327   1.668   1.283
  317SOL    HW2 1851   0.454   1.764   1.249
  318SOL     OW 1852   0.194   5.906   6.954
  318SOL    HW1 1853   0.098   5.907   6.928
  318SOL    HW2 1854   0.242   5.836   6.902
  319SOL     OW 1855   6.459   1.346   3.753
  319SOL    HW1 1856   6.519   1.394   3.818
  319SOL    HW2 1857   6.364   1.353   3.784
  320SOL     OW 1858   5.641   2.557   0.274
  320SOL    HW1 1859   5.669   2.610   0.194
  320SOL    HW2 1860   5.651   2.613   0.356
  321SOL     OW 1861   3.260   1.289   6.512
  321SOL    HW1 1862   3.232   1.375   6.471
  321SOL    HW2 1863   3.327   1.306   6.584
  322SOL     OW 1864   3.216   3.435   3.677
  322SOL    HW1 1865   3.209   3.516   3.733
  322SOL    HW2 1866   3.261   3.362   3.728
  323SOL     OW 1867   1.529   3.028   6.091
  323SOL    HW1 1868   1.553   3.107   6.149
  323SOL    HW2 1869   1.612   2.995   6.045
  324SOL     OW 1870   2.926   0.778   3.737
  324SOL    HW1 1871   2.965   0.833   3.811
  324SOL    HW2 1872   2.958   0.812   3.649
  325SOL     OW 1873   0.393   2.431   2.212
  325SOL    HW1 1874   0.325   2.434   2.139
  325SOL    HW2 1875   0.419   2.524   2.238
  326SOL     OW 1876   1.173   5.120   6.935
  326SOL    HW1 1877   1.270   5.143   6.943
  326SOL    HW2 1878   1.158   5.074   6.847
  327SOL     OW 1879   1.648   4.352   1.791
  327SOL    HW1 1880   1.746   4.355   1.772
  327SOL    HW2 1881   1.611   4.263   1.763
  328SOL     OW 1882   1.466   5.926   1.765
  328SOL    HW1 1883   1.398   5.965   1.827
  328SOL    HW2 1884   1.421   5.862   1.703
  329SOL     OW 1885   3.130   3.085   4.466
  329SOL    HW1 1886   3.159   3.044   4.379
  329SOL    HW2 1887   3.173   3.037   4.542
  330SOL     OW 1888   3.467   6.038   1.440
  330SOL    HW1 1889   3.404   6.086   1.503
  330SOL    HW2 1890   3.430   6.042   1.347
  331SOL     OW 1891   3.786   5.808   0.952
  331SOL    HW1 1892   3.806   5.792   0.855
  331SOL    HW2 1893   3.826   5.734   1.007
  332SOL     OW 1894   4.885   2.159   5.710
  332SOL    HW1 1895   4.936   2.205   5.637
  332SOL    HW2 1896   4.947   2.105   5.766
  333SOL     OW 1897   3.947   0.497   6.169
  333SOL    HW1 1898   3.995   0.508   6.256
  333SOL    HW2 1899   3.868   0.437   6.182
  334SOL     OW 1900   3.383   1.238   1.000
  334SOL    HW1 1901   3.322   1.268   0.927
  334SOL    HW2 1902   3.399   1.140   0.992
  335SOL     OW 1903   4.124   6.502   6.137
  335SOL    HW1 1904   4.207   6.468   6.181
  335SOL    HW2 1905   4.070   6.555   6.202
  336SOL     OW 1906   2.855   1.117   3.560
  336SOL    HW1 1907   2.790   1.082   3.492
  336SOL    HW2 1908   2.874   1.213   3.541
  337SOL     OW 1909   0.489   2.944   6.259
  337SOL    HW1 1910   0.419   2.992   6.206
  337SOL    HW2 1911   0.555   3.011   6.294
  338SOL     OW 1912   2.781   2.662   1.498
  338SOL    HW1 1913   2.753   2.615   1.581
  338SOL    HW2 1914   2.847   2.606   1.448
  339SOL     OW 1915   4.592   5.862   4.853
  339SOL    HW1 1916   4.655   5.938   4.833
  339SOL    HW2 1917   4.498   5.892   4.836
  340SOL     OW 1918   4.767   4.186   5.007
  340SOL    HW1 1919   4.818   4.101   4.995
  340SOL    HW2 1920   4.765   4.236   4.920
  341SOL     OW 1921   6.257   6.775   4.538
  341SOL    HW1 1922   6.180   6.713   4.524
  341SOL    HW2 1923   6.258   6.845   4.467
  342SOL     OW 1924   5.914   3.346   0.598
  342SOL    HW1 1925   5.873   3.437   0.590
  342SOL    HW2 1926   5.968   3.326   0.517
  343SOL     OW 1927   1.745   6.062   1.359
  343SOL    HW1 1928   1.648   6.058   1.337
  343SOL    HW2 1929   1.764   6.146   1.410
  344SOL     OW 1930   1.297   3.350   2.125
  344SOL    HW1 1931   1.281   3.446   2.147
  344SOL    HW2 1932   1.350   3.307   2.199
  345SOL     OW 1933   4.638   2.074   3.650
  345SOL    HW1 1934   4.612   1.977   3.658
  345SOL    HW2 1935   4.556   2.131   3.655
  346SOL     OW 1936   1.953   0.973   3.226
  346SOL    HW1 1937   2.047   0.996   3.250
  346SOL    HW2 1938   1.940   0.982   3.128
  347SOL     OW 1939   2.908   5.667   6.675
  347SOL    HW1 1940   2.888   5.618   6.759
  347SOL    HW2 1941   2.994   5.633   6.636
  348SOL     OW 1942   4.946   4.346   2.215
  348SOL    HW1 1943   4.916   4.396   2.296
  348SOL    HW2 1944   4.878   4.275   2.193
  349SOL     OW 1945   6.808   5.530   1.165
  349SOL    HW1 1946   6.766   5.607   1.116
  349SOL    HW2 1947   6.824   5.455   1.101
  350SOL     OW 1948   3.397   3.068   1.110
  350SOL    HW1 1949   3.309   3.078   1.064
  350SOL    HW2 1950   3.470   3.101   1.050
  351SOL     OW 1951   2.382   3.943   1.157
  351SOL    HW1 1952   2.302   3.976   1.106
  351SOL    HW2 1953   2.351   3.894   1.238
  352SOL     OW 1954   3.305   6.893   4.362
  352SOL    HW1 1955   3.264   6.924   4.447
  352SOL    HW2 1956   3.365   6.815   4.380
  353SOL     OW 1957   2.699   0.282   0.642
  353SOL    HW1 1958   2.707   0.210   0.711
  353SOL    HW2 1959   2.682   0.242   0.552
  354SOL     OW 1960   3.818   2.646   0.804
  354SOL    HW1 1961   3.804   2.745   0.800
  354SOL    HW2 1962   3.740   2.604   0.852
  355SOL     OW 1963   1.205   3.179   2.472
  355SOL    HW1 1964   1.222   3.229   2.556
  355SOL    HW2 1965   1.131   3.224   2.421
  356SOL     OW 1966   2.595   6.861   6.455
  356SOL    HW1 1967   2.522   6.919   6.490
  356SOL    HW2 1968   2.673   6.863   6.517
  357SOL     OW 1969   6.764   5.851   5.670
  357SOL    HW1 1970   6.727   5.761   5.693
  357SOL    HW2 1971   6.828   5.842   5.593
  358SOL     OW 1972   4.518   6.245   0.712
  358SOL    HW1 1973   4.491   6.217   0.804
  358SOL    HW2 1974   4.614   6.224   0.697
  359SOL     OW 1975   2.927   2.080   1.930
  359SOL    HW1 1976   2.995   2.035   1.988
  359SOL    HW2 1977   2.914   2.174   1.960
  360SOL     OW 1978   1.060   4.788   6.046
  360SOL    HW1 1979   1.102   4.735   6.120
  360SOL    HW2 1980   0.970   4.749   6.023
  361SOL     OW 1981   6.291   6.915   2.973
  361SOL    HW1 1982   6.311   6.828   2.927
  361SOL    HW2 1983   6.196   6.942   2.953
  362SOL     OW 1984   3.613   3.110   0.908
  362SOL    HW1 1985   3.582   3.176   0.838
  362SOL    HW2 1986   3.712   3.116   0.918
  363SOL     OW 1987   5.176   3.855   3.320
  363SOL    HW1 1988   5.209   3.788   3.254
  363SOL    HW2 1989   5.218   3.838   3.410
  364SOL     OW 1990   6.474   5.165   6.908
  364SOL    HW1 1991   6.469   5.161   7.008
  364SOL    HW2 1992   6.390   5.204   6.872
  365SOL     OW 1993   5.718   6.035   1.325
  365SOL    HW1 1994   5.745   6.113   1.268
  365SOL    HW2 1995   5.682   6.068   1.413
  366SOL     OW 1996   5.514   0.768   6.319
  366SOL    HW1 1997   5.570   0.759   6.236
  366SOL    HW2 1998   5.566   0.816   6.389
  367SOL     OW 1999   5.162   3.262   1.711
  367SOL    HW1 2000   5.098   3.303   1.776
  367SOL    HW2 2001   5.250   3.310   1.717
  368SOL     OW 2002   0.302   2.827   5.187
  368SOL    HW1 2003   0.378   2.891   5.174
  368SOL    HW2 2004   0.225   2.854   5.130
  369SOL     OW 2005   6.101   5.179   1.969
  369SOL    HW1 2006   6.041   5.111   2.010
  369SOL    HW2 2007   6.050   5.231   1.899
  370SOL     OW 2008   2.362   1.159   5.206
  370SOL    HW1 2009   2.278   1.204   5.173
  370SOL    HW2 2010   2.355   1.060   5.189
  371SOL     OW 2011   2.160   4.115   6.064
  371SOL    HW1 2012   2.171   4.085   6.159
  371SOL    HW2 2013   2.086   4.064   6.021
  372SOL     OW 2014   1.016   6.886   6.346
  372SOL    HW1 2015   0.919   6.870   6.361
  372SOL    HW2 2016   1.030   6.926   6.255
  373SOL     OW 2017   6.248   6.153   4.248
  373SOL    HW1 2018   6.223   6.056   4.249
  373SOL    HW2 2019   6.174   6.207   4.289
  374SOL     OW 2020   3.100   1.933   3.735
  374SOL    HW1 2021   3.160   1.997   3.687
  374SOL    HW2 2022   3.004   1.958   3.719
  375SOL     OW 2023   1.236   4.660   4.072
  375SOL    HW1 2024   1.244   4.724   4.149
  375SOL    HW2 2025   1.168   4.590   4.094
  376SOL     OW 2026   2.706   1.022   5.280
  376SOL    HW1 2027   2.794   1.014   5.327
  376SOL    HW2 2028   2.682   1.118   5.271
  377SOL     OW 2029   1.229   2.069   0.889
  377SOL    HW1 2030   1.242   1.995   0.823
  377SOL    HW2 2031   1.136   2.066   0.925
  378SOL     OW 2032   4.845   2.832   6.447
  378SOL    HW1 2033   4.874   2.825   6.542
  378SOL    HW2 2034   4.745   2.826   6.442
  379SOL     OW 2035   6.033   3.025   1.023
  379SOL    HW1 2036   5.970   2.966   1.072
  379SOL    HW2 2037   6.078   2.973   0.950
  380SOL     OW 2038   2.370   1.427   0.561
  380SOL    HW1 2039   2.297   1.494   0.548
  380SOL    HW2 2040   2.450   1.471   0.602
  381SOL     OW 2041   1.242   3.855   2.696
  381SOL    HW1 2042   1.152   3.891   2.672
  381SOL    HW2 2043   1.304   3.866   2.618
  382SOL     OW 2044   5.560   0.281   6.571
  382SOL    HW1 2045   5.507   0.356   6.532
  382SOL    HW2 2046   5.539   0.197   6.522
  383SOL     OW 2047   3.688   3.670   6.386
  383SOL    HW1 2048   3.645   3.583   6.364
  383SOL    HW2 2049   3.686   3.730   6.306
  384SOL     OW 2050   6.939   5.976   3.650
  384SOL    HW1 2051   6.852   5.975   3.601
  384SOL    HW2 2052   6.941   5.902   3.716
  385SOL     OW 2053   3.468   4.835   5.612
  385SOL    HW1 2054   3.468   4.831   5.512
  385SOL    HW2 2055   3.373   4.832   5.645
  386SOL     OW 2056   2.392   0.030   5.409
  386SOL    HW1 2057   2.468   0.095   5.399
  386SOL    HW2 2058   2.410   6.968   5.353
  387SOL     OW 2059   1.315   6.754   2.758
  387SOL    HW1 2060   1.344   6.825   2.694
  387SOL    HW2 2061   1.379   6.678   2.755
  388SOL     OW 2062   1.302   1.496   4.840
  388SOL    HW1 2063   1.360   1.544   4.905
  388SOL    HW2 2064   1.287   1.402   4.872
  389SOL     OW 2065   4.218   3.970   1.395
  389SOL    HW1 2066   4.300   4.026   1.393
  389SOL    HW2 2067   4.229   3.896   1.462
  390SOL     OW 2068   3.355   1.626   0.683
  390SOL    HW1 2069   3.313   1.628   0.774
  390SOL    HW2 2070   3.444   1.671   0.687
  391SOL     OW 2071   1.977   3.139   6.591
  391SOL    HW1 2072   1.894   3.101   6.631
  391SOL    HW2 2073   2.047   3.068   6.584
  392SOL     OW 2074   1.207   4.537   0.509
  392SOL    HW1 2075   1.287   4.522   0.452
  392SOL    HW2 2076   1.149   4.456   0.506
  393SOL     OW 2077   1.435   4.311   6.619
  393SOL    HW1 2078   1.484   4.329   6.704
  393SOL    HW2 2079   1.492   4.256   6.558
  394SOL     OW 2080   6.780   2.229   0.648
  394SOL    HW1 2081   6.803   2.234   0.745
  394SOL    HW2 2082   6.855   2.269   0.595
  395SOL     OW 2083   5.178   4.124   3.345
  395SOL    HW1 2084   5.277   4.127   3.332
  395SOL    HW2 2085   5.148   4.029   3.341
  396SOL     OW 2086   3.088   3.535   2.134
  396SOL    HW1 2087   3.007   3.489   2.169
  396SOL    HW2 2088   3.061   3.610   2.073
  397SOL     OW 2089   6.040   1.363   5.515
  397SOL    HW1 2090   6.037   1.327   5.609
  397SOL    HW2 2091   5.959   1.334   5.465
  398SOL     OW 2092   1.458   0.412   2.545
  398SOL    HW1 2093   1.470   0.379   2.452
  398SOL    HW2 2094   1.400   0.349   2.596
  399SOL     OW 2095   5.529   6.088   2.214
  399SOL    HW1 2096   5.564   5.995   2.216
  399SOL    HW2 2097   5.473   6.105   2.295
  400SOL     OW 2098   6.480   6.594   5.470
  400SOL    HW1 2099   6.434   6.605   5.559
  400SOL    HW2 2100   6.565   6.646   5.470
  401SOL     OW 2101   5.649   0.236   6.189
  401SOL    HW1 2102   5.634   0.333   6.207
  401SOL    HW2 2103   5.697   0.226   6.102
  402SOL     OW 2104   6.241   0.305   3.827
  402SOL    HW1 2105   6.295   0.302   3.742
  402SOL    HW2 2106   6.144   0.318   3.804
  403SOL     OW 2107   3.824   1.404   4.536
  403SOL    HW1 2108   3.834   1.345   4.456
  403SOL    HW2 2109   3.906   1.460   4.547
  404SOL     OW 2110   1.637   5.189   3.961
  404SOL    HW1 2111   1.675   5.137   4.038
  404SOL    HW2 2112   1.700   5.263   3.937
  405SOL     OW 2113   2.160   2.872   2.542
  405SOL    HW1 2114   2.163   2.968   2.569
  405SOL    HW2 2115   2.194   2.863   2.448
  406SOL     OW 2116   1.019   4.592   4.964
  406SOL    HW1 2117   1.067   4.648   5.032
  406SOL    HW2 2118   0.944   4.542   5.008
  407SOL     OW 2119   0.814   1.181   4.672
  407SOL    HW1 2120   0.739   1.231   4.628
  407SOL    HW2 2121   0.844   1.106   4.613
  408SOL     OW 2122   1.714   2.114   3.032
  408SOL    HW1 2123   1.751   2.110   2.940
  408SOL    HW2 2124   1.706   2.210   3.061
  409SOL     OW 2125   6.475   2.944   2.359
  409SOL    HW1 2126   6.555   2.937   2.419
  409SOL    HW2 2127   6.505   2.938   2.264
  410SOL     OW 2128   1.609   1.641   1.136
  410SOL    HW1 2129   1.682   1.692   1.182
  410SOL    HW2 2130   1.647   1.558   1.095
  411SOL     OW 2131   6.554   0.681   1.857
  411SOL    HW1 2132   6.555   0.688   1.957
  411SOL    HW2 2133   6.541   0.586   1.831
  412SOL     OW 2134   3.048   5.917   3.296
  412SOL    HW1 2135   2.963   5.875   3.266
  412SOL    HW2 2136   3.081   5.981   3.227
  413SOL     OW 2137   5.521   3.616   1.799
  413SOL    HW1 2138   5.583   3.546   1.764
  413SOL    HW2 2139   5.532   3.700   1.746
  414SOL     OW 2140   2.928   5.144   3.384
  414SOL    HW1 2141   2.839   5.115   3.350
  414SOL    HW2 2142   2.976   5.194   3.312
  415SOL     OW 2143   0.768   6.387   6.696
  415SOL    HW1 2144   0.780   6.299   6.742
  415SOL    HW2 2145   0.827   6.455   6.738
  416SOL     OW 2146   4.776   6.487   4.969
  416SOL    HW1 2147   4.705   6.451   4.909
  416SOL    HW2 2148   4.750   6.578   5.002
  417SOL     OW 2149   1.840   6.094   5.621
  417SOL    HW1 2150   1.897   6.065   5.698
  417SOL    HW2 2151   1.847   6.027   5.547
  418SOL     OW 2152   3.875   6.827   6.681
  418SOL    HW1 2153   3.906   6.761   6.750
  418SOL    HW2 2154   3.777   6.815   6.665
  419SOL     OW 2155   1.953   6.297   1.439
  419SOL    HW1 2156   1.976   6.370   1.504
  419SOL    HW2 2157   1.889   6.332   1.371
  420SOL     OW 2158   6.174   1.362   0.533
  420SOL    HW1 2159   6.192   1.411   0.448
  420SOL    HW2 2160   6.254   1.369   0.593
  421SOL     OW 2161   0.019   4.100   5.363
  421SOL    HW1 2162   0.006   4.198   5.348
  421SOL    HW2 2163   6.981   4.069   5.439
  422SOL     OW 2164   5.180   3.823   1.809
  422SOL    HW1 2165   5.236   3.892   1.762
  422SOL    HW2 2166   5.233   3.784   1.884
  423SOL     OW 2167   0.764   2.142   6.081
  423SOL    HW1 2168   0.751   2.051   6.043
  423SOL    HW2 2169   0.757   2.210   6.008
  424SOL     OW 2170   1.705   5.186   1.120
  424SOL    HW1 2171   1.708   5.205   1.021
  424SOL    HW2 2172   1.693   5.088   1.135
  425SOL     OW 2173   4.810   2.017   3.436
  425SOL    HW1 2174   4.904   2.011   3.470
  425SOL    HW2 2175   4.747   2.013   3.513
  426SOL     OW 2176   3.182   1.686   4.274
  426SOL    HW1 2177   3.260   1.717   4.220
  426SOL    HW2 2178   3.097   1.722   4.234
  427SOL     OW 2179   5.847   6.155   3.950
  427SOL    HW1 2180   5.885   6.150   3.858
  427SOL    HW2 2181   5.753   6.189   3.946
  428SOL     OW 2182   4.549   6.833   3.527
  428SOL    HW1 2183   4.526   6.880   3.613
  428SOL    HW2 2184   4.468   6.829   3.469
  429SOL     OW 2185   1.030   5.036   2.061
  429SOL    HW1 2186   0.941   4.995   2.084
  429SOL    HW2 2187   1.103   4.979   2.098
  430SOL     OW 2188   1.205   6.853   4.499
  430SOL    HW1 2189   1.130   6.902   4.454
  430SOL    HW2 2190   1.273   6.827   4.431
  431SOL     OW 2191   2.957   0.933   1.400
  431SOL    HW1 2192   3.022   1.008   1.391
  431SOL    HW2 2193   2.976   0.864   1.330
  432SOL     OW 2194   6.401   2.248   0.942
  432SOL    HW1 2195   6.400   2.347   0.955
  432SOL    HW2 2196   6.452   2.204   1.016
  433SOL     OW 2197   2.201   6.549   4.963
  433SOL    HW1 2198   2.177   6.579   4.871
  433SOL    HW2 2199   2.123   6.563   5.024
  434SOL     OW 2200   3.831   5.484   3.338
  434SOL    HW1 2201   3.769   5.433   3.278
  434SOL    HW2 2202   3.897   5.422   3.379
  435SOL     OW 2203   4.477   2.379   6.626
  435SOL    HW1 2204   4.481   2.405   6.529
  435SOL    HW2 2205   4.391   2.411   6.665
  436SOL     OW 2206   3.432   5.408   1.762
  436SOL    HW1 2207   3.482   5.382   1.846
  436SOL    HW2 2208   3.334   5.392   1.776
  437SOL     OW 2209   0.633   1.270   6.704
  437SOL    HW1 2210   0.686   1.310   6.629
  437SOL    HW2 2211   0.669   1.303   6.792
  438SOL     OW 2212   2.035   4.128   3.796
  438SOL    HW1 2213   2.051   4.075   3.713
  438SOL    HW2 2214   2.055   4.224   3.779
  439SOL     OW 2215   5.758   5.806   2.021
  439SOL    HW1 2216   5.856   5.801   2.041
  439SOL    HW2 2217   5.745   5.832   1.925
  440SOL     OW 2218   2.694   2.021   4.874
  440SOL    HW1 2219   2.629   2.092   4.903
  440SOL    HW2 2220   2.762   2.008   4.947
  441SOL     OW 2221   0.684   3.390   3.922
  441SOL    HW1 2222   0.683   3.327   4.000
  441SOL    HW2 2223   0.595   3.387   3.876
  442SOL     OW 2224   3.764   5.721   5.488
  442SOL    HW1 2225   3.674   5.739   5.526
  442SOL    HW2 2226   3.799   5.804   5.444
  443SOL     OW 2227   5.904   4.308   3.901
  443SOL    HW1 2228   6.003   4.297   3.908
  443SOL    HW2 2229   5.862   4.303   3.991
  444SOL     OW 2230   5.280   0.856   6.249
  444SOL    HW1 2231   5.365   0.823   6.290
  444SOL    HW2 2232   5.207   0.789   6.264
  445SOL     OW 2233   1.588   5.593   2.904
  445SOL    HW1 2234   1.603   5.663   2.973
  445SOL    HW2 2235   1.605   5.503   2.943
  446SOL     OW 2236   3.654   5.095   3.045
  446SOL    HW1 2237   3.569   5.058   3.008
  446SOL    HW2 2238   3.694   5.031   3.111
  447SOL     OW 2239   0.079   3.028   5.768
  447SOL    HW1 2240   0.143   2.962   5.728
  447SOL    HW2 2241   7.009   3.018   5.724
  448SOL     OW 2242   2.320   0.712   2.834
  448SOL    HW1 2243   2.223   0.722   2.813
  448SOL    HW2 2244   2.369   0.681   2.752
  449SOL     OW 2245   2.361   1.217   4.069
  449SOL    HW1 2246   2.453   1.250   4.049
  449SOL    HW2 2247   2.313   1.200   3.982
  450SOL     OW 2248   1.077   4.944   3.212
  450SOL    HW1 2249   1.077   4.935   3.312
  450SOL    HW2 2250   1.050   5.037   3.188
  451SOL     OW 2251   1.262   2.143   4.615
  451SOL    HW1 2252   1.217   2.143   4.526
  451SOL    HW2 2253   1.361   2.132   4.602
  452SOL     OW 2254   5.567   6.444   0.369
  452SOL    HW1 2255   5.512   6.381   0.423
  452SOL    HW2 2256   5.550   6.428   0.271
  453SOL     OW 2257   3.648   0.493   0.016
  453SOL    HW1 2258   3.632   0.568   6.970
  453SOL    HW2 2259   3.726   0.516   0.075
  454SOL     OW 2260   0.117   4.372   6.607
  454SOL    HW1 2261   0.135   4.397   6.702
  454SOL    HW2 2262   0.073   4.449   6.560
  455SOL     OW 2263   5.532   2.528   4.456
  455SOL    HW1 2264   5.561   2.544   4.362
  455SOL    HW2 2265   5.432   2.517   4.459
  456SOL     OW 2266   0.414   0.325   3.512
  456SOL    HW1 2267   0.368   0.354   3.596
  456SOL    HW2 2268   0.346   0.309   3.440
  457SOL     OW 2269   1.834   3.583   4.671
  457SOL    HW1 2270   1.918   3.636   4.687
  457SOL    HW2 2271   1.754   3.640   4.690
  458SOL     OW 2272   3.278   5.875   2.825
  458SOL    HW1 2273   3.362   5.860   2.876
  458SOL    HW2 2274   3.286   5.961   2.774
  459SOL     OW 2275   2.278   0.050   6.168
  459SOL    HW1 2276   2.246   0.141   6.142
  459SOL    HW2 2277   2.372   0.037   6.136
  460SOL     OW 2278   2.310   6.813   4.754
  460SOL    HW1 2279   2.299   6.898   4.702
  460SOL    HW2 2280   2.265   6.739   4.705
  461SOL     OW 2281   0.061   5.622   5.606
  461SOL    HW1 2282   0.124   5.568   5.550
  461SOL    HW2 2283   0.007   5.682   5.547
  462SOL     OW 2284   3.716   3.344   6.539
  462SOL    HW1 2285   3.650   3.323   6.612
  462SOL    HW2 2286   3.674   3.409   6.475
  463SOL     OW 2287   6.139   5.883   4.207
  463SOL    HW1 2288   6.097   5.893   4.117
  463SOL    HW2 2289   6.234   5.854   4.196
  464SOL     OW 2290   2.992   0.925   5.061
  464SOL    HW1 2291   2.991   1.024   5.071
  464SOL    HW2 2292   2.934   0.898   4.983
  465SOL     OW 2293   0.962   2.251   0.134
  465SOL    HW1 2294   1.023   2.258   0.213
  465SOL    HW2 2295   0.941   2.343   0.100
  466SOL     OW 2296   1.706   6.666   4.119
  466SOL    HW1 2297   1.712   6.576   4.161
  466SOL    HW2 2298   1.786   6.682   4.061
  467SOL     OW 2299   1.846   1.339   1.370
  467SOL    HW1 2300   1.784   1.404   1.414
  467SOL    HW2 2301   1.906   1.387   1.307
  468SOL     OW 2302   3.560   6.328   5.477
  468SOL    HW1 2303   3.484   6.391   5.461
  468SOL    HW2 2304   3.628   6.340   5.404
  469SOL     OW 2305   2.582   3.755   6.508
  469SOL    HW1 2306   2.500   3.714   6.469
  469SOL    HW2 2307   2.650   3.770   6.436
  470SOL     OW 2308   4.841   6.228   1.006
  470SOL    HW1 2309   4.807   6.318   0.979
  470SOL    HW2 2310   4.803   6.204   1.096
  471SOL     OW 2311   2.426   2.566   4.072
  471SOL    HW1 2312   2.412   2.658   4.034
  471SOL    HW2 2313   2.363   2.552   4.149
  472SOL     OW 2314   5.063   4.483   6.255
  472SOL    HW1 2315   5.074   4.385   6.274
  472SOL    HW2 2316   5.152   4.528   6.259
  473SOL     OW 2317   1.051   2.213   2.476
  473SOL    HW1 2318   0.973   2.227   2.537
  473SOL    HW2 2319   1.020   2.209   2.381
  474SOL     OW 2320   5.252   5.985   4.551
  474SOL    HW1 2321   5.323   5.924   4.588
  474SOL    HW2 2322   5.183   6.002   4.621
  475SOL     OW 2323   6.214   2.150   0.172
  475SOL    HW1 2324   6.201   2.086   0.249
  475SOL    HW2 2325   6.126   2.166   0.127
  476SOL     OW 2326   0.210   3.662   2.206
  476SOL    HW1 2327   0.150   3.723   2.258
  476SOL    HW2 2328   0.216   3.574   2.252
  477SOL     OW 2329   2.629   6.112   3.139
  477SOL    HW1 2330   2.542   6.074   3.106
  477SOL    HW2 2331   2.699   6.041   3.134
  478SOL     OW 2332   3.597   6.476   2.290
  478SOL    HW1 2333   3.657   6.552   2.316
  478SOL    HW2 2334   3.508   6.512   2.264
  479SOL     OW 2335   3.666   3.251   5.140
  479SOL    HW1 2336   3.696   3.345   5.121
  479SOL    HW2 2337   3.584   3.231   5.087
  480SOL     OW 2338   2.323   0.865   0.925
  480SOL    HW1 2339   2.324   0.779   0.976
  480SOL    HW2 2340   2.309   0.941   0.988
  481SOL     OW 2341   1.038   6.508   1.585
  481SOL    HW1 2342   1.101   6.475   1.515
  481SOL    HW2 2343   1.087   6.565   1.651
  482SOL     OW 2344   4.308   4.798   2.157
  482SOL    HW1 2345   4.251   4.803   2.075
  482SOL    HW2 2346   4.253   4.822   2.237
  483SOL     OW 2347   6.400   2.131   2.768
  483SOL    HW1 2348   6.383   2.201   2.838
  483SOL    HW2 2349   6.384   2.171   2.677
  484SOL     OW 2350   1.870   3.420   5.486
  484SOL    HW1 2351   1.851   3.495   5.422
  484SOL    HW2 2352   1.964   3.389   5.474
  485SOL     OW 2353   3.997   4.953   2.555
  485SOL    HW1 2354   3.994   5.012   2.635
  485SOL    HW2 2355   3.904   4.930   2.526
  486SOL     OW 2356   0.103   1.103   0.246
  486SOL    HW1 2357   0.009   1.090   0.279
  486SOL    HW2 2358   0.110   1.191   0.200
  487SOL     OW 2359   0.767   0.545   3.282
  487SOL    HW1 2360   0.734   0.542   3.376
  487SOL    HW2 2361   0.690   0.561   3.221
  488SOL     OW 2362   1.414   0.697   2.556
  488SOL    HW1 2363   1.487   0.754   2.594
  488SOL    HW2 2364   1.447   0.603   2.546
  489SOL     OW 2365   5.059   5.871   5.535
  489SOL    HW1 2366   5.033   5.802   5.602
  489SOL    HW2 2367   5.143   5.842   5.488
  490SOL     OW 2368   1.275   6.210   3.613
  490SOL    HW1 2369   1.363   6.244   3.581
  490SOL    HW2 2370   1.203   6.237   3.549
  491SOL     OW 2371   0.905   3.448   1.772
  491SOL    HW1 2372   0.958   3.412   1.849
  491SOL    HW2 2373   0.961   3.515   1.723
  492SOL     OW 2374   1.485   0.588   5.599
  492SOL    HW1 2375   1.547   0.521   5.557
  492SOL    HW2 2376   1.410   0.608   5.536
  493SOL     OW 2377   3.851   6.246   5.364
  493SOL    HW1 2378   3.851   6.325   5.424
  493SOL    HW2 2379   3.800   6.267   5.280
  494SOL     OW 2380   1.164   0.148   6.370
  494SOL    HW1 2381   1.099   0.082   6.332
  494SOL    HW2 2382   1.178   0.129   6.467
  495SOL     OW 2383   3.964   5.705   3.623
  495SOL    HW1 2384   4.012   5.789   3.649
  495SOL    HW2 2385   3.873   5.729   3.588
  496SOL     OW 2386   5.698   2.834   1.917
  496SOL    HW1 2387   5.701   2.736   1.941
  496SOL    HW2 2388   5.603   2.862   1.906
  497SOL     OW 2389   3.306   1.505   4.479
  497SOL    HW1 2390   3.248   1.563   4.422
  497SOL    HW2 2391   3.401   1.512   4.448
  498SOL     OW 2392   0.783   4.898   2.140
  498SOL    HW1 2393   0.720   4.959   2.189
  498SOL    HW2 2394   0.806   4.820   2.199
  499SOL     OW 2395   1.840   5.171   4.693
  499SOL    HW1 2396   1.770   5.235   4.662
  499SOL    HW2 2397   1.800   5.081   4.707
  500SOL     OW 2398   6.927   2.425   5.875
  500SOL    HW1 2399   6.918   2.405   5.973
  500SOL    HW2 2400   6.854   2.378   5.825
  501SOL     OW 2401   4.241   0.078   0.911
  501SOL    HW1 2402   4.230   7.005   0.947
  501SOL    HW2 2403   4.280   0.073   0.819
  502SOL     OW 2404   0.701   4.599   5.494
  502SOL    HW1 2405   0.785   4.591   5.441
  502SOL    HW2 2406   0.629   4.545   5.452
  503SOL     OW 2407   0.234   4.904   6.690
  503SOL    HW1 2408   0.185   4.983   6.653
  503SOL    HW2 2409   0.238   4.832   6.621
  504SOL     OW 2410   0.794   5.468   2.264
  504SOL    HW1 2411   0.746   5.423   2.189
  504SOL    HW2 2412   0.879   5.420   2.283
  505SOL     OW 2413   3.431   5.767   4.732
  505SOL    HW1 2414   3.468   5.860   4.728
  505SOL    HW2 2415   3.336   5.767   4.701
  506SOL     OW 2416   3.942   5.407   3.053
  506SOL    HW1 2417   3.858   5.462   3.050
  506SOL    HW2 2418   3.991   5.416   2.967
  507SOL     OW 2419   3.689   0.161   3.121
  507SOL    HW1 2420   3.672   0.186   3.026
  507SOL    HW2 2421   3.778   0.117   3.129
  508SOL     OW 2422   6.864   3.526   2.791
  508SOL    HW1 2423   6.902   3.495   2.704
  508SOL    HW2 2424   6.939   3.542   2.856
  509SOL     OW 2425   3.246   1.724   1.076
  509SOL    HW1 2426   3.335   1.684   1.054
  509SOL    HW2 2427   3.176   1.682   1.019
  510SOL     OW 2428   6.524   3.939   6.961
  510SOL    HW1 2429   6.601   3.894   7.005
  510SOL    HW2 2430   6.438   3.908   7.002
  511SOL     OW 2431   1.077   2.525   5.930
  511SOL    HW1 2432   1.151   2.580   5.968
  511SOL    HW2 2433   1.075   2.436   5.975
  512SOL     OW 2434   0.068   2.044   6.721
  512SOL    HW1 2435   0.121   1.960   6.737
  512SOL    HW2 2436   0.118   2.102   6.657
  513SOL     OW 2437   5.840   6.504   3.362
  513SOL    HW1 2438   5.935   6.475   3.373
  513SOL    HW2 2439   5.780   6.423   3.358
  514SOL     OW 2440   6.377   0.370   4.681
  514SOL    HW1 2441   6.384   0.270   4.680
  514SOL    HW2 2442   6.378   0.403   4.775
  515SOL     OW 2443   1.135   0.482   1.580
  515SOL    HW1 2444   1.113   0.387   1.603
  515SOL    HW2 2445   1.051   0.532   1.559
  516SOL     OW 2446   2.748   4.783   2.102
  516SOL    HW1 2447   2.756   4.713   2.030
  516SOL    HW2 2448   2.667   4.764   2.157
  517SOL     OW 2449   3.523   5.043   1.886
  517SOL    HW1 2450   3.541   4.976   1.958
  517SOL    HW2 2451   3.520   4.996   1.798
  518SOL     OW 2452   2.307   2.401   3.854
  518SOL    HW1 2453   2.351   2.315   3.827
  518SOL    HW2 2454   2.350   2.435   3.938
  519SOL     OW 2455   0.855   6.488   3.416
  519SOL    HW1 2456   0.940   6.434   3.417
  519SOL    HW2 2457   0.815   6.488   3.507
  520SOL     OW 2458   5.887   3.597   6.971
  520SOL    HW1 2459   5.914   3.508   6.934
  520SOL    HW2 2460   5.947   3.668   6.934
  521SOL     OW 2461   6.268   6.271   5.284
  521SOL    HW1 2462   6.366   6.287   5.276
  521SOL    HW2 2463   6.225   6.349   5.330
  522SOL     OW 2464   3.523   3.510   3.603
  522SOL    HW1 2465   3.621   3.494   3.615
  522SOL    HW2 2466   3.505   3.608   3.600
  523SOL     OW 2467   0.250   6.537   1.787
  523SOL    HW1 2468   0.282   6.603   1.719
  523SOL    HW2 2469   0.302   6.451   1.776
  524SOL     OW 2470   0.875   2.307   2.677
  524SOL    HW1 2471   0.798   2.371   2.678
  524SOL    HW2 2472   0.947   2.342   2.736
  525SOL     OW 2473   1.936   4.174   6.342
  525SOL    HW1 2474   2.028   4.144   6.366
  525SOL    HW2 2475   1.874   4.095   6.340
  526SOL     OW 2476   3.478   6.359   4.418
  526SOL    HW1 2477   3.428   6.437   4.455
  526SOL    HW2 2478   3.547   6.328   4.483
  527SOL     OW 2479   6.846   2.858   0.758
  527SOL    HW1 2480   6.843   2.916   0.678
  527SOL    HW2 2481   6.891   2.907   0.833
  528SOL     OW 2482   1.789   2.388   3.876
  528SOL    HW1 2483   1.787   2.293   3.909
  528SOL    HW2 2484   1.878   2.428   3.895
  529SOL     OW 2485   1.469   5.701   5.206
  529SOL    HW1 2486   1.528   5.766   5.158
  529SOL    HW2 2487   1.416   5.649   5.139
  530SOL     OW 2488   4.143   3.367   3.616
  530SOL    HW1 2489   4.097   3.430   3.552
  530SOL    HW2 2490   4.233   3.404   3.640
  531SOL     OW 2491   0.534   2.018   2.696
  531SOL    HW1 2492   0.477   2.100   2.695
  531SOL    HW2 2493   0.629   2.043   2.718
  532SOL     OW 2494   0.856   2.799   0.385
  532SOL    HW1 2495   0.932   2.847   0.341
  532SOL    HW2 2496   0.774   2.807   0.329
  533SOL     OW 2497   4.302   0.160   3.476
  533SOL    HW1 2498   4.294   0.064   3.450
  533SOL    HW2 2499   4.277   0.171   3.572
  534SOL     OW 2500   5.279   5.973   2.536
  534SOL    HW1 2501   5.181   5.983   2.556
  534SOL    HW2 2502   5.321   6.064   2.532
  535SOL     OW 2503   6.422   3.916   4.293
  535SOL    HW1 2504   6.521   3.904   4.279
  535SOL    HW2 2505   6.376   3.918   4.204
  536SOL     OW 2506   6.023   5.056   2.837
  536SOL    HW1 2507   5.927   5.041   2.817
  536SOL    HW2 2508   6.075   4.972   2.819
  537SOL     OW 2509   2.997   6.479   5.050
  537SOL    HW1 2510   2.974   6.555   5.111
  537SOL    HW2 2511   2.984   6.393   5.098
  538SOL     OW 2512   0.923   4.438   3.819
  538SOL    HW1 2513   0.999   4.410   3.877
  538SOL    HW2 2514   0.957   4.493   3.743
  539SOL     OW 2515   1.402   5.073   1.252
  539SOL    HW1 2516   1.360   5.158   1.284
  539SOL    HW2 2517   1.332   5.003   1.243
  540SOL     OW 2518   1.378   1.989   2.712
  540SOL    HW1 2519   1.329   1.974   2.626
  540SOL    HW2 2520   1.476   1.976   2.696
  541SOL     OW 2521   5.372   5.496   3.732
  541SOL    HW1 2522   5.323   5.502   3.819
  541SOL    HW2 2523   5.471   5.501   3.750
  542SOL     OW 2524   6.054   6.882   6.607
  542SOL    HW1 2525   6.032   6.980   6.610
  542SOL    HW2 2526   5.975   6.830   6.575
  543SOL     OW 2527   6.894   3.834   4.929
  543SOL    HW1 2528   6.961   3.775   4.882
  543SOL    HW2 2529   6.930   3.927   4.934
  544SOL     OW 2530   1.386   5.023   0.556
  544SOL    HW1 2531   1.415   4.995   0.464
  544SOL    HW2 2532   1.373   5.122   0.558
  545SOL     OW 2533   3.084   1.591   0.889
  545SOL    HW1 2534   3.006   1.557   0.942
  545SOL    HW2 2535   3.050   1.649   0.814
  546SOL     OW 2536   2.103   3.891   0.352
  546SOL    HW1 2537   2.076   3.975   0.306
  546SOL    HW2 2538   2.031   3.822   0.342
  547SOL     OW 2539   3.247   1.839   0.328
  547SOL    HW1 2540   3.162   1.884   0.356
  547SOL    HW2 2541   3.242   1.817   0.231
  548SOL     OW 2542   3.232   3.621   2.363
  548SOL    HW1 2543   3.172   3.582   2.292
  548SOL    HW2 2544   3.224   3.566   2.446
  549SOL     OW 2545   5.658   2.785   0.999
  549SOL    HW1 2546   5.588   2.760   1.067
  549SOL    HW2 2547   5.618   2.781   0.907
  550SOL     OW 2548   1.099   5.569   4.020
  550SOL    HW1 2549   1.138   5.660   4.039
  550SOL    HW2 2550   1.152   5.499   4.068
  551SOL     OW 2551   0.918   6.845   2.504
  551SOL    HW1 2552   0.843   6.839   2.569
  551SOL    HW2 2553   0.990   6.780   2.529
  552SOL     OW 2554   6.683   4.635   6.571
  552SOL    HW1 2555   6.695   4.602   6.664
  552SOL    HW2 2556   6.713   4.731   6.565
  553SOL     OW 2557   2.447   6.349   3.838
  553SOL    HW1 2558   2.526   6.366   3.897
  553SOL    HW2 2559   2.364   6.383   3.882
  554SOL     OW 2560   6.438   0.069   6.810
  554SOL    HW1 2561   6.452   6.995   6.845
  554SOL    HW2 2562   6.413   0.064   6.713
  555SOL     OW 2563   2.697   4.709   4.514
  555SOL    HW1 2564   2.643   4.640   4.562
  555SOL    HW2 2565   2.781   4.727   4.566
  556SOL     OW 2566   4.373   1.825   3.693
  556SOL    HW1 2567   4.328   1.843   3.780
  556SOL    HW2 2568   4.344   1.893   3.626
  557SOL     OW 2569   6.885   5.940   1.249
  557SOL    HW1 2570   6.849   6.033   1.259
  557SOL    HW2 2571   6.819   5.883   1.201
  558SOL     OW 2572   3.072   3.363   3.466
  558SOL    HW1 2573   3.050   3.438   3.404
  558SOL    HW2 2574   3.137   3.394   3.535
  559SOL     OW 2575   0.409   5.618   6.827
  559SOL    HW1 2576   0.426   5.618   6.925
  559SOL    HW2 2577   0.381   5.526   6.798
  560SOL     OW 2578   5.613   4.498   4.663
  560SOL    HW1 2579   5.668   4.511   4.746
  560SOL    HW2 2580   5.641   4.413   4.618
  561SOL     OW 2581   0.607   1.987   1.562
  561SOL    HW1 2582   0.525   1.937   1.590
  561SOL    HW2 2583   0.657   1.933   1.494
  562SOL     OW 2584   4.421   6.633   6.185
  562SOL    HW1 2585   4.355   6.708   6.189
  562SOL    HW2 2586   4.514   6.669   6.187
  563SOL     OW 2587   2.879   0.043   3.173
  563SOL    HW1 2588   2.928   0.077   3.254
  563SOL    HW2 2589   2.853   6.967   3.188
  564SOL     OW 2590   1.369   2.616   6.779
  564SOL    HW1 2591   1.392   2.712   6.792
  564SOL    HW2 2592   1.441   2.559   6.818
  565SOL     OW 2593   3.283   3.021   4.688
  565SOL    HW1 2594   3.275   3.010   4.787
  565SOL    HW2 2595   3.319   3.112   4.667
  566SOL     OW 2596   0.219   4.673   3.601
  566SOL    HW1 2597   0.318   4.672   3.588
  566SOL    HW2 2598   0.193   4.597   3.660
  567SOL     OW 2599   2.864   2.929   1.242
  567SOL    HW1 2600   2.833   2.992   1.313
  567SOL    HW2 2601   2.894   2.844   1.284
  568SOL     OW 2602   4.955   0.516   0.069
  568SOL    HW1 2603   4.940   0.536   6.992
  568SOL    HW2 2604   5.016   0.437   0.077
  569SOL     OW 2605   1.703   2.842   0.040
  569SOL    HW1 2606   1.723   2.900   0.119
  569SOL    HW2 2607   1.767   2.862   6.986
  570SOL     OW 2608   4.134   6.113   6.609
  570SOL    HW1 2609   4.064   6.128   6.679
  570SOL    HW2 2610   4.224   6.110   6.652
  571SOL     OW 2611   3.326   6.284   1.969
  571SOL    HW1 2612   3.300   6.283   2.065
  571SOL    HW2 2613   3.280   6.209   1.921
  572SOL     OW 2614   2.547   4.982   5.684
  572SOL    HW1 2615   2.639   4.974   5.723
  572SOL    HW2 2616   2.513   4.892   5.658
  573SOL     OW 2617   4.718   1.117   5.817
  573SOL    HW1 2618   4.632   1.106   5.867
  573SOL    HW2 2619   4.771   1.192   5.858
  574SOL     OW 2620   3.528   1.326   4.126
  574SOL    HW1 2621   3.454   1.291   4.068
  574SOL    HW2 2622   3.616   1.297   4.088
  575SOL     OW 2623   4.854   3.736   0.108
  575SOL    HW1 2624   4.794   3.683   0.048
  575SOL    HW2 2625   4.811   3.824   0.130
  576SOL     OW 2626   1.083   1.989   3.343
  576SOL    HW1 2627   1.136   2.066   3.307
  576SOL    HW2 2628   1.077   1.996   3.442
  577SOL     OW 2629   1.544   1.481   2.765
  577SOL    HW1 2630   1.505   1.569   2.793
  577SOL    HW2 2631   1.489   1.443   2.690
  578SOL     OW 2632   5.984   5.074   4.026
  578SOL    HW1 2633   5.934   5.021   3.956
  578SOL    HW2 2634   6.001   5.166   3.992
  579SOL     OW 2635   1.874   3.225   3.616
  579SOL    HW1 2636   1.795   3.278   3.647
  579SOL    HW2 2637   1.955   3.284   3.613
  580SOL     OW 2638   4.710   5.630   6.381
  580SOL    HW1 2639   4.803   5.653   6.408
  580SOL    HW2 2640   4.666   5.712   6.343
  581SOL     OW 2641   2.096   3.501   1.505
  581SOL    HW1 2642   2.112   3.476   1.410
  581SOL    HW2 2643   2.001   3.478   1.530
  582SOL     OW 2644   3.924   6.216   1.749
  582SOL    HW1 2645   4.005   6.263   1.714
  582SOL    HW2 2646   3.942   6.117   1.754
  583SOL     OW 2647   2.934   6.464   5.448
  583SOL    HW1 2648   3.019   6.508   5.475
  583SOL    HW2 2649   2.906   6.400   5.520
  584SOL     OW 2650   3.337   5.039   6.722
  584SOL    HW1 2651   3.328   4.987   6.807
  584SOL    HW2 2652   3.433   5.038   6.692
  585SOL     OW 2653   5.120   2.034   6.306
  585SOL    HW1 2654   5.189   1.999   6.369
  585SOL    HW2 2655   5.080   2.118   6.344
  586SOL     OW 2656   3.612   0.605   6.069
  586SOL    HW1 2657   3.544   0.674   6.045
  586SOL    HW2 2658   3.696   0.623   6.018
  587SOL     OW 2659   4.347   1.889   4.848
  587SOL    HW1 2660   4.290   1.925   4.774
  587SOL    HW2 2661   4.410   1.959   4.879
  588SOL     OW 2662   1.651   4.616   2.223
  588SOL    HW1 2663   1.731   4.668   2.195
  588SOL    HW2 2664   1.654   4.525   2.180
  589SOL     OW 2665   3.422   4.578   1.695
  589SOL    HW1 2666   3.343   4.640   1.700
  589SOL    HW2 2667   3.500   4.620   1.743
  590SOL     OW 2668   4.850   3.049   2.726
  590SOL    HW1 2669   4.936   3.005   2.751
  590SOL    HW2 2670   4.865   3.108   2.647
  591SOL     OW 2671   2.750   5.288   3.998
  591SOL    HW1 2672   2.664   5.312   3.954
  591SOL    HW2 2673   2.734   5.213   4.063
  592SOL     OW 2674   4.107   1.270   1.183
  592SOL    HW1 2675   4.012   1.263   1.215
  592SOL    HW2 2676   4.116   1.351   1.125
  593SOL     OW 2677   4.360   2.297   4.705
  593SOL    HW1 2678   4.370   2.397   4.708
  593SOL    HW2 2679   4.348   2.268   4.610
  594SOL     OW 2680   6.925   1.723   0.494
  594SOL    HW1 2681   7.007   1.774   0.520
  594SOL    HW2 2682   6.951   1.642   0.442
  595SOL     OW 2683   5.638   0.237   3.565
  595SOL    HW1 2684   5.678   0.155   3.606
  595SOL    HW2 2685   5.575   0.211   3.492
  596SOL     OW 2686   1.153   5.256   3.417
  596SOL    HW1 2687   1.104   5.252   3.330
  596SOL    HW2 2688   1.142   5.347   3.457
  597SOL     OW 2689   2.989   0.556   6.999
  597SOL    HW1 2690   2.968   0.472   0.031
  597SOL    HW2 2691   3.054   0.611   0.032
  598SOL     OW 2692   4.023   4.518   5.464
  598SOL    HW1 2693   3.980   4.578   5.396
  598SOL    HW2 2694   4.016   4.561   5.554
  599SOL     OW 2695   2.716   6.119   1.521
  599SOL    HW1 2696   2.693   6.126   1.424
  599SOL    HW2 2697   2.684   6.200   1.569
  600SOL     OW 2698   7.006   1.247   6.263
  600SOL    HW1 2699   0.061   1.313   6.279
  600SOL    HW2 2700   7.016   1.208   6.171
  601SOL     OW 2701   1.559   0.234   4.658
  601SOL    HW1 2702   1.627   0.201   4.722
  601SOL    HW2 2703   1.492   0.290   4.706
  602SOL     OW 2704   1.845   2.097   6.370
  602SOL    HW1 2705   1.936   2.055   6.376
  602SOL    HW2 2706   1.832   2.137   6.280
  603SOL     OW 2707   2.869   2.261   5.026
  603SOL    HW1 2708   2.968   2.268   5.022
  603SOL    HW2 2709   2.828   2.318   4.954
  604SOL     OW 2710   1.548   2.498   1.879
  604SOL    HW1 2711   1.561   2.496   1.978
  604SOL    HW2 2712   1.469   2.441   1.855
  605SOL     OW 2713   6.801   6.533   0.613
  605SOL    HW1 2714   6.757   6.452   0.652
  605SOL    HW2 2715   6.900   6.524   0.622
  606SOL     OW 2716   4.750   6.649   6.768
  606SOL    HW1 2717   4.845   6.636   6.795
  606SOL    HW2 2718   4.697   6.684   6.846
  607SOL     OW 2719   6.673   5.932   5.915
  607SOL    HW1 2720   6.701   5.888   5.830
  607SOL    HW2 2721   6.681   6.031   5.906
  608SOL     OW 2722   3.771   6.171   6.927
  608SOL    HW1 2723   3.704   6.154   6.999
  608SOL    HW2 2724   3.781   6.089   6.870
  609SOL     OW 2725   3.903   3.120   2.810
  609SOL    HW1 2726   3.845   3.058   2.864
  609SOL    HW2 2727   3.948   3.185   2.871
  610SOL     OW 2728   5.446   4.126   1.940
  610SOL    HW1 2729   5.372   4.108   2.005
  610SOL    HW2 2730   5.533   4.099   1.981
  611SOL     OW 2731   4.063   6.872   1.031
  611SOL    HW1 2732   4.076   6.809   0.954
  611SOL    HW2 2733   4.095   6.829   1.115
  612SOL     OW 2734   3.947   6.800   5.302
  612SOL    HW1 2735   3.913   6.813   5.209
  612SOL    HW2 2736   4.047   6.800   5.302
  613SOL     OW 2737   4.104   6.223   5.785
  613SOL    HW1 2738   4.029   6.187   5.841
  613SOL    HW2 2739   4.125   6.317   5.814
  614SOL     OW 2740   5.618   5.234   0.786
  614SOL    HW1 2741   5.626   5.215   0.884
  614SOL    HW2 2742   5.683   5.178   0.735
  615SOL     OW 2743   6.451   2.168   1.580
  615SOL    HW1 2744   6.414   2.107   1.511
  615SOL    HW2 2745   6.376   2.207   1.634
  616SOL     OW 2746   0.181   3.083   3.530
  616SOL    HW1 2747   0.245   3.093   3.606
  616SOL    HW2 2748   0.216   3.014   3.466
  617SOL     OW 2749   6.639   4.570   6.129
  617SOL    HW1 2750   6.586   4.563   6.213
  617SOL    HW2 2751   6.622   4.490   6.072
  618SOL     OW 2752   6.817   2.053   6.800
  618SOL    HW1 2753   6.789   1.958   6.793
  618SOL    HW2 2754   6.915   2.060   6.781
  619SOL     OW 2755   4.419   1.467   6.775
  619SOL    HW1 2756   4.364   1.539   6.818
  619SOL    HW2 2757   4.480   1.507   6.707
  620SOL     OW 2758   4.380   2.701   1.407
  620SOL    HW1 2759   4.422   2.749   1.484
  620SOL    HW2 2760   4.425   2.612   1.394
  621SOL     OW 2761   2.746   0.329   6.759
  621SOL    HW1 2762   2.840   0.299   6.775
  621SOL    HW2 2763   2.697   0.331   6.845
  622SOL     OW 2764   1.545   0.171   5.410
  622SOL    HW1 2765   1.460   0.223   5.415
  622SOL    HW2 2766   1.555   0.116   5.493
  623SOL     OW 2767   0.894   5.664   5.089
  623SOL    HW1 2768   0.931   5.745   5.134
  623SOL    HW2 2769   0.946   5.583   5.117
  624SOL     OW 2770   6.939   2.545   1.224
  624SOL    HW1 2771   6.912   2.451   1.240
  624SOL    HW2 2772   0.017   2.548   1.199
  625SOL     OW 2773   1.855   1.668   2.406
  625SOL    HW1 2774   1.811   1.669   2.316
  625SOL    HW2 2775   1.948   1.704   2.399
  626SOL     OW 2776   2.185   5.755   3.302
  626SOL    HW1 2777   2.252   5.829   3.312
  626SOL    HW2 2778   2.217   5.691   3.233
  627SOL     OW 2779   6.087   6.203   0.450
  627SOL    HW1 2780   6.179   6.170   0.432
  627SOL    HW2 2781   6.035   6.204   0.365
  628SOL     OW 2782   6.190   5.668   5.987
  628SOL    HW1 2783   6.144   5.670   5.898
  628SOL    HW2 2784   6.261   5.739   5.989
  629SOL     OW 2785   7.003   6.939   6.824
  629SOL    HW1 2786   0.034   6.971   6.905
  629SOL    HW2 2787   6.918   6.896   6.852
  630SOL     OW 2788   0.581   1.510   1.131
  630SOL    HW1 2789   0.592   1.609   1.127
  630SOL    HW2 2790   0.663   1.465   1.097
  631SOL     OW 2791   3.836   6.760   5.038
  631SOL    HW1 2792   3.785   6.843   5.014
  631SOL    HW2 2793   3.789   6.680   5.002
  632SOL     OW 2794   3.078   1.286   1.059
  632SOL    HW1 2795   3.122   1.310   0.972
  632SOL    HW2 2796   3.135   1.317   1.135
  633SOL     OW 2797   3.171   3.645   6.988
  633SOL    HW1 2798   3.158   3.744   6.993
  633SOL    HW2 2799   3.201   3.620   6.896
  634SOL     OW 2800   4.172   3.748   1.167
  634SOL    HW1 2801   4.138   3.829   1.215
  634SOL    HW2 2802   4.157   3.759   1.069
  635SOL     OW 2803   4.520   5.115   1.695
  635SOL    HW1 2804   4.481   5.037   1.645
  635SOL    HW2 2805   4.446   5.166   1.739
  636SOL     OW 2806   3.524   5.820   0.256
  636SOL    HW1 2807   3.446   5.766   0.286
  636SOL    HW2 2808   3.522   5.830   0.157
  637SOL     OW 2809   6.884   3.577   3.541
  637SOL    HW1 2810   6.785   3.582   3.543
  637SOL    HW2 2811   6.918   3.604   3.450
  638SOL     OW 2812   5.409   2.155   4.071
  638SOL    HW1 2813   5.473   2.091   4.030
  638SOL    HW2 2814   5.445   2.248   4.062
  639SOL     OW 2815   5.469   3.834   3.040
  639SOL    HW1 2816   5.439   3.777   3.117
  639SOL    HW2 2817   5.538   3.784   2.987
  640SOL     OW 2818   0.768   5.157   3.646
  640SOL    HW1 2819   0.788   5.253   3.627
  640SOL    HW2 2820   0.798   5.102   3.568
  641SOL     OW 2821   6.566   5.268   4.629
  641SOL    HW1 2822   6.545   5.348   4.686
  641SOL    HW2 2823   6.572   5.187   4.687
  642SOL     OW 2824   6.467   3.005   4.969
  642SOL    HW1 2825   6.507   3.064   5.039
  642SOL    HW2 2826   6.539   2.955   4.922
  643SOL     OW 2827   6.068   5.700   5.740
  643SOL    HW1 2828   6.050   5.793   5.711
  643SOL    HW2 2829   6.009   5.637   5.689
  644SOL     OW 2830   1.409   6.087   4.666
  644SOL    HW1 2831   1.336   6.154   4.655
  644SOL    HW2 2832   1.493   6.134   4.691
  645SOL     OW 2833   3.908   0.805   4.002
  645SOL    HW1 2834   3.897   0.722   4.057
  645SOL    HW2 2835   3.937   0.780   3.910
  646SOL     OW 2836   3.226   1.176   4.791
  646SOL    HW1 2837   3.239   1.174   4.692
  646SOL    HW2 2838   3.194   1.086   4.822
  647SOL     OW 2839   5.137   1.427   4.696
  647SOL    HW1 2840   5.227   1.422   4.652
  647SOL    HW2 2841   5.131   1.512   4.749
  648SOL     OW 2842   0.707   3.604   4.109
  648SOL    HW1 2843   0.646   3.668   4.062
  648SOL    HW2 2844   0.697   3.513   4.068
  649SOL     OW 2845   3.238   4.103   0.729
  649SOL    HW1 2846   3.225   4.195   0.766
  649SOL    HW2 2847   3.271   4.042   0.801
  650SOL     OW 2848   5.934   4.339   0.786
  650SOL    HW1 2849   5.836   4.334   0.766
  650SOL    HW2 2850   5.968   4.429   0.760
  651SOL     OW 2851   6.917   6.015   6.125
  651SOL    HW1 2852   6.995   6.077   6.117
  651SOL    HW2 2853   6.847   6.057   6.183
  652SOL     OW 2854   4.941   6.329   3.812
  652SOL    HW1 2855   4.926   6.245   3.759
  652SOL    HW2 2856   5.038   6.355   3.807
  653SOL     OW 2857   1.729   5.659   5.347
  653SOL    HW1 2858   1.769   5.736   5.397
  653SOL    HW2 2859   1.631   5.673   5.338
  654SOL     OW 2860   0.516   4.098   6.017
  654SOL    HW1 2861   0.475   4.067   6.103
  654SOL    HW2 2862   0.537   4.019   5.959
  655SOL     OW 2863   0.262   5.840   2.331
  655SOL    HW1 2864   0.307   5.761   2.290
  655SOL    HW2 2865   0.325   5.919   2.329
  656SOL     OW 2866   1.568   5.378   1.406
  656SOL    HW1 2867   1.611   5.302   1.455
  656SOL    HW2 2868   1.480   5.348   1.369
  657SOL     OW 2869   1.839   3.006   1.688
  657SOL    HW1 2870   1.855   3.005   1.787
  657SOL    HW2 2871   1.795   3.092   1.662
  658SOL     OW 2872   2.800   4.362   6.471
  658SOL    HW1 2873   2.899   4.363   6.482
  658SOL    HW2 2874   2.763   4.454   6.489
  659SOL     OW 2875   2.151   5.942   5.142
  659SOL    HW1 2876   2.249   5.950   5.122
  659SOL    HW2 2877   2.136   5.962   5.239
  660SOL     OW 2878   5.536   4.754   2.286
  660SOL    HW1 2879   5.621   4.763   2.338
  660SOL    HW2 2880   5.557   4.724   2.193
  661SOL     OW 2881   4.535   5.074   3.653
  661SOL    HW1 2882   4.627   5.097   3.621
  661SOL    HW2 2883   4.467   5.113   3.591
  662SOL     OW 2884   4.093   0.558   5.144
  662SOL    HW1 2885   4.063   0.622   5.074
  662SOL    HW2 2886   4.050   0.469   5.129
  663SOL     OW 2887   2.489   3.958   0.040
  663SOL    HW1 2888   2.569   3.909   0.006
  663SOL    HW2 2889   2.410   3.897   0.039
  664SOL     OW 2890   0.019   5.235   6.745
  664SOL    HW1 2891   0.094   5.250   6.681
  664SOL    HW2 2892   6.959   5.290   6.717
  665SOL     OW 2893   5.189   4.903   1.232
  665SOL    HW1 2894   5.202   4.814   1.275
  665SOL    HW2 2895   5.149   4.967   1.298
  666SOL     OW 2896   4.703   2.181   2.330
  666SOL    HW1 2897   4.792   2.226   2.328
  666SOL    HW2 2898   4.688   2.134   2.244
  667SOL     OW 2899   6.924   4.675   3.829
  667SOL    HW1 2900   6.971   4.760   3.854
  667SOL    HW2 2901   6.989   4.599   3.832
  668SOL     OW 2902   5.830   6.726   6.529
  668SOL    HW1 2903   5.768   6.712   6.606
  668SOL    HW2 2904   5.778   6.726   6.443
  669SOL     OW 2905   4.194   0.175   3.712
  669SOL    HW1 2906   4.112   0.153   3.660
  669SOL    HW2 2907   4.168   0.218   3.798
  670SOL     OW 2908   3.080   3.055   0.826
  670SOL    HW1 2909   3.078   3.149   0.793
  670SOL    HW2 2910   3.065   3.053   0.924
  671SOL     OW 2911   1.916   6.395   0.510
  671SOL    HW1 2912   1.994   6.376   0.570
  671SOL    HW2 2913   1.832   6.360   0.552
  672SOL     OW 2914   0.856   5.218   1.869
  672SOL    HW1 2915   0.909   5.159   1.930
  672SOL    HW2 2916   0.914   5.294   1.839
  673SOL     OW 2917   0.427   0.390   1.907
  673SOL    HW1 2918   0.441   0.428   1.816
  673SOL    HW2 2919   0.512   0.391   1.958
  674SOL     OW 2920   0.441   2.345   5.056
  674SOL    HW1 2921   0.449   2.432   5.006
  674SOL    HW2 2922   0.346   2.331   5.083
  675SOL     OW 2923   0.627   1.350   3.804
  675SOL    HW1 2924   0.576   1.329   3.887
  675SOL    HW2 2925   0.624   1.272   3.742
  676SOL     OW 2926   3.710   5.750   3.054
  676SOL    HW1 2927   3.670   5.660   3.068
  676SOL    HW2 2928   3.781   5.766   3.123
  677SOL     OW 2929   6.669   1.835   0.550
  677SOL    HW1 2930   6.635   1.769   0.617
  677SOL    HW2 2931   6.762   1.811   0.523
  678SOL     OW 2932   2.038   1.296   5.544
  678SOL    HW1 2933   1.994   1.275   5.456
  678SOL    HW2 2934   2.064   1.392   5.546
  679SOL     OW 2935   4.428   1.721   4.149
  679SOL    HW1 2936   4.328   1.721   4.140
  679SOL    HW2 2937   4.453   1.687   4.239
  680SOL     OW 2938   5.620   5.800   5.671
  680SOL    HW1 2939   5.677   5.836   5.597
  680SOL    HW2 2940   5.678   5.771   5.747
  681SOL     OW 2941   5.740   4.983   1.357
  681SOL    HW1 2942   5.671   4.956   1.290
  681SOL    HW2 2943   5.698   5.043   1.425
  682SOL     OW 2944   1.092   1.120   0.194
  682SOL    HW1 2945   1.083   1.089   0.289
  682SOL    HW2 2946   1.052   1.053   0.132
  683SOL     OW 2947   4.297   3.699   0.669
  683SOL    HW1 2948   4.227   3.635   0.701
  683SOL    HW2 2949   4.270   3.736   0.580
  684SOL     OW 2950   0.320   0.685   6.657
  684SOL    HW1 2951   0.254   0.662   6.585
  684SOL    HW2 2952   0.287   0.649   6.745
  685SOL     OW 2953   4.503   1.388   3.692
  685SOL    HW1 2954   4.515   1.364   3.789
  685SOL    HW2 2955   4.438   1.463   3.684
  686SOL     OW 2956   5.231   2.476   3.706
  686SOL    HW1 2957   5.191   2.502   3.617
  686SOL    HW2 2958   5.208   2.545   3.774
  687SOL     OW 2959   0.414   2.498   4.596
  687SOL    HW1 2960   0.408   2.598   4.596
  687SOL    HW2 2961   0.431   2.465   4.504
  688SOL     OW 2962   1.261   1.862   0.222
  688SOL    HW1 2963   1.306   1.844   0.135
  688SOL    HW2 2964   1.215   1.950   0.219
  689SOL     OW 2965   6.586   3.618   6.759
  689SOL    HW1 2966   6.583   3.717   6.751
  689SOL    HW2 2967   6.671   3.591   6.806
  690SOL     OW 2968   0.171   4.703   2.784
  690SOL    HW1 2969   0.099   4.675   2.848
  690SOL    HW2 2970   0.253   4.728   2.834
  691SOL     OW 2971   2.219   6.870   6.971
  691SOL    HW1 2972   2.198   6.941   6.904
  691SOL    HW2 2973   2.293   6.812   6.937
  692SOL     OW 2974   3.111   6.551   3.574
  692SOL    HW1 2975   3.028   6.606   3.563
  692SOL    HW2 2976   3.136   6.510   3.487
  693SOL     OW 2977   6.383   0.763   3.414
  693SOL    HW1 2978   6.366   0.717   3.501
  693SOL    HW2 2979   6.324   0.723   3.344
  694SOL     OW 2980   4.105   5.916   2.741
  694SOL    HW1 2981   4.204   5.914   2.727
  694SOL    HW2 2982   4.079   5.847   2.808
  695SOL     OW 2983   3.936   6.189   4.020
  695SOL    HW1 2984   4.031   6.166   4.004
  695SOL    HW2 2985   3.890   6.113   4.065
  696SOL     OW 2986   4.054   4.837   2.330
  696SOL    HW1 2987   4.046   4.865   2.426
  696SOL    HW2 2988   3.997   4.896   2.273
  697SOL     OW 2989   2.003   3.698   3.809
  697SOL    HW1 2990   2.023   3.604   3.835
  697SOL    HW2 2991   1.908   3.705   3.781
  698SOL     OW 2992   5.296   6.310   0.126
  698SOL    HW1 2993   5.243   6.327   0.043
  698SOL    HW2 2994   5.355   6.231   0.112
  699SOL     OW 2995   1.826   3.145   6.352
  699SOL    HW1 2996   1.879   3.186   6.426
  699SOL    HW2 2997   1.854   3.050   6.340
  700SOL     OW 2998   3.242   1.090   2.809
  700SOL    HW1 2999   3.265   1.121   2.717
  700SOL    HW2 3000   3.157   1.038   2.807
  701SOL     OW 3001   6.358   3.376   5.800
  701SOL    HW1 3002   6.349   3.458   5.856
  701SOL    HW2 3003   6.302   3.385   5.718
  702SOL     OW 3004   1.252   5.720   4.987
  702SOL    HW1 3005   1.280   5.770   4.905
  702SOL    HW2 3006   1.212   5.784   5.052
  703SOL     OW 3007   3.378   4.360   6.333
  703SOL    HW1 3008   3.308   4.400   6.273
  703SOL    HW2 3009   3.387   4.262   6.313
  704SOL     OW 3010   1.605   1.894   0.377
  704SOL    HW1 3011   1.578   1.985   0.346
  704SOL    HW2 3012   1.705   1.886   0.374
  705SOL     OW 3013   6.042   6.304   2.232
  705SOL    HW1 3014   6.105   6.254   2.290
  705SOL    HW2 3015   5.948   6.286   2.261
  706SOL     OW 3016   4.465   2.498   5.036
  706SOL    HW1 3017   4.367   2.478   5.034
  706SOL    HW2 3018   4.480   2.588   5.076
  707SOL     OW 3019   4.782   5.407   2.905
  707SOL    HW1 3020   4.845   5.480   2.932
  707SOL    HW2 3021   4.823   5.318   2.927
  708SOL     OW 3022   4.502   6.745   1.482
  708SOL    HW1 3023   4.538   6.705   1.566
  708SOL    HW2 3024   4.510   6.678   1.407
  709SOL     OW 3025   0.494   6.048   1.602
  709SOL    HW1 3026   0.428   5.977   1.579
  709SOL    HW2 3027   0.468   6.133   1.558
  710SOL     OW 3028   3.857   2.784   1.772
  710SOL    HW1 3029   3.836   2.838   1.854
  710SOL    HW2 3030   3.771   2.755   1.729
  711SOL     OW 3031   6.781   3.561   5.598
  711SOL    HW1 3032   6.745   3.614   5.521
  711SOL    HW2 3033   6.705   3.528   5.654
  712SOL     OW 3034   4.633   3.063   1.402
  712SOL    HW1 3035   4.675   2.974   1.419
  712SOL    HW2 3036   4.666   3.099   1.315
  713SOL     OW 3037   4.517   2.469   5.756
  713SOL    HW1 3038   4.420   2.478   5.779
  713SOL    HW2 3039   4.527   2.415   5.672
  714SOL     OW 3040   6.382   4.142   3.477
  714SOL    HW1 3041   6.456   4.127   3.543
  714SOL    HW2 3042   6.311   4.199   3.519
  715SOL     OW 3043   5.475   5.594   0.269
  715SOL    HW1 3044   5.419   5.583   0.351
  715SOL    HW2 3045   5.564   5.631   0.295
  716SOL     OW 3046   0.515   0.690   2.021
  716SOL    HW1 3047   0.453   0.682   2.099
  716SOL    HW2 3048   0.566   0.604   2.010
  717SOL     OW 3049   6.456   4.448   5.622
  717SOL    HW1 3050   6.520   4.379   5.590
  717SOL    HW2 3051   6.503   4.514   5.680
  718SOL     OW 3052   5.141   2.607   6.073
  718SOL    HW1 3053   5.069   2.659   6.119
  718SOL    HW2 3054   5.165   2.527   6.129
  719SOL     OW 3055   6.152   0.505   1.913
  719SOL    HW1 3056   6.083   0.557   1.861
  719SOL    HW2 3057   6.190   0.433   1.856
  720SOL     OW 3058   3.003   0.570   5.867
  720SOL    HW1 3059   2.968   0.576   5.773
  720SOL    HW2 3060   2.929   0.540   5.928
  721SOL     OW 3061   2.558   2.169   3.507
  721SOL    HW1 3062   2.565   2.099   3.436
  721SOL    HW2 3063   2.574   2.259   3.467
  722SOL     OW 3064   3.632   0.235   5.635
  722SOL    HW1 3065   3.576   0.152   5.636
  722SOL    HW2 3066   3.612   0.289   5.716
  723SOL     OW 3067   2.072   4.970   3.170
  723SOL    HW1 3068   1.978   4.966   3.204
  723SOL    HW2 3069   2.112   4.878   3.168
  724SOL     OW 3070   0.944   3.135   4.780
  724SOL    HW1 3071   0.941   3.225   4.736
  724SOL    HW2 3072   0.913   3.066   4.715
  725SOL     OW 3073   2.539   5.613   1.087
  725SOL    HW1 3074   2.625   5.567   1.109
  725SOL    HW2 3075   2.477   5.607   1.165
  726SOL     OW 3076   3.822   5.198   1.402
  726SOL    HW1 3077   3.889   5.271   1.400
  726SOL    HW2 3078   3.829   5.144   1.319
  727SOL     OW 3079   5.694   4.834   5.454
  727SOL    HW1 3080   5.630   4.908   5.477
  727SOL    HW2 3081   5.708   4.833   5.355
  728SOL     OW 3082   6.829   2.542   5.003
  728SOL    HW1 3083   6.906   2.530   5.066
  728SOL    HW2 3084   6.845   2.488   4.920
  729SOL     OW 3085   0.993   2.295   1.540
  729SOL    HW1 3086   0.951   2.240   1.611
  729SOL    HW2 3087   1.083   2.327   1.571
  730SOL     OW 3088   5.432   0.266   5.073
  730SOL    HW1 3089   5.489   0.239   4.996
  730SOL    HW2 3090   5.469   0.349   5.115
  731SOL     OW 3091   5.122   4.206   6.245
  731SOL    HW1 3092   5.188   4.164   6.183
  731SOL    HW2 3093   5.139   4.174   6.338
  732SOL     OW 3094   6.969   2.736   1.414
  732SOL    HW1 3095   6.933   2.677   1.341
  732SOL    HW2 3096   6.936   2.830   1.400
  733SOL     OW 3097   5.491   6.646   5.479
  733SOL    HW1 3098   5.514   6.721   5.541
  733SOL    HW2 3099   5.539   6.563   5.507
  734SOL     OW 3100   6.722   5.260   2.913
  734SOL    HW1 3101   6.661   5.251   2.835
  734SOL    HW2 3102   6.740   5.357   2.931
  735SOL     OW 3103   4.246   1.538   0.079
  735SOL    HW1 3104   4.236   1.629   0.118
  735SOL    HW2 3105   4.167   1.517   0.022
  736SOL     OW 3106   6.720   1.533   3.854
  736SOL    HW1 3107   6.724   1.463   3.925
  736SOL    HW2 3108   6.761   1.497   3.770
  737SOL     OW 3109   4.872   1.856   4.674
  737SOL    HW1 3110   4.939   1.903   4.731
  737SOL    HW2 3111   4.916   1.778   4.629
  738SOL     OW 3112   2.366   4.224   1.525
  738SOL    HW1 3113   2.409   4.204   1.612
  738SOL    HW2 3114   2.435   4.225   1.453
  739SOL     OW 3115   5.189   0.463   4.376
  739SOL    HW1 3116   5.140   0.435   4.459
  739SOL    HW2 3117   5.188   0.563   4.369
  740SOL     OW 3118   6.586   0.642   1.382
  740SOL    HW1 3119   6.545   0.563   1.336
  740SOL    HW2 3120   6.531   0.666   1.462
  741SOL     OW 3121   2.000   6.374   3.548
  741SOL    HW1 3122   1.931   6.386   3.477
  741SOL    HW2 3123   2.090   6.397   3.510
  742SOL     OW 3124   2.765   6.635   2.129
  742SOL    HW1 3125   2.781   6.706   2.197
  742SOL    HW2 3126   2.847   6.578   2.120
  743SOL     OW 3127   6.794   4.839   3.108
  743SOL    HW1 3128   6.820   4.821   3.203
  743SOL    HW2 3129   6.847   4.915   3.072
  744SOL     OW 3130   5.980   0.507   0.267
  744SOL    HW1 3131   5.915   0.508   0.191
  744SOL    HW2 3132   5.943   0.558   0.344
  745SOL     OW 3133   1.643   4.723   4.723
  745SOL    HW1 3134   1.685   4.783   4.791
  745SOL    HW2 3135   1.544   4.734   4.727
  746SOL     OW 3136   7.010   3.748   6.817
  746SOL    HW1 3137   0.033   3.785   6.899
  746SOL    HW2 3138   0.035   3.787   6.736
  747SOL     OW 3139   3.894   6.405   4.364
  747SOL    HW1 3140   3.897   6.458   4.279
  747SOL    HW2 3141   3.835   6.325   4.351
  748SOL     OW 3142   3.891   5.037   2.170
  748SOL    HW1 3143   3.872   4.980   2.090
  748SOL    HW2 3144   3.981   5.080   2.161
  749SOL     OW 3145   5.872   3.716   5.121
  749SOL    HW1 3146   5.950   3.768   5.155
  749SOL    HW2 3147   5.800   3.779   5.090
  750SOL     OW 3148   1.826   2.502   1.437
  750SOL    HW1 3149   1.772   2.470   1.514
  750SOL    HW2 3150   1.865   2.592   1.457
  751SOL     OW 3151   3.600   2.544   0.052
  751SOL    HW1 3152   3.576   2.589   0.139
  751SOL    HW2 3153   3.643   2.611   7.010
  752SOL     OW 3154   3.423   0.958   1.812
  752SOL    HW1 3155   3.337   0.927   1.772
  752SOL    HW2 3156   3.499   0.930   1.753
  753SOL     OW 3157   2.089   3.023   5.672
  753SOL    HW1 3158   2.173   3.046   5.623
  753SOL    HW2 3159   2.018   3.090   5.650
  754SOL     OW 3160   5.019   2.721   5.302
  754SOL    HW1 3161   4.980   2.685   5.386
  754SOL    HW2 3162   4.982   2.812   5.283
  755SOL     OW 3163   1.552   4.694   6.118
  755SOL    HW1 3164   1.582   4.609   6.073
  755SOL    HW2 3165   1.455   4.709   6.099
  756SOL     OW 3166   3.059   6.705   6.489
  756SOL    HW1 3167   3.150   6.666   6.475
  756SOL    HW2 3168   3.043   6.718   6.587
  757SOL     OW 3169   0.186   0.489   4.061
  757SOL    HW1 3170   0.095   0.481   4.020
  757SOL    HW2 3171   0.186   0.562   4.129
  758SOL     OW 3172   3.725   0.659   2.728
  758SOL    HW1 3173   3.706   0.679   2.824
  758SOL    HW2 3174   3.822   0.637   2.717
  759SOL     OW 3175   6.918   1.360   1.634
  759SOL    HW1 3176   6.930   1.289   1.565
  759SOL    HW2 3177   6.944   1.449   1.595
  760SOL     OW 3178   5.780   0.305   4.834
  760SOL    HW1 3179   5.793   0.262   4.923
  760SOL    HW2 3180   5.861   0.291   4.778
  761SOL     OW 3181   5.107   3.719   6.204
  761SOL    HW1 3182   5.134   3.623   6.217
  761SOL    HW2 3183   5.140   3.751   6.115
  762SOL     OW 3184   1.988   0.049   4.453
  762SOL    HW1 3185   1.989   0.029   4.355
  762SOL    HW2 3186   1.928   0.127   4.470
  763SOL     OW 3187   4.082   5.436   6.731
  763SOL    HW1 3188   4.148   5.417   6.804
  763SOL    HW2 3189   4.130   5.454   6.646
  764SOL     OW 3190   5.278   0.800   5.182
  764SOL    HW1 3191   5.241   0.827   5.093
  764SOL    HW2 3192   5.302   0.703   5.181
  765SOL     OW 3193   2.081   5.998   1.586
  765SOL    HW1 3194   2.102   5.901   1.571
  765SOL    HW2 3195   2.097   6.048   1.502
  766SOL     OW 3196   2.607   2.690   5.914
  766SOL    HW1 3197   2.622   2.691   5.815
  766SOL    HW2 3198   2.530   2.749   5.937
  767SOL     OW 3199   6.430   5.704   1.778
  767SOL    HW1 3200   6.418   5.803   1.793
  767SOL    HW2 3201   6.363   5.673   1.710
  768SOL     OW 3202   2.656   6.469   2.548
  768SOL    HW1 3203   2.585   6.464   2.618
  768SOL    HW2 3204   2.616   6.502   2.462
  769SOL     OW 3205   2.302   0.746   4.836
  769SOL    HW1 3206   2.348   0.679   4.777
  769SOL    HW2 3207   2.276   0.825   4.781
  770SOL     OW 3208   2.116   4.871   2.863
  770SOL    HW1 3209   2.049   4.813   2.910
  770SOL    HW2 3210   2.123   4.959   2.909
  771SOL     OW 3211   1.373   5.471   2.513
  771SOL    HW1 3212   1.382   5.566   2.542
  771SOL    HW2 3213   1.313   5.466   2.434
  772SOL     OW 3214   5.335   5.731   6.873
  772SOL    HW1 3215   5.424   5.686   6.882
  772SOL    HW2 3216   5.330   5.777   6.785
  773SOL     OW 3217   7.012   4.294   4.093
  773SOL    HW1 3218   0.084   4.335   4.086
  773SOL    HW2 3219   6.991   4.247   4.007
  774SOL     OW 3220   2.056   1.490   1.712
  774SOL    HW1 3221   2.153   1.492   1.735
  774SOL    HW2 3222   2.039   1.544   1.630
  775SOL     OW 3223   1.362   2.461   3.673
  775SOL    HW1 3224   1.332   2.366   3.671
  775SOL    HW2 3225   1.317   2.508   3.748
  776SOL     OW 3226   1.319   0.486   6.123
  776SOL    HW1 3227   1.341   0.415   6.056
  776SOL    HW2 3228   1.400   0.542   6.140
  777SOL     OW 3229   2.076   4.520   1.929
  777SOL    HW1 3230   2.122   4.465   1.859
  777SOL    HW2 3231   2.034   4.459   1.997
  778SOL     OW 3232   2.421   1.471   2.285
  778SOL    HW1 3233   2.520   1.474   2.271
  778SOL    HW2 3234   2.378   1.549   2.239
  779SOL     OW 3235   6.320   2.595   1.909
  779SOL    HW1 3236   6.277   2.629   1.825
  779SOL    HW2 3237   6.250   2.560   1.971
  780SOL     OW 3238   0.120   3.955   3.846
  780SOL    HW1 3239   0.149   3.888   3.914
  780SOL    HW2 3240   0.137   3.918   3.754
  781SOL     OW 3241   5.822   6.812   6.891
  781SOL    HW1 3242   5.838   6.886   6.956
  781SOL    HW2 3243   5.724   6.799   6.877
  782SOL     OW 3244   1.610   3.772   6.495
  782SOL    HW1 3245   1.551   3.825   6.556
  782SOL    HW2 3246   1.648   3.694   6.546
  783SOL     OW 3247   4.727   4.940   1.701
  783SOL    HW1 3248   4.665   5.018   1.700
  783SOL    HW2 3249   4.762   4.926   1.794
  784SOL     OW 3250   4.603   5.050   0.807
  784SOL    HW1 3251   4.698   5.066   0.780
  784SOL    HW2 3252   4.599   5.025   0.904
  785SOL     OW 3253   0.241   2.893   3.342
  785SOL    HW1 3254   0.318   2.831   3.333
  785SOL    HW2 3255   0.214   2.926   3.251
  786SOL     OW 3256   1.508   0.994   2.914
  786SOL    HW1 3257   1.549   1.023   3.000
  786SOL    HW2 3258   1.410   0.978   2.927
  787SOL     OW 3259   2.165   0.562   6.820
  787SOL    HW1 3260   2.096   0.563   6.748
  787SOL    HW2 3261   2.182   0.655   6.852
  788SOL     OW 3262   3.804   2.223   6.850
  788SOL    HW1 3263   3.772   2.263   6.936
  788SOL    HW2 3264   3.726   2.205   6.791
  789SOL     OW 3265   4.972   3.830   0.483
  789SOL    HW1 3266   4.892   3.813   0.426
  789SOL    HW2 3267   5.049   3.774   0.451
  790SOL     OW 3268   2.104   1.287   3.517
  790SOL    HW1 3269   2.071   1.354   3.450
  790SOL    HW2 3270   2.203   1.277   3.509
  791SOL     OW 3271   1.960   5.805   3.752
  791SOL    HW1 3272   2.003   5.815   3.662
  791SOL    HW2 3273   2.016   5.745   3.810
  792SOL     OW 3274   0.635   0.896   1.140
  792SOL    HW1 3275   0.562   0.839   1.102
  792SOL    HW2 3276   0.609   0.992   1.133
  793SOL     OW 3277   4.752   5.120   3.459
  793SOL    HW1 3278   4.678   5.169   3.413
  793SOL    HW2 3279   4.802   5.065   3.393
  794SOL     OW 3280   3.263   4.237   5.847
  794SOL    HW1 3281   3.188   4.173   5.865
  794SOL    HW2 3282   3.239   4.296   5.770
  795SOL     OW 3283   2.973   6.614   4.238
  795SOL    HW1 3284   2.950   6.682   4.169
  795SOL    HW2 3285   3.067   6.582   4.224
  796SOL     OW 3286   0.185   1.635   6.655
  796SOL    HW1 3287   0.259   1.572   6.681
  796SOL    HW2 3288   0.105   1.617   6.712
  797SOL     OW 3289   5.639   2.497   0.888
  797SOL    HW1 3290   5.571   2.558   0.847
  797SOL    HW2 3291   5.719   2.550   0.916
  798SOL     OW 3292   3.610   5.751   2.224
  798SOL    HW1 3293   3.615   5.710   2.133
  798SOL    HW2 3294   3.671   5.702   2.286
  799SOL     OW 3295   0.023   6.755   5.635
  799SOL    HW1 3296   0.021   6.702   5.550
  799SOL    HW2 3297   0.093   6.825   5.628
  800SOL     OW 3298   5.514   1.620   3.063
  800SOL    HW1 3299   5.599   1.658   3.100
  800SOL    HW2 3300   5.438   1.643   3.124
  801SOL     OW 3301   1.865   4.127   4.772
  801SOL    HW1 3302   1.841   4.137   4.675
  801SOL    HW2 3303   1.791   4.080   4.820
  802SOL     OW 3304   3.484   2.233   1.101
  802SOL    HW1 3305   3.477   2.290   1.183
  802SOL    HW2 3306   3.573   2.248   1.058
  803SOL     OW 3307   0.230   6.922   5.299
  803SOL    HW1 3308   0.227   6.827   5.269
  803SOL    HW2 3309   0.138   6.962   5.292
  804SOL     OW 3310   5.574   5.609   6.529
  804SOL    HW1 3311   5.640   5.543   6.493
  804SOL    HW2 3312   5.592   5.624   6.626
  805SOL     OW 3313   2.860   0.294   4.232
  805SOL    HW1 3314   2.801   0.362   4.277
  805SOL    HW2 3315   2.947   0.336   4.207
  806SOL     OW 3316   4.760   1.537   4.375
  806SOL    HW1 3317   4.767   1.558   4.277
  806SOL    HW2 3318   4.850   1.517   4.412
  807SOL     OW 3319   1.355   1.084   5.544
  807SOL    HW1 3320   1.285   1.016   5.568
  807SOL    HW2 3321   1.435   1.071   5.601
  808SOL     OW 3322   3.545   3.456   6.365
  808SOL    HW1 3323   3.505   3.398   6.294
  808SOL    HW2 3324   3.472   3.490   6.425
  809SOL     OW 3325   0.560   4.838   1.502
  809SOL    HW1 3326   0.470   4.823   1.541
  809SOL    HW2 3327   0.589   4.756   1.451
  810SOL     OW 3328   4.015   3.726   0.900
  810SOL    HW1 3329   3.982   3.749   0.809
  810SOL    HW2 3330   3.943   3.681   0.952
  811SOL     OW 3331   4.615   5.467   5.634
  811SOL    HW1 3332   4.531   5.439   5.680
  811SOL    HW2 3333   4.593   5.531   5.560
  812SOL     OW 3334   0.323   1.263   2.510
  812SOL    HW1 3335   0.417   1.234   2.495
  812SOL    HW2 3336   0.265   1.183   2.526
  813SOL     OW 3337   3.947   0.138   4.308
  813SOL    HW1 3338   4.028   0.122   4.252
  813SOL    HW2 3339   3.939   0.236   4.329
  814SOL     OW 3340   5.971   6.586   2.227
  814SOL    HW1 3341   5.930   6.600   2.137
  814SOL    HW2 3342   6.008   6.494   2.233
  815SOL     OW 3343   0.362   4.162   3.540
  815SOL    HW1 3344   0.368   4.235   3.472
  815SOL    HW2 3345   0.454   4.128   3.561
  816SOL     OW 3346   6.385   6.517   0.077
  816SOL    HW1 3347   6.448   6.579   0.122
  816SOL    HW2 3348   6.398   6.523   6.997
  817SOL     OW 3349   1.392   5.000   0.937
  817SOL    HW1 3350   1.397   5.094   0.968
  817SOL    HW2 3351   1.296   4.971   0.933
  818SOL     OW 3352   6.206   2.668   2.725
  818SOL    HW1 3353   6.243   2.578   2.701
  818SOL    HW2 3354   6.189   2.720   2.641
  819SOL     OW 3355   5.745   2.587   2.702
  819SOL    HW1 3356   5.697   2.499   2.698
  819SOL    HW2 3357   5.834   2.575   2.746
  820SOL     OW 3358   3.574   1.948   5.246
  820SOL    HW1 3359   3.632   1.966   5.167
  820SOL    HW2 3360   3.485   1.992   5.232
  821SOL     OW 3361   0.483   4.097   1.087
  821SOL    HW1 3362   0.488   4.076   0.990
  821SOL    HW2 3363   0.388   4.115   1.113
  822SOL     OW 3364   1.372   4.282   3.765
  822SOL    HW1 3365   1.313   4.301   3.686
  822SOL    HW2 3366   1.412   4.190   3.755
  823SOL     OW 3367   4.586   3.789   6.117
  823SOL    HW1 3368   4.635   3.759   6.199
  823SOL    HW2 3369   4.646   3.777   6.037
  824SOL     OW 3370   4.928   1.578   6.549
  824SOL    HW1 3371   4.882   1.499   6.588
  824SOL    HW2 3372   5.026   1.572   6.566
  825SOL     OW 3373   6.733   4.696   1.566
  825SOL    HW1 3374   6.724   4.778   1.623
  825SOL    HW2 3375   6.814   4.704   1.508
  826SOL     OW 3376   4.107   3.111   5.763
  826SOL    HW1 3377   4.022   3.063   5.742
  826SOL    HW2 3378   4.121   3.186   5.699
  827SOL     OW 3379   2.910   4.660   5.556
  827SOL    HW1 3380   2.969   4.601   5.501
  827SOL    HW2 3381   2.846   4.604   5.609
  828SOL     OW 3382   6.112   6.497   0.117
  828SOL    HW1 3383   6.088   6.581   0.166
  828SOL    HW2 3384   6.203   6.506   0.077
  829SOL     OW 3385   3.995   3.922   2.687
  829SOL    HW1 3386   4.067   3.987   2.712
  829SOL    HW2 3387   3.906   3.964   2.701
  830SOL     OW 3388   4.820   5.082   6.342
  830SOL    HW1 3389   4.816   5.001   6.402
  830SOL    HW2 3390   4.901   5.136   6.365
  831SOL     OW 3391   6.182   0.386   0.103
  831SOL    HW1 3392   6.226   0.469   0.070
  831SOL    HW2 3393   6.091   0.408   0.137
  832SOL     OW 3394   3.874   0.641   2.300
  832SOL    HW1 3395   3.892   0.738   2.312
  832SOL    HW2 3396   3.901   0.591   2.382
  833SOL     OW 3397   1.120   3.793   6.033
  833SOL    HW1 3398   1.119   3.882   6.078
  833SOL    HW2 3399   1.030   3.775   5.994
  834SOL     OW 3400   3.934   3.820   0.614
  834SOL    HW1 3401   3.860   3.792   0.553
  834SOL    HW2 3402   4.015   3.843   0.560
  835SOL     OW 3403   3.896   0.259   5.513
  835SOL    HW1 3404   3.873   0.250   5.610
  835SOL    HW2 3405   3.942   0.176   5.482
  836SOL     OW 3406   3.935   5.779   5.741
  836SOL    HW1 3407   3.958   5.867   5.700
  836SOL    HW2 3408   3.945   5.707   5.673
  837SOL     OW 3409   5.561   0.565   0.877
  837SOL    HW1 3410   5.598   0.497   0.813
  837SOL    HW2 3411   5.464   0.547   0.893
  838SOL     OW 3412   2.299   0.391   4.353
  838SOL    HW1 3413   2.228   0.395   4.283
  838SOL    HW2 3414   2.278   0.320   4.419
  839SOL     OW 3415   1.242   2.407   2.429
  839SOL    HW1 3416   1.184   2.326   2.424
  839SOL    HW2 3417   1.225   2.465   2.349
  840SOL     OW 3418   6.883   5.673   0.558
  840SOL    HW1 3419   6.820   5.667   0.481
  840SOL    HW2 3420   6.978   5.668   0.525
  841SOL     OW 3421   3.807   4.730   0.034
  841SOL    HW1 3422   3.904   4.722   0.054
  841SOL    HW2 3423   3.755   4.734   0.119
  842SOL     OW 3424   3.956   0.511   3.956
  842SOL    HW1 3425   3.954   0.551   3.864
  842SOL    HW2 3426   3.862   0.495   3.987
  843SOL     OW 3427   0.812   1.402   1.020
  843SOL    HW1 3428   0.893   1.408   1.078
  843SOL    HW2 3429   0.813   1.316   0.970
  844SOL     OW 3430   5.462   0.708   0.385
  844SOL    HW1 3431   5.439   0.712   0.482
  844SOL    HW2 3432   5.380   0.688   0.332
  845SOL     OW 3433   4.916   4.476   5.024
  845SOL    HW1 3434   4.969   4.547   4.977
  845SOL    HW2 3435   4.850   4.436   4.960
  846SOL     OW 3436   2.085   1.912   6.108
  846SOL    HW1 3437   2.100   1.923   6.206
  846SOL    HW2 3438   2.070   2.001   6.066
  847SOL     OW 3439   1.177   3.244   1.519
  847SOL    HW1 3440   1.198   3.146   1.525
  847SOL    HW2 3441   1.258   3.297   1.547
  848SOL     OW 3442   6.247   0.429   6.178
  848SOL    HW1 3443   6.309   0.463   6.107
  848SOL    HW2 3444   6.196   0.506   6.216
  849SOL     OW 3445   0.095   3.352   6.046
  849SOL    HW1 3446   0.094   3.387   6.140
  849SOL    HW2 3447   0.054   3.261   6.044
  850SOL     OW 3448   5.235   0.707   3.593
  850SOL    HW1 3449   5.161   0.678   3.655
  850SOL    HW2 3450   5.196   0.749   3.511
  851SOL     OW 3451   6.975   1.879   2.564
  851SOL    HW1 3452   6.919   1.892   2.483
  851SOL    HW2 3453   0.050   1.905   2.545
  852SOL     OW 3454   0.678   3.713   0.117
  852SOL    HW1 3455   0.766   3.755   0.139
  852SOL    HW2 3456   0.651   3.651   0.191
  853SOL     OW 3457   1.167   4.304   0.970
  853SOL    HW1 3458   1.203   4.379   0.914
  853SOL    HW2 3459   1.242   4.242   0.995
  854SOL     OW 3460   5.148   4.984   0.609
  854SOL    HW1 3461   5.155   4.892   0.649
  854SOL    HW2 3462   5.239   5.026   0.608
  855SOL     OW 3463   0.093   6.890   1.853
  855SOL    HW1 3464   0.106   6.963   1.920
  855SOL    HW2 3465   0.176   6.882   1.798
  856SOL     OW 3466   1.345   2.456   5.764
  856SOL    HW1 3467   1.409   2.529   5.743
  856SOL    HW2 3468   1.335   2.396   5.684
  857SOL     OW 3469   5.850   4.580   2.007
  857SOL    HW1 3470   5.768   4.635   2.021
  857SOL    HW2 3471   5.897   4.567   2.095
  858SOL     OW 3472   2.603   3.610   1.074
  858SOL    HW1 3473   2.606   3.709   1.055
  858SOL    HW2 3474   2.580   3.596   1.170
  859SOL     OW 3475   6.215   6.045   5.454
  859SOL    HW1 3476   6.243   6.139   5.474
  859SOL    HW2 3477   6.131   6.045   5.399
  860SOL     OW 3478   5.699   3.157   0.717
  860SOL    HW1 3479   5.723   3.252   0.736
  860SOL    HW2 3480   5.774   3.112   0.670
  861SOL     OW 3481   2.780   5.855   3.186
  861SOL    HW1 3482   2.828   5.805   3.114
  861SOL    HW2 3483   2.731   5.791   3.244
  862SOL     OW 3484   1.606   3.743   4.725
  862SOL    HW1 3485   1.518   3.711   4.761
  862SOL    HW2 3486   1.641   3.817   4.783
  863SOL     OW 3487   6.386   1.462   0.970
  863SOL    HW1 3488   6.412   1.415   1.055
  863SOL    HW2 3489   6.365   1.557   0.990
  864SOL     OW 3490   4.258   5.523   4.116
  864SOL    HW1 3491   4.316   5.599   4.146
  864SOL    HW2 3492   4.232   5.536   4.020
  865SOL     OW 3493   1.183   6.588   5.732
  865SOL    HW1 3494   1.225   6.536   5.806
  865SOL    HW2 3495   1.094   6.623   5.762
  866SOL     OW 3496   2.134   2.119   2.253
  866SOL    HW1 3497   2.199   2.168   2.311
  866SOL    HW2 3498   2.158   2.134   2.157
  867SOL     OW 3499   4.484   3.199   0.482
  867SOL    HW1 3500   4.536   3.199   0.567
  867SOL    HW2 3501   4.522   3.267   0.420
  868SOL     OW 3502   5.772   1.187   0.608
  868SOL    HW1 3503   5.827   1.201   0.690
  868SOL    HW2 3504   5.688   1.241   0.614
  869SOL     OW 3505   0.407   4.767   2.907
  869SOL    HW1 3506   0.481   4.819   2.865
  869SOL    HW2 3507   0.418   4.767   3.006
  870SOL     OW 3508   4.774   3.196   0.253
  870SOL    HW1 3509   4.861   3.238   0.276
  870SOL    HW2 3510   4.767   3.106   0.298
  871SOL     OW 3511   4.480   2.497   2.658
  871SOL    HW1 3512   4.419   2.554   2.713
  871SOL    HW2 3513   4.572   2.537   2.659
  872SOL     OW 3514   5.712   3.093   3.832
  872SOL    HW1 3515   5.779   3.148   3.782
  872SOL    HW2 3516   5.621   3.132   3.820
  873SOL     OW 3517   5.808   0.058   4.237
  873SOL    HW1 3518   5.721   0.107   4.231
  873SOL    HW2 3519   5.852   0.058   4.147
  874SOL     OW 3520   0.847   4.131   5.968
  874SOL    HW1 3521   0.825   4.035   5.949
  874SOL    HW2 3522   0.856   4.181   5.882
  875SOL     OW 3523   4.205   3.761   0.403
  875SOL    HW1 3524   4.111   3.771   0.371
  875SOL    HW2 3525   4.242   3.673   0.372
  876SOL     OW 3526   0.520   4.173   2.225
  876SOL    HW1 3527   0.487   4.267   2.215
  876SOL    HW2 3528   0.532   4.132   2.135
  877SOL     OW 3529   3.916   4.654   6.114
  877SOL    HW1 3530   4.014   4.660   6.130
  877SOL    HW2 3531   3.899   4.605   6.029
  878SOL     OW 3532   3.707   6.164   5.094
  878SOL    HW1 3533   3.792   6.130   5.052
  878SOL    HW2 3534   3.721   6.258   5.125
  879SOL     OW 3535   3.729   2.310   1.034
  879SOL    HW1 3536   3.804   2.325   0.971
  879SOL    HW2 3537   3.765   2.300   1.127
  880SOL     OW 3538   3.081   4.003   4.550
  880SOL    HW1 3539   3.026   4.044   4.623
  880SOL    HW2 3540   3.138   3.930   4.589
  881SOL     OW 3541   5.046   3.847   5.157
  881SOL    HW1 3542   4.976   3.892   5.101
  881SOL    HW2 3543   5.004   3.774   5.210
  882SOL     OW 3544   0.880   2.422   4.250
  882SOL    HW1 3545   0.849   2.404   4.343
  882SOL    HW2 3546   0.827   2.498   4.212
  883SOL     OW 3547   4.569   0.030   6.843
  883SOL    HW1 3548   4.524   7.009   6.763
  883SOL    HW2 3549   4.506   0.094   6.888
  884SOL     OW 3550   0.016   4.124   0.387
  884SOL    HW1 3551   6.939   4.100   0.400
  884SOL    HW2 3552   0.065   4.114   0.474
  885SOL     OW 3553   4.596   6.300   6.043
  885SOL    HW1 3554   4.602   6.288   6.142
  885SOL    HW2 3555   4.687   6.320   6.006
  886SOL     OW 3556   4.265   0.754   1.160
  886SOL    HW1 3557   4.206   0.682   1.122
  886SOL    HW2 3558   4.360   0.724   1.156
  887SOL     OW 3559   3.908   5.665   3.907
  887SOL    HW1 3560   3.948   5.688   3.818
  887SOL    HW2 3561   3.946   5.727   3.977
  888SOL     OW 3562   6.568   5.836   2.533
  888SOL    HW1 3563   6.583   5.737   2.523
  888SOL    HW2 3564   6.651   5.879   2.566
  889SOL     OW 3565   0.720   0.462   5.582
  889SOL    HW1 3566   0.792   0.401   5.550
  889SOL    HW2 3567   0.695   0.437   5.676
  890SOL     OW 3568   1.649   5.369   1.926
  890SOL    HW1 3569   1.576   5.301   1.940
  890SOL    HW2 3570   1.705   5.343   1.847
  891SOL     OW 3571   6.409   4.014   0.627
  891SOL    HW1 3572   6.373   4.000   0.719
  891SOL    HW2 3573   6.362   4.091   0.584
  892SOL     OW 3574   3.666   4.584   5.807
  892SOL    HW1 3575   3.760   4.614   5.789
  892SOL    HW2 3576   3.630   4.535   5.728
  893SOL     OW 3577   2.241   0.622   2.420
  893SOL    HW1 3578   2.326   0.630   2.472
  893SOL    HW2 3579   2.215   0.526   2.415
  894SOL     OW 3580   0.730   2.605   3.381
  894SOL    HW1 3581   0.725   2.582   3.284
  894SOL    HW2 3582   0.769   2.697   3.391
  895SOL     OW 3583   1.086   5.337   3.794
  895SOL    HW1 3584   1.060   5.366   3.886
  895SOL    HW2 3585   1.186   5.326   3.790
  896SOL     OW 3586   5.768   6.559   1.333
  896SOL    HW1 3587   5.768   6.460   1.345
  896SOL    HW2 3588   5.674   6.593   1.334
  897SOL     OW 3589   4.520   1.079   6.533
  897SOL    HW1 3590   4.553   1.091   6.627
  897SOL    HW2 3591   4.499   0.982   6.517
  898SOL     OW 3592   3.473   6.513   3.028
  898SOL    HW1 3593   3.500   6.593   2.973
  898SOL    HW2 3594   3.542   6.496   3.098
  899SOL     OW 3595   0.547   5.925   0.980
  899SOL    HW1 3596   0.587   5.946   1.069
  899SOL    HW2 3597   0.608   5.960   0.908
  900SOL     OW 3598   4.797   5.859   0.063
  900SOL    HW1 3599   4.868   5.798   0.101
  900SOL    HW2 3600   4.807   5.863   6.983
  901SOL     OW 3601   1.046   0.934   5.186
  901SOL    HW1 3602   1.044   0.971   5.279
  901SOL    HW2 3603   0.981   0.984   5.129
  902SOL     OW 3604   0.801   2.697   0.986
  902SOL    HW1 3605   0.848   2.617   0.948
  902SOL    HW2 3606   0.737   2.668   1.057
  903SOL     OW 3607   0.502   3.220   6.640
  903SOL    HW1 3608   0.442   3.232   6.719
  903SOL    HW2 3609   0.472   3.280   6.566
  904SOL     OW 3610   2.592   2.324   2.833
  904SOL    HW1 3611   2.661   2.366   2.892
  904SOL    HW2 3612   2.519   2.390   2.816
  905SOL     OW 3613   5.237   3.765   5.977
  905SOL    HW1 3614   5.332   3.796   5.986
  905SOL    HW2 3615   5.188   3.823   5.913
  906SOL     OW 3616   0.745   2.782   6.456
  906SOL    HW1 3617   0.681   2.716   6.494
  906SOL    HW2 3618   0.726   2.797   6.359
  907SOL     OW 3619   4.945   2.311   2.365
  907SOL    HW1 3620   4.972   2.342   2.273
  907SOL    HW2 3621   4.991   2.368   2.433
  908SOL     OW 3622   2.415   5.067   2.690
  908SOL    HW1 3623   2.325   5.101   2.717
  908SOL    HW2 3624   2.461   5.137   2.635
  909SOL     OW 3625   2.844   6.051   2.062
  909SOL    HW1 3626   2.813   6.141   2.033
  909SOL    HW2 3627   2.779   6.012   2.128
  910SOL     OW 3628   3.039   1.075   0.592
  910SOL    HW1 3629   3.050   1.107   0.498
  910SOL    HW2 3630   3.129   1.067   0.635
  911SOL     OW 3631   0.080   5.624   0.253
  911SOL    HW1 3632   0.094   5.634   0.154
  911SOL    HW2 3633   0.159   5.661   0.302
  912SOL     OW 3634   5.035   0.442   3.628
  912SOL    HW1 3635   5.000   0.377   3.696
  912SOL    HW2 3636   5.133   0.428   3.616
  913SOL     OW 3637   2.445   1.005   3.718
  913SOL    HW1 3638   2.534   1.051   3.713
  913SOL    HW2 3639   2.372   1.074   3.713
  914SOL     OW 3640   2.088   6.206   5.000
  914SOL    HW1 3641   2.068   6.112   5.029
  914SOL    HW2 3642   2.136   6.205   4.913
  915SOL     OW 3643   0.958   3.192   0.755
  915SOL    HW1 3644   0.992   3.246   0.831
  915SOL    HW2 3645   1.024   3.121   0.732
  916SOL     OW 3646   1.816   2.966   2.312
  916SOL    HW1 3647   1.891   3.031   2.317
  916SOL    HW2 3648   1.842   2.889   2.254
  917SOL     OW 3649   5.593   0.913   2.393
  917SOL    HW1 3650   5.630   0.841   2.451
  917SOL    HW2 3651   5.528   0.968   2.445
  918SOL     OW 3652   3.177   0.389   0.876
  918SOL    HW1 3653   3.247   0.319   0.894
  918SOL    HW2 3654   3.142   0.424   0.963
  919SOL     OW 3655   6.366   5.976   3.051
  919SOL    HW1 3656   6.385   5.946   2.957
  919SOL    HW2 3657   6.417   6.060   3.070
  920SOL     OW 3658   2.099   5.149   2.966
  920SOL    HW1 3659   2.109   5.245   2.992
  920SOL    HW2 3660   2.087   5.094   3.048
  921SOL     OW 3661   4.692   4.404   3.255
  921SOL    HW1 3662   4.677   4.321   3.202
  921SOL    HW2 3663   4.783   4.440   3.236
  922SOL     OW 3664   3.414   3.725   5.834
  922SOL    HW1 3665   3.409   3.781   5.751
  922SOL    HW2 3666   3.321   3.697   5.860
  923SOL     OW 3667   3.089   4.939   6.012
  923SOL    HW1 3668   3.107   4.978   6.103
  923SOL    HW2 3669   3.175   4.907   5.972
  924SOL     OW 3670   5.907   2.410   2.953
  924SOL    HW1 3671   5.892   2.508   2.965
  924SOL    HW2 3672   5.860   2.360   3.025
  925SOL     OW 3673   0.281   1.473   6.878
  925SOL    HW1 3674   0.251   1.385   6.841
  925SOL    HW2 3675   0.372   1.462   6.918
  926SOL     OW 3676   5.999   1.116   1.058
  926SOL    HW1 3677   5.989   1.033   1.003
  926SOL    HW2 3678   6.096   1.135   1.071
  927SOL     OW 3679   6.309   4.058   3.218
  927SOL    HW1 3680   6.328   4.091   3.310
  927SOL    HW2 3681   6.370   3.982   3.198
  928SOL     OW 3682   1.062   6.098   0.647
  928SOL    HW1 3683   1.135   6.077   0.582
  928SOL    HW2 3684   0.999   6.021   0.652
  929SOL     OW 3685   0.432   1.056   0.974
  929SOL    HW1 3686   0.464   1.150   0.978
  929SOL    HW2 3687   0.458   1.015   0.887
  930SOL     OW 3688   5.569   5.855   3.836
  930SOL    HW1 3689   5.575   5.871   3.935
  930SOL    HW2 3690   5.474   5.832   3.812
  931SOL     OW 3691   6.112   2.200   3.497
  931SOL    HW1 3692   6.089   2.219   3.402
  931SOL    HW2 3693   6.119   2.287   3.547
  932SOL     OW 3694   3.231   6.696   3.020
  932SOL    HW1 3695   3.277   6.689   3.109
  932SOL    HW2 3696   3.278   6.639   2.953
  933SOL     OW 3697   1.477   6.092   3.379
  933SOL    HW1 3698   1.418   6.065   3.303
  933SOL    HW2 3699   1.475   6.021   3.449
  934SOL     OW 3700   2.258   0.249   5.976
  934SOL    HW1 3701   2.348   0.267   5.937
  934SOL    HW2 3702   2.211   0.336   5.992
  935SOL     OW 3703   4.361   4.901   4.606
  935SOL    HW1 3704   4.304   4.940   4.679
  935SOL    HW2 3705   4.413   4.823   4.643
  936SOL     OW 3706   1.175   0.277   5.795
  936SOL    HW1 3707   1.094   0.219   5.786
  936SOL    HW2 3708   1.150   0.372   5.777
  937SOL     OW 3709   5.137   1.167   5.147
  937SOL    HW1 3710   5.061   1.208   5.096
  937SOL    HW2 3711   5.116   1.169   5.245
  938SOL     OW 3712   6.834   5.275   5.752
  938SOL    HW1 3713   6.887   5.356   5.777
  938SOL    HW2 3714   6.738   5.288   5.778
  939SOL     OW 3715   6.283   0.177   5.517
  939SOL    HW1 3716   6.201   0.120   5.513
  939SOL    HW2 3717   6.263   0.262   5.565
  940SOL     OW 3718   0.212   2.738   1.819
  940SOL    HW1 3719   0.219   2.663   1.884
  940SOL    HW2 3720   0.291   2.799   1.829
  941SOL     OW 3721   5.146   1.202   5.794
  941SOL    HW1 3722   5.083   1.185   5.869
  941SOL    HW2 3723   5.240   1.202   5.828
  942SOL     OW 3724   5.173   6.645   3.551
  942SOL    HW1 3725   5.143   6.562   3.597
  942SOL    HW2 3726   5.161   6.723   3.612
  943SOL     OW 3727   2.118   3.409   3.899
  943SOL    HW1 3728   2.083   3.317   3.883
  943SOL    HW2 3729   2.125   3.425   3.998
  944SOL     OW 3730   0.562   4.327   5.874
  944SOL    HW1 3731   0.553   4.265   5.952
  944SOL    HW2 3732   0.601   4.276   5.797
  945SOL     OW 3733   6.177   4.457   4.854
  945SOL    HW1 3734   6.121   4.447   4.936
  945SOL    HW2 3735   6.167   4.549   4.817
  946SOL     OW 3736   5.471   2.556   6.275
  946SOL    HW1 3737   5.485   2.642   6.324
  946SOL    HW2 3738   5.459   2.575   6.178
  947SOL     OW 3739   4.042   3.147   4.197
  947SOL    HW1 3740   4.046   3.216   4.269
  947SOL    HW2 3741   4.048   3.192   4.107
  948SOL     OW 3742   3.923   0.354   1.371
  948SOL    HW1 3743   3.959   0.442   1.401
  948SOL    HW2 3744   3.978   0.281   1.410
  949SOL     OW 3745   1.142   6.486   6.505
  949SOL    HW1 3746   1.125   6.479   6.406
  949SOL    HW2 3747   1.088   6.418   6.553
  950SOL     OW 3748   4.743   5.401   1.784
  950SOL    HW1 3749   4.752   5.386   1.686
  950SOL    HW2 3750   4.696   5.488   1.800
  951SOL     OW 3751   1.969   1.218   4.033
  951SOL    HW1 3752   1.922   1.254   3.953
  951SOL    HW2 3753   1.911   1.151   4.079
  952SOL     OW 3754   4.972   1.458   3.339
  952SOL    HW1 3755   4.937   1.375   3.384
  952SOL    HW2 3756   5.013   1.518   3.408
  953SOL     OW 3757   5.398   4.918   4.085
  953SOL    HW1 3758   5.454   4.978   4.142
  953SOL    HW2 3759   5.302   4.925   4.113
  954SOL     OW 3760   4.308   5.311   0.598
  954SOL    HW1 3761   4.209   5.315   0.583
  954SOL    HW2 3762   4.333   5.371   0.673
  955SOL     OW 3763   0.011   3.692   3.262
  955SOL    HW1 3764   7.010   3.789   3.246
  955SOL    HW2 3765   6.968   3.636   3.207
  956SOL     OW 3766   6.661   1.818   2.538
  956SOL    HW1 3767   6.598   1.854   2.469
  956SOL    HW2 3768   6.742   1.780   2.492
  957SOL     OW 3769   6.267   4.196   5.013
  957SOL    HW1 3770   6.280   4.215   4.915
  957SOL    HW2 3771   6.216   4.271   5.054
  958SOL     OW 3772   4.207   1.903   1.715
  958SOL    HW1 3773   4.169   1.951   1.635
  958SOL    HW2 3774   4.147   1.828   1.741
  959SOL     OW 3775   3.833   5.529   2.611
  959SOL    HW1 3776   3.878   5.603   2.561
  959SOL    HW2 3777   3.743   5.559   2.642
  960SOL     OW 3778   1.231   6.059   1.397
  960SOL    HW1 3779   1.196   5.976   1.353
  960SOL    HW2 3780   1.179   6.076   1.481
  961SOL     OW 3781   5.052   6.790   3.740
  961SOL    HW1 3782   5.002   6.876   3.730
  961SOL    HW2 3783   4.992   6.721   3.780
  962SOL     OW 3784   0.413   1.047   5.568
  962SOL    HW1 3785   0.487   1.106   5.533
  962SOL    HW2 3786   0.347   1.031   5.495
  963SOL     OW 3787   6.719   1.806   6.665
  963SOL    HW1 3788   6.669   1.792   6.579
  963SOL    HW2 3789   6.748   1.718   6.702
  964SOL     OW 3790   6.026   4.273   0.288
  964SOL    HW1 3791   6.046   4.179   0.313
  964SOL    HW2 3792   5.944   4.277   0.232
  965SOL     OW 3793   5.070   2.132   1.315
  965SOL    HW1 3794   5.074   2.228   1.286
  965SOL    HW2 3795   5.038   2.127   1.409
  966SOL     OW 3796   4.969   1.985   2.095
  966SOL    HW1 3797   5.067   1.965   2.092
  966SOL    HW2 3798   4.921   1.912   2.145
  967SOL     OW 3799   2.592   4.276   1.382
  967SOL    HW1 3800   2.672   4.220   1.363
  967SOL    HW2 3801   2.583   4.347   1.312
  968SOL     OW 3802   3.530   1.125   1.397
  968SOL    HW1 3803   3.479   1.059   1.343
  968SOL    HW2 3804   3.596   1.078   1.455
  969SOL     OW 3805   3.198   6.077   6.137
  969SOL    HW1 3806   3.253   6.001   6.170
  969SOL    HW2 3807   3.101   6.056   6.149
  970SOL     OW 3808   5.373   0.948   5.656
  970SOL    HW1 3809   5.327   0.957   5.568
  970SOL    HW2 3810   5.307   0.923   5.726
  971SOL     OW 3811   6.579   2.164   3.186
  971SOL    HW1 3812   6.539   2.072   3.182
  971SOL    HW2 3813   6.512   2.228   3.223
  972SOL     OW 3814   5.152   3.294   2.444
  972SOL    HW1 3815   5.176   3.230   2.371
  972SOL    HW2 3816   5.167   3.387   2.412
  973SOL     OW 3817   0.151   4.458   0.360
  973SOL    HW1 3818   0.228   4.425   0.415
  973SOL    HW2 3819   0.066   4.444   0.411
  974SOL     OW 3820   4.998   6.491   2.010
  974SOL    HW1 3821   4.935   6.569   2.010
  974SOL    HW2 3822   4.993   6.443   2.097
  975SOL     OW 3823   1.175   6.765   6.549
  975SOL    HW1 3824   1.172   6.667   6.530
  975SOL    HW2 3825   1.129   6.815   6.476
  976SOL     OW 3826   6.707   3.655   3.125
  976SOL    HW1 3827   6.737   3.621   3.036
  976SOL    HW2 3828   6.700   3.579   3.189
  977SOL     OW 3829   1.149   1.017   2.298
  977SOL    HW1 3830   1.057   1.009   2.337
  977SOL    HW2 3831   1.151   0.972   2.209
  978SOL     OW 3832   4.430   3.573   6.023
  978SOL    HW1 3833   4.406   3.496   6.082
  978SOL    HW2 3834   4.504   3.625   6.065
  979SOL     OW 3835   0.289   1.999   1.018
  979SOL    HW1 3836   0.283   1.900   1.027
  979SOL    HW2 3837   0.201   2.040   1.041
  980SOL     OW 3838   4.439   2.175   4.210
  980SOL    HW1 3839   4.404   2.090   4.249
  980SOL    HW2 3840   4.535   2.185   4.235
  981SOL     OW 3841   0.226   1.800   5.148
  981SOL    HW1 3842   0.184   1.880   5.192
  981SOL    HW2 3843   0.239   1.819   5.051
  982SOL     OW 3844   2.607   2.266   4.310
  982SOL    HW1 3845   2.567   2.265   4.218
  982SOL    HW2 3846   2.618   2.172   4.342
  983SOL     OW 3847   5.951   2.804   5.062
  983SOL    HW1 3848   6.040   2.782   5.023
  983SOL    HW2 3849   5.885   2.733   5.037
  984SOL     OW 3850   2.288   1.907   5.024
  984SOL    HW1 3851   2.258   2.002   5.013
  984SOL    HW2 3852   2.380   1.906   5.064
  985SOL     OW 3853   5.671   3.947   5.262
  985SOL    HW1 3854   5.758   3.987   5.233
  985SOL    HW2 3855   5.595   4.005   5.231
  986SOL     OW 3856   5.959   4.550   1.139
  986SOL    HW1 3857   5.945   4.592   1.229
  986SOL    HW2 3858   5.905   4.466   1.134
  987SOL     OW 3859   4.564   6.988   1.915
  987SOL    HW1 3860   4.635   6.929   1.955
  987SOL    HW2 3861   4.606   0.052   1.880
  988SOL     OW 3862   3.448   3.422   2.617
  988SOL    HW1 3863   3.521   3.353   2.624
  988SOL    HW2 3864   3.374   3.398   2.679
  989SOL     OW 3865   6.077   1.053   5.975
  989SOL    HW1 3866   5.986   1.024   5.945
  989SOL    HW2 3867   6.073   1.149   6.004
  990SOL     OW 3868   4.205   0.601   2.266
  990SOL    HW1 3869   4.176   0.644   2.352
  990SOL    HW2 3870   4.167   0.652   2.189
  991SOL     OW 3871   0.942   2.895   5.640
  991SOL    HW1 3872   0.924   2.844   5.725
  991SOL    HW2 3873   1.026   2.861   5.599
  992SOL     OW 3874   0.227   2.856   2.168
  992SOL    HW1 3875   0.247   2.790   2.096
  992SOL    HW2 3876   0.133   2.843   2.200
  993SOL     OW 3877   0.635   4.661   1.170
  993SOL    HW1 3878   0.621   4.625   1.077
  993SOL    HW2 3879   0.708   4.729   1.169
  994SOL     OW 3880   4.035   4.347   1.279
  994SOL    HW1 3881   3.972   4.285   1.326
  994SOL    HW2 3882   4.081   4.405   1.346
  995SOL     OW 3883   3.971   3.227   5.011
  995SOL    HW1 3884   3.911   3.148   4.996
  995SOL    HW2 3885   4.005   3.225   5.105
  996SOL     OW 3886   3.122   5.043   4.689
  996SOL    HW1 3887   3.098   5.139   4.707
  996SOL    HW2 3888   3.040   4.992   4.666
  997SOL     OW 3889   1.179   0.571   3.229
  997SOL    HW1 3890   1.150   0.566   3.325
  997SOL    HW2 3891   1.099   0.558   3.170
  998SOL     OW 3892   4.838   0.217   4.283
  998SOL    HW1 3893   4.861   0.274   4.362
  998SOL    HW2 3894   4.769   0.150   4.309
  999SOL     OW 3895   4.819   4.136   2.862
  999SOL    HW1 3896   4.807   4.038   2.873
  999SOL    HW2 3897   4.894   4.154   2.799
 1000SOL     OW 3898   2.440   1.229   1.805
 1000SOL    HW1 3899   2.342   1.223   1.825
 1000SOL    HW2 3900   2.480   1.303   1.858
 1001SOL     OW 3901   4.709   5.737   0.509
 1001SOL    HW1 3902   4.732   5.679   0.431
 1001SOL    HW2 3903   4.790   5.747   0.568
 1002SOL     OW 3904   6.093   1.357   1.487
 1002SOL    HW1 3905   6.107   1.317   1.396
 1002SOL    HW2 3906   6.127   1.293   1.557
 1003SOL     OW 3907   2.028   6.510   2.445
 1003SOL    HW1 3908   2.037   6.418   2.484
 1003SOL    HW2 3909   2.119   6.549   2.429
 1004SOL     OW 3910   0.500   6.873   2.568
 1004SOL    HW1 3911   0.483   6.933   2.489
 1004SOL    HW2 3912   0.557   6.796   2.540
 1005SOL     OW 3913   2.195   2.952   4.107
 1005SOL    HW1 3914   2.186   2.921   4.013
 1005SOL    HW2 3915   2.255   2.889   4.157
 1006SOL     OW 3916   0.771   4.621   1.499
 1006SOL    HW1 3917   0.731   4.549   1.442
 1006SOL    HW2 3918   0.717   4.633   1.582
 1007SOL     OW 3919   4.533   7.000   4.978
 1007SOL    HW1 3920   4.581   0.043   5.039
 1007SOL    HW2 3921   4.461   6.952   5.028
 1008SOL     OW 3922   1.730   3.191   5.443
 1008SOL    HW1 3923   1.644   3.218   5.400
 1008SOL    HW2 3924   1.791   3.269   5.448
 1009SOL     OW 3925   0.534   5.576   5.086
 1009SOL    HW1 3926   0.493   5.517   5.016
 1009SOL    HW2 3927   0.627   5.601   5.059
 1010SOL     OW 3928   3.735   2.912   6.068
 1010SOL    HW1 3929   3.830   2.928   6.094
 1010SOL    HW2 3930   3.693   2.848   6.132
 1011SOL     OW 3931   2.417   4.518   2.430
 1011SOL    HW1 3932   2.468   4.511   2.516
 1011SOL    HW2 3933   2.323   4.547   2.450
 1012SOL     OW 3934   6.803   0.770   2.362
 1012SOL    HW1 3935   6.774   0.728   2.448
 1012SOL    HW2 3936   6.818   0.868   2.376
 1013SOL     OW 3937   1.219   0.730   5.793
 1013SOL    HW1 3938   1.175   0.656   5.844
 1013SOL    HW2 3939   1.229   0.810   5.852
 1014SOL     OW 3940   6.158   5.264   6.447
 1014SOL    HW1 3941   6.067   5.282   6.484
 1014SOL    HW2 3942   6.150   5.208   6.365
 1015SOL     OW 3943   2.331   6.607   6.078
 1015SOL    HW1 3944   2.282   6.587   6.162
 1015SOL    HW2 3945   2.429   6.615   6.097
 1016SOL     OW 3946   3.762   3.404   6.982
 1016SOL    HW1 3947   3.819   3.327   6.953
 1016SOL    HW2 3948   3.683   3.371   0.013
 1017SOL     OW 3949   4.058   2.855   1.064
 1017SOL    HW1 3950   4.090   2.761   1.054
 1017SOL    HW2 3951   4.135   2.917   1.055
 1018SOL     OW 3952   0.339   4.360   4.322
 1018SOL    HW1 3953   0.336   4.271   4.276
 1018SOL    HW2 3954   0.319   4.348   4.419
 1019SOL     OW 3955   0.032   6.666   0.990
 1019SOL    HW1 3956   0.085   6.738   0.945
 1019SOL    HW2 3957   7.016   6.700   1.077
 1020SOL     OW 3958   6.983   1.115   1.181
 1020SOL    HW1 3959   6.927   1.121   1.098
 1020SOL    HW2 3960   7.015   1.021   1.193
 1021SOL     OW 3961   5.566   0.090   1.447
 1021SOL    HW1 3962   5.467   0.091   1.435
 1021SOL    HW2 3963   5.595   7.017   1.471
 1022SOL     OW 3964   3.573   4.545   5.537
 1022SOL    HW1 3965   3.536   4.512   5.449
 1022SOL    HW2 3966   3.593   4.642   5.530
 1023SOL     OW 3967   1.097   6.888   2.861
 1023SOL    HW1 3968   1.015   6.830   2.864
 1023SOL    HW2 3969   1.178   6.830   2.848
 1024SOL     OW 3970   0.682   2.715   3.871
 1024SOL    HW1 3971   0.600   2.680   3.826
 1024SOL    HW2 3972   0.764   2.677   3.828
 1025SOL     OW 3973   3.541   3.435   0.998
 1025SOL    HW1 3974   3.527   3.348   1.047
 1025SOL    HW2 3975   3.455   3.487   0.999
 1026SOL     OW 3976   2.251   3.160   0.911
 1026SOL    HW1 3977   2.270   3.156   1.009
 1026SOL    HW2 3978   2.278   3.250   0.876
 1027SOL     OW 3979   3.125   6.406   1.468
 1027SOL    HW1 3980   3.079   6.461   1.537
 1027SOL    HW2 3981   3.078   6.318   1.459
 1028SOL     OW 3982   2.753   6.443   0.789
 1028SOL    HW1 3983   2.722   6.535   0.812
 1028SOL    HW2 3984   2.760   6.435   0.690
 1029SOL     OW 3985   1.565   0.266   6.737
 1029SOL    HW1 3986   1.546   0.173   6.771
 1029SOL    HW2 3987   1.488   0.326   6.759
 1030SOL     OW 3988   3.102   2.649   1.720
 1030SOL    HW1 3989   3.044   2.588   1.775
 1030SOL    HW2 3990   3.049   2.686   1.644
 1031SOL     OW 3991   5.611   4.092   1.352
 1031SOL    HW1 3992   5.678   4.152   1.396
 1031SOL    HW2 3993   5.632   4.086   1.254
 1032SOL     OW 3994   1.993   2.172   5.153
 1032SOL    HW1 3995   1.907   2.123   5.168
 1032SOL    HW2 3996   1.985   2.229   5.071
 1033SOL     OW 3997   1.527   6.693   1.605
 1033SOL    HW1 3998   1.598   6.742   1.556
 1033SOL    HW2 3999   1.552   6.686   1.702
 1034SOL     OW 4000   0.225   5.247   4.546
 1034SOL    HW1 4001   0.294   5.178   4.523
 1034SOL    HW2 4002   0.158   5.208   4.609
 1035SOL     OW 4003   0.277   0.845   4.880
 1035SOL    HW1 4004   0.189   0.818   4.918
 1035SOL    HW2 4005   0.303   0.935   4.915
 1036SOL     OW 4006   3.540   1.385   1.513
 1036SOL    HW1 4007   3.533   1.298   1.463
 1036SOL    HW2 4008   3.504   1.459   1.456
 1037SOL     OW 4009   1.833   1.375   1.820
 1037SOL    HW1 4010   1.917   1.419   1.786
 1037SOL    HW2 4011   1.835   1.373   1.920
 1038SOL     OW 4012   1.124   0.604   4.870
 1038SOL    HW1 4013   1.211   0.637   4.908
 1038SOL    HW2 4014   1.066   0.682   4.846
 1039SOL     OW 4015   3.437   3.926   5.651
 1039SOL    HW1 4016   3.518   3.934   5.592
 1039SOL    HW2 4017   3.435   4.002   5.715
 1040SOL     OW 4018   4.600   1.508   2.770
 1040SOL    HW1 4019   4.502   1.501   2.790
 1040SOL    HW2 4020   4.644   1.565   2.840
 1041SOL     OW 4021   6.646   0.003   3.528
 1041SOL    HW1 4022   6.588   0.043   3.599
 1041SOL    HW2 4023   6.600   6.945   3.486
 1042SOL     OW 4024   4.830   4.925   2.380
 1042SOL    HW1 4025   4.740   4.964   2.362
 1042SOL    HW2 4026   4.897   4.999   2.388
 1043SOL     OW 4027   3.623   1.615   5.079
 1043SOL    HW1 4028   3.675   1.628   4.995
 1043SOL    HW2 4029   3.534   1.658   5.071
 1044SOL     OW 4030   5.498   5.152   2.499
 1044SOL    HW1 4031   5.510   5.087   2.424
 1044SOL    HW2 4032   5.585   5.199   2.516
 1045SOL     OW 4033   4.154   6.365   2.029
 1045SOL    HW1 4034   4.137   6.430   1.955
 1045SOL    HW2 4035   4.080   6.369   2.096
 1046SOL     OW 4036   1.943   0.667   0.665
 1046SOL    HW1 4037   2.015   0.692   0.730
 1046SOL    HW2 4038   1.901   0.580   0.693
 1047SOL     OW 4039   2.021   1.006   3.489
 1047SOL    HW1 4040   1.969   0.988   3.405
 1047SOL    HW2 4041   2.063   1.097   3.483
 1048SOL     OW 4042   4.619   6.178   3.818
 1048SOL    HW1 4043   4.603   6.224   3.905
 1048SOL    HW2 4044   4.531   6.153   3.777
 1049SOL     OW 4045   6.588   6.132   3.776
 1049SOL    HW1 4046   6.557   6.225   3.798
 1049SOL    HW2 4047   6.578   6.074   3.856
 1050SOL     OW 4048   3.914   4.973   1.176
 1050SOL    HW1 4049   3.926   5.036   1.099
 1050SOL    HW2 4050   3.993   4.912   1.183
 1051SOL     OW 4051   2.075   6.328   0.713
 1051SOL    HW1 4052   2.030   6.255   0.764
 1051SOL    HW2 4053   2.174   6.324   0.729
 1052SOL     OW 4054   3.963   0.798   4.663
 1052SOL    HW1 4055   4.058   0.769   4.656
 1052SOL    HW2 4056   3.959   0.896   4.685
 1053SOL     OW 4057   5.720   5.132   3.101
 1053SOL    HW1 4058   5.738   5.226   3.074
 1053SOL    HW2 4059   5.795   5.073   3.070
 1054SOL     OW 4060   3.080   3.997   6.353
 1054SOL    HW1 4061   2.980   4.006   6.353
 1054SOL    HW2 4062   3.111   3.974   6.261
 1055SOL     OW 4063   3.530   6.465   4.768
 1055SOL    HW1 4064   3.561   6.381   4.725
 1055SOL    HW2 4065   3.440   6.450   4.810
 1056SOL     OW 4066   1.776   5.129   6.369
 1056SOL    HW1 4067   1.855   5.087   6.324
 1056SOL    HW2 4068   1.700   5.132   6.304
 1057SOL     OW 4069   2.688   3.346   1.724
 1057SOL    HW1 4070   2.746   3.333   1.804
 1057SOL    HW2 4071   2.614   3.279   1.724
 1058SOL     OW 4072   5.209   1.343   3.203
 1058SOL    HW1 4073   5.123   1.367   3.249
 1058SOL    HW2 4074   5.214   1.244   3.190
 1059SOL     OW 4075   2.833   0.741   1.567
 1059SOL    HW1 4076   2.867   0.817   1.512
 1059SOL    HW2 4077   2.757   0.772   1.624
 1060SOL     OW 4078   0.274   4.253   4.874
 1060SOL    HW1 4079   0.291   4.185   4.946
 1060SOL    HW2 4080   0.178   4.282   4.878
 1061SOL     OW 4081   5.903   3.033   0.602
 1061SOL    HW1 4082   5.939   2.949   0.561
 1061SOL    HW2 4083   5.979   3.094   0.624
 1062SOL     OW 4084   5.508   3.862   5.966
 1062SOL    HW1 4085   5.481   3.943   5.915
 1062SOL    HW2 4086   5.585   3.818   5.920
 1063SOL     OW 4087   1.608   4.973   1.678
 1063SOL    HW1 4088   1.667   4.992   1.757
 1063SOL    HW2 4089   1.633   5.033   1.602
 1064SOL     OW 4090   1.567   3.942   2.108
 1064SOL    HW1 4091   1.666   3.929   2.119
 1064SOL    HW2 4092   1.532   3.994   2.185
 1065SOL     OW 4093   3.526   0.092   3.616
 1065SOL    HW1 4094   3.568   0.149   3.687
 1065SOL    HW2 4095   3.480   0.014   3.659
 1066SOL     OW 4096   4.821   6.328   2.986
 1066SOL    HW1 4097   4.901   6.381   2.955
 1066SOL    HW2 4098   4.816   6.243   2.934
 1067SOL     OW 4099   0.739   3.354   0.789
 1067SOL    HW1 4100   0.673   3.332   0.861
 1067SOL    HW2 4101   0.820   3.296   0.800
 1068SOL     OW 4102   5.649   5.799   2.992
 1068SOL    HW1 4103   5.680   5.705   2.976
 1068SOL    HW2 4104   5.690   5.833   3.077
 1069SOL     OW 4105   4.331   5.188   1.398
 1069SOL    HW1 4106   4.300   5.235   1.481
 1069SOL    HW2 4107   4.292   5.096   1.395
 1070SOL     OW 4108   6.905   0.269   2.373
 1070SOL    HW1 4109   6.971   0.341   2.348
 1070SOL    HW2 4110   6.944   0.210   2.443
 1071SOL     OW 4111   1.285   0.214   3.886
 1071SOL    HW1 4112   1.256   0.124   3.918
 1071SOL    HW2 4113   1.244   0.285   3.944
 1072SOL     OW 4114   2.157   0.906   1.297
 1072SOL    HW1 4115   2.200   0.930   1.209
 1072SOL    HW2 4116   2.134   0.990   1.346
 1073SOL     OW 4117   5.037   6.993   2.101
 1073SOL    HW1 4118   5.093   0.016   2.172
 1073SOL    HW2 4119   5.088   6.994   2.014
 1074SOL     OW 4120   2.159   5.509   1.030
 1074SOL    HW1 4121   2.106   5.480   0.950
 1074SOL    HW2 4122   2.166   5.608   1.031
 1075SOL     OW 4123   4.767   6.790   4.168
 1075SOL    HW1 4124   4.722   6.769   4.081
 1075SOL    HW2 4125   4.795   6.705   4.212
 1076SOL     OW 4126   6.857   2.565   5.486
 1076SOL    HW1 4127   6.893   2.646   5.533
 1076SOL    HW2 4128   6.801   2.594   5.409
 1077SOL     OW 4129   5.902   0.662   1.572
 1077SOL    HW1 4130   5.816   0.703   1.603
 1077SOL    HW2 4131   5.905   0.665   1.472
 1078SOL     OW 4132   1.187   1.477   2.520
 1078SOL    HW1 4133   1.285   1.478   2.501
 1078SOL    HW2 4134   1.168   1.417   2.598
 1079SOL     OW 4135   2.160   6.210   2.257
 1079SOL    HW1 4136   2.118   6.245   2.174
 1079SOL    HW2 4137   2.226   6.277   2.292
 1080SOL     OW 4138   1.136   4.272   3.955
 1080SOL    HW1 4139   1.185   4.294   3.871
 1080SOL    HW2 4140   1.199   4.230   4.020
 1081SOL     OW 4141   0.643   5.809   5.741
 1081SOL    HW1 4142   0.617   5.834   5.648
 1081SOL    HW2 4143   0.653   5.710   5.747
 1082SOL     OW 4144   4.214   1.969   5.580
 1082SOL    HW1 4145   4.215   1.981   5.481
 1082SOL    HW2 4146   4.120   1.952   5.611
 1083SOL     OW 4147   3.969   3.759   0.063
 1083SOL    HW1 4148   3.909   3.735   7.005
 1083SOL    HW2 4149   4.063   3.731   0.042
 1084SOL     OW 4150   5.935   5.949   6.585
 1084SOL    HW1 4151   5.855   5.917   6.534
 1084SOL    HW2 4152   5.915   5.944   6.683
 1085SOL     OW 4153   1.378   3.663   3.875
 1085SOL    HW1 4154   1.416   3.578   3.910
 1085SOL    HW2 4155   1.437   3.739   3.902
 1086SOL     OW 4156   6.873   6.010   0.691
 1086SOL    HW1 4157   6.784   6.000   0.737
 1086SOL    HW2 4158   6.861   6.000   0.592
 1087SOL     OW 4159   5.629   1.786   4.549
 1087SOL    HW1 4160   5.639   1.878   4.585
 1087SOL    HW2 4161   5.551   1.783   4.486
 1088SOL     OW 4162   6.852   4.827   3.356
 1088SOL    HW1 4163   6.831   4.750   3.417
 1088SOL    HW2 4164   6.835   4.913   3.404
 1089SOL     OW 4165   1.633   6.395   4.324
 1089SOL    HW1 4166   1.720   6.349   4.343
 1089SOL    HW2 4167   1.615   6.462   4.396
 1090SOL     OW 4168   2.493   2.236   3.746
 1090SOL    HW1 4169   2.493   2.217   3.648
 1090SOL    HW2 4170   2.568   2.298   3.768
 1091SOL     OW 4171   3.344   1.633   5.059
 1091SOL    HW1 4172   3.319   1.702   4.991
 1091SOL    HW2 4173   3.272   1.563   5.064
 1092SOL     OW 4174   1.966   3.816   1.386
 1092SOL    HW1 4175   1.870   3.817   1.358
 1092SOL    HW2 4176   1.973   3.799   1.484
 1093SOL     OW 4177   2.279   1.501   1.874
 1093SOL    HW1 4178   2.242   1.412   1.901
 1093SOL    HW2 4179   2.262   1.568   1.946
 1094SOL     OW 4180   0.694   0.082   3.197
 1094SOL    HW1 4181   0.755   0.028   3.254
 1094SOL    HW2 4182   0.629   0.021   3.151
 1095SOL     OW 4183   0.472   2.796   6.493
 1095SOL    HW1 4184   0.474   2.852   6.410
 1095SOL    HW2 4185   0.493   2.701   6.470
 1096SOL     OW 4186   3.583   4.311   1.750
 1096SOL    HW1 4187   3.536   4.244   1.808
 1096SOL    HW2 4188   3.675   4.278   1.729
 1097SOL     OW 4189   1.890   4.556   4.078
 1097SOL    HW1 4190   1.809   4.502   4.056
 1097SOL    HW2 4191   1.867   4.627   4.145
 1098SOL     OW 4192   3.768   3.664   6.890
 1098SOL    HW1 4193   3.726   3.679   6.801
 1098SOL    HW2 4194   3.757   3.568   6.916
 1099SOL     OW 4195   3.877   1.593   5.611
 1099SOL    HW1 4196   3.800   1.569   5.671
 1099SOL    HW2 4197   3.923   1.674   5.648
 1100SOL     OW 4198   3.481   1.935   5.533
 1100SOL    HW1 4199   3.495   1.844   5.572
 1100SOL    HW2 4200   3.516   1.937   5.439
 1101SOL     OW 4201   6.214   2.257   6.798
 1101SOL    HW1 4202   6.204   2.219   6.706
 1101SOL    HW2 4203   6.286   2.208   6.846
 1102SOL     OW 4204   0.411   6.515   5.064
 1102SOL    HW1 4205   0.444   6.535   4.971
 1102SOL    HW2 4206   0.489   6.498   5.124
 1103SOL     OW 4207   3.750   1.586   0.015
 1103SOL    HW1 4208   3.754   1.665   0.077
 1103SOL    HW2 4209   3.670   1.595   6.975
 1104SOL     OW 4210   2.226   2.672   5.277
 1104SOL    HW1 4211   2.294   2.646   5.345
 1104SOL    HW2 4212   2.192   2.764   5.296
 1105SOL     OW 4213   6.424   3.764   5.243
 1105SOL    HW1 4214   6.384   3.673   5.231
 1105SOL    HW2 4215   6.389   3.826   5.173
 1106SOL     OW 4216   0.288   2.513   1.941
 1106SOL    HW1 4217   0.338   2.533   1.857
 1106SOL    HW2 4218   0.260   2.417   1.941
 1107SOL     OW 4219   0.839   0.807   6.735
 1107SOL    HW1 4220   0.827   0.896   6.692
 1107SOL    HW2 4221   0.795   0.807   6.825
 1108SOL     OW 4222   3.407   0.150   6.068
 1108SOL    HW1 4223   3.467   0.154   5.989
 1108SOL    HW2 4224   3.425   0.067   6.121
 1109SOL     OW 4225   5.072   1.058   4.812
 1109SOL    HW1 4226   5.066   1.105   4.900
 1109SOL    HW2 4227   5.152   1.092   4.763
 1110SOL     OW 4228   2.773   1.346   3.248
 1110SOL    HW1 4229   2.753   1.266   3.191
 1110SOL    HW2 4230   2.793   1.424   3.189
 1111SOL     OW 4231   4.466   5.121   6.241
 1111SOL    HW1 4232   4.379   5.146   6.200
 1111SOL    HW2 4233   4.541   5.150   6.181
 1112SOL     OW 4234   4.909   1.552   2.098
 1112SOL    HW1 4235   4.897   1.650   2.117
 1112SOL    HW2 4236   4.855   1.499   2.163
 1113SOL     OW 4237   6.138   3.863   1.899
 1113SOL    HW1 4238   6.165   3.810   1.819
 1113SOL    HW2 4239   6.196   3.839   1.976
 1114SOL     OW 4240   3.843   1.672   6.751
 1114SOL    HW1 4241   3.749   1.705   6.750
 1114SOL    HW2 4242   3.905   1.749   6.740
 1115SOL     OW 4243   4.001   3.348   6.528
 1115SOL    HW1 4244   4.039   3.440   6.534
 1115SOL    HW2 4245   3.903   3.350   6.544
 1116SOL     OW 4246   5.076   6.590   6.226
 1116SOL    HW1 4247   5.121   6.503   6.206
 1116SOL    HW2 4248   5.027   6.622   6.145
 1117SOL     OW 4249   2.162   2.313   2.540
 1117SOL    HW1 4250   2.235   2.314   2.473
 1117SOL    HW2 4251   2.167   2.394   2.598
 1118SOL     OW 4252   2.582   4.710   1.038
 1118SOL    HW1 4253   2.663   4.750   1.080
 1118SOL    HW2 4254   2.526   4.783   0.998
 1119SOL     OW 4255   4.178   4.561   1.458
 1119SOL    HW1 4256   4.116   4.633   1.487
 1119SOL    HW2 4257   4.260   4.562   1.515
 1120SOL     OW 4258   6.273   6.494   6.498
 1120SOL    HW1 4259   6.292   6.489   6.400
 1120SOL    HW2 4260   6.174   6.487   6.512
 1121SOL     OW 4261   5.175   5.135   3.446
 1121SOL    HW1 4262   5.266   5.133   3.489
 1121SOL    HW2 4263   5.172   5.068   3.372
 1122SOL     OW 4264   5.432   2.817   0.037
 1122SOL    HW1 4265   5.416   2.848   0.130
 1122SOL    HW2 4266   5.514   2.861   0.000
 1123SOL     OW 4267   4.703   1.050   2.748
 1123SOL    HW1 4268   4.730   0.998   2.829
 1123SOL    HW2 4269   4.616   1.096   2.766
 1124SOL     OW 4270   0.259   3.764   5.165
 1124SOL    HW1 4271   0.330   3.730   5.226
 1124SOL    HW2 4272   0.173   3.717   5.183
 1125SOL     OW 4273   3.552   2.128   4.332
 1125SOL    HW1 4274   3.534   2.192   4.407
 1125SOL    HW2 4275   3.488   2.052   4.336
 1126SOL     OW 4276   6.338   4.765   6.822
 1126SOL    HW1 4277   6.435   4.786   6.808
 1126SOL    HW2 4278   6.312   4.788   6.916
 1127SOL     OW 4279   5.536   5.157   4.980
 1127SOL    HW1 4280   5.527   5.179   5.077
 1127SOL    HW2 4281   5.450   5.177   4.933
 1128SOL     OW 4282   5.516   1.584   5.084
 1128SOL    HW1 4283   5.485   1.624   4.998
 1128SOL    HW2 4284   5.615   1.593   5.092
 1129SOL     OW 4285   1.966   0.420   7.013
 1129SOL    HW1 4286   2.025   0.481   6.960
 1129SOL    HW2 4287   1.910   0.365   6.950
 1130SOL     OW 4288   2.846   4.684   0.899
 1130SOL    HW1 4289   2.768   4.627   0.872
 1130SOL    HW2 4290   2.817   4.748   0.970
 1131SOL     OW 4291   0.681   5.545   5.752
 1131SOL    HW1 4292   0.678   5.537   5.852
 1131SOL    HW2 4293   0.589   5.528   5.715
 1132SOL     OW 4294   5.434   0.380   1.653
 1132SOL    HW1 4295   5.525   0.422   1.655
 1132SOL    HW2 4296   5.372   0.433   1.711
 1133SOL     OW 4297   0.802   0.253   1.435
 1133SOL    HW1 4298   0.713   0.285   1.403
 1133SOL    HW2 4299   0.875   0.296   1.382
 1134SOL     OW 4300   4.955   0.717   1.859
 1134SOL    HW1 4301   4.938   0.704   1.762
 1134SOL    HW2 4302   4.985   0.811   1.875
 1135SOL     OW 4303   2.639   0.306   2.512
 1135SOL    HW1 4304   2.671   0.369   2.583
 1135SOL    HW2 4305   2.698   0.314   2.432
 1136SOL     OW 4306   3.894   4.880   3.194
 1136SOL    HW1 4307   3.922   4.837   3.280
 1136SOL    HW2 4308   3.922   4.822   3.118
 1137SOL     OW 4309   1.177   0.941   6.677
 1137SOL    HW1 4310   1.185   0.916   6.773
 1137SOL    HW2 4311   1.136   0.865   6.626
 1138SOL     OW 4312   6.832   0.602   5.576
 1138SOL    HW1 4313   6.735   0.594   5.553
 1138SOL    HW2 4314   6.881   0.641   5.498
 1139SOL     OW 4315   3.224   5.022   1.547
 1139SOL    HW1 4316   3.218   4.957   1.471
 1139SOL    HW2 4317   3.313   5.066   1.546
 1140SOL     OW 4318   4.222   1.522   1.766
 1140SOL    HW1 4319   4.225   1.461   1.845
 1140SOL    HW2 4320   4.159   1.598   1.785
 1141SOL     OW 4321   0.398   6.125   6.617
 1141SOL    HW1 4322   0.416   6.029   6.636
 1141SOL    HW2 4323   0.306   6.149   6.650
 1142SOL     OW 4324   2.833   6.841   4.454
 1142SOL    HW1 4325   2.813   6.934   4.482
 1142SOL    HW2 4326   2.897   6.842   4.376
 1143SOL     OW 4327   1.720   3.406   3.119
 1143SOL    HW1 4328   1.799   3.370   3.170
 1143SOL    HW2 4329   1.741   3.403   3.021
 1144SOL     OW 4330   6.488   4.720   4.323
 1144SOL    HW1 4331   6.586   4.732   4.306
 1144SOL    HW2 4332   6.447   4.810   4.342
 1145SOL     OW 4333   6.634   3.669   2.625
 1145SOL    HW1 4334   6.638   3.612   2.543
 1145SOL    HW2 4335   6.543   3.712   2.631
 1146SOL     OW 4336   6.736   0.492   2.697
 1146SOL    HW1 4337   6.783   0.509   2.784
 1146SOL    HW2 4338   6.803   0.468   2.627
 1147SOL     OW 4339   2.469   5.045   1.584
 1147SOL    HW1 4340   2.516   5.133   1.585
 1147SOL    HW2 4341   2.378   5.056   1.546
 1148SOL     OW 4342   4.836   5.921   0.336
 1148SOL    HW1 4343   4.787   5.863   0.402
 1148SOL    HW2 4344   4.793   5.912   0.246
 1149SOL     OW 4345   6.864   4.212   3.279
 1149SOL    HW1 4346   6.915   4.281   3.331
 1149SOL    HW2 4347   6.768   4.240   3.273
 1150SOL     OW 4348   2.500   3.942   0.500
 1150SOL    HW1 4349   2.454   3.912   0.417
 1150SOL    HW2 4350   2.521   4.039   0.494
 1151SOL     OW 4351   5.259   4.525   6.938
 1151SOL    HW1 4352   5.161   4.544   6.926
 1151SOL    HW2 4353   5.283   4.442   6.887
 1152SOL     OW 4354   5.295   4.736   6.292
 1152SOL    HW1 4355   5.352   4.790   6.353
 1152SOL    HW2 4356   5.350   4.663   6.250
 1153SOL     OW 4357   1.492   0.821   1.728
 1153SOL    HW1 4358   1.452   0.908   1.756
 1153SOL    HW2 4359   1.562   0.793   1.793
 1154SOL     OW 4360   0.083   4.392   0.841
 1154SOL    HW1 4361   0.086   4.303   0.888
 1154SOL    HW2 4362   7.008   4.424   0.836
 1155SOL     OW 4363   2.618   5.327   6.745
 1155SOL    HW1 4364   2.649   5.328   6.650
 1155SOL    HW2 4365   2.684   5.374   6.802
 1156SOL     OW 4366   4.095   1.543   4.531
 1156SOL    HW1 4367   4.185   1.508   4.559
 1156SOL    HW2 4368   4.070   1.619   4.590
 1157SOL     OW 4369   5.376   1.491   5.517
 1157SOL    HW1 4370   5.422   1.431   5.452
 1157SOL    HW2 4371   5.439   1.561   5.548
 1158SOL     OW 4372   0.228   4.954   5.339
 1158SOL    HW1 4373   0.215   5.039   5.289
 1158SOL    HW2 4374   0.313   4.910   5.310
 1159SOL     OW 4375   6.200   0.137   4.239
 1159SOL    HW1 4376   6.105   0.133   4.208
 1159SOL    HW2 4377   6.251   0.199   4.180
 1160SOL     OW 4378   5.164   4.014   0.462
 1160SOL    HW1 4379   5.152   4.068   0.545
 1160SOL    HW2 4380   5.096   3.941   0.459
 1161SOL     OW 4381   6.134   6.834   6.292
 1161SOL    HW1 4382   6.095   6.802   6.378
 1161SOL    HW2 4383   6.144   6.934   6.295
 1162SOL     OW 4384   2.962   2.385   6.789
 1162SOL    HW1 4385   2.901   2.449   6.741
 1162SOL    HW2 4386   3.057   2.413   6.774
 1163SOL     OW 4387   6.547   3.301   2.170
 1163SOL    HW1 4388   6.599   3.233   2.119
 1163SOL    HW2 4389   6.471   3.257   2.218
 1164SOL     OW 4390   6.304   3.164   4.827
 1164SOL    HW1 4391   6.352   3.102   4.890
 1164SOL    HW2 4392   6.361   3.179   4.746
 1165SOL     OW 4393   3.163   5.006   3.758
 1165SOL    HW1 4394   3.246   4.976   3.804
 1165SOL    HW2 4395   3.100   5.046   3.826
 1166SOL     OW 4396   3.930   6.831   0.138
 1166SOL    HW1 4397   3.844   6.848   0.090
 1166SOL    HW2 4398   3.923   6.862   0.233
 1167SOL     OW 4399   4.242   6.782   6.701
 1167SOL    HW1 4400   4.302   6.703   6.707
 1167SOL    HW2 4401   4.199   6.799   6.790
 1168SOL     OW 4402   5.306   2.308   3.353
 1168SOL    HW1 4403   5.399   2.323   3.321
 1168SOL    HW2 4404   5.241   2.350   3.290
 1169SOL     OW 4405   5.001   2.251   5.993
 1169SOL    HW1 4406   5.022   2.165   5.947
 1169SOL    HW2 4407   4.904   2.253   6.018
 1170SOL     OW 4408   5.152   0.807   3.322
 1170SOL    HW1 4409   5.174   0.803   3.225
 1170SOL    HW2 4410   5.084   0.737   3.344
 1171SOL     OW 4411   2.961   6.000   0.051
 1171SOL    HW1 4412   2.907   6.053   0.116
 1171SOL    HW2 4413   2.900   5.961   7.001
 1172SOL     OW 4414   3.045   4.251   1.661
 1172SOL    HW1 4415   2.993   4.221   1.581
 1172SOL    HW2 4416   2.984   4.298   1.725
 1173SOL     OW 4417   2.669   0.892   6.699
 1173SOL    HW1 4418   2.700   0.916   6.791
 1173SOL    HW2 4419   2.571   0.911   6.691
 1174SOL     OW 4420   3.549   4.897   1.268
 1174SOL    HW1 4421   3.569   4.880   1.172
 1174SOL    HW2 4422   3.484   4.829   1.301
 1175SOL     OW 4423   3.648   3.760   6.649
 1175SOL    HW1 4424   3.634   3.757   6.550
 1175SOL    HW2 4425   3.591   3.831   6.688
 1176SOL     OW 4426   5.972   4.614   6.573
 1176SOL    HW1 4427   5.989   4.516   6.577
 1176SOL    HW2 4428   5.960   4.650   6.665
 1177SOL     OW 4429   6.774   1.981   5.106
 1177SOL    HW1 4430   6.816   2.004   5.018
 1177SOL    HW2 4431   6.773   2.063   5.164
 1178SOL     OW 4432   3.396   4.130   0.502
 1178SOL    HW1 4433   3.357   4.109   0.592
 1178SOL    HW2 4434   3.434   4.047   0.462
 1179SOL     OW 4435   3.116   6.077   0.913
 1179SOL    HW1 4436   3.181   6.144   0.875
 1179SOL    HW2 4437   3.023   6.101   0.885
 1180SOL     OW 4438   2.092   6.157   3.860
 1180SOL    HW1 4439   2.007   6.171   3.809
 1180SOL    HW2 4440   2.077   6.090   3.933
 1181SOL     OW 4441   0.178   3.539   5.860
 1181SOL    HW1 4442   0.125   3.525   5.776
 1181SOL    HW2 4443   0.144   3.478   5.932
 1182SOL     OW 4444   2.934   4.868   2.937
 1182SOL    HW1 4445   2.952   4.861   2.839
 1182SOL    HW2 4446   2.891   4.784   2.969
 1183SOL     OW 4447   3.343   5.488   2.104
 1183SOL    HW1 4448   3.359   5.411   2.166
 1183SOL    HW2 4449   3.314   5.567   2.157
 1184SOL     OW 4450   5.903   6.939   5.837
 1184SOL    HW1 4451   5.984   6.963   5.892
 1184SOL    HW2 4452   5.822   6.982   5.876
 1185SOL     OW 4453   0.661   0.775   0.359
 1185SOL    HW1 4454   0.759   0.794   0.355
 1185SOL    HW2 4455   0.632   0.730   0.275
 1186SOL     OW 4456   5.470   5.964   5.410
 1186SOL    HW1 4457   5.407   5.963   5.488
 1186SOL    HW2 4458   5.564   5.958   5.443
 1187SOL     OW 4459   5.094   6.310   5.982
 1187SOL    HW1 4460   5.113   6.355   5.895
 1187SOL    HW2 4461   5.178   6.268   6.016
 1188SOL     OW 4462   3.034   5.294   6.170
 1188SOL    HW1 4463   2.959   5.302   6.105
 1188SOL    HW2 4464   3.012   5.346   6.253
 1189SOL     OW 4465   6.327   0.477   1.301
 1189SOL    HW1 4466   6.283   0.494   1.389
 1189SOL    HW2 4467   6.260   0.489   1.228
 1190SOL     OW 4468   2.751   5.421   3.083
 1190SOL    HW1 4469   2.756   5.449   3.179
 1190SOL    HW2 4470   2.838   5.378   3.057
 1191SOL     OW 4471   2.683   6.156   4.562
 1191SOL    HW1 4472   2.761   6.093   4.556
 1191SOL    HW2 4473   2.672   6.202   4.474
 1192SOL     OW 4474   5.981   6.120   3.596
 1192SOL    HW1 4475   6.056   6.096   3.535
 1192SOL    HW2 4476   6.003   6.205   3.644
 1193SOL     OW 4477   0.163   0.674   5.246
 1193SOL    HW1 4478   0.133   0.619   5.168
 1193SOL    HW2 4479   0.244   0.726   5.220
 1194SOL     OW 4480   6.608   1.282   1.668
 1194SOL    HW1 4481   6.548   1.217   1.620
 1194SOL    HW2 4482   6.703   1.258   1.651
 1195SOL     OW 4483   6.851   3.356   0.455
 1195SOL    HW1 4484   6.807   3.444   0.471
 1195SOL    HW2 4485   6.881   3.350   0.360
 1196SOL     OW 4486   6.628   4.449   3.573
 1196SOL    HW1 4487   6.655   4.487   3.662
 1196SOL    HW2 4488   6.608   4.352   3.584
 1197SOL     OW 4489   4.458   6.428   4.570
 1197SOL    HW1 4490   4.378   6.370   4.581
 1197SOL    HW2 4491   4.477   6.442   4.473
 1198SOL     OW 4492   1.230   3.682   1.874
 1198SOL    HW1 4493   1.314   3.655   1.920
 1198SOL    HW2 4494   1.156   3.692   1.941
 1199SOL     OW 4495   3.014   3.891   2.949
 1199SOL    HW1 4496   3.105   3.887   2.908
 1199SOL    HW2 4497   3.017   3.943   3.034
 1200SOL     OW 4498   3.864   4.030   4.213
 1200SOL    HW1 4499   3.927   4.030   4.291
 1200SOL    HW2 4500   3.777   4.072   4.240
 1201SOL     OW 4501   6.628   1.039   4.925
 1201SOL    HW1 4502   6.571   1.119   4.944
 1201SOL    HW2 4503   6.666   1.047   4.833
 1202SOL     OW 4504   0.203   6.005   5.255
 1202SOL    HW1 4505   0.251   5.929   5.211
 1202SOL    HW2 4506   0.260   6.087   5.251
 1203SOL     OW 4507   0.643   6.426   0.442
 1203SOL    HW1 4508   0.601   6.507   0.482
 1203SOL    HW2 4509   0.742   6.431   0.454
 1204SOL     OW 4510   4.998   1.332   1.176
 1204SOL    HW1 4511   4.964   1.243   1.146
 1204SOL    HW2 4512   4.983   1.399   1.104
 1205SOL     OW 4513   3.706   3.717   0.490
 1205SOL    HW1 4514   3.638   3.669   0.545
 1205SOL    HW2 4515   3.663   3.793   0.442
 1206SOL     OW 4516   0.961   3.351   5.245
 1206SOL    HW1 4517   1.051   3.334   5.286
 1206SOL    HW2 4518   0.932   3.270   5.193
 1207SOL     OW 4519   0.216   0.470   0.850
 1207SOL    HW1 4520   0.128   0.430   0.826
 1207SOL    HW2 4521   0.244   0.535   0.778
 1208SOL     OW 4522   2.862   3.370   1.491
 1208SOL    HW1 4523   2.937   3.308   1.512
 1208SOL    HW2 4524   2.796   3.370   1.566
 1209SOL     OW 4525   5.280   6.951   4.347
 1209SOL    HW1 4526   5.263   7.014   4.271
 1209SOL    HW2 4527   5.359   6.894   4.327
 1210SOL     OW 4528   4.133   6.453   3.717
 1210SOL    HW1 4529   4.201   6.506   3.667
 1210SOL    HW2 4530   4.071   6.516   3.764
 1211SOL     OW 4531   0.683   3.277   2.928
 1211SOL    HW1 4532   0.628   3.360   2.916
 1211SOL    HW2 4533   0.662   3.213   2.855
 1212SOL     OW 4534   6.234   0.048   6.122
 1212SOL    HW1 4535   6.325   0.089   6.127
 1212SOL    HW2 4536   6.232   7.000   6.047
 1213SOL     OW 4537   5.958   2.534   1.736
 1213SOL    HW1 4538   5.967   2.623   1.691
 1213SOL    HW2 4539   5.967   2.545   1.835
 1214SOL     OW 4540   1.027   2.430   6.830
 1214SOL    HW1 4541   0.949   2.374   6.803
 1214SOL    HW2 4542   1.099   2.423   6.762
 1215SOL     OW 4543   1.360   5.017   2.882
 1215SOL    HW1 4544   1.434   5.070   2.839
 1215SOL    HW2 4545   1.367   4.921   2.853
 1216SOL     OW 4546   5.406   1.299   0.387
 1216SOL    HW1 4547   5.483   1.235   0.385
 1216SOL    HW2 4548   5.442   1.393   0.391
 1217SOL     OW 4549   2.481   4.869   0.552
 1217SOL    HW1 4550   2.563   4.924   0.537
 1217SOL    HW2 4551   2.503   4.772   0.543
 1218SOL     OW 4552   1.722   2.409   4.938
 1218SOL    HW1 4553   1.650   2.348   4.972
 1218SOL    HW2 4554   1.761   2.459   5.015
 1219SOL     OW 4555   5.375   5.855   1.890
 1219SOL    HW1 4556   5.433   5.936   1.882
 1219SOL    HW2 4557   5.297   5.864   1.829
 1220SOL     OW 4558   6.953   4.247   2.406
 1220SOL    HW1 4559   6.907   4.312   2.346
 1220SOL    HW2 4560   6.986   4.169   2.353
 1221SOL     OW 4561   5.031   3.355   6.357
 1221SOL    HW1 4562   5.104   3.382   6.294
 1221SOL    HW2 4563   4.986   3.272   6.322
 1222SOL     OW 4564   6.574   1.332   6.246
 1222SOL    HW1 4565   6.614   1.302   6.160
 1222SOL    HW2 4566   6.641   1.322   6.319
 1223SOL     OW 4567   3.895   0.904   0.198
 1223SOL    HW1 4568   3.862   0.848   0.123
 1223SOL    HW2 4569   3.895   0.851   0.283
 1224SOL     OW 4570   2.940   6.242   6.592
 1224SOL    HW1 4571   2.984   6.316   6.541
 1224SOL    HW2 4572   2.851   6.273   6.626
 1225SOL     OW 4573   3.695   2.539   6.586
 1225SOL    HW1 4574   3.658   2.490   6.665
 1225SOL    HW2 4575   3.628   2.606   6.554
 1226SOL     OW 4576   3.694   6.646   0.443
 1226SOL    HW1 4577   3.663   6.708   0.515
 1226SOL    HW2 4578   3.789   6.621   0.459
 1227SOL     OW 4579   5.049   4.853   5.812
 1227SOL    HW1 4580   5.112   4.777   5.830
 1227SOL    HW2 4581   5.078   4.901   5.729
 1228SOL     OW 4582   2.730   2.368   6.256
 1228SOL    HW1 4583   2.681   2.451   6.232
 1228SOL    HW2 4584   2.665   2.292   6.265
 1229SOL     OW 4585   2.409   5.149   6.782
 1229SOL    HW1 4586   2.340   5.212   6.818
 1229SOL    HW2 4587   2.498   5.195   6.780
 1230SOL     OW 4588   5.572   6.732   1.686
 1230SOL    HW1 4589   5.475   6.737   1.706
 1230SOL    HW2 4590   5.589   6.771   1.595
 1231SOL     OW 4591   1.651   1.876   5.399
 1231SOL    HW1 4592   1.642   1.905   5.304
 1231SOL    HW2 4593   1.695   1.786   5.403
 1232SOL     OW 4594   6.648   1.574   4.803
 1232SOL    HW1 4595   6.650   1.551   4.900
 1232SOL    HW2 4596   6.582   1.648   4.789
 1233SOL     OW 4597   0.716   5.455   4.822
 1233SOL    HW1 4598   0.761   5.543   4.833
 1233SOL    HW2 4599   0.659   5.456   4.740
 1234SOL     OW 4600   6.004   2.813   5.825
 1234SOL    HW1 4601   6.019   2.881   5.753
 1234SOL    HW2 4602   6.065   2.735   5.811
 1235SOL     OW 4603   5.866   5.522   1.904
 1235SOL    HW1 4604   5.924   5.591   1.861
 1235SOL    HW2 4605   5.911   5.488   1.986
 1236SOL     OW 4606   4.492   0.601   1.018
 1236SOL    HW1 4607   4.437   0.528   1.057
 1236SOL    HW2 4608   4.549   0.565   0.944
 1237SOL     OW 4609   1.874   4.299   6.096
 1237SOL    HW1 4610   1.885   4.227   6.027
 1237SOL    HW2 4611   1.896   4.261   6.187
 1238SOL     OW 4612   1.430   0.873   6.549
 1238SOL    HW1 4613   1.483   0.946   6.592
 1238SOL    HW2 4614   1.356   0.844   6.610
 1239SOL     OW 4615   0.305   6.964   0.528
 1239SOL    HW1 4616   0.393   6.958   0.574
 1239SOL    HW2 4617   0.238   7.005   0.589
 1240SOL     OW 4618   5.725   6.138   0.474
 1240SOL    HW1 4619   5.741   6.142   0.573
 1240SOL    HW2 4620   5.717   6.043   0.446
 1241SOL     OW 4621   5.633   4.391   5.213
 1241SOL    HW1 4622   5.595   4.302   5.238
 1241SOL    HW2 4623   5.722   4.378   5.169
 1242SOL     OW 4624   1.659   3.527   1.206
 1242SOL    HW1 4625   1.748   3.487   1.183
 1242SOL    HW2 4626   1.605   3.461   1.258
 1243SOL     OW 4627   0.964   0.509   5.075
 1243SOL    HW1 4628   1.004   0.536   4.988
 1243SOL    HW2 4629   1.029   0.452   5.126
 1244SOL     OW 4630   5.768   6.098   4.223
 1244SOL    HW1 4631   5.791   6.003   4.244
 1244SOL    HW2 4632   5.764   6.111   4.124
 1245SOL     OW 4633   5.789   4.270   0.129
 1245SOL    HW1 4634   5.761   4.240   0.038
 1245SOL    HW2 4635   5.722   4.237   0.197
 1246SOL     OW 4636   3.136   1.132   1.345
 1246SOL    HW1 4637   3.171   1.225   1.336
 1246SOL    HW2 4638   3.211   1.067   1.332
 1247SOL     OW 4639   0.047   6.557   5.826
 1247SOL    HW1 4640   6.979   6.508   5.816
 1247SOL    HW2 4641   0.047   6.638   5.768
 1248SOL     OW 4642   2.206   6.861   5.024
 1248SOL    HW1 4643   2.256   6.842   4.939
 1248SOL    HW2 4644   2.111   6.832   5.014
 1249SOL     OW 4645   6.713   2.077   2.135
 1249SOL    HW1 4646   6.666   2.164   2.149
 1249SOL    HW2 4647   6.720   2.058   2.037
 1250SOL     OW 4648   5.421   5.412   3.119
 1250SOL    HW1 4649   5.326   5.419   3.150
 1250SOL    HW2 4650   5.428   5.341   3.049
 1251SOL     OW 4651   2.649   0.875   3.345
 1251SOL    HW1 4652   2.561   0.856   3.389
 1251SOL    HW2 4653   2.699   0.789   3.333
 1252SOL     OW 4654   4.613   3.947   6.455
 1252SOL    HW1 4655   4.593   3.950   6.553
 1252SOL    HW2 4656   4.532   3.974   6.404
 1253SOL     OW 4657   3.296   6.493   1.754
 1253SOL    HW1 4658   3.341   6.444   1.679
 1253SOL    HW2 4659   3.306   6.439   1.838
 1254SOL     OW 4660   0.452   3.411   3.309
 1254SOL    HW1 4661   0.509   3.490   3.332
 1254SOL    HW2 4662   0.486   3.331   3.359
 1255SOL     OW 4663   6.113   1.387   6.303
 1255SOL    HW1 4664   6.199   1.370   6.351
 1255SOL    HW2 4665   6.075   1.474   6.334
 1256SOL     OW 4666   6.665   6.941   3.203
 1256SOL    HW1 4667   6.636   6.878   3.275
 1256SOL    HW2 4668   6.746   6.905   3.158
 1257SOL     OW 4669   6.809   5.356   4.549
 1257SOL    HW1 4670   6.881   5.297   4.585
 1257SOL    HW2 4671   6.720   5.319   4.575
 1258SOL     OW 4672   1.560   5.106   2.701
 1258SOL    HW1 4673   1.629   5.047   2.743
 1258SOL    HW2 4674   1.594   5.200   2.698
 1259SOL     OW 4675   3.302   0.336   4.318
 1259SOL    HW1 4676   3.308   0.242   4.285
 1259SOL    HW2 4677   3.215   0.376   4.288
 1260SOL     OW 4678   2.640   2.432   7.017
 1260SOL    HW1 4679   2.727   2.406   0.039
 1260SOL    HW2 4680   2.621   2.372   6.939
 1261SOL     OW 4681   6.850   5.561   6.935
 1261SOL    HW1 4682   6.808   5.479   6.973
 1261SOL    HW2 4683   6.783   5.612   6.881
 1262SOL     OW 4684   6.266   3.832   1.297
 1262SOL    HW1 4685   6.192   3.765   1.305
 1262SOL    HW2 4686   6.274   3.883   1.382
 1263SOL     OW 4687   0.027   2.127   1.356
 1263SOL    HW1 4688   0.050   2.186   1.433
 1263SOL    HW2 4689   0.092   2.051   1.351
 1264SOL     OW 4690   6.602   3.782   1.993
 1264SOL    HW1 4691   6.530   3.770   1.925
 1264SOL    HW2 4692   6.626   3.693   2.032
 1265SOL     OW 4693   4.623   5.730   3.835
 1265SOL    HW1 4694   4.705   5.683   3.867
 1265SOL    HW2 4695   4.646   5.790   3.758
 1266SOL     OW 4696   0.163   1.581   4.672
 1266SOL    HW1 4697   0.200   1.661   4.624
 1266SOL    HW2 4698   0.063   1.590   4.680
 1267SOL     OW 4699   4.887   6.546   1.050
 1267SOL    HW1 4700   4.825   6.562   0.973
 1267SOL    HW2 4701   4.838   6.563   1.136
 1268SOL     OW 4702   3.054   3.005   0.247
 1268SOL    HW1 4703   3.011   2.928   0.201
 1268SOL    HW2 4704   2.992   3.041   0.317
 1269SOL     OW 4705   5.693   5.247   5.232
 1269SOL    HW1 4706   5.705   5.170   5.294
 1269SOL    HW2 4707   5.767   5.249   5.165
 1270SOL     OW 4708   1.485   3.295   3.554
 1270SOL    HW1 4709   1.510   3.253   3.467
 1270SOL    HW2 4710   1.454   3.225   3.617
 1271SOL     OW 4711   2.867   2.203   3.835
 1271SOL    HW1 4712   2.940   2.220   3.902
 1271SOL    HW2 4713   2.793   2.268   3.849
 1272SOL     OW 4714   5.841   5.341   0.252
 1272SOL    HW1 4715   5.768   5.303   0.309
 1272SOL    HW2 4716   5.885   5.267   0.200
 1273SOL     OW 4717   0.302   3.519   0.374
 1273SOL    HW1 4718   0.319   3.581   0.452
 1273SOL    HW2 4719   0.279   3.428   0.409
 1274SOL     OW 4720   6.331   4.579   1.422
 1274SOL    HW1 4721   6.276   4.627   1.353
 1274SOL    HW2 4722   6.425   4.612   1.417
 1275SOL     OW 4723   3.717   1.839   4.647
 1275SOL    HW1 4724   3.618   1.849   4.655
 1275SOL    HW2 4725   3.758   1.929   4.636
 1276SOL     OW 4726   0.028   5.753   4.697
 1276SOL    HW1 4727   0.004   5.829   4.636
 1276SOL    HW2 4728   6.975   5.684   4.694
 1277SOL     OW 4729   1.211   5.641   6.125
 1277SOL    HW1 4730   1.179   5.570   6.062
 1277SOL    HW2 4731   1.172   5.625   6.216
 1278SOL     OW 4732   0.525   0.079   4.757
 1278SOL    HW1 4733   0.549   7.012   4.801
 1278SOL    HW2 4734   0.462   0.130   4.816
 1279SOL     OW 4735   2.082   6.039   0.635
 1279SOL    HW1 4736   2.173   6.059   0.672
 1279SOL    HW2 4737   2.013   6.052   0.707
 1280SOL     OW 4738   3.256   6.424   4.863
 1280SOL    HW1 4739   3.183   6.418   4.794
 1280SOL    HW2 4740   3.217   6.456   4.949
 1281SOL     OW 4741   2.235   6.403   3.459
 1281SOL    HW1 4742   2.328   6.385   3.490
 1281SOL    HW2 4743   2.236   6.477   3.391
 1282SOL     OW 4744   0.296   2.348   0.092
 1282SOL    HW1 4745   0.298   2.278   0.021
 1282SOL    HW2 4746   0.201   2.365   0.118
 1283SOL     OW 4747   0.237   3.237   5.649
 1283SOL    HW1 4748   0.189   3.307   5.597
 1283SOL    HW2 4749   0.174   3.192   5.712
 1284SOL     OW 4750   4.739   2.172   1.149
 1284SOL    HW1 4751   4.781   2.241   1.207
 1284SOL    HW2 4752   4.658   2.210   1.104
 1285SOL     OW 4753   4.569   2.509   6.399
 1285SOL    HW1 4754   4.478   2.493   6.361
 1285SOL    HW2 4755   4.580   2.607   6.417
 1286SOL     OW 4756   4.737   3.652   1.343
 1286SOL    HW1 4757   4.791   3.706   1.408
 1286SOL    HW2 4758   4.648   3.696   1.329
 1287SOL     OW 4759   5.946   5.499   5.600
 1287SOL    HW1 4760   5.985   5.514   5.509
 1287SOL    HW2 4761   5.878   5.426   5.596
 1288SOL     OW 4762   4.304   3.026   6.084
 1288SOL    HW1 4763   4.326   3.105   6.027
 1288SOL    HW2 4764   4.350   3.035   6.173
 1289SOL     OW 4765   0.122   6.756   1.438
 1289SOL    HW1 4766   0.113   6.845   1.394
 1289SOL    HW2 4767   0.214   6.747   1.477
 1290SOL     OW 4768   0.444   5.849   6.186
 1290SOL    HW1 4769   0.504   5.879   6.111
 1290SOL    HW2 4770   0.434   5.923   6.252
 1291SOL     OW 4771   6.888   3.836   5.220
 1291SOL    HW1 4772   6.878   3.856   5.123
 1291SOL    HW2 4773   6.913   3.920   5.269
 1292SOL     OW 4774   0.506   5.879   2.559
 1292SOL    HW1 4775   0.504   5.795   2.506
 1292SOL    HW2 4776   0.594   5.886   2.607
 1293SOL     OW 4777   0.542   1.741   0.119
 1293SOL    HW1 4778   0.599   1.703   0.191
 1293SOL    HW2 4779   0.599   1.766   0.041
 1294SOL     OW 4780   1.209   2.999   6.533
 1294SOL    HW1 4781   1.125   2.953   6.562
 1294SOL    HW2 4782   1.199   3.032   6.440
 1295SOL     OW 4783   6.967   3.514   2.002
 1295SOL    HW1 4784   6.964   3.451   2.079
 1295SOL    HW2 4785   0.042   3.546   1.988
 1296SOL     OW 4786   3.853   6.504   5.631
 1296SOL    HW1 4787   3.784   6.464   5.692
 1296SOL    HW2 4788   3.928   6.541   5.685
 1297SOL     OW 4789   6.873   0.978   1.461
 1297SOL    HW1 4790   6.846   0.971   1.557
 1297SOL    HW2 4791   6.801   1.024   1.409
 1298SOL     OW 4792   5.720   5.583   2.828
 1298SOL    HW1 4793   5.773   5.569   2.744
 1298SOL    HW2 4794   5.630   5.539   2.819
 1299SOL     OW 4795   1.686   3.639   3.264
 1299SOL    HW1 4796   1.697   3.579   3.185
 1299SOL    HW2 4797   1.596   3.623   3.306
 1300SOL     OW 4798   2.652   3.126   1.118
 1300SOL    HW1 4799   2.710   3.090   1.191
 1300SOL    HW2 4800   2.576   3.178   1.158
 1301SOL     OW 4801   0.622   6.877   0.902
 1301SOL    HW1 4802   0.604   6.784   0.935
 1301SOL    HW2 4803   0.681   6.924   0.967
 1302SOL     OW 4804   4.866   0.262   5.940
 1302SOL    HW1 4805   4.856   0.357   5.910
 1302SOL    HW2 4806   4.833   0.201   5.868
 1303SOL     OW 4807   4.234   2.418   1.315
 1303SOL    HW1 4808   4.328   2.447   1.332
 1303SOL    HW2 4809   4.235   2.327   1.275
 1304SOL     OW 4810   2.088   0.969   6.709
 1304SOL    HW1 4811   2.041   0.972   6.621
 1304SOL    HW2 4812   2.142   1.052   6.721
 1305SOL     OW 4813   5.921   3.625   0.442
 1305SOL    HW1 4814   5.981   3.631   0.522
 1305SOL    HW2 4815   5.943   3.541   0.391
 1306SOL     OW 4816   0.857   4.800   3.765
 1306SOL    HW1 4817   0.933   4.770   3.708
 1306SOL    HW2 4818   0.880   4.887   3.808
 1307SOL     OW 4819   1.076   4.593   3.641
 1307SOL    HW1 4820   1.139   4.577   3.717
 1307SOL    HW2 4821   1.087   4.521   3.572
 1308SOL     OW 4822   6.003   6.612   5.303
 1308SOL    HW1 4823   6.000   6.690   5.365
 1308SOL    HW2 4824   5.934   6.624   5.231
 1309SOL     OW 4825   5.567   3.921   5.623
 1309SOL    HW1 4826   5.510   3.881   5.551
 1309SOL    HW2 4827   5.615   3.848   5.672
 1310SOL     OW 4828   6.652   3.879   4.118
 1310SOL    HW1 4829   6.711   3.883   4.199
 1310SOL    HW2 4830   6.697   3.826   4.046
 1311SOL     OW 4831   0.468   6.148   4.928
 1311SOL    HW1 4832   0.397   6.209   4.962
 1311SOL    HW2 4833   0.548   6.202   4.900
 1312SOL     OW 4834   1.223   6.694   6.822
 1312SOL    HW1 4835   1.309   6.687   6.873
 1312SOL    HW2 4836   1.241   6.729   6.730
 1313SOL     OW 4837   0.477   4.366   2.954
 1313SOL    HW1 4838   0.440   4.436   3.015
 1313SOL    HW2 4839   0.527   4.298   3.009
 1314SOL     OW 4840   4.067   1.481   5.434
 1314SOL    HW1 4841   3.990   1.519   5.484
 1314SOL    HW2 4842   4.048   1.385   5.411
 1315SOL     OW 4843   0.667   1.616   2.122
 1315SOL    HW1 4844   0.760   1.647   2.143
 1315SOL    HW2 4845   0.623   1.585   2.206
 1316SOL     OW 4846   1.921   5.778   5.080
 1316SOL    HW1 4847   1.895   5.692   5.125
 1316SOL    HW2 4848   2.000   5.817   5.128
 1317SOL     OW 4849   2.796   4.694   6.302
 1317SOL    HW1 4850   2.818   4.616   6.243
 1317SOL    HW2 4851   2.715   4.674   6.356
 1318SOL     OW 4852   0.630   1.760   1.274
 1318SOL    HW1 4853   0.710   1.801   1.229
 1318SOL    HW2 4854   0.659   1.684   1.332
 1319SOL     OW 4855   6.988   6.568   0.252
 1319SOL    HW1 4856   0.014   6.579   0.163
 1319SOL    HW2 4857   7.011   6.645   0.311
 1320SOL     OW 4858   4.575   4.355   0.656
 1320SOL    HW1 4859   4.511   4.424   0.621
 1320SOL    HW2 4860   4.526   4.269   0.670
 1321SOL     OW 4861   5.503   1.476   6.514
 1321SOL    HW1 4862   5.505   1.507   6.419
 1321SOL    HW2 4863   5.416   1.431   6.533
 1322SOL     OW 4864   4.206   0.753   3.034
 1322SOL    HW1 4865   4.250   0.791   3.116
 1322SOL    HW2 4866   4.131   0.813   3.006
 1323SOL     OW 4867   4.303   0.533   5.896
 1323SOL    HW1 4868   4.371   0.605   5.894
 1323SOL    HW2 4869   4.271   0.514   5.803
 1324SOL     OW 4870   0.918   3.733   0.409
 1324SOL    HW1 4871   0.904   3.812   0.468
 1324SOL    HW2 4872   0.905   3.760   0.313
 1325SOL     OW 4873   2.430   7.014   3.048
 1325SOL    HW1 4874   2.525   0.027   3.047
 1325SOL    HW2 4875   2.413   6.965   3.133
 1326SOL     OW 4876   4.966   3.453   4.897
 1326SOL    HW1 4877   5.040   3.502   4.850
 1326SOL    HW2 4878   4.911   3.518   4.949
 1327SOL     OW 4879   0.645   5.978   1.808
 1327SOL    HW1 4880   0.596   6.001   1.724
 1327SOL    HW2 4881   0.741   6.001   1.799
 1328SOL     OW 4882   1.767   3.249   0.498
 1328SOL    HW1 4883   1.704   3.237   0.575
 1328SOL    HW2 4884   1.739   3.189   0.423
 1329SOL     OW 4885   0.197   2.226   1.570
 1329SOL    HW1 4886   0.189   2.202   1.667
 1329SOL    HW2 4887   0.273   2.175   1.530
 1330SOL     OW 4888   0.554   1.369   1.643
 1330SOL    HW1 4889   0.535   1.272   1.624
 1330SOL    HW2 4890   0.589   1.378   1.736
 1331SOL     OW 4891   4.865   2.991   3.201
 1331SOL    HW1 4892   4.853   3.054   3.124
 1331SOL    HW2 4893   4.799   2.916   3.193
 1332SOL     OW 4894   2.739   6.903   6.680
 1332SOL    HW1 4895   2.807   6.916   6.753
 1332SOL    HW2 4896   2.686   6.987   6.670
 1333SOL     OW 4897   3.344   3.811   4.309
 1333SOL    HW1 4898   3.258   3.854   4.281
 1333SOL    HW2 4899   3.328   3.754   4.389
 1334SOL     OW 4900   5.979   1.805   4.343
 1334SOL    HW1 4901   5.974   1.806   4.443
 1334SOL    HW2 4902   6.037   1.881   4.313
 1335SOL     OW 4903   2.444   2.056   3.012
 1335SOL    HW1 4904   2.506   2.123   3.051
 1335SOL    HW2 4905   2.363   2.103   2.975
 1336SOL     OW 4906   1.589   2.809   5.009
 1336SOL    HW1 4907   1.529   2.732   5.027
 1336SOL    HW2 4908   1.678   2.776   4.978
 1337SOL     OW 4909   1.583   2.213   4.379
 1337SOL    HW1 4910   1.549   2.307   4.386
 1337SOL    HW2 4911   1.580   2.170   4.469
 1338SOL     OW 4912   5.249   2.109   5.214
 1338SOL    HW1 4913   5.188   2.030   5.209
 1338SOL    HW2 4914   5.232   2.170   5.137
 1339SOL     OW 4915   0.027   1.875   6.396
 1339SOL    HW1 4916   0.111   1.885   6.449
 1339SOL    HW2 4917   6.986   1.808   6.439
 1340SOL     OW 4918   6.856   1.980   2.353
 1340SOL    HW1 4919   6.801   2.008   2.275
 1340SOL    HW2 4920   6.828   2.032   2.434
 1341SOL     OW 4921   5.353   6.718   6.035
 1341SOL    HW1 4922   5.279   6.785   6.040
 1341SOL    HW2 4923   5.441   6.765   6.046
 1342SOL     OW 4924   2.476   5.487   5.590
 1342SOL    HW1 4925   2.475   5.551   5.513
 1342SOL    HW2 4926   2.546   5.417   5.574
 1343SOL     OW 4927   4.713   5.767   2.715
 1343SOL    HW1 4928   4.813   5.765   2.722
 1343SOL    HW2 4929   4.676   5.834   2.780
 1344SOL     OW 4930   6.435   5.716   4.619
 1344SOL    HW1 4931   6.348   5.720   4.668
 1344SOL    HW2 4932   6.483   5.803   4.630
 1345SOL     OW 4933   1.712   0.493   2.720
 1345SOL    HW1 4934   1.794   0.494   2.663
 1345SOL    HW2 4935   1.633   0.466   2.666
 1346SOL     OW 4936   0.833   5.958   5.049
 1346SOL    HW1 4937   0.745   5.960   5.002
 1346SOL    HW2 4938   0.833   6.024   5.124
 1347SOL     OW 4939   6.798   6.581   4.961
 1347SOL    HW1 4940   6.833   6.609   4.872
 1347SOL    HW2 4941   6.870   6.591   5.030
 1348SOL     OW 4942   5.577   5.618   2.496
 1348SOL    HW1 4943   5.514   5.609   2.574
 1348SOL    HW2 4944   5.525   5.639   2.413
 1349SOL     OW 4945   4.768   2.498   5.887
 1349SOL    HW1 4946   4.823   2.566   5.838
 1349SOL    HW2 4947   4.680   2.487   5.841
 1350SOL     OW 4948   5.331   5.064   5.250
 1350SOL    HW1 4949   5.302   4.999   5.180
 1350SOL    HW2 4950   5.300   5.156   5.224
 1351SOL     OW 4951   5.999   1.683   3.429
 1351SOL    HW1 4952   6.038   1.683   3.521
 1351SOL    HW2 4953   6.025   1.767   3.382
 1352SOL     OW 4954   6.851   6.298   2.078
 1352SOL    HW1 4955   6.901   6.340   2.154
 1352SOL    HW2 4956   6.907   6.303   1.995
 1353SOL     OW 4957   0.637   3.238   0.411
 1353SOL    HW1 4958   0.693   3.189   0.344
 1353SOL    HW2 4959   0.687   3.317   0.446
 1354SOL     OW 4960   0.856   3.696   1.411
 1354SOL    HW1 4961   0.881   3.601   1.432
 1354SOL    HW2 4962   0.771   3.719   1.459
 1355SOL     OW 4963   6.963   2.869   4.727
 1355SOL    HW1 4964   6.982   2.964   4.701
 1355SOL    HW2 4965   7.018   2.808   4.669
 1356SOL     OW 4966   3.221   2.934   2.911
 1356SOL    HW1 4967   3.150   2.913   2.979
 1356SOL    HW2 4968   3.179   2.948   2.822
 1357SOL     OW 4969   1.229   3.134   5.817
 1357SOL    HW1 4970   1.143   3.147   5.769
 1357SOL    HW2 4971   1.299   3.192   5.775
 1358SOL     OW 4972   3.928   0.135   5.787
 1358SOL    HW1 4973   3.991   0.057   5.786
 1358SOL    HW2 4974   3.981   0.219   5.801
 1359SOL     OW 4975   5.572   4.700   2.014
 1359SOL    HW1 4976   5.614   4.663   1.931
 1359SOL    HW2 4977   5.480   4.733   1.993
 1360SOL     OW 4978   3.339   2.783   0.223
 1360SOL    HW1 4979   3.246   2.751   0.241
 1360SOL    HW2 4980   3.390   2.787   0.310
 1361SOL     OW 4981   0.207   5.468   5.051
 1361SOL    HW1 4982   0.221   5.555   5.098
 1361SOL    HW2 4983   0.122   5.471   4.999
 1362SOL     OW 4984   3.374   4.070   4.249
 1362SOL    HW1 4985   3.277   4.095   4.244
 1362SOL    HW2 4986   3.383   3.982   4.297
 1363SOL     OW 4987   0.022   5.637   3.016
 1363SOL    HW1 4988   0.115   5.624   2.980
 1363SOL    HW2 4989   0.019   5.608   3.112
 1364SOL     OW 4990   6.422   2.936   1.439
 1364SOL    HW1 4991   6.438   3.023   1.391
 1364SOL    HW2 4992   6.507   2.906   1.482
 1365SOL     OW 4993   1.246   3.252   6.634
 1365SOL    HW1 4994   1.229   3.162   6.594
 1365SOL    HW2 4995   1.312   3.243   6.709
 1366SOL     OW 4996   1.031   4.702   0.267
 1366SOL    HW1 4997   1.068   4.791   0.241
 1366SOL    HW2 4998   1.078   4.630   0.216
 1367SOL     OW 4999   2.237   0.001   2.866
 1367SOL    HW1 5000   2.318   0.008   2.924
 1367SOL    HW2 5001   2.169   6.962   2.911
 1368SOL     OW 5002   6.394   0.312   3.579
 1368SOL    HW1 5003   6.331   0.236   3.562
 1368SOL    HW2 5004   6.411   0.361   3.493
 1369SOL     OW 5005   2.429   0.158   1.814
 1369SOL    HW1 5006   2.517   0.143   1.769
 1369SOL    HW2 5007   2.379   0.231   1.767
 1370SOL     OW 5008   4.381   1.628   0.973
 1370SOL    HW1 5009   4.322   1.698   1.015
 1370SOL    HW2 5010   4.477   1.653   0.987
 1371SOL     OW 5011   6.061   1.517   4.323
 1371SOL    HW1 5012   6.109   1.501   4.236
 1371SOL    HW2 5013   6.033   1.613   4.328
 1372SOL     OW 5014   1.245   3.431   0.695
 1372SOL    HW1 5015   1.272   3.427   0.599
 1372SOL    HW2 5016   1.195   3.516   0.713
 1373SOL     OW 5017   4.583   2.638   6.721
 1373SOL    HW1 5018   4.532   2.558   6.690
 1373SOL    HW2 5019   4.681   2.620   6.712
 1374SOL     OW 5020   4.936   2.218   0.375
 1374SOL    HW1 5021   4.892   2.299   0.336
 1374SOL    HW2 5022   4.933   2.143   0.309
 1375SOL     OW 5023   0.649   4.230   6.553
 1375SOL    HW1 5024   0.634   4.138   6.587
 1375SOL    HW2 5025   0.651   4.294   6.631
 1376SOL     OW 5026   4.224   4.795   4.895
 1376SOL    HW1 5027   4.124   4.800   4.901
 1376SOL    HW2 5028   4.253   4.701   4.910
 1377SOL     OW 5029   0.780   3.898   5.455
 1377SOL    HW1 5030   0.686   3.867   5.464
 1377SOL    HW2 5031   0.807   3.894   5.359
 1378SOL     OW 5032   6.031   0.697   4.915
 1378SOL    HW1 5033   6.095   0.772   4.936
 1378SOL    HW2 5034   6.054   0.658   4.826
 1379SOL     OW 5035   3.929   0.023   3.032
 1379SOL    HW1 5036   3.916   6.946   3.055
 1379SOL    HW2 5037   3.933   0.034   2.933
 1380SOL     OW 5038   0.105   6.589   2.230
 1380SOL    HW1 5039   0.096   6.616   2.326
 1380SOL    HW2 5040   0.201   6.584   2.205
 1381SOL     OW 5041   6.021   2.193   7.010
 1381SOL    HW1 5042   5.931   2.153   6.993
 1381SOL    HW2 5043   6.058   2.228   6.924
 1382SOL     OW 5044   4.757   3.584   0.345
 1382SOL    HW1 5045   4.765   3.637   0.261
 1382SOL    HW2 5046   4.823   3.509   0.343
 1383SOL     OW 5047   1.241   0.269   1.808
 1383SOL    HW1 5048   1.148   0.280   1.773
 1383SOL    HW2 5049   1.281   0.359   1.825
 1384SOL     OW 5050   4.584   6.987   1.487
 1384SOL    HW1 5051   4.545   6.896   1.474
 1384SOL    HW2 5052   4.540   0.032   1.424
 1385SOL     OW 5053   1.627   3.786   3.914
 1385SOL    HW1 5054   1.663   3.779   3.821
 1385SOL    HW2 5055   1.689   3.741   3.978
 1386SOL     OW 5056   3.144   0.650   4.334
 1386SOL    HW1 5057   3.170   0.653   4.430
 1386SOL    HW2 5058   3.168   0.737   4.290
 1387SOL     OW 5059   3.607   5.858   2.658
 1387SOL    HW1 5060   3.616   5.760   2.675
 1387SOL    HW2 5061   3.605   5.875   2.560
 1388SOL     OW 5062   0.592   6.891   3.069
 1388SOL    HW1 5063   0.622   6.799   3.044
 1388SOL    HW2 5064   0.584   6.947   2.987
 1389SOL     OW 5065   0.214   0.932   3.378
 1389SOL    HW1 5066   0.179   1.007   3.434
 1389SOL    HW2 5067   0.145   0.906   3.310
 1390SOL     OW 5068   5.857   2.904   6.061
 1390SOL    HW1 5069   5.811   2.985   6.024
 1390SOL    HW2 5070   5.929   2.875   5.999
 1391SOL     OW 5071   6.134   6.981   5.132
 1391SOL    HW1 5072   6.040   6.977   5.165
 1391SOL    HW2 5073   6.135   6.975   5.032
 1392SOL     OW 5074   5.614   6.725   6.720
 1392SOL    HW1 5075   5.566   6.802   6.761
 1392SOL    HW2 5076   5.549   6.666   6.672
 1393SOL     OW 5077   6.159   3.818   5.940
 1393SOL    HW1 5078   6.094   3.829   6.015
 1393SOL    HW2 5079   6.184   3.908   5.905
 1394SOL     OW 5080   3.949   5.832   4.369
 1394SOL    HW1 5081   3.902   5.846   4.281
 1394SOL    HW2 5082   3.986   5.740   4.372
 1395SOL     OW 5083   1.447   4.390   4.069
 1395SOL    HW1 5084   1.391   4.310   4.092
 1395SOL    HW2 5085   1.399   4.473   4.097
 1396SOL     OW 5086   0.930   0.145   4.014
 1396SOL    HW1 5087   0.929   0.105   3.923
 1396SOL    HW2 5088   0.838   0.179   4.037
 1397SOL     OW 5089   0.627   5.945   4.860
 1397SOL    HW1 5090   0.570   6.018   4.897
 1397SOL    HW2 5091   0.569   5.870   4.827
 1398SOL     OW 5092   1.865   2.027   6.787
 1398SOL    HW1 5093   1.864   2.075   6.874
 1398SOL    HW2 5094   1.774   2.033   6.745
 1399SOL     OW 5095   3.653   6.851   0.040
 1399SOL    HW1 5096   3.602   6.892   0.116
 1399SOL    HW2 5097   3.589   6.826   6.986
 1400SOL     OW 5098   0.051   2.251   4.393
 1400SOL    HW1 5099   0.089   2.228   4.303
 1400SOL    HW2 5100   0.119   2.234   4.464
 1401SOL     OW 5101   6.234   6.806   4.239
 1401SOL    HW1 5102   6.294   6.727   4.256
 1401SOL    HW2 5103   6.229   6.823   4.141
 1402SOL     OW 5104   5.754   4.347   6.483
 1402SOL    HW1 5105   5.803   4.272   6.528
 1402SOL    HW2 5106   5.669   4.366   6.532
 1403SOL     OW 5107   1.954   1.947   1.672
 1403SOL    HW1 5108   1.859   1.943   1.640
 1403SOL    HW2 5109   1.970   2.035   1.718
 1404SOL     OW 5110   6.622   6.968   0.066
 1404SOL    HW1 5111   6.602   0.044   0.043
 1404SOL    HW2 5112   6.650   6.962   0.162
 1405SOL     OW 5113   2.522   4.257   0.850
 1405SOL    HW1 5114   2.619   4.234   0.842
 1405SOL    HW2 5115   2.467   4.180   0.816
 1406SOL     OW 5116   1.959   5.491   1.336
 1406SOL    HW1 5117   2.020   5.423   1.295
 1406SOL    HW2 5118   1.881   5.506   1.276
 1407SOL     OW 5119   1.743   4.331   3.654
 1407SOL    HW1 5120   1.695   4.320   3.741
 1407SOL    HW2 5121   1.732   4.248   3.600
 1408SOL     OW 5122   5.566   7.014   6.520
 1408SOL    HW1 5123   5.652   7.012   6.469
 1408SOL    HW2 5124   5.584   0.025   6.614
 1409SOL     OW 5125   6.982   0.423   5.348
 1409SOL    HW1 5126   0.029   0.438   5.275
 1409SOL    HW2 5127   0.009   0.425   5.436
 1410SOL     OW 5128   2.930   3.897   0.356
 1410SOL    HW1 5129   2.917   3.824   0.289
 1410SOL    HW2 5130   2.925   3.986   0.310
 1411SOL     OW 5131   3.625   5.711   6.801
 1411SOL    HW1 5132   3.570   5.637   6.763
 1411SOL    HW2 5133   3.707   5.674   6.845
 1412SOL     OW 5134   0.889   3.920   1.226
 1412SOL    HW1 5135   0.975   3.972   1.228
 1412SOL    HW2 5136   0.893   3.847   1.294
 1413SOL     OW 5137   2.029   1.141   4.689
 1413SOL    HW1 5138   1.929   1.139   4.690
 1413SOL    HW2 5139   2.060   1.234   4.666
 1414SOL     OW 5140   2.568   2.071   1.982
 1414SOL    HW1 5141   2.550   2.166   2.008
 1414SOL    HW2 5142   2.665   2.052   1.995
 1415SOL     OW 5143   3.154   1.221   4.239
 1415SOL    HW1 5144   3.128   1.263   4.152
 1415SOL    HW2 5145   3.093   1.253   4.311
 1416SOL     OW 5146   3.705   0.140   4.940
 1416SOL    HW1 5147   3.727   0.066   4.876
 1416SOL    HW2 5148   3.700   0.227   4.890
 1417SOL     OW 5149   2.984   2.972   6.692
 1417SOL    HW1 5150   3.019   2.914   6.618
 1417SOL    HW2 5151   2.884   2.970   6.692
 1418SOL     OW 5152   3.125   3.903   0.570
 1418SOL    HW1 5153   3.037   3.930   0.530
 1418SOL    HW2 5154   3.157   3.974   0.632
 1419SOL     OW 5155   2.839   5.806   3.881
 1419SOL    HW1 5156   2.756   5.855   3.906
 1419SOL    HW2 5157   2.918   5.867   3.890
 1420SOL     OW 5158   3.559   5.979   3.335
 1420SOL    HW1 5159   3.556   6.033   3.419
 1420SOL    HW2 5160   3.520   5.889   3.353
 1421SOL     OW 5161   0.719   4.343   3.666
 1421SOL    HW1 5162   0.776   4.374   3.742
 1421SOL    HW2 5163   0.768   4.352   3.580
 1422SOL     OW 5164   3.396   4.808   6.893
 1422SOL    HW1 5165   3.471   4.833   6.954
 1422SOL    HW2 5166   3.418   4.723   6.846
 1423SOL     OW 5167   3.461   0.794   4.635
 1423SOL    HW1 5168   3.469   0.892   4.614
 1423SOL    HW2 5169   3.517   0.742   4.570
 1424SOL     OW 5170   6.666   3.489   6.533
 1424SOL    HW1 5171   6.592   3.425   6.512
 1424SOL    HW2 5172   6.643   3.540   6.617
 1425SOL     OW 5173   2.269   5.467   5.169
 1425SOL    HW1 5174   2.337   5.395   5.184
 1425SOL    HW2 5175   2.186   5.447   5.221
 1426SOL     OW 5176   2.127   2.183   5.392
 1426SOL    HW1 5177   2.056   2.142   5.449
 1426SOL    HW2 5178   2.093   2.194   5.299
 1427SOL     OW 5179   6.841   6.853   4.153
 1427SOL    HW1 5180   6.900   6.800   4.092
 1427SOL    HW2 5181   6.898   6.898   4.223
 1428SOL     OW 5182   0.405   1.826   1.653
 1428SOL    HW1 5183   0.367   1.872   1.733
 1428SOL    HW2 5184   0.330   1.788   1.599
 1429SOL     OW 5185   6.419   1.518   0.403
 1429SOL    HW1 5186   6.442   1.514   0.500
 1429SOL    HW2 5187   6.365   1.601   0.385
 1430SOL     OW 5188   1.913   4.782   3.798
 1430SOL    HW1 5189   1.993   4.816   3.748
 1430SOL    HW2 5190   1.899   4.837   3.880
 1431SOL     OW 5191   2.583   2.587   6.175
 1431SOL    HW1 5192   2.590   2.624   6.083
 1431SOL    HW2 5193   2.652   2.630   6.234
 1432SOL     OW 5194   2.707   0.655   1.232
 1432SOL    HW1 5195   2.741   0.748   1.232
 1432SOL    HW2 5196   2.607   0.656   1.228
 1433SOL     OW 5197   4.437   0.289   4.659
 1433SOL    HW1 5198   4.447   0.190   4.675
 1433SOL    HW2 5199   4.341   0.310   4.645
 1434SOL     OW 5200   0.167   0.475   5.831
 1434SOL    HW1 5201   0.079   0.501   5.791
 1434SOL    HW2 5202   0.159   0.385   5.874
 1435SOL     OW 5203   6.861   0.093   3.366
 1435SOL    HW1 5204   6.776   0.072   3.415
 1435SOL    HW2 5205   6.852   0.066   3.270
 1436SOL     OW 5206   5.634   3.743   6.794
 1436SOL    HW1 5207   5.674   3.755   6.885
 1436SOL    HW2 5208   5.705   3.716   6.729
 1437SOL     OW 5209   2.740   0.863   6.046
 1437SOL    HW1 5210   2.704   0.949   6.082
 1437SOL    HW2 5211   2.780   0.879   5.956
 1438SOL     OW 5212   2.632   0.107   1.647
 1438SOL    HW1 5213   2.621   0.017   1.604
 1438SOL    HW2 5214   2.600   0.178   1.584
 1439SOL     OW 5215   0.744   5.392   0.946
 1439SOL    HW1 5216   0.708   5.480   0.917
 1439SOL    HW2 5217   0.717   5.321   0.881
 1440SOL     OW 5218   3.162   3.507   5.473
 1440SOL    HW1 5219   3.211   3.576   5.419
 1440SOL    HW2 5220   3.141   3.545   5.563
 1441SOL     OW 5221   6.322   3.839   4.787
 1441SOL    HW1 5222   6.405   3.842   4.731
 1441SOL    HW2 5223   6.251   3.893   4.743
 1442SOL     OW 5224   6.573   4.940   6.838
 1442SOL    HW1 5225   6.669   4.928   6.863
 1442SOL    HW2 5226   6.547   5.036   6.850
 1443SOL     OW 5227   0.998   2.437   5.211
 1443SOL    HW1 5228   0.932   2.503   5.247
 1443SOL    HW2 5229   1.008   2.362   5.276
 1444SOL     OW 5230   4.217   5.602   1.651
 1444SOL    HW1 5231   4.227   5.676   1.585
 1444SOL    HW2 5232   4.231   5.638   1.744
 1445SOL     OW 5233   0.148   2.594   2.425
 1445SOL    HW1 5234   0.139   2.569   2.329
 1445SOL    HW2 5235   0.082   2.541   2.479
 1446SOL     OW 5236   5.262   1.981   6.679
 1446SOL    HW1 5237   5.235   2.076   6.673
 1446SOL    HW2 5238   5.254   1.950   6.774
 1447SOL     OW 5239   6.287   6.880   5.914
 1447SOL    HW1 5240   6.379   6.842   5.919
 1447SOL    HW2 5241   6.286   6.956   5.848
 1448SOL     OW 5242   6.578   2.461   6.904
 1448SOL    HW1 5243   6.578   2.361   6.915
 1448SOL    HW2 5244   6.607   2.484   6.811
 1449SOL     OW 5245   6.108   1.049   0.053
 1449SOL    HW1 5246   6.093   1.144   0.027
 1449SOL    HW2 5247   6.041   1.023   0.123
 1450SOL     OW 5248   0.752   2.260   2.404
 1450SOL    HW1 5249   0.833   2.267   2.345
 1450SOL    HW2 5250   0.715   2.351   2.421
 1451SOL     OW 5251   3.077   0.948   2.563
 1451SOL    HW1 5252   3.038   0.923   2.652
 1451SOL    HW2 5253   3.167   0.906   2.553
 1452SOL     OW 5254   3.981   1.147   4.063
 1452SOL    HW1 5255   4.045   1.185   3.996
 1452SOL    HW2 5256   3.993   1.048   4.067
 1453SOL     OW 5257   0.549   3.769   5.448
 1453SOL    HW1 5258   0.485   3.845   5.453
 1453SOL    HW2 5259   0.501   3.688   5.413
 1454SOL     OW 5260   6.164   2.454   3.047
 1454SOL    HW1 5261   6.242   2.429   2.991
 1454SOL    HW2 5262   6.083   2.465   2.989
 1455SOL     OW 5263   1.733   0.385   1.506
 1455SOL    HW1 5264   1.770   0.402   1.598
 1455SOL    HW2 5265   1.660   0.451   1.488
 1456SOL     OW 5266   6.337   0.190   5.249
 1456SOL    HW1 5267   6.323   0.135   5.167
 1456SOL    HW2 5268   6.304   0.141   5.329
 1457SOL     OW 5269   1.336   0.071   0.828
 1457SOL    HW1 5270   1.303   0.045   0.918
 1457SOL    HW2 5271   1.297   0.010   0.759
 1458SOL     OW 5272   6.069   6.368   3.342
 1458SOL    HW1 5273   6.142   6.398   3.280
 1458SOL    HW2 5274   6.105   6.358   3.434
 1459SOL     OW 5275   2.504   5.034   5.299
 1459SOL    HW1 5276   2.466   4.951   5.341
 1459SOL    HW2 5277   2.599   5.046   5.329
 1460SOL     OW 5278   0.330   4.971   5.799
 1460SOL    HW1 5279   0.365   5.060   5.770
 1460SOL    HW2 5280   0.251   4.946   5.743
 1461SOL     OW 5281   0.776   5.004   3.423
 1461SOL    HW1 5282   0.760   5.010   3.325
 1461SOL    HW2 5283   0.870   4.973   3.439
 1462SOL     OW 5284   0.906   0.899   5.603
 1462SOL    HW1 5285   0.853   0.858   5.677
 1462SOL    HW2 5286   0.864   0.985   5.575
 1463SOL     OW 5287   0.355   5.347   6.797
 1463SOL    HW1 5288   0.421   5.272   6.791
 1463SOL    HW2 5289   0.303   5.353   6.712
 1464SOL     OW 5290   6.399   6.540   0.757
 1464SOL    HW1 5291   6.408   6.637   0.732
 1464SOL    HW2 5292   6.310   6.525   0.799
 1465SOL     OW 5293   1.757   1.816   3.899
 1465SOL    HW1 5294   1.721   1.726   3.873
 1465SOL    HW2 5295   1.726   1.838   3.992
 1466SOL     OW 5296   1.188   0.834   2.507
 1466SOL    HW1 5297   1.208   0.890   2.426
 1466SOL    HW2 5298   1.262   0.767   2.520
 1467SOL     OW 5299   2.139   1.706   2.356
 1467SOL    HW1 5300   2.195   1.670   2.430
 1467SOL    HW2 5301   2.110   1.799   2.378
 1468SOL     OW 5302   5.420   5.184   2.882
 1468SOL    HW1 5303   5.354   5.205   2.811
 1468SOL    HW2 5304   5.512   5.179   2.842
 1469SOL     OW 5305   1.293   1.230   1.956
 1469SOL    HW1 5306   1.219   1.221   1.890
 1469SOL    HW2 5307   1.254   1.240   2.048
 1470SOL     OW 5308   1.887   1.017   2.966
 1470SOL    HW1 5309   1.866   0.946   2.898
 1470SOL    HW2 5310   1.916   1.100   2.918
 1471SOL     OW 5311   0.890   0.654   0.995
 1471SOL    HW1 5312   0.914   0.731   0.935
 1471SOL    HW2 5313   0.829   0.592   0.946
 1472SOL     OW 5314   3.833   5.612   5.027
 1472SOL    HW1 5315   3.754   5.578   4.975
 1472SOL    HW2 5316   3.802   5.676   5.097
 1473SOL     OW 5317   5.919   5.847   3.618
 1473SOL    HW1 5318   5.943   5.837   3.522
 1473SOL    HW2 5319   5.910   5.944   3.640
 1474SOL     OW 5320   6.092   5.962   3.087
 1474SOL    HW1 5321   6.191   5.961   3.074
 1474SOL    HW2 5322   6.048   5.984   3.000
 1475SOL     OW 5323   6.931   0.447   1.809
 1475SOL    HW1 5324   6.866   0.374   1.831
 1475SOL    HW2 5325   6.977   0.425   1.723
 1476SOL     OW 5326   2.004   1.715   1.486
 1476SOL    HW1 5327   2.094   1.741   1.453
 1476SOL    HW2 5328   1.972   1.782   1.553
 1477SOL     OW 5329   3.093   0.649   6.764
 1477SOL    HW1 5330   3.033   0.645   6.844
 1477SOL    HW2 5331   3.037   0.645   6.681
 1478SOL     OW 5332   5.402   4.585   0.327
 1478SOL    HW1 5333   5.418   4.537   0.240
 1478SOL    HW2 5334   5.339   4.661   0.311
 1479SOL     OW 5335   1.472   3.579   0.011
 1479SOL    HW1 5336   1.463   3.619   0.102
 1479SOL    HW2 5337   1.419   3.495   0.006
 1480SOL     OW 5338   2.835   0.392   5.991
 1480SOL    HW1 5339   2.807   0.353   5.903
 1480SOL    HW2 5340   2.885   0.323   6.043
 1481SOL     OW 5341   0.196   2.315   5.194
 1481SOL    HW1 5342   0.182   2.222   5.159
 1481SOL    HW2 5343   0.248   2.311   5.280
 1482SOL     OW 5344   4.988   2.579   0.844
 1482SOL    HW1 5345   5.001   2.518   0.766
 1482SOL    HW2 5346   4.990   2.674   0.812
 1483SOL     OW 5347   6.280   2.155   6.530
 1483SOL    HW1 5348   6.340   2.084   6.565
 1483SOL    HW2 5349   6.287   2.159   6.430
 1484SOL     OW 5350   5.871   4.874   3.864
 1484SOL    HW1 5351   5.898   4.779   3.876
 1484SOL    HW2 5352   5.841   4.889   3.770
 1485SOL     OW 5353   4.165   1.942   2.950
 1485SOL    HW1 5354   4.253   1.980   2.922
 1485SOL    HW2 5355   4.169   1.842   2.945
 1486SOL     OW 5356   5.393   2.100   2.922
 1486SOL    HW1 5357   5.394   2.184   2.976
 1486SOL    HW2 5358   5.309   2.098   2.867
 1487SOL     OW 5359   6.900   2.406   6.669
 1487SOL    HW1 5360   6.819   2.353   6.643
 1487SOL    HW2 5361   6.920   2.390   6.765
 1488SOL     OW 5362   5.567   1.814   3.322
 1488SOL    HW1 5363   5.503   1.828   3.247
 1488SOL    HW2 5364   5.520   1.826   3.409
 1489SOL     OW 5365   4.235   5.001   3.966
 1489SOL    HW1 5366   4.214   5.002   4.064
 1489SOL    HW2 5367   4.151   4.986   3.914
 1490SOL     OW 5368   1.533   3.152   1.149
 1490SOL    HW1 5369   1.465   3.213   1.107
 1490SOL    HW2 5370   1.565   3.087   1.080
 1491SOL     OW 5371   6.042   4.002   4.192
 1491SOL    HW1 5372   6.063   3.915   4.148
 1491SOL    HW2 5373   6.120   4.064   4.184
 1492SOL     OW 5374   5.658   1.484   2.840
 1492SOL    HW1 5375   5.629   1.580   2.845
 1492SOL    HW2 5376   5.622   1.435   2.919
 1493SOL     OW 5377   4.862   6.593   3.768
 1493SOL    HW1 5378   4.810   6.605   3.683
 1493SOL    HW2 5379   4.896   6.499   3.773
 1494SOL     OW 5380   5.616   1.831   5.878
 1494SOL    HW1 5381   5.597   1.916   5.929
 1494SOL    HW2 5382   5.536   1.808   5.822
 1495SOL     OW 5383   6.657   2.897   4.697
 1495SOL    HW1 5384   6.751   2.922   4.674
 1495SOL    HW2 5385   6.657   2.842   4.781
 1496SOL     OW 5386   0.768   1.614   2.617
 1496SOL    HW1 5387   0.825   1.583   2.541
 1496SOL    HW2 5388   0.752   1.539   2.680
 1497SOL     OW 5389   6.930   2.907   3.845
 1497SOL    HW1 5390   6.925   2.826   3.787
 1497SOL    HW2 5391   6.927   2.989   3.788
 1498SOL     OW 5392   1.989   4.683   6.455
 1498SOL    HW1 5393   1.918   4.723   6.397
 1498SOL    HW2 5394   2.056   4.635   6.398
 1499SOL     OW 5395   1.412   4.149   6.230
 1499SOL    HW1 5396   1.336   4.193   6.183
 1499SOL    HW2 5397   1.377   4.088   6.301
 1500SOL     OW 5398   6.690   6.514   6.784
 1500SOL    HW1 5399   6.789   6.526   6.790
 1500SOL    HW2 5400   6.650   6.589   6.731
 1501SOL     OW 5401   4.818   1.764   6.390
 1501SOL    HW1 5402   4.856   1.685   6.438
 1501SOL    HW2 5403   4.758   1.815   6.452
 1502SOL     OW 5404   6.254   0.126   1.183
 1502SOL    HW1 5405   6.207   0.165   1.262
 1502SOL    HW2 5406   6.200   0.143   1.101
 1503SOL     OW 5407   2.465   1.338   2.524
 1503SOL    HW1 5408   2.415   1.369   2.443
 1503SOL    HW2 5409   2.563   1.349   2.509
 1504SOL     OW 5410   0.713   0.834   4.619
 1504SOL    HW1 5411   0.637   0.786   4.575
 1504SOL    HW2 5412   0.786   0.850   4.553
 1505SOL     OW 5413   6.019   0.232   6.053
 1505SOL    HW1 5414   6.023   0.330   6.035
 1505SOL    HW2 5415   6.078   0.210   6.130
 1506SOL     OW 5416   1.871   5.096   1.325
 1506SOL    HW1 5417   1.801   5.025   1.321
 1506SOL    HW2 5418   1.876   5.143   1.237
 1507SOL     OW 5419   0.634   2.171   5.458
 1507SOL    HW1 5420   0.561   2.103   5.459
 1507SOL    HW2 5421   0.632   2.222   5.372
 1508SOL     OW 5422   0.058   0.572   1.999
 1508SOL    HW1 5423   7.003   0.594   2.062
 1508SOL    HW2 5424   0.020   0.530   1.917
 1509SOL     OW 5425   4.744   2.335   6.093
 1509SOL    HW1 5426   4.748   2.408   6.025
 1509SOL    HW2 5427   4.788   2.365   6.178
 1510SOL     OW 5428   5.958   2.837   4.716
 1510SOL    HW1 5429   5.995   2.777   4.787
 1510SOL    HW2 5430   5.859   2.844   4.726
 1511SOL     OW 5431   3.092   2.569   1.405
 1511SOL    HW1 5432   3.166   2.615   1.456
 1511SOL    HW2 5433   3.078   2.616   1.318
 1512SOL     OW 5434   0.212   6.083   1.830
 1512SOL    HW1 5435   0.169   6.014   1.772
 1512SOL    HW2 5436   0.277   6.038   1.892
 1513SOL     OW 5437   3.586   0.318   4.242
 1513SOL    HW1 5438   3.493   0.354   4.251
 1513SOL    HW2 5439   3.583   0.218   4.242
 1514SOL     OW 5440   5.020   2.323   5.522
 1514SOL    HW1 5441   5.035   2.358   5.614
 1514SOL    HW2 5442   5.108   2.310   5.477
 1515SOL     OW 5443   6.455   3.235   5.145
 1515SOL    HW1 5444   6.468   3.208   5.240
 1515SOL    HW2 5445   6.417   3.328   5.141
 1516SOL     OW 5446   0.441   0.144   1.000
 1516SOL    HW1 5447   0.475   0.227   1.045
 1516SOL    HW2 5448   0.514   0.076   0.995
 1517SOL     OW 5449   3.908   5.777   3.231
 1517SOL    HW1 5450   4.008   5.773   3.230
 1517SOL    HW2 5451   3.876   5.788   3.326
 1518SOL     OW 5452   0.557   2.821   0.493
 1518SOL    HW1 5453   0.571   2.886   0.567
 1518SOL    HW2 5454   0.592   2.731   0.521
 1519SOL     OW 5455   6.339   4.935   2.081
 1519SOL    HW1 5456   6.379   4.844   2.090
 1519SOL    HW2 5457   6.408   4.999   2.049
 1520SOL     OW 5458   0.540   3.778   2.229
 1520SOL    HW1 5459   0.545   3.678   2.241
 1520SOL    HW2 5460   0.553   3.822   2.317
 1521SOL     OW 5461   2.598   4.244   6.829
 1521SOL    HW1 5462   2.641   4.154   6.828
 1521SOL    HW2 5463   2.668   4.314   6.827
 1522SOL     OW 5464   6.435   0.064   4.983
 1522SOL    HW1 5465   6.487   0.062   4.897
 1522SOL    HW2 5466   6.339   0.041   4.965
 1523SOL     OW 5467   5.065   3.893   7.000
 1523SOL    HW1 5468   5.074   3.866   6.904
 1523SOL    HW2 5469   5.014   3.823   0.031
 1524SOL     OW 5470   1.177   2.364   2.063
 1524SOL    HW1 5471   1.255   2.303   2.074
 1524SOL    HW2 5472   1.130   2.344   1.977
 1525SOL     OW 5473   6.669   2.008   0.115
 1525SOL    HW1 5474   6.766   1.985   0.122
 1525SOL    HW2 5475   6.614   1.933   0.151
 1526SOL     OW 5476   1.189   0.503   6.647
 1526SOL    HW1 5477   1.106   0.557   6.659
 1526SOL    HW2 5478   1.194   0.470   6.553
 1527SOL     OW 5479   3.471   0.831   5.926
 1527SOL    HW1 5480   3.378   0.822   5.961
 1527SOL    HW2 5481   3.513   0.913   5.965
 1528SOL     OW 5482   5.102   5.540   1.834
 1528SOL    HW1 5483   5.164   5.577   1.902
 1528SOL    HW2 5484   5.066   5.452   1.866
 1529SOL     OW 5485   3.475   6.925   0.228
 1529SOL    HW1 5486   3.464   6.868   0.309
 1529SOL    HW2 5487   3.413   7.004   0.234
 1530SOL     OW 5488   3.663   0.955   2.688
 1530SOL    HW1 5489   3.650   1.053   2.678
 1530SOL    HW2 5490   3.575   0.908   2.677
 1531SOL     OW 5491   5.744   0.934   4.725
 1531SOL    HW1 5492   5.790   0.851   4.759
 1531SOL    HW2 5493   5.686   0.911   4.647
 1532SOL     OW 5494   2.694   3.602   6.105
 1532SOL    HW1 5495   2.704   3.504   6.124
 1532SOL    HW2 5496   2.598   3.622   6.085
 1533SOL     OW 5497   0.373   2.965   0.361
 1533SOL    HW1 5498   0.439   2.897   0.394
 1533SOL    HW2 5499   0.280   2.936   0.382
 1534SOL     OW 5500   1.404   4.947   6.661
 1534SOL    HW1 5501   1.485   4.990   6.702
 1534SOL    HW2 5502   1.400   4.971   6.564
 1535SOL     OW 5503   5.006   6.089   4.155
 1535SOL    HW1 5504   5.058   6.130   4.230
 1535SOL    HW2 5505   4.963   6.005   4.187
 1536SOL     OW 5506   4.194   4.292   5.336
 1536SOL    HW1 5507   4.114   4.336   5.379
 1536SOL    HW2 5508   4.212   4.335   5.248
 1537SOL     OW 5509   3.552   6.146   2.683
 1537SOL    HW1 5510   3.512   6.144   2.775
 1537SOL    HW2 5511   3.574   6.052   2.655
 1538SOL     OW 5512   3.424   5.797   6.060
 1538SOL    HW1 5513   3.378   5.802   6.149
 1538SOL    HW2 5514   3.355   5.789   5.988
 1539SOL     OW 5515   4.454   4.105   1.564
 1539SOL    HW1 5516   4.411   4.159   1.491
 1539SOL    HW2 5517   4.436   4.148   1.652
 1540SOL     OW 5518   1.075   0.179   5.505
 1540SOL    HW1 5519   1.020   0.261   5.491
 1540SOL    HW2 5520   1.044   0.131   5.587
 1541SOL     OW 5521   3.492   2.816   1.946
 1541SOL    HW1 5522   3.589   2.835   1.965
 1541SOL    HW2 5523   3.434   2.868   2.008
 1542SOL     OW 5524   6.499   6.197   1.546
 1542SOL    HW1 5525   6.486   6.290   1.581
 1542SOL    HW2 5526   6.429   6.178   1.477
 1543SOL     OW 5527   3.022   3.838   3.920
 1543SOL    HW1 5528   3.065   3.870   4.004
 1543SOL    HW2 5529   2.940   3.786   3.941
 1544SOL     OW 5530   3.159   3.966   2.084
 1544SOL    HW1 5531   3.243   3.912   2.088
 1544SOL    HW2 5532   3.116   3.967   2.174
 1545SOL     OW 5533   5.541   0.957   4.934
 1545SOL    HW1 5534   5.468   1.025   4.940
 1545SOL    HW2 5535   5.612   0.990   4.872
 1546SOL     OW 5536   5.151   6.849   6.344
 1546SOL    HW1 5537   5.210   6.900   6.282
 1546SOL    HW2 5538   5.115   6.768   6.296
 1547SOL     OW 5539   1.989   4.118   3.043
 1547SOL    HW1 5540   1.927   4.103   3.120
 1547SOL    HW2 5541   1.936   4.139   2.961
 1548SOL     OW 5542   4.757   3.788   5.896
 1548SOL    HW1 5543   4.802   3.876   5.879
 1548SOL    HW2 5544   4.717   3.754   5.811
 1549SOL     OW 5545   4.773   1.426   2.317
 1549SOL    HW1 5546   4.702   1.485   2.356
 1549SOL    HW2 5547   4.777   1.340   2.367
 1550SOL     OW 5548   2.981   5.421   6.411
 1550SOL    HW1 5549   3.052   5.447   6.477
 1550SOL    HW2 5550   2.936   5.337   6.442
 1551SOL     OW 5551   2.602   3.638   0.341
 1551SOL    HW1 5552   2.620   3.587   0.425
 1551SOL    HW2 5553   2.523   3.698   0.354
 1552SOL     OW 5554   0.179   0.674   1.075
 1552SOL    HW1 5555   0.248   0.618   1.120
 1552SOL    HW2 5556   0.119   0.714   1.144
 1553SOL     OW 5557   6.357   0.648   5.663
 1553SOL    HW1 5558   6.371   0.702   5.746
 1553SOL    HW2 5559   6.353   0.708   5.584
 1554SOL     OW 5560   3.713   2.078   3.349
 1554SOL    HW1 5561   3.616   2.097   3.332
 1554SOL    HW2 5562   3.731   2.082   3.447
 1555SOL     OW 5563   4.973   1.804   5.940
 1555SOL    HW1 5564   4.958   1.772   6.033
 1555SOL    HW2 5565   4.886   1.808   5.891
 1556SOL     OW 5566   3.971   1.171   0.153
 1556SOL    HW1 5567   4.062   1.186   0.117
 1556SOL    HW2 5568   3.955   1.073   0.167
 1557SOL     OW 5569   1.992   1.690   6.467
 1557SOL    HW1 5570   1.909   1.714   6.517
 1557SOL    HW2 5571   1.989   1.594   6.440
 1558SOL     OW 5572   5.588   1.163   4.205
 1558SOL    HW1 5573   5.629   1.247   4.242
 1558SOL    HW2 5574   5.491   1.161   4.228
 1559SOL     OW 5575   0.299   2.522   0.464
 1559SOL    HW1 5576   0.253   2.610   0.478
 1559SOL    HW2 5577   0.310   2.505   0.366
 1560SOL     OW 5578   2.896   1.126   6.490
 1560SOL    HW1 5579   2.880   1.064   6.413
 1560SOL    HW2 5580   2.986   1.109   6.528
 1561SOL     OW 5581   5.875   6.762   2.925
 1561SOL    HW1 5582   5.899   6.730   2.834
 1561SOL    HW2 5583   5.913   6.853   2.940
 1562SOL     OW 5584   3.957   6.357   0.990
 1562SOL    HW1 5585   3.922   6.272   1.030
 1562SOL    HW2 5586   3.880   6.420   0.975
 1563SOL     OW 5587   2.522   1.409   6.003
 1563SOL    HW1 5588   2.462   1.410   5.923
 1563SOL    HW2 5589   2.516   1.320   6.049
 1564SOL     OW 5590   1.592   2.454   2.710
 1564SOL    HW1 5591   1.524   2.381   2.712
 1564SOL    HW2 5592   1.559   2.528   2.651
 1565SOL     OW 5593   4.071   5.584   4.332
 1565SOL    HW1 5594   4.126   5.561   4.252
 1565SOL    HW2 5595   4.125   5.571   4.415
 1566SOL     OW 5596   6.034   5.131   4.491
 1566SOL    HW1 5597   6.126   5.143   4.527
 1566SOL    HW2 5598   5.969   5.183   4.546
 1567SOL     OW 5599   6.584   5.859   0.060
 1567SOL    HW1 5600   6.636   5.887   6.999
 1567SOL    HW2 5601   6.487   5.880   0.046
 1568SOL     OW 5602   2.014   6.573   1.581
 1568SOL    HW1 5603   1.925   6.538   1.611
 1568SOL    HW2 5604   2.006   6.671   1.560
 1569SOL     OW 5605   3.156   6.781   3.739
 1569SOL    HW1 5606   3.141   6.695   3.692
 1569SOL    HW2 5607   3.084   6.796   3.807
 1570SOL     OW 5608   2.666   6.685   0.495
 1570SOL    HW1 5609   2.574   6.652   0.517
 1570SOL    HW2 5610   2.669   6.712   0.399
 1571SOL     OW 5611   6.425   1.901   3.180
 1571SOL    HW1 5612   6.331   1.928   3.199
 1571SOL    HW2 5613   6.445   1.815   3.228
 1572SOL     OW 5614   1.985   6.177   1.153
 1572SOL    HW1 5615   2.010   6.089   1.194
 1572SOL    HW2 5616   2.066   6.234   1.144
 1573SOL     OW 5617   6.543   3.834   1.260
 1573SOL    HW1 5618   6.593   3.754   1.294
 1573SOL    HW2 5619   6.445   3.823   1.278
 1574SOL     OW 5620   6.207   2.228   3.970
 1574SOL    HW1 5621   6.239   2.274   4.054
 1574SOL    HW2 5622   6.245   2.136   3.966
 1575SOL     OW 5623   2.697   1.738   1.230
 1575SOL    HW1 5624   2.612   1.694   1.201
 1575SOL    HW2 5625   2.773   1.700   1.178
 1576SOL     OW 5626   1.230   0.284   3.063
 1576SOL    HW1 5627   1.143   0.303   3.108
 1576SOL    HW2 5628   1.279   0.370   3.047
 1577SOL     OW 5629   2.602   0.587   5.512
 1577SOL    HW1 5630   2.638   0.510   5.459
 1577SOL    HW2 5631   2.505   0.600   5.491
 1578SOL     OW 5632   4.817   1.746   5.463
 1578SOL    HW1 5633   4.718   1.751   5.446
 1578SOL    HW2 5634   4.856   1.669   5.413
 1579SOL     OW 5635   0.012   1.720   1.896
 1579SOL    HW1 5636   0.047   1.780   1.968
 1579SOL    HW2 5637   6.947   1.677   1.927
 1580SOL     OW 5638   3.531   4.161   3.733
 1580SOL    HW1 5639   3.511   4.258   3.743
 1580SOL    HW2 5640   3.532   4.117   3.823
 1581SOL     OW 5641   6.342   4.992   5.190
 1581SOL    HW1 5642   6.366   5.089   5.188
 1581SOL    HW2 5643   6.245   4.982   5.211
 1582SOL     OW 5644   1.905   6.751   4.731
 1582SOL    HW1 5645   1.887   6.656   4.706
 1582SOL    HW2 5646   1.881   6.765   4.827
 1583SOL     OW 5647   0.591   6.200   3.325
 1583SOL    HW1 5648   0.686   6.222   3.300
 1583SOL    HW2 5649   0.560   6.121   3.273
 1584SOL     OW 5650   0.639   5.826   5.408
 1584SOL    HW1 5651   0.636   5.919   5.371
 1584SOL    HW2 5652   0.729   5.808   5.447
 1585SOL     OW 5653   4.805   1.894   3.182
 1585SOL    HW1 5654   4.794   1.932   3.274
 1585SOL    HW2 5655   4.901   1.874   3.166
 1586SOL     OW 5656   3.421   5.268   2.247
 1586SOL    HW1 5657   3.478   5.341   2.288
 1586SOL    HW2 5658   3.365   5.227   2.318
 1587SOL     OW 5659   2.376   5.726   5.722
 1587SOL    HW1 5660   2.436   5.788   5.772
 1587SOL    HW2 5661   2.430   5.654   5.678
 1588SOL     OW 5662   4.487   1.111   2.138
 1588SOL    HW1 5663   4.579   1.147   2.123
 1588SOL    HW2 5664   4.485   1.014   2.113
 1589SOL     OW 5665   6.911   3.124   2.093
 1589SOL    HW1 5666   6.863   3.063   2.157
 1589SOL    HW2 5667   6.918   3.215   2.133
 1590SOL     OW 5668   4.509   0.347   3.953
 1590SOL    HW1 5669   4.461   0.390   3.877
 1590SOL    HW2 5670   4.501   0.248   3.945
 1591SOL     OW 5671   6.988   5.852   1.482
 1591SOL    HW1 5672   6.965   5.759   1.452
 1591SOL    HW2 5673   6.979   5.915   1.405
 1592SOL     OW 5674   2.783   4.013   6.306
 1592SOL    HW1 5675   2.787   3.914   6.304
 1592SOL    HW2 5676   2.697   4.042   6.350
 1593SOL     OW 5677   1.013   6.914   5.357
 1593SOL    HW1 5678   0.960   6.909   5.442
 1593SOL    HW2 5679   1.064   7.000   5.354
 1594SOL     OW 5680   1.284   6.493   1.880
 1594SOL    HW1 5681   1.265   6.556   1.805
 1594SOL    HW2 5682   1.213   6.501   1.949
 1595SOL     OW 5683   1.247   5.435   0.725
 1595SOL    HW1 5684   1.307   5.383   0.664
 1595SOL    HW2 5685   1.282   5.528   0.735
 1596SOL     OW 5686   0.319   3.514   4.039
 1596SOL    HW1 5687   0.339   3.521   4.136
 1596SOL    HW2 5688   0.220   3.515   4.025
 1597SOL     OW 5689   1.490   6.191   0.623
 1597SOL    HW1 5690   1.461   6.182   0.719
 1597SOL    HW2 5691   1.410   6.183   0.563
 1598SOL     OW 5692   6.786   4.410   5.720
 1598SOL    HW1 5693   6.806   4.487   5.781
 1598SOL    HW2 5694   6.870   4.379   5.677
 1599SOL     OW 5695   4.919   5.438   4.619
 1599SOL    HW1 5696   4.875   5.517   4.576
 1599SOL    HW2 5697   4.886   5.354   4.575
 1600SOL     OW 5698   3.512   0.977   3.636
 1600SOL    HW1 5699   3.459   0.929   3.706
 1600SOL    HW2 5700   3.466   1.062   3.612
 1601SOL     OW 5701   0.168   6.285   4.062
 1601SOL    HW1 5702   0.079   6.244   4.044
 1601SOL    HW2 5703   0.204   6.250   4.149
 1602SOL     OW 5704   4.136   5.081   4.226
 1602SOL    HW1 5705   4.115   5.090   4.323
 1602SOL    HW2 5706   4.207   5.146   4.201
 1603SOL     OW 5707   1.711   6.673   2.979
 1603SOL    HW1 5708   1.641   6.657   2.910
 1603SOL    HW2 5709   1.705   6.767   3.012
 1604SOL     OW 5710   5.202   4.394   1.539
 1604SOL    HW1 5711   5.186   4.296   1.533
 1604SOL    HW2 5712   5.190   4.425   1.633
 1605SOL     OW 5713   6.626   5.582   1.953
 1605SOL    HW1 5714   6.566   5.624   1.884
 1605SOL    HW2 5715   6.610   5.483   1.955
 1606SOL     OW 5716   3.921   6.369   6.027
 1606SOL    HW1 5717   4.006   6.413   6.056
 1606SOL    HW2 5718   3.849   6.438   6.018
 1607SOL     OW 5719   4.113   0.542   1.021
 1607SOL    HW1 5720   4.031   0.589   1.055
 1607SOL    HW2 5721   4.101   0.443   1.030
 1608SOL     OW 5722   0.526   1.113   3.652
 1608SOL    HW1 5723   0.601   1.048   3.664
 1608SOL    HW2 5724   0.536   1.158   3.563
 1609SOL     OW 5725   4.462   0.110   0.095
 1609SOL    HW1 5726   4.517   0.036   0.134
 1609SOL    HW2 5727   4.398   0.073   0.028
 1610SOL     OW 5728   6.257   4.948   0.181
 1610SOL    HW1 5729   6.356   4.936   0.179
 1610SOL    HW2 5730   6.214   4.882   0.119
 1611SOL     OW 5731   2.798   4.080   0.650
 1611SOL    HW1 5732   2.808   3.982   0.636
 1611SOL    HW2 5733   2.787   4.125   0.561
 1612SOL     OW 5734   2.700   0.510   0.289
 1612SOL    HW1 5735   2.620   0.486   0.345
 1612SOL    HW2 5736   2.670   0.562   0.209
 1613SOL     OW 5737   1.794   5.881   2.086
 1613SOL    HW1 5738   1.796   5.787   2.053
 1613SOL    HW2 5739   1.750   5.884   2.177
 1614SOL     OW 5740   5.175   2.369   6.228
 1614SOL    HW1 5741   5.093   2.321   6.258
 1614SOL    HW2 5742   5.232   2.307   6.174
 1615SOL     OW 5743   6.114   5.661   0.980
 1615SOL    HW1 5744   6.157   5.692   0.895
 1615SOL    HW2 5745   6.026   5.617   0.959
 1616SOL     OW 5746   3.622   0.946   5.173
 1616SOL    HW1 5747   3.545   0.989   5.125
 1616SOL    HW2 5748   3.613   0.962   5.271
 1617SOL     OW 5749   5.585   6.654   2.944
 1617SOL    HW1 5750   5.682   6.675   2.930
 1617SOL    HW2 5751   5.544   6.631   2.856
 1618SOL     OW 5752   1.801   6.196   2.611
 1618SOL    HW1 5753   1.889   6.224   2.574
 1618SOL    HW2 5754   1.770   6.114   2.564
 1619SOL     OW 5755   0.549   4.244   1.463
 1619SOL    HW1 5756   0.628   4.219   1.520
 1619SOL    HW2 5757   0.581   4.279   1.375
 1620SOL     OW 5758   2.793   4.408   1.553
 1620SOL    HW1 5759   2.724   4.341   1.525
 1620SOL    HW2 5760   2.809   4.401   1.651
 1621SOL     OW 5761   6.721   1.235   0.506
 1621SOL    HW1 5762   6.713   1.285   0.592
 1621SOL    HW2 5763   6.647   1.168   0.499
 1622SOL     OW 5764   0.339   3.582   5.377
 1622SOL    HW1 5765   0.383   3.508   5.325
 1622SOL    HW2 5766   0.268   3.543   5.435
 1623SOL     OW 5767   1.334   2.930   5.153
 1623SOL    HW1 5768   1.428   2.905   5.129
 1623SOL    HW2 5769   1.290   2.976   5.076
 1624SOL     OW 5770   3.603   1.315   4.700
 1624SOL    HW1 5771   3.527   1.379   4.707
 1624SOL    HW2 5772   3.676   1.356   4.646
 1625SOL     OW 5773   1.348   4.277   0.220
 1625SOL    HW1 5774   1.289   4.290   0.140
 1625SOL    HW2 5775   1.317   4.197   0.271
 1626SOL     OW 5776   3.805   1.206   0.519
 1626SOL    HW1 5777   3.768   1.293   0.487
 1626SOL    HW2 5778   3.893   1.188   0.475
 1627SOL     OW 5779   6.283   3.227   3.719
 1627SOL    HW1 5780   6.288   3.325   3.737
 1627SOL    HW2 5781   6.370   3.195   3.682
 1628SOL     OW 5782   4.575   4.911   0.387
 1628SOL    HW1 5783   4.555   5.003   0.421
 1628SOL    HW2 5784   4.590   4.849   0.464
 1629SOL     OW 5785   2.586   1.324   3.949
 1629SOL    HW1 5786   2.649   1.394   3.983
 1629SOL    HW2 5787   2.633   1.268   3.880
 1630SOL     OW 5788   1.015   5.053   6.133
 1630SOL    HW1 5789   0.931   5.053   6.079
 1630SOL    HW2 5790   1.078   4.984   6.098
 1631SOL     OW 5791   1.328   2.722   0.578
 1631SOL    HW1 5792   1.314   2.642   0.519
 1631SOL    HW2 5793   1.417   2.716   0.623
 1632SOL     OW 5794   5.753   2.790   1.644
 1632SOL    HW1 5795   5.748   2.786   1.744
 1632SOL    HW2 5796   5.735   2.698   1.607
 1633SOL     OW 5797   5.317   3.914   4.366
 1633SOL    HW1 5798   5.291   4.009   4.378
 1633SOL    HW2 5799   5.320   3.892   4.269
 1634SOL     OW 5800   4.380   5.740   4.198
 1634SOL    HW1 5801   4.329   5.824   4.215
 1634SOL    HW2 5802   4.445   5.725   4.273
 1635SOL     OW 5803   0.462   5.035   6.764
 1635SOL    HW1 5804   0.534   4.979   6.723
 1635SOL    HW2 5805   0.373   4.996   6.741
 1636SOL     OW 5806   3.313   4.402   1.094
 1636SOL    HW1 5807   3.343   4.358   1.010
 1636SOL    HW2 5808   3.246   4.473   1.073
 1637SOL     OW 5809   6.992   0.762   2.929
 1637SOL    HW1 5810   7.005   0.779   3.027
 1637SOL    HW2 5811   0.061   0.761   2.883
 1638SOL     OW 5812   0.018   4.429   3.389
 1638SOL    HW1 5813   0.063   4.465   3.307
 1638SOL    HW2 5814   7.009   4.505   3.447
 1639SOL     OW 5815   5.561   6.080   1.558
 1639SOL    HW1 5816   5.527   6.092   1.652
 1639SOL    HW2 5817   5.531   5.992   1.523
 1640SOL     OW 5818   6.185   0.579   6.697
 1640SOL    HW1 5819   6.248   0.532   6.760
 1640SOL    HW2 5820   6.147   0.660   6.742
 1641SOL     OW 5821   4.520   2.473   2.329
 1641SOL    HW1 5822   4.456   2.438   2.260
 1641SOL    HW2 5823   4.551   2.398   2.387
 1642SOL     OW 5824   0.423   3.321   0.047
 1642SOL    HW1 5825   0.382   3.304   0.137
 1642SOL    HW2 5826   0.355   3.304   6.995
 1643SOL     OW 5827   2.493   5.139   4.281
 1643SOL    HW1 5828   2.457   5.212   4.339
 1643SOL    HW2 5829   2.417   5.094   4.234
 1644SOL     OW 5830   5.922   4.126   6.577
 1644SOL    HW1 5831   5.865   4.053   6.537
 1644SOL    HW2 5832   6.017   4.113   6.549
 1645SOL     OW 5833   3.429   5.666   6.496
 1645SOL    HW1 5834   3.376   5.731   6.441
 1645SOL    HW2 5835   3.515   5.645   6.449
 1646SOL     OW 5836   2.699   0.034   0.779
 1646SOL    HW1 5837   2.617   0.001   0.731
 1646SOL    HW2 5838   2.688   0.020   0.877
 1647SOL     OW 5839   5.813   3.772   4.779
 1647SOL    HW1 5840   5.826   3.683   4.821
 1647SOL    HW2 5841   5.893   3.794   4.723
 1648SOL     OW 5842   5.387   5.607   0.531
 1648SOL    HW1 5843   5.416   5.551   0.609
 1648SOL    HW2 5844   5.287   5.602   0.522
 1649SOL     OW 5845   3.880   1.334   3.568
 1649SOL    HW1 5846   3.980   1.321   3.567
 1649SOL    HW2 5847   3.859   1.424   3.606
 1650SOL     OW 5848   1.044   6.014   4.880
 1650SOL    HW1 5849   1.113   5.943   4.864
 1650SOL    HW2 5850   0.956   5.971   4.902
 1651SOL     OW 5851   6.933   2.016   1.652
 1651SOL    HW1 5852   6.867   2.025   1.578
 1651SOL    HW2 5853   6.900   1.949   1.718
 1652SOL     OW 5854   0.929   3.191   2.762
 1652SOL    HW1 5855   0.876   3.235   2.689
 1652SOL    HW2 5856   1.013   3.241   2.778
 1653SOL     OW 5857   1.417   7.002   6.807
 1653SOL    HW1 5858   1.433   6.947   6.889
 1653SOL    HW2 5859   1.439   6.948   6.726
 1654SOL     OW 5860   0.416   3.571   1.674
 1654SOL    HW1 5861   0.348   3.568   1.748
 1654SOL    HW2 5862   0.488   3.505   1.693
 1655SOL     OW 5863   0.089   2.063   5.014
 1655SOL    HW1 5864   0.005   2.076   4.962
 1655SOL    HW2 5865   0.154   2.010   4.958
 1656SOL     OW 5866   2.513   4.504   2.692
 1656SOL    HW1 5867   2.612   4.499   2.708
 1656SOL    HW2 5868   2.471   4.563   2.761
 1657SOL     OW 5869   6.720   1.039   4.667
 1657SOL    HW1 5870   6.810   0.996   4.673
 1657SOL    HW2 5871   6.702   1.066   4.572
 1658SOL     OW 5872   6.820   0.170   1.514
 1658SOL    HW1 5873   6.878   0.127   1.583
 1658SOL    HW2 5874   6.727   0.131   1.520
 1659SOL     OW 5875   3.348   0.143   0.251
 1659SOL    HW1 5876   3.270   0.185   0.299
 1659SOL    HW2 5877   3.418   0.213   0.234
 1660SOL     OW 5878   2.050   6.228   2.518
 1660SOL    HW1 5879   2.119   6.227   2.591
 1660SOL    HW2 5880   2.094   6.213   2.430
 1661SOL     OW 5881   2.541   6.624   1.266
 1661SOL    HW1 5882   2.571   6.677   1.187
 1661SOL    HW2 5883   2.618   6.574   1.305
 1662SOL     OW 5884   0.632   0.925   4.103
 1662SOL    HW1 5885   0.620   0.834   4.143
 1662SOL    HW2 5886   0.543   0.962   4.076
 1663SOL     OW 5887   3.973   6.086   3.300
 1663SOL    HW1 5888   3.888   6.089   3.248
 1663SOL    HW2 5889   3.956   6.113   3.395
 1664SOL     OW 5890   2.015   6.571   5.161
 1664SOL    HW1 5891   2.073   6.510   5.215
 1664SOL    HW2 5892   1.921   6.567   5.194
 1665SOL     OW 5893   6.785   2.605   2.392
 1665SOL    HW1 5894   6.739   2.599   2.303
 1665SOL    HW2 5895   6.866   2.548   2.392
 1666SOL     OW 5896   5.025   1.741   6.225
 1666SOL    HW1 5897   5.113   1.743   6.273
 1666SOL    HW2 5898   4.951   1.759   6.290
 1667SOL     OW 5899   0.593   6.617   0.996
 1667SOL    HW1 5900   0.663   6.553   1.027
 1667SOL    HW2 5901   0.508   6.599   1.047
 1668SOL     OW 5902   5.053   6.413   3.208
 1668SOL    HW1 5903   5.056   6.418   3.108
 1668SOL    HW2 5904   5.096   6.328   3.238
 1669SOL     OW 5905   6.304   4.964   6.600
 1669SOL    HW1 5906   6.318   4.930   6.693
 1669SOL    HW2 5907   6.250   4.898   6.548
 1670SOL     OW 5908   0.563   3.909   5.807
 1670SOL    HW1 5909   0.661   3.927   5.795
 1670SOL    HW2 5910   0.545   3.811   5.797
 1671SOL     OW 5911   5.296   1.469   2.981
 1671SOL    HW1 5912   5.276   1.424   3.068
 1671SOL    HW2 5913   5.377   1.527   2.991
 1672SOL     OW 5914   1.523   2.889   1.000
 1672SOL    HW1 5915   1.530   2.829   0.920
 1672SOL    HW2 5916   1.438   2.870   1.049
 1673SOL     OW 5917   0.232   1.352   4.810
 1673SOL    HW1 5918   0.219   1.287   4.736
 1673SOL    HW2 5919   0.208   1.443   4.779
 1674SOL     OW 5920   0.922   3.183   2.246
 1674SOL    HW1 5921   0.994   3.121   2.215
 1674SOL    HW2 5922   0.965   3.262   2.291
 1675SOL     OW 5923   5.255   6.587   0.478
 1675SOL    HW1 5924   5.276   6.528   0.555
 1675SOL    HW2 5925   5.248   6.531   0.394
 1676SOL     OW 5926   2.323   2.874   1.330
 1676SOL    HW1 5927   2.392   2.810   1.365
 1676SOL    HW2 5928   2.255   2.892   1.401
 1677SOL     OW 5929   3.350   3.247   3.857
 1677SOL    HW1 5930   3.369   3.149   3.856
 1677SOL    HW2 5931   3.410   3.294   3.793
 1678SOL     OW 5932   6.129   4.174   3.594
 1678SOL    HW1 5933   6.054   4.111   3.617
 1678SOL    HW2 5934   6.112   4.263   3.635
 1679SOL     OW 5935   2.451   2.456   4.468
 1679SOL    HW1 5936   2.512   2.384   4.434
 1679SOL    HW2 5937   2.368   2.458   4.412
 1680SOL     OW 5938   0.344   2.964   5.512
 1680SOL    HW1 5939   0.286   3.045   5.520
 1680SOL    HW2 5940   0.369   2.951   5.416
 1681SOL     OW 5941   6.988   5.087   6.996
 1681SOL    HW1 5942   7.008   5.155   0.048
 1681SOL    HW2 5943   6.996   5.130   6.906
 1682SOL     OW 5944   1.917   0.568   5.461
 1682SOL    HW1 5945   1.973   0.554   5.543
 1682SOL    HW2 5946   1.835   0.512   5.467
 1683SOL     OW 5947   5.028   4.764   2.117
 1683SOL    HW1 5948   5.059   4.841   2.173
 1683SOL    HW2 5949   4.936   4.738   2.145
 1684SOL     OW 5950   0.873   6.227   2.260
 1684SOL    HW1 5951   0.836   6.135   2.254
 1684SOL    HW2 5952   0.879   6.267   2.169
 1685SOL     OW 5953   2.326   0.897   5.142
 1685SOL    HW1 5954   2.384   0.818   5.164
 1685SOL    HW2 5955   2.230   0.872   5.157
 1686SOL     OW 5956   2.545   5.843   4.281
 1686SOL    HW1 5957   2.524   5.926   4.230
 1686SOL    HW2 5958   2.567   5.769   4.217
 1687SOL     OW 5959   2.058   3.073   2.139
 1687SOL    HW1 5960   2.086   3.122   2.056
 1687SOL    HW2 5961   2.041   3.138   2.213
 1688SOL     OW 5962   2.342   1.908   4.145
 1688SOL    HW1 5963   2.441   1.910   4.164
 1688SOL    HW2 5964   2.325   1.948   4.055
 1689SOL     OW 5965   6.357   1.013   2.935
 1689SOL    HW1 5966   6.341   0.995   2.838
 1689SOL    HW2 5967   6.290   0.963   2.990
 1690SOL     OW 5968   1.253   2.873   4.346
 1690SOL    HW1 5969   1.196   2.889   4.426
 1690SOL    HW2 5970   1.310   2.954   4.328
 1691SOL     OW 5971   5.267   3.402   3.668
 1691SOL    HW1 5972   5.355   3.408   3.714
 1691SOL    HW2 5973   5.273   3.336   3.593
 1692SOL     OW 5974   5.119   6.208   1.201
 1692SOL    HW1 5975   5.130   6.144   1.124
 1692SOL    HW2 5976   5.118   6.302   1.166
 1693SOL     OW 5977   6.519   1.881   2.335
 1693SOL    HW1 5978   6.506   1.941   2.257
 1693SOL    HW2 5979   6.486   1.789   2.313
 1694SOL     OW 5980   5.522   1.267   2.958
 1694SOL    HW1 5981   5.439   1.253   2.904
 1694SOL    HW2 5982   5.504   1.240   3.053
 1695SOL     OW 5983   4.124   0.904   6.280
 1695SOL    HW1 5984   4.180   0.977   6.319
 1695SOL    HW2 5985   4.183   0.835   6.240
 1696SOL     OW 5986   4.322   5.879   0.387
 1696SOL    HW1 5987   4.383   5.941   0.436
 1696SOL    HW2 5988   4.339   5.885   0.289
 1697SOL     OW 5989   6.479   1.082   0.455
 1697SOL    HW1 5990   6.446   1.149   0.388
 1697SOL    HW2 5991   6.401   1.040   0.501
 1698SOL     OW 5992   2.957   0.371   0.183
 1698SOL    HW1 5993   3.034   0.367   0.247
 1698SOL    HW2 5994   2.889   0.435   0.217
 1699SOL     OW 5995   2.380   1.387   6.873
 1699SOL    HW1 5996   2.419   1.296   6.858
 1699SOL    HW2 5997   2.290   1.393   6.831
 1700SOL     OW 5998   6.053   3.864   3.781
 1700SOL    HW1 5999   6.145   3.903   3.774
 1700SOL    HW2 6000   5.985   3.934   3.761
 1701SOL     OW 6001   4.957   4.568   5.454
 1701SOL    HW1 6002   4.872   4.580   5.506
 1701SOL    HW2 6003   5.010   4.494   5.495
 1702SOL     OW 6004   6.453   1.138   0.768
 1702SOL    HW1 6005   6.457   1.047   0.728
 1702SOL    HW2 6006   6.406   1.200   0.705
 1703SOL     OW 6007   3.321   2.353   0.854
 1703SOL    HW1 6008   3.310   2.435   0.798
 1703SOL    HW2 6009   3.375   2.374   0.935
 1704SOL     OW 6010   0.876   1.881   1.469
 1704SOL    HW1 6011   0.912   1.833   1.549
 1704SOL    HW2 6012   0.949   1.898   1.404
 1705SOL     OW 6013   3.243   2.076   2.675
 1705SOL    HW1 6014   3.256   2.062   2.773
 1705SOL    HW2 6015   3.332   2.087   2.630
 1706SOL     OW 6016   5.186   1.039   2.365
 1706SOL    HW1 6017   5.267   1.097   2.370
 1706SOL    HW2 6018   5.157   1.030   2.270
 1707SOL     OW 6019   4.755   2.096   1.819
 1707SOL    HW1 6020   4.693   2.169   1.849
 1707SOL    HW2 6021   4.844   2.108   1.863
 1708SOL     OW 6022   5.201   5.227   2.134
 1708SOL    HW1 6023   5.288   5.273   2.153
 1708SOL    HW2 6024   5.155   5.272   2.057
 1709SOL     OW 6025   3.312   6.206   2.241
 1709SOL    HW1 6026   3.240   6.248   2.296
 1709SOL    HW2 6027   3.397   6.202   2.294
 1710SOL     OW 6028   4.877   4.732   3.600
 1710SOL    HW1 6029   4.935   4.722   3.518
 1710SOL    HW2 6030   4.925   4.695   3.679
 1711SOL     OW 6031   1.366   4.597   4.521
 1711SOL    HW1 6032   1.282   4.552   4.492
 1711SOL    HW2 6033   1.344   4.682   4.569
 1712SOL     OW 6034   6.811   2.402   4.745
 1712SOL    HW1 6035   6.834   2.305   4.734
 1712SOL    HW2 6036   6.866   2.457   4.682
 1713SOL     OW 6037   5.050   2.456   2.148
 1713SOL    HW1 6038   5.094   2.417   2.067
 1713SOL    HW2 6039   4.973   2.513   2.120
 1714SOL     OW 6040   3.192   1.116   6.299
 1714SOL    HW1 6041   3.239   1.171   6.367
 1714SOL    HW2 6042   3.222   1.021   6.306
 1715SOL     OW 6043   1.902   5.549   2.754
 1715SOL    HW1 6044   1.971   5.599   2.806
 1715SOL    HW2 6045   1.936   5.458   2.730
 1716SOL     OW 6046   4.800   0.057   2.692
 1716SOL    HW1 6047   4.806   0.029   2.788
 1716SOL    HW2 6048   4.704   0.053   2.663
 1717SOL     OW 6049   2.887   5.888   5.723
 1717SOL    HW1 6050   2.929   5.948   5.791
 1717SOL    HW2 6051   2.913   5.917   5.632
 1718SOL     OW 6052   2.827   1.394   2.033
 1718SOL    HW1 6053   2.895   1.467   2.021
 1718SOL    HW2 6054   2.868   1.307   2.007
 1719SOL     OW 6055   2.467   3.290   1.220
 1719SOL    HW1 6056   2.428   3.359   1.158
 1719SOL    HW2 6057   2.487   3.333   1.308
 1720SOL     OW 6058   0.370   3.247   0.321
 1720SOL    HW1 6059   0.364   3.150   0.348
 1720SOL    HW2 6060   0.465   3.275   0.320
 1721SOL     OW 6061   2.265   6.848   1.571
 1721SOL    HW1 6062   2.261   6.876   1.667
 1721SOL    HW2 6063   2.302   6.756   1.564
 1722SOL     OW 6064   2.915   1.534   3.891
 1722SOL    HW1 6065   2.987   1.570   3.832
 1722SOL    HW2 6066   2.845   1.490   3.835
 1723SOL     OW 6067   5.893   2.414   1.256
 1723SOL    HW1 6068   5.963   2.379   1.193
 1723SOL    HW2 6069   5.830   2.340   1.280
 1724SOL     OW 6070   6.990   2.848   2.275
 1724SOL    HW1 6071   6.896   2.819   2.259
 1724SOL    HW2 6072   0.006   2.805   2.359
 1725SOL     OW 6073   2.016   4.521   6.206
 1725SOL    HW1 6074   1.963   4.457   6.151
 1725SOL    HW2 6075   2.014   4.611   6.162
 1726SOL     OW 6076   6.199   4.678   5.409
 1726SOL    HW1 6077   6.266   4.749   5.384
 1726SOL    HW2 6078   6.110   4.720   5.422
 1727SOL     OW 6079   3.403   2.994   3.839
 1727SOL    HW1 6080   3.310   2.992   3.802
 1727SOL    HW2 6081   3.403   2.961   3.933
 1728SOL     OW 6082   5.530   5.455   5.284
 1728SOL    HW1 6083   5.537   5.470   5.382
 1728SOL    HW2 6084   5.597   5.387   5.255
 1729SOL     OW 6085   2.144   4.270   3.177
 1729SOL    HW1 6086   2.089   4.349   3.204
 1729SOL    HW2 6087   2.086   4.205   3.127
 1730SOL     OW 6088   1.376   6.849   5.185
 1730SOL    HW1 6089   1.336   6.775   5.239
 1730SOL    HW2 6090   1.351   6.837   5.089
 1731SOL     OW 6091   0.689   4.580   3.971
 1731SOL    HW1 6092   0.609   4.544   3.923
 1731SOL    HW2 6093   0.770   4.565   3.914
 1732SOL     OW 6094   2.095   4.657   5.759
 1732SOL    HW1 6095   2.159   4.718   5.806
 1732SOL    HW2 6096   2.055   4.704   5.680
 1733SOL     OW 6097   1.939   4.351   1.730
 1733SOL    HW1 6098   2.016   4.414   1.739
 1733SOL    HW2 6099   1.975   4.258   1.715
 1734SOL     OW 6100   4.765   3.367   1.303
 1734SOL    HW1 6101   4.783   3.465   1.310
 1734SOL    HW2 6102   4.671   3.352   1.273
 1735SOL     OW 6103   4.736   5.089   6.954
 1735SOL    HW1 6104   4.650   5.052   6.989
 1735SOL    HW2 6105   4.812   5.032   6.985
 1736SOL     OW 6106   3.756   3.636   0.971
 1736SOL    HW1 6107   3.731   3.726   0.935
 1736SOL    HW2 6108   3.674   3.579   0.979
 1737SOL     OW 6109   3.871   1.202   4.327
 1737SOL    HW1 6110   3.903   1.219   4.234
 1737SOL    HW2 6111   3.906   1.114   4.359
 1738SOL     OW 6112   1.972   2.665   4.184
 1738SOL    HW1 6113   1.890   2.609   4.174
 1738SOL    HW2 6114   1.963   2.724   4.264
 1739SOL     OW 6115   6.894   1.557   5.343
 1739SOL    HW1 6116   6.866   1.467   5.309
 1739SOL    HW2 6117   6.830   1.626   5.309
 1740SOL     OW 6118   0.036   2.529   5.158
 1740SOL    HW1 6119   0.079   2.438   5.156
 1740SOL    HW2 6120   0.055   2.573   5.245
 1741SOL     OW 6121   2.372   0.457   4.061
 1741SOL    HW1 6122   2.373   0.358   4.075
 1741SOL    HW2 6123   2.466   0.491   4.058
 1742SOL     OW 6124   5.580   0.802   6.008
 1742SOL    HW1 6125   5.507   0.838   5.949
 1742SOL    HW2 6126   5.653   0.870   6.016
 1743SOL     OW 6127   0.643   2.513   2.410
 1743SOL    HW1 6128   0.612   2.566   2.331
 1743SOL    HW2 6129   0.743   2.519   2.417
 1744SOL     OW 6130   5.951   2.722   3.251
 1744SOL    HW1 6131   5.919   2.693   3.160
 1744SOL    HW2 6132   6.049   2.737   3.248
 1745SOL     OW 6133   5.466   5.603   2.225
 1745SOL    HW1 6134   5.434   5.609   2.130
 1745SOL    HW2 6135   5.451   5.511   2.260
 1746SOL     OW 6136   1.845   4.149   4.447
 1746SOL    HW1 6137   1.789   4.199   4.381
 1746SOL    HW2 6138   1.933   4.127   4.406
 1747SOL     OW 6139   4.702   1.690   2.971
 1747SOL    HW1 6140   4.785   1.739   2.943
 1747SOL    HW2 6141   4.635   1.756   3.003
 1748SOL     OW 6142   0.390   1.643   5.269
 1748SOL    HW1 6143   0.330   1.711   5.227
 1748SOL    HW2 6144   0.485   1.661   5.242
 1749SOL     OW 6145   2.378   6.612   5.236
 1749SOL    HW1 6146   2.350   6.705   5.210
 1749SOL    HW2 6147   2.307   6.547   5.210
 1750SOL     OW 6148   5.046   6.208   3.565
 1750SOL    HW1 6149   5.066   6.217   3.467
 1750SOL    HW2 6150   5.120   6.156   3.608
 1751SOL     OW 6151   4.224   0.670   3.660
 1751SOL    HW1 6152   4.271   0.759   3.661
 1751SOL    HW2 6153   4.210   0.642   3.565
 1752SOL     OW 6154   6.183   1.750   2.400
 1752SOL    HW1 6155   6.186   1.657   2.362
 1752SOL    HW2 6156   6.224   1.750   2.491
 1753SOL     OW 6157   6.652   1.079   1.293
 1753SOL    HW1 6158   6.668   1.164   1.243
 1753SOL    HW2 6159   6.649   1.003   1.229
 1754SOL     OW 6160   1.418   4.751   6.873
 1754SOL    HW1 6161   1.330   4.769   6.917
 1754SOL    HW2 6162   1.431   4.813   6.797
 1755SOL     OW 6163   0.351   6.560   1.178
 1755SOL    HW1 6164   0.301   6.580   1.262
 1755SOL    HW2 6165   0.351   6.461   1.162
 1756SOL     OW 6166   4.072   5.188   5.584
 1756SOL    HW1 6167   4.052   5.246   5.505
 1756SOL    HW2 6168   4.059   5.241   5.668
 1757SOL     OW 6169   2.440   5.351   4.478
 1757SOL    HW1 6170   2.347   5.388   4.475
 1757SOL    HW2 6171   2.456   5.310   4.568
 1758SOL     OW 6172   2.471   0.649   4.416
 1758SOL    HW1 6173   2.419   0.567   4.393
 1758SOL    HW2 6174   2.474   0.659   4.516
 1759SOL     OW 6175   2.096   6.759   5.441
 1759SOL    HW1 6176   2.191   6.768   5.414
 1759SOL    HW2 6177   2.061   6.847   5.474
 1760SOL     OW 6178   5.644   0.709   3.445
 1760SOL    HW1 6179   5.723   0.769   3.461
 1760SOL    HW2 6180   5.588   0.705   3.528
 1761SOL     OW 6181   0.051   0.854   1.259
 1761SOL    HW1 6182   6.979   0.827   1.291
 1761SOL    HW2 6183   0.108   0.875   1.338
 1762SOL     OW 6184   0.874   1.226   3.976
 1762SOL    HW1 6185   0.905   1.250   3.884
 1762SOL    HW2 6186   0.851   1.129   3.979
 1763SOL     OW 6187   0.727   4.553   4.251
 1763SOL    HW1 6188   0.704   4.569   4.155
 1763SOL    HW2 6189   0.648   4.573   4.309
 1764SOL     OW 6190   1.990   3.246   2.619
 1764SOL    HW1 6191   1.902   3.276   2.656
 1764SOL    HW2 6192   1.995   3.269   2.522
 1765SOL     OW 6193   3.669   0.958   1.613
 1765SOL    HW1 6194   3.673   0.867   1.572
 1765SOL    HW2 6195   3.749   0.971   1.671
 1766SOL     OW 6196   5.552   4.481   3.385
 1766SOL    HW1 6197   5.552   4.572   3.426
 1766SOL    HW2 6198   5.483   4.476   3.313
 1767SOL     OW 6199   1.007   4.021   2.651
 1767SOL    HW1 6200   1.054   4.091   2.597
 1767SOL    HW2 6201   0.938   4.064   2.709
 1768SOL     OW 6202   3.276   1.011   6.781
 1768SOL    HW1 6203   3.340   0.941   6.811
 1768SOL    HW2 6204   3.217   0.974   6.709
 1769SOL     OW 6205   4.597   1.578   6.597
 1769SOL    HW1 6206   4.616   1.676   6.600
 1769SOL    HW2 6207   4.572   1.551   6.504
 1770SOL     OW 6208   6.576   4.153   4.777
 1770SOL    HW1 6209   6.583   4.153   4.877
 1770SOL    HW2 6210   6.492   4.200   4.749
 1771SOL     OW 6211   1.736   5.489   1.130
 1771SOL    HW1 6212   1.801   5.453   1.063
 1771SOL    HW2 6213   1.697   5.414   1.183
 1772SOL     OW 6214   3.716   6.117   3.157
 1772SOL    HW1 6215   3.667   6.047   3.208
 1772SOL    HW2 6216   3.739   6.083   3.066
 1773SOL     OW 6217   2.838   2.950   6.397
 1773SOL    HW1 6218   2.868   3.032   6.348
 1773SOL    HW2 6219   2.767   2.973   6.462
 1774SOL     OW 6220   4.651   5.822   1.525
 1774SOL    HW1 6221   4.604   5.768   1.455
 1774SOL    HW2 6222   4.586   5.884   1.568
 1775SOL     OW 6223   2.292   4.813   5.378
 1775SOL    HW1 6224   2.325   4.786   5.469
 1775SOL    HW2 6225   2.341   4.762   5.308
 1776SOL     OW 6226   4.983   1.081   5.993
 1776SOL    HW1 6227   5.016   1.133   6.072
 1776SOL    HW2 6228   4.913   1.017   6.022
 1777SOL     OW 6229   3.339   6.272   6.017
 1777SOL    HW1 6230   3.431   6.253   6.052
 1777SOL    HW2 6231   3.272   6.217   6.067
 1778SOL     OW 6232   5.055   2.170   4.381
 1778SOL    HW1 6233   4.967   2.122   4.386
 1778SOL    HW2 6234   5.080   2.184   4.285
 1779SOL     OW 6235   4.166   0.892   5.175
 1779SOL    HW1 6236   4.113   0.904   5.259
 1779SOL    HW2 6237   4.155   0.972   5.117
 1780SOL     OW 6238   2.108   3.810   5.997
 1780SOL    HW1 6239   2.171   3.745   5.954
 1780SOL    HW2 6240   2.068   3.868   5.927
 1781SOL     OW 6241   5.689   5.252   3.922
 1781SOL    HW1 6242   5.661   5.156   3.918
 1781SOL    HW2 6243   5.723   5.273   4.013
 1782SOL     OW 6244   3.453   1.172   3.101
 1782SOL    HW1 6245   3.386   1.100   3.078
 1782SOL    HW2 6246   3.406   1.247   3.147
 1783SOL     OW 6247   2.435   3.323   6.116
 1783SOL    HW1 6248   2.535   3.316   6.125
 1783SOL    HW2 6249   2.403   3.259   6.046
 1784SOL     OW 6250   2.191   1.271   1.946
 1784SOL    HW1 6251   2.142   1.232   1.868
 1784SOL    HW2 6252   2.164   1.223   2.030
 1785SOL     OW 6253   6.253   6.078   3.802
 1785SOL    HW1 6254   6.292   6.000   3.754
 1785SOL    HW2 6255   6.232   6.150   3.736
 1786SOL     OW 6256   1.693   4.031   0.657
 1786SOL    HW1 6257   1.676   4.118   0.704
 1786SOL    HW2 6258   1.745   4.048   0.573
 1787SOL     OW 6259   2.701   1.684   5.462
 1787SOL    HW1 6260   2.707   1.780   5.436
 1787SOL    HW2 6261   2.667   1.630   5.386
 1788SOL     OW 6262   3.507   4.182   0.182
 1788SOL    HW1 6263   3.430   4.153   0.125
 1788SOL    HW2 6264   3.582   4.117   0.172
 1789SOL     OW 6265   5.716   2.662   2.169
 1789SOL    HW1 6266   5.638   2.711   2.130
 1789SOL    HW2 6267   5.713   2.669   2.268
 1790SOL     OW 6268   3.237   0.652   4.595
 1790SOL    HW1 6269   3.171   0.650   4.670
 1790SOL    HW2 6270   3.312   0.713   4.619
 1791SOL     OW 6271   6.513   1.196   4.146
 1791SOL    HW1 6272   6.466   1.179   4.059
 1791SOL    HW2 6273   6.445   1.218   4.217
 1792SOL     OW 6274   0.292   1.380   4.246
 1792SOL    HW1 6275   0.262   1.296   4.292
 1792SOL    HW2 6276   0.368   1.420   4.297
 1793SOL     OW 6277   6.812   1.066   4.310
 1793SOL    HW1 6278   6.827   1.046   4.213
 1793SOL    HW2 6279   6.773   1.158   4.319
 1794SOL     OW 6280   4.761   6.605   5.672
 1794SOL    HW1 6281   4.734   6.604   5.768
 1794SOL    HW2 6282   4.683   6.633   5.616
 1795SOL     OW 6283   6.571   5.256   2.221
 1795SOL    HW1 6284   6.603   5.342   2.260
 1795SOL    HW2 6285   6.618   5.179   2.264
 1796SOL     OW 6286   1.933   0.871   4.932
 1796SOL    HW1 6287   2.025   0.910   4.934
 1796SOL    HW2 6288   1.932   0.791   4.872
 1797SOL     OW 6289   1.841   6.989   5.842
 1797SOL    HW1 6290   1.862   0.010   5.932
 1797SOL    HW2 6291   1.742   6.993   5.827
 1798SOL     OW 6292   4.083   3.130   5.261
 1798SOL    HW1 6293   4.118   3.077   5.339
 1798SOL    HW2 6294   4.068   3.224   5.290
 1799SOL     OW 6295   5.888   2.823   6.352
 1799SOL    HW1 6296   5.855   2.869   6.269
 1799SOL    HW2 6297   5.851   2.869   6.432
 1800SOL     OW 6298   4.731   4.800   3.357
 1800SOL    HW1 6299   4.744   4.752   3.444
 1800SOL    HW2 6300   4.657   4.757   3.305
 1801SOL     OW 6301   1.252   1.503   2.921
 1801SOL    HW1 6302   1.314   1.579   2.902
 1801SOL    HW2 6303   1.278   1.424   2.866
 1802SOL     OW 6304   6.346   6.136   2.787
 1802SOL    HW1 6305   6.249   6.114   2.793
 1802SOL    HW2 6306   6.361   6.206   2.717
 1803SOL     OW 6307   6.824   6.814   2.486
 1803SOL    HW1 6308   6.795   6.822   2.581
 1803SOL    HW2 6309   6.823   6.904   2.443
 1804SOL     OW 6310   3.774   3.508   5.151
 1804SOL    HW1 6311   3.855   3.492   5.207
 1804SOL    HW2 6312   3.784   3.595   5.102
 1805SOL     OW 6313   1.352   4.863   5.923
 1805SOL    HW1 6314   1.255   4.837   5.927
 1805SOL    HW2 6315   1.358   4.959   5.895
 1806SOL     OW 6316   0.741   2.400   1.690
 1806SOL    HW1 6317   0.687   2.316   1.700
 1806SOL    HW2 6318   0.682   2.480   1.700
 1807SOL     OW 6319   6.799   2.181   6.259
 1807SOL    HW1 6320   6.755   2.166   6.347
 1807SOL    HW2 6321   6.731   2.170   6.186
 1808SOL     OW 6322   5.763   4.709   4.361
 1808SOL    HW1 6323   5.678   4.743   4.401
 1808SOL    HW2 6324   5.780   4.756   4.274
 1809SOL     OW 6325   3.005   1.985   4.930
 1809SOL    HW1 6326   2.981   1.959   4.837
 1809SOL    HW2 6327   3.026   2.083   4.933
 1810SOL     OW 6328   0.931   0.776   4.780
 1810SOL    HW1 6329   0.851   0.724   4.749
 1810SOL    HW2 6330   0.920   0.871   4.753
 1811SOL     OW 6331   5.149   4.608   2.903
 1811SOL    HW1 6332   5.234   4.637   2.858
 1811SOL    HW2 6333   5.153   4.509   2.919
 1812SOL     OW 6334   4.649   0.097   6.538
 1812SOL    HW1 6335   4.706   0.031   6.490
 1812SOL    HW2 6336   4.571   0.049   6.580
 1813SOL     OW 6337   5.231   4.731   1.684
 1813SOL    HW1 6338   5.218   4.654   1.746
 1813SOL    HW2 6339   5.321   4.772   1.700
 1814SOL     OW 6340   6.097   0.527   1.062
 1814SOL    HW1 6341   6.172   0.519   0.995
 1814SOL    HW2 6342   6.021   0.469   1.034
 1815SOL     OW 6343   6.173   0.355   2.954
 1815SOL    HW1 6344   6.242   0.337   3.025
 1815SOL    HW2 6345   6.205   0.430   2.896
 1816SOL     OW 6346   2.946   5.462   0.340
 1816SOL    HW1 6347   2.890   5.417   0.410
 1816SOL    HW2 6348   2.908   5.551   0.319
 1817SOL     OW 6349   4.581   0.377   2.746
 1817SOL    HW1 6350   4.483   0.362   2.755
 1817SOL    HW2 6351   4.629   0.333   2.823
 1818SOL     OW 6352   2.171   6.614   0.944
 1818SOL    HW1 6353   2.198   6.708   0.924
 1818SOL    HW2 6354   2.102   6.584   0.878
 1819SOL     OW 6355   1.553   6.515   1.873
 1819SOL    HW1 6356   1.557   6.567   1.959
 1819SOL    HW2 6357   1.461   6.480   1.859
 1820SOL     OW 6358   3.713   0.039   2.553
 1820SOL    HW1 6359   3.615   0.031   2.539
 1820SOL    HW2 6360   3.758   0.055   2.465
 1821SOL     OW 6361   2.838   1.403   1.557
 1821SOL    HW1 6362   2.787   1.489   1.566
 1821SOL    HW2 6363   2.928   1.413   1.599
 1822SOL     OW 6364   0.895   2.817   1.828
 1822SOL    HW1 6365   0.957   2.894   1.841
 1822SOL    HW2 6366   0.806   2.838   1.868
 1823SOL     OW 6367   3.098   6.071   3.090
 1823SOL    HW1 6368   3.055   6.033   3.008
 1823SOL    HW2 6369   3.190   6.104   3.067
 1824SOL     OW 6370   3.969   4.427   1.021
 1824SOL    HW1 6371   3.871   4.411   1.010
 1824SOL    HW2 6372   4.001   4.384   1.105
 1825SOL     OW 6373   0.741   2.488   4.515
 1825SOL    HW1 6374   0.674   2.484   4.440
 1825SOL    HW2 6375   0.705   2.441   4.595
 1826SOL     OW 6376   3.108   1.682   1.313
 1826SOL    HW1 6377   3.121   1.739   1.394
 1826SOL    HW2 6378   3.135   1.732   1.232
 1827SOL     OW 6379   6.214   5.392   1.350
 1827SOL    HW1 6380   6.308   5.365   1.373
 1827SOL    HW2 6381   6.150   5.328   1.391
 1828SOL     OW 6382   1.511   2.916   6.536
 1828SOL    HW1 6383   1.541   3.007   6.508
 1828SOL    HW2 6384   1.411   2.912   6.538
 1829SOL     OW 6385   4.405   0.559   3.017
 1829SOL    HW1 6386   4.443   0.559   3.110
 1829SOL    HW2 6387   4.346   0.639   3.007
 1830SOL     OW 6388   5.876   6.022   4.924
 1830SOL    HW1 6389   5.874   6.121   4.917
 1830SOL    HW2 6390   5.917   5.983   4.842
 1831SOL     OW 6391   5.790   6.689   2.402
 1831SOL    HW1 6392   5.696   6.692   2.366
 1831SOL    HW2 6393   5.853   6.662   2.329
 1832SOL     OW 6394   4.050   1.312   0.804
 1832SOL    HW1 6395   4.012   1.378   0.739
 1832SOL    HW2 6396   4.093   1.237   0.754
 1833SOL     OW 6397   5.785   0.497   1.869
 1833SOL    HW1 6398   5.753   0.457   1.955
 1833SOL    HW2 6399   5.823   0.588   1.887
 1834SOL     OW 6400   2.031   4.420   0.891
 1834SOL    HW1 6401   2.129   4.406   0.904
 1834SOL    HW2 6402   2.016   4.469   0.805
 1835SOL     OW 6403   0.634   4.647   1.713
 1835SOL    HW1 6404   0.578   4.726   1.736
 1835SOL    HW2 6405   0.677   4.611   1.795
 1836SOL     OW 6406   5.282   2.170   1.877
 1836SOL    HW1 6407   5.312   2.157   1.972
 1836SOL    HW2 6408   5.362   2.185   1.819
 1837SOL     OW 6409   1.602   7.005   5.644
 1837SOL    HW1 6410   1.575   0.060   5.706
 1837SOL    HW2 6411   1.547   6.924   5.663
 1838SOL     OW 6412   5.622   1.196   5.796
 1838SOL    HW1 6413   5.697   1.226   5.854
 1838SOL    HW2 6414   5.657   1.141   5.721
 1839SOL     OW 6415   6.973   1.266   5.548
 1839SOL    HW1 6416   7.008   1.331   5.615
 1839SOL    HW2 6417   6.999   1.295   5.456
 1840SOL     OW 6418   3.996   0.425   1.999
 1840SOL    HW1 6419   4.083   0.376   1.991
 1840SOL    HW2 6420   4.012   0.516   2.038
 1841SOL     OW 6421   2.467   0.609   3.196
 1841SOL    HW1 6422   2.369   0.604   3.175
 1841SOL    HW2 6423   2.479   0.632   3.292
 1842SOL     OW 6424   1.148   5.803   1.339
 1842SOL    HW1 6425   1.093   5.809   1.255
 1842SOL    HW2 6426   1.209   5.724   1.332
 1843SOL     OW 6427   5.716   0.632   4.787
 1843SOL    HW1 6428   5.814   0.632   4.772
 1843SOL    HW2 6429   5.681   0.539   4.778
 1844SOL     OW 6430   3.791   0.456   4.799
 1844SOL    HW1 6431   3.845   0.535   4.829
 1844SOL    HW2 6432   3.849   0.375   4.796
 1845SOL     OW 6433   2.525   6.597   4.264
 1845SOL    HW1 6434   2.426   6.588   4.263
 1845SOL    HW2 6435   2.552   6.666   4.332
 1846SOL     OW 6436   4.455   1.101   2.444
 1846SOL    HW1 6437   4.469   1.109   2.346
 1846SOL    HW2 6438   4.510   1.025   2.479
 1847SOL     OW 6439   1.603   0.159   5.881
 1847SOL    HW1 6440   1.548   0.243   5.889
 1847SOL    HW2 6441   1.574   0.093   5.950
 1848SOL     OW 6442   1.809   6.426   3.067
 1848SOL    HW1 6443   1.763   6.512   3.047
 1848SOL    HW2 6444   1.853   6.391   2.984
 1849SOL     OW 6445   4.499   2.446   1.343
 1849SOL    HW1 6446   4.509   2.364   1.400
 1849SOL    HW2 6447   4.587   2.468   1.302
 1850SOL     OW 6448   6.816   2.306   2.286
 1850SOL    HW1 6449   6.893   2.253   2.251
 1850SOL    HW2 6450   6.788   2.269   2.375
 1851SOL     OW 6451   1.036   3.493   0.465
 1851SOL    HW1 6452   1.008   3.584   0.435
 1851SOL    HW2 6453   1.017   3.426   0.393
 1852SOL     OW 6454   6.888   4.703   2.463
 1852SOL    HW1 6455   6.921   4.796   2.452
 1852SOL    HW2 6456   6.964   4.639   2.453
 1853SOL     OW 6457   6.438   2.582   2.893
 1853SOL    HW1 6458   6.427   2.667   2.944
 1853SOL    HW2 6459   6.409   2.597   2.798
 1854SOL     OW 6460   1.905   5.055   2.157
 1854SOL    HW1 6461   1.850   5.138   2.169
 1854SOL    HW2 6462   1.995   5.069   2.199
 1855SOL     OW 6463   5.741   3.461   5.073
 1855SOL    HW1 6464   5.788   3.544   5.102
 1855SOL    HW2 6465   5.644   3.481   5.058
 1856SOL     OW 6466   4.838   3.118   6.491
 1856SOL    HW1 6467   4.824   3.023   6.464
 1856SOL    HW2 6468   4.932   3.131   6.521
 1857SOL     OW 6469   4.026   1.770   0.217
 1857SOL    HW1 6470   4.036   1.841   0.287
 1857SOL    HW2 6471   3.992   1.686   0.260
 1858SOL     OW 6472   5.139   3.010   3.160
 1858SOL    HW1 6473   5.186   2.953   3.227
 1858SOL    HW2 6474   5.040   2.999   3.171
 1859SOL     OW 6475   4.274   1.560   3.708
 1859SOL    HW1 6476   4.198   1.542   3.646
 1859SOL    HW2 6477   4.298   1.657   3.704
 1860SOL     OW 6478   6.942   1.715   5.574
 1860SOL    HW1 6479   7.018   1.664   5.615
 1860SOL    HW2 6480   6.898   1.659   5.503
 1861SOL     OW 6481   5.244   0.158   2.825
 1861SOL    HW1 6482   5.164   0.182   2.770
 1861SOL    HW2 6483   5.292   0.081   2.782
 1862SOL     OW 6484   2.446   6.788   6.737
 1862SOL    HW1 6485   2.409   6.862   6.680
 1862SOL    HW2 6486   2.468   6.709   6.679
 1863SOL     OW 6487   6.876   3.237   2.972
 1863SOL    HW1 6488   6.877   3.145   3.011
 1863SOL    HW2 6489   6.933   3.297   3.029
 1864SOL     OW 6490   3.112   5.561   4.668
 1864SOL    HW1 6491   3.099   5.585   4.572
 1864SOL    HW2 6492   3.100   5.462   4.680
 1865SOL     OW 6493   3.583   0.388   0.532
 1865SOL    HW1 6494   3.552   0.457   0.466
 1865SOL    HW2 6495   3.664   0.342   0.496
 1866SOL     OW 6496   7.019   4.936   3.855
 1866SOL    HW1 6497   7.003   5.025   3.898
 1866SOL    HW2 6498   0.048   4.950   3.769
 1867SOL     OW 6499   1.809   4.399   1.482
 1867SOL    HW1 6500   1.847   4.339   1.412
 1867SOL    HW2 6501   1.856   4.382   1.569
 1868SOL     OW 6502   5.245   3.483   6.249
 1868SOL    HW1 6503   5.295   3.508   6.332
 1868SOL    HW2 6504   5.310   3.465   6.175
 1869SOL     OW 6505   6.146   3.393   4.797
 1869SOL    HW1 6506   6.192   3.305   4.811
 1869SOL    HW2 6507   6.184   3.460   4.861
 1870SOL     OW 6508   1.168   3.630   5.098
 1870SOL    HW1 6509   1.130   3.673   5.016
 1870SOL    HW2 6510   1.093   3.596   5.155
 1871SOL     OW 6511   0.100   0.015   0.693
 1871SOL    HW1 6512   0.047   0.091   0.731
 1871SOL    HW2 6513   0.128   6.972   0.767
 1872SOL     OW 6514   4.211   2.392   0.091
 1872SOL    HW1 6515   4.163   2.479   0.104
 1872SOL    HW2 6516   4.212   2.340   0.176
 1873SOL     OW 6517   5.968   0.494   5.944
 1873SOL    HW1 6518   6.028   0.573   5.954
 1873SOL    HW2 6519   5.877   0.517   5.979
 1874SOL     OW 6520   1.337   1.554   6.597
 1874SOL    HW1 6521   1.418   1.609   6.619
 1874SOL    HW2 6522   1.362   1.457   6.595
 1875SOL     OW 6523   6.662   0.228   0.801
 1875SOL    HW1 6524   6.681   0.308   0.858
 1875SOL    HW2 6525   6.701   0.242   0.710
 1876SOL     OW 6526   3.774   5.835   6.409
 1876SOL    HW1 6527   3.874   5.842   6.414
 1876SOL    HW2 6528   3.735   5.871   6.494
 1877SOL     OW 6529   1.301   1.650   3.596
 1877SOL    HW1 6530   1.263   1.637   3.688
 1877SOL    HW2 6531   1.234   1.619   3.528
 1878SOL     OW 6532   6.806   3.448   4.297
 1878SOL    HW1 6533   6.767   3.412   4.381
 1878SOL    HW2 6534   6.744   3.516   4.258
 1879SOL     OW 6535   2.695   6.381   3.986
 1879SOL    HW1 6536   2.785   6.422   4.000
 1879SOL    HW2 6537   2.702   6.282   3.996
 1880SOL     OW 6538   0.182   2.181   2.893
 1880SOL    HW1 6539   0.177   2.092   2.938
 1880SOL    HW2 6540   0.276   2.201   2.867
 1881SOL     OW 6541   1.578   2.154   3.782
 1881SOL    HW1 6542   1.516   2.076   3.792
 1881SOL    HW2 6543   1.560   2.220   3.855
 1882SOL     OW 6544   0.908   5.025   0.002
 1882SOL    HW1 6545   0.835   5.061   6.963
 1882SOL    HW2 6546   0.995   5.066   6.994
 1883SOL     OW 6547   1.173   3.289   4.009
 1883SOL    HW1 6548   1.254   3.301   3.952
 1883SOL    HW2 6549   1.095   3.336   3.966
 1884SOL     OW 6550   6.080   2.707   1.276
 1884SOL    HW1 6551   6.027   2.763   1.213
 1884SOL    HW2 6552   6.045   2.613   1.274
 1885SOL     OW 6553   0.109   2.059   0.727
 1885SOL    HW1 6554   0.075   2.099   0.812
 1885SOL    HW2 6555   0.167   2.126   0.680
 1886SOL     OW 6556   2.477   2.100   0.486
 1886SOL    HW1 6557   2.495   2.088   0.584
 1886SOL    HW2 6558   2.564   2.098   0.436
 1887SOL     OW 6559   0.829   4.514   5.111
 1887SOL    HW1 6560   0.852   4.541   5.205
 1887SOL    HW2 6561   0.745   4.460   5.111
 1888SOL     OW 6562   2.915   1.853   5.708
 1888SOL    HW1 6563   2.953   1.937   5.746
 1888SOL    HW2 6564   2.906   1.862   5.609
 1889SOL     OW 6565   5.628   2.677   6.657
 1889SOL    HW1 6566   5.689   2.741   6.705
 1889SOL    HW2 6567   5.581   2.725   6.583
 1890SOL     OW 6568   1.443   5.813   5.488
 1890SOL    HW1 6569   1.489   5.900   5.505
 1890SOL    HW2 6570   1.467   5.780   5.397
 1891SOL     OW 6571   5.368   3.008   4.359
 1891SOL    HW1 6572   5.342   3.104   4.351
 1891SOL    HW2 6573   5.300   2.959   4.413
 1892SOL     OW 6574   3.921   0.078   0.912
 1892SOL    HW1 6575   3.959   0.006   0.970
 1892SOL    HW2 6576   3.873   0.144   0.969
 1893SOL     OW 6577   3.217   1.476   5.386
 1893SOL    HW1 6578   3.278   1.549   5.356
 1893SOL    HW2 6579   3.128   1.487   5.342
 1894SOL     OW 6580   3.936   3.635   2.215
 1894SOL    HW1 6581   4.006   3.579   2.258
 1894SOL    HW2 6582   3.898   3.585   2.136
 1895SOL     OW 6583   5.337   0.975   2.815
 1895SOL    HW1 6584   5.314   0.931   2.902
 1895SOL    HW2 6585   5.307   1.070   2.817
 1896SOL     OW 6586   0.611   0.714   3.132
 1896SOL    HW1 6587   0.520   0.707   3.172
 1896SOL    HW2 6588   0.664   0.783   3.181
 1897SOL     OW 6589   0.870   5.136   2.449
 1897SOL    HW1 6590   0.789   5.123   2.392
 1897SOL    HW2 6591   0.890   5.052   2.499
 1898SOL     OW 6592   3.242   5.176   2.056
 1898SOL    HW1 6593   3.280   5.188   2.148
 1898SOL    HW2 6594   3.258   5.082   2.025
 1899SOL     OW 6595   0.906   2.556   2.407
 1899SOL    HW1 6596   0.887   2.654   2.398
 1899SOL    HW2 6597   0.987   2.543   2.465
 1900SOL     OW 6598   0.824   0.161   5.195
 1900SOL    HW1 6599   0.896   0.102   5.157
 1900SOL    HW2 6600   0.798   0.230   5.126
 1901SOL     OW 6601   2.347   1.185   1.544
 1901SOL    HW1 6602   2.362   1.177   1.642
 1901SOL    HW2 6603   2.436   1.192   1.497
 1902SOL     OW 6604   2.723   2.390   4.827
 1902SOL    HW1 6605   2.791   2.450   4.786
 1902SOL    HW2 6606   2.638   2.440   4.840
 1903SOL     OW 6607   6.815   4.062   3.712
 1903SOL    HW1 6608   6.827   3.964   3.726
 1903SOL    HW2 6609   6.891   4.111   3.755
 1904SOL     OW 6610   5.788   6.590   4.072
 1904SOL    HW1 6611   5.776   6.654   4.147
 1904SOL    HW2 6612   5.829   6.506   4.106
 1905SOL     OW 6613   1.453   1.674   4.668
 1905SOL    HW1 6614   1.455   1.574   4.667
 1905SOL    HW2 6615   1.371   1.706   4.715
 1906SOL     OW 6616   3.022   6.929   5.156
 1906SOL    HW1 6617   2.979   6.862   5.217
 1906SOL    HW2 6618   3.041   7.013   5.206
 1907SOL     OW 6619   3.601   6.822   3.165
 1907SOL    HW1 6620   3.641   6.858   3.081
 1907SOL    HW2 6621   3.504   6.846   3.169
 1908SOL     OW 6622   4.420   0.877   4.716
 1908SOL    HW1 6623   4.468   0.796   4.749
 1908SOL    HW2 6624   4.376   0.923   4.793
 1909SOL     OW 6625   1.665   3.662   2.829
 1909SOL    HW1 6626   1.704   3.735   2.885
 1909SOL    HW2 6627   1.567   3.656   2.847
 1910SOL     OW 6628   0.134   2.545   6.597
 1910SOL    HW1 6629   0.101   2.597   6.518
 1910SOL    HW2 6630   0.059   2.489   6.633
 1911SOL     OW 6631   5.892   2.074   5.284
 1911SOL    HW1 6632   5.892   2.168   5.317
 1911SOL    HW2 6633   5.831   2.019   5.341
 1912SOL     OW 6634   3.511   6.883   1.299
 1912SOL    HW1 6635   3.540   6.814   1.366
 1912SOL    HW2 6636   3.446   6.841   1.235
 1913SOL     OW 6637   1.427   5.676   5.732
 1913SOL    HW1 6638   1.514   5.702   5.774
 1913SOL    HW2 6639   1.427   5.705   5.636
 1914SOL     OW 6640   3.040   2.314   0.038
 1914SOL    HW1 6641   2.988   2.318   6.972
 1914SOL    HW2 6642   2.982   2.340   0.115
 1915SOL     OW 6643   3.706   1.722   5.349
 1915SOL    HW1 6644   3.690   1.662   5.270
 1915SOL    HW2 6645   3.698   1.817   5.321
 1916SOL     OW 6646   3.580   6.371   1.324
 1916SOL    HW1 6647   3.663   6.320   1.301
 1916SOL    HW2 6648   3.587   6.464   1.288
 1917SOL     OW 6649   3.268   2.967   4.269
 1917SOL    HW1 6650   3.256   2.927   4.178
 1917SOL    HW2 6651   3.356   2.938   4.306
 1918SOL     OW 6652   6.993   0.257   6.223
 1918SOL    HW1 6653   7.005   0.262   6.124
 1918SOL    HW2 6654   6.895   0.256   6.244
 1919SOL     OW 6655   2.216   6.991   1.353
 1919SOL    HW1 6656   2.267   6.961   1.433
 1919SOL    HW2 6657   2.157   0.049   1.377
 1920SOL     OW 6658   1.295   5.217   2.462
 1920SOL    HW1 6659   1.335   5.301   2.501
 1920SOL    HW2 6660   1.364   5.168   2.409
 1921SOL     OW 6661   1.389   4.542   0.044
 1921SOL    HW1 6662   1.290   4.551   0.033
 1921SOL    HW2 6663   1.432   4.629   0.020
 1922SOL     OW 6664   3.482   4.404   0.823
 1922SOL    HW1 6665   3.572   4.360   0.816
 1922SOL    HW2 6666   3.466   4.461   0.742
 1923SOL     OW 6667   3.137   1.278   5.873
 1923SOL    HW1 6668   3.109   1.372   5.894
 1923SOL    HW2 6669   3.236   1.269   5.885
 1924SOL     OW 6670   5.473   4.857   1.745
 1924SOL    HW1 6671   5.477   4.931   1.812
 1924SOL    HW2 6672   5.563   4.815   1.736
 1925SOL     OW 6673   2.873   3.919   1.681
 1925SOL    HW1 6674   2.846   3.845   1.619
 1925SOL    HW2 6675   2.947   3.972   1.640
 1926SOL     OW 6676   1.244   0.007   3.390
 1926SOL    HW1 6677   1.197   6.991   3.309
 1926SOL    HW2 6678   1.302   0.084   3.364
 1927SOL     OW 6679   3.312   5.288   6.443
 1927SOL    HW1 6680   3.320   5.301   6.542
 1927SOL    HW2 6681   3.259   5.205   6.424
 1928SOL     OW 6682   6.896   4.102   5.903
 1928SOL    HW1 6683   6.946   4.173   5.952
 1928SOL    HW2 6684   6.868   4.030   5.968
 1929SOL     OW 6685   0.588   6.331   1.564
 1929SOL    HW1 6686   0.515   6.382   1.520
 1929SOL    HW2 6687   0.655   6.302   1.495
 1930SOL     OW 6688   3.504   3.949   6.787
 1930SOL    HW1 6689   3.570   3.984   6.852
 1930SOL    HW2 6690   3.427   4.012   6.780
 1931SOL     OW 6691   0.280   2.841   2.576
 1931SOL    HW1 6692   0.259   2.744   2.564
 1931SOL    HW2 6693   0.242   2.872   2.664
 1932SOL     OW 6694   5.160   3.569   3.161
 1932SOL    HW1 6695   5.108   3.525   3.088
 1932SOL    HW2 6696   5.123   3.540   3.250
 1933SOL     OW 6697   2.603   4.534   0.816
 1933SOL    HW1 6698   2.580   4.453   0.871
 1933SOL    HW2 6699   2.561   4.615   0.858
 1934SOL     OW 6700   0.512   0.348   4.322
 1934SOL    HW1 6701   0.537   0.281   4.392
 1934SOL    HW2 6702   0.524   0.440   4.358
 1935SOL     OW 6703   3.765   6.802   4.475
 1935SOL    HW1 6704   3.699   6.771   4.407
 1935SOL    HW2 6705   3.773   6.902   4.471
 1936SOL     OW 6706   6.160   4.310   4.056
 1936SOL    HW1 6707   6.199   4.280   4.143
 1936SOL    HW2 6708   6.228   4.362   4.005
 1937SOL     OW 6709   5.280   0.523   0.885
 1937SOL    HW1 6710   5.245   0.539   0.977
 1937SOL    HW2 6711   5.225   0.453   0.839
 1938SOL     OW 6712   3.227   1.110   2.019
 1938SOL    HW1 6713   3.312   1.076   1.979
 1938SOL    HW2 6714   3.177   1.034   2.060
 1939SOL     OW 6715   0.479   6.840   4.283
 1939SOL    HW1 6716   0.509   6.841   4.188
 1939SOL    HW2 6717   0.484   6.747   4.319
 1940SOL     OW 6718   4.186   4.596   6.826
 1940SOL    HW1 6719   4.211   4.594   6.729
 1940SOL    HW2 6720   4.169   4.503   6.858
 1941SOL     OW 6721   0.197   4.562   3.258
 1941SOL    HW1 6722   0.163   4.650   3.294
 1941SOL    HW2 6723   0.157   4.545   3.168
 1942SOL     OW 6724   5.584   0.155   2.045
 1942SOL    HW1 6725   5.596   0.253   2.063
 1942SOL    HW2 6726   5.522   0.144   1.967
 1943SOL     OW 6727   2.341   6.391   2.359
 1943SOL    HW1 6728   2.299   6.475   2.325
 1943SOL    HW2 6729   2.440   6.394   2.343
 1944SOL     OW 6730   5.905   2.147   0.769
 1944SOL    HW1 6731   5.807   2.165   0.763
 1944SOL    HW2 6732   5.922   2.073   0.834
 1945SOL     OW 6733   3.579   5.586   1.987
 1945SOL    HW1 6734   3.614   5.492   1.988
 1945SOL    HW2 6735   3.480   5.585   1.995
 1946SOL     OW 6736   6.905   0.465   1.228
 1946SOL    HW1 6737   6.953   0.499   1.147
 1946SOL    HW2 6738   6.891   0.540   1.293
 1947SOL     OW 6739   4.411   6.868   4.526
 1947SOL    HW1 6740   4.468   6.803   4.476
 1947SOL    HW2 6741   4.468   6.942   4.561
 1948SOL     OW 6742   5.678   5.397   3.513
 1948SOL    HW1 6743   5.684   5.455   3.595
 1948SOL    HW2 6744   5.647   5.452   3.436
 1949SOL     OW 6745   3.468   4.483   6.560
 1949SOL    HW1 6746   3.403   4.494   6.636
 1949SOL    HW2 6747   3.429   4.421   6.492
 1950SOL     OW 6748   3.672   4.884   1.039
 1950SOL    HW1 6749   3.757   4.860   1.086
 1950SOL    HW2 6750   3.694   4.936   0.956
 1951SOL     OW 6751   6.110   4.206   0.005
 1951SOL    HW1 6752   6.040   4.227   6.956
 1951SOL    HW2 6753   6.093   4.259   0.088
 1952SOL     OW 6754   4.038   2.686   0.045
 1952SOL    HW1 6755   4.102   2.739   7.008
 1952SOL    HW2 6756   3.947   2.692   0.006
 1953SOL     OW 6757   5.572   1.969   0.374
 1953SOL    HW1 6758   5.502   1.999   0.310
 1953SOL    HW2 6759   5.592   2.043   0.439
 1954SOL     OW 6760   5.644   1.399   3.672
 1954SOL    HW1 6761   5.566   1.387   3.733
 1954SOL    HW2 6762   5.629   1.349   3.586
 1955SOL     OW 6763   1.135   1.332   2.171
 1955SOL    HW1 6764   1.177   1.366   2.255
 1955SOL    HW2 6765   1.143   1.402   2.100
 1956SOL     OW 6766   4.763   6.620   2.152
 1956SOL    HW1 6767   4.833   6.559   2.189
 1956SOL    HW2 6768   4.675   6.600   2.195
 1957SOL     OW 6769   6.078   5.351   4.748
 1957SOL    HW1 6770   6.158   5.294   4.766
 1957SOL    HW2 6771   6.093   5.442   4.788
 1958SOL     OW 6772   5.361   2.292   2.603
 1958SOL    HW1 6773   5.361   2.227   2.527
 1958SOL    HW2 6774   5.311   2.253   2.680
 1959SOL     OW 6775   0.507   1.073   5.057
 1959SOL    HW1 6776   0.561   1.025   4.988
 1959SOL    HW2 6777   0.465   1.006   5.118
 1960SOL     OW 6778   6.636   4.484   2.468
 1960SOL    HW1 6779   6.596   4.442   2.387
 1960SOL    HW2 6780   6.735   4.481   2.462
 1961SOL     OW 6781   5.878   4.386   4.187
 1961SOL    HW1 6782   5.832   4.471   4.160
 1961SOL    HW2 6783   5.967   4.407   4.227
 1962SOL     OW 6784   2.478   6.637   3.489
 1962SOL    HW1 6785   2.562   6.683   3.516
 1962SOL    HW2 6786   2.490   6.599   3.397
 1963SOL     OW 6787   0.833   1.175   1.794
 1963SOL    HW1 6788   0.862   1.262   1.753
 1963SOL    HW2 6789   0.820   1.187   1.893
 1964SOL     OW 6790   4.490   4.094   1.123
 1964SOL    HW1 6791   4.414   4.145   1.082
 1964SOL    HW2 6792   4.576   4.140   1.102
 1965SOL     OW 6793   1.082   3.556   4.558
 1965SOL    HW1 6794   1.166   3.503   4.546
 1965SOL    HW2 6795   1.053   3.592   4.469
 1966SOL     OW 6796   0.070   6.028   0.445
 1966SOL    HW1 6797   0.097   6.036   0.541
 1966SOL    HW2 6798   0.050   6.119   0.408
 1967SOL     OW 6799   5.216   2.477   4.978
 1967SOL    HW1 6800   5.123   2.500   5.005
 1967SOL    HW2 6801   5.269   2.561   4.964
 1968SOL     OW 6802   3.111   6.898   0.287
 1968SOL    HW1 6803   3.151   6.964   0.351
 1968SOL    HW2 6804   3.091   6.813   0.335
 1969SOL     OW 6805   0.921   1.773   1.728
 1969SOL    HW1 6806   0.993   1.734   1.786
 1969SOL    HW2 6807   0.837   1.720   1.740
 1970SOL     OW 6808   2.052   6.872   6.120
 1970SOL    HW1 6809   2.050   6.840   6.214
 1970SOL    HW2 6810   2.140   6.916   6.101
 1971SOL     OW 6811   0.233   6.931   5.694
 1971SOL    HW1 6812   0.332   6.918   5.686
 1971SOL    HW2 6813   0.206   6.922   5.789
 1972SOL     OW 6814   5.632   2.324   2.718
 1972SOL    HW1 6815   5.694   2.246   2.728
 1972SOL    HW2 6816   5.547   2.294   2.675
 1973SOL     OW 6817   2.501   2.608   0.144
 1973SOL    HW1 6818   2.502   2.559   0.232
 1973SOL    HW2 6819   2.547   2.553   0.075
 1974SOL     OW 6820   5.538   5.918   4.093
 1974SOL    HW1 6821   5.550   5.982   4.169
 1974SOL    HW2 6822   5.445   5.883   4.093
 1975SOL     OW 6823   2.142   1.696   3.756
 1975SOL    HW1 6824   2.135   1.596   3.752
 1975SOL    HW2 6825   2.130   1.726   3.851
 1976SOL     OW 6826   0.791   6.502   6.219
 1976SOL    HW1 6827   0.891   6.510   6.209
 1976SOL    HW2 6828   0.770   6.420   6.273
 1977SOL     OW 6829   0.734   3.413   4.430
 1977SOL    HW1 6830   0.766   3.497   4.385
 1977SOL    HW2 6831   0.788   3.336   4.399
 1978SOL     OW 6832   1.317   0.292   2.771
 1978SOL    HW1 6833   1.258   0.358   2.819
 1978SOL    HW2 6834   1.405   0.286   2.817
 1979SOL     OW 6835   6.218   4.240   6.055
 1979SOL    HW1 6836   6.259   4.188   5.980
 1979SOL    HW2 6837   6.290   4.269   6.118
 1980SOL     OW 6838   2.486   0.382   5.157
 1980SOL    HW1 6839   2.390   0.358   5.170
 1980SOL    HW2 6840   2.494   0.481   5.143
 1981SOL     OW 6841   6.616   1.943   2.769
 1981SOL    HW1 6842   6.557   2.023   2.757
 1981SOL    HW2 6843   6.639   1.905   2.679
 1982SOL     OW 6844   0.582   4.210   4.888
 1982SOL    HW1 6845   0.485   4.220   4.869
 1982SOL    HW2 6846   0.619   4.296   4.921
 1983SOL     OW 6847   0.691   1.384   2.787
 1983SOL    HW1 6848   0.622   1.316   2.763
 1983SOL    HW2 6849   0.759   1.342   2.848
 1984SOL     OW 6850   6.357   1.725   4.970
 1984SOL    HW1 6851   6.440   1.774   4.945
 1984SOL    HW2 6852   6.305   1.777   5.037
 1985SOL     OW 6853   1.140   6.048   2.286
 1985SOL    HW1 6854   1.051   6.059   2.330
 1985SOL    HW2 6855   1.186   5.967   2.323
 1986SOL     OW 6856   1.467   0.728   0.207
 1986SOL    HW1 6857   1.544   0.771   0.160
 1986SOL    HW2 6858   1.499   0.646   0.254
 1987SOL     OW 6859   2.035   2.576   2.264
 1987SOL    HW1 6860   2.086   2.555   2.180
 1987SOL    HW2 6861   1.986   2.494   2.294
 1988SOL     OW 6862   5.800   4.070   0.595
 1988SOL    HW1 6863   5.891   4.052   0.632
 1988SOL    HW2 6864   5.755   4.141   0.649
 1989SOL     OW 6865   2.259   6.238   4.345
 1989SOL    HW1 6866   2.299   6.206   4.430
 1989SOL    HW2 6867   2.161   6.220   4.345
 1990SOL     OW 6868   3.026   6.629   7.019
 1990SOL    HW1 6869   3.056   6.570   6.945
 1990SOL    HW2 6870   3.065   6.598   0.086
 1991SOL     OW 6871   4.202   4.387   6.165
 1991SOL    HW1 6872   4.145   4.343   6.235
 1991SOL    HW2 6873   4.268   4.448   6.210
 1992SOL     OW 6874   0.609   0.537   0.173
 1992SOL    HW1 6875   0.704   0.511   0.153
 1992SOL    HW2 6876   0.581   0.496   0.260
 1993SOL     OW 6877   3.980   3.214   4.695
 1993SOL    HW1 6878   4.003   3.228   4.792
 1993SOL    HW2 6879   4.055   3.249   4.638
 1994SOL     OW 6880   1.022   1.033   0.451
 1994SOL    HW1 6881   0.943   1.095   0.443
 1994SOL    HW2 6882   1.077   1.060   0.530
 1995SOL     OW 6883   5.549   2.158   3.236
 1995SOL    HW1 6884   5.632   2.214   3.229
 1995SOL    HW2 6885   5.574   2.064   3.259
 1996SOL     OW 6886   2.555   3.556   0.777
 1996SOL    HW1 6887   2.584   3.555   0.873
 1996SOL    HW2 6888   2.499   3.637   0.761
 1997SOL     OW 6889   4.199   1.270   4.776
 1997SOL    HW1 6890   4.205   1.287   4.874
 1997SOL    HW2 6891   4.291   1.257   4.739
 1998SOL     OW 6892   2.400   4.152   6.314
 1998SOL    HW1 6893   2.322   4.127   6.372
 1998SOL    HW2 6894   2.482   4.156   6.370
 1999SOL     OW 6895   3.322   6.742   1.131
 1999SOL    HW1 6896   3.308   6.662   1.073
 1999SOL    HW2 6897   3.243   6.804   1.123
 2000SOL     OW 6898   4.418   2.248   5.245
 2000SOL    HW1 6899   4.512   2.264   5.218
 2000SOL    HW2 6900   4.406   2.152   5.272
 2001SOL     OW 6901   2.721   1.526   2.241
 2001SOL    HW1 6902   2.745   1.450   2.180
 2001SOL    HW2 6903   2.734   1.612   2.192
 2002SOL     OW 6904   0.897   4.767   6.815
 2002SOL    HW1 6905   0.879   4.670   6.832
 2002SOL    HW2 6906   0.914   4.814   6.902
 2003SOL     OW 6907   5.991   6.132   1.941
 2003SOL    HW1 6908   6.083   6.170   1.950
 2003SOL    HW2 6909   5.954   6.112   2.031
 2004SOL     OW 6910   4.905   0.989   5.638
 2004SOL    HW1 6911   4.843   1.037   5.700
 2004SOL    HW2 6912   4.988   1.043   5.626
 2005SOL     OW 6913   1.186   5.162   0.299
 2005SOL    HW1 6914   1.103   5.120   0.335
 2005SOL    HW2 6915   1.163   5.246   0.250
 2006SOL     OW 6916   4.852   6.065   3.746
 2006SOL    HW1 6917   4.768   6.105   3.783
 2006SOL    HW2 6918   4.872   6.107   3.658
 2007SOL     OW 6919   4.307   4.702   0.877
 2007SOL    HW1 6920   4.341   4.760   0.802
 2007SOL    HW2 6921   4.227   4.651   0.846
 2008SOL     OW 6922   2.466   5.267   3.907
 2008SOL    HW1 6923   2.393   5.277   3.839
 2008SOL    HW2 6924   2.505   5.175   3.902
 2009SOL     OW 6925   5.830   0.489   2.421
 2009SOL    HW1 6926   5.860   0.545   2.497
 2009SOL    HW2 6927   5.732   0.470   2.431
 2010SOL     OW 6928   1.818   1.751   1.278
 2010SOL    HW1 6929   1.854   1.736   1.370
 2010SOL    HW2 6930   1.892   1.743   1.212
 2011SOL     OW 6931   6.610   0.748   4.634
 2011SOL    HW1 6932   6.696   0.781   4.674
 2011SOL    HW2 6933   6.598   0.788   4.543
 2012SOL     OW 6934   1.861   3.489   2.008
 2012SOL    HW1 6935   1.937   3.425   1.996
 2012SOL    HW2 6936   1.821   3.511   1.919
 2013SOL     OW 6937   6.365   2.339   3.258
 2013SOL    HW1 6938   6.408   2.285   3.331
 2013SOL    HW2 6939   6.277   2.298   3.235
 2014SOL     OW 6940   2.435   5.258   3.307
 2014SOL    HW1 6941   2.345   5.214   3.312
 2014SOL    HW2 6942   2.429   5.348   3.351
 2015SOL     OW 6943   1.981   1.249   0.392
 2015SOL    HW1 6944   1.935   1.337   0.381
 2015SOL    HW2 6945   2.049   1.255   0.465
 2016SOL     OW 6946   0.830   6.106   4.608
 2016SOL    HW1 6947   0.776   6.138   4.685
 2016SOL    HW2 6948   0.819   6.007   4.598
 2017SOL     OW 6949   3.313   0.093   4.187
 2017SOL    HW1 6950   3.340   0.009   4.232
 2017SOL    HW2 6951   3.283   0.073   4.093
 2018SOL     OW 6952   5.645   6.404   5.459
 2018SOL    HW1 6953   5.658   6.373   5.364
 2018SOL    HW2 6954   5.611   6.327   5.514
 2019SOL     OW 6955   5.483   3.068   0.541
 2019SOL    HW1 6956   5.526   3.108   0.622
 2019SOL    HW2 6957   5.384   3.069   0.552
 2020SOL     OW 6958   1.532   6.030   5.010
 2020SOL    HW1 6959   1.577   5.958   4.958
 2020SOL    HW2 6960   1.583   6.116   5.000
 2021SOL     OW 6961   1.447   5.894   3.547
 2021SOL    HW1 6962   1.384   5.890   3.624
 2021SOL    HW2 6963   1.541   5.891   3.581
 2022SOL     OW 6964   1.588   3.892   3.290
 2022SOL    HW1 6965   1.534   3.880   3.374
 2022SOL    HW2 6966   1.623   3.803   3.260
 2023SOL     OW 6967   6.284   0.827   6.285
 2023SOL    HW1 6968   6.226   0.746   6.277
 2023SOL    HW2 6969   6.229   0.902   6.323
 2024SOL     OW 6970   0.379   6.808   3.766
 2024SOL    HW1 6971   0.325   6.892   3.754
 2024SOL    HW2 6972   0.459   6.828   3.823
 2025SOL     OW 6973   2.349   2.237   3.221
 2025SOL    HW1 6974   2.445   2.214   3.208
 2025SOL    HW2 6975   2.341   2.316   3.283
 2026SOL     OW 6976   0.484   3.119   5.724
 2026SOL    HW1 6977   0.547   3.119   5.646
 2026SOL    HW2 6978   0.404   3.175   5.701
 2027SOL     OW 6979   0.478   0.995   0.448
 2027SOL    HW1 6980   0.515   1.066   0.508
 2027SOL    HW2 6981   0.553   0.936   0.418
 2028SOL     OW 6982   3.130   0.030   4.910
 2028SOL    HW1 6983   3.225   0.010   4.888
 2028SOL    HW2 6984   3.099   6.988   4.983
 2029SOL     OW 6985   6.303   0.945   0.623
 2029SOL    HW1 6986   6.280   0.852   0.652
 2029SOL    HW2 6987   6.218   0.994   0.602
 2030SOL     OW 6988   2.795   0.703   2.799
 2030SOL    HW1 6989   2.756   0.694   2.891
 2030SOL    HW2 6990   2.804   0.799   2.776
 2031SOL     OW 6991   6.316   5.881   1.436
 2031SOL    HW1 6992   6.413   5.860   1.429
 2031SOL    HW2 6993   6.301   5.941   1.515
 2032SOL     OW 6994   5.072   6.802   1.660
 2032SOL    HW1 6995   5.069   6.753   1.573
 2032SOL    HW2 6996   4.979   6.814   1.695
 2033SOL     OW 6997   3.336   3.725   6.706
 2033SOL    HW1 6998   3.405   3.653   6.694
 2033SOL    HW2 6999   3.381   3.812   6.724
 2034SOL     OW 7000   3.307   6.349   5.158
 2034SOL    HW1 7001   3.359   6.270   5.190
 2034SOL    HW2 7002   3.339   6.432   5.203
 2035SOL     OW 7003   0.605   0.354   2.796
 2035SOL    HW1 7004   0.553   0.421   2.742
 2035SOL    HW2 7005   0.682   0.320   2.742
 2036SOL     OW 7006   1.781   4.979   2.785
 2036SOL    HW1 7007   1.800   4.918   2.862
 2036SOL    HW2 7008   1.857   4.978   2.721
 2037SOL     OW 7009   6.654   3.304   5.429
 2037SOL    HW1 7010   6.717   3.286   5.505
 2037SOL    HW2 7011   6.701   3.360   5.360
 2038SOL     OW 7012   1.289   2.214   6.661
 2038SOL    HW1 7013   1.253   2.185   6.750
 2038SOL    HW2 7014   1.229   2.180   6.589
 2039SOL     OW 7015   0.892   5.923   3.225
 2039SOL    HW1 7016   0.975   5.907   3.277
 2039SOL    HW2 7017   0.906   5.896   3.130
 2040SOL     OW 7018   3.208   3.364   4.715
 2040SOL    HW1 7019   3.262   3.319   4.644
 2040SOL    HW2 7020   3.111   3.360   4.691
 2041SOL     OW 7021   0.355   6.220   5.239
 2041SOL    HW1 7022   0.329   6.303   5.188
 2041SOL    HW2 7023   0.429   6.242   5.302
 2042SOL     OW 7024   4.985   5.208   6.695
 2042SOL    HW1 7025   4.931   5.273   6.642
 2042SOL    HW2 7026   4.977   5.117   6.654
 2043SOL     OW 7027   6.807   3.437   4.027
 2043SOL    HW1 7028   6.870   3.395   3.962
 2043SOL    HW2 7029   6.844   3.429   4.120
 2044SOL     OW 7030   6.271   6.663   1.298
 2044SOL    HW1 7031   6.341   6.608   1.252
 2044SOL    HW2 7032   6.181   6.641   1.261
 2045SOL     OW 7033   2.910   4.800   3.717
 2045SOL    HW1 7034   2.988   4.856   3.692
 2045SOL    HW2 7035   2.904   4.794   3.817
 2046SOL     OW 7036   6.722   2.220   3.974
 2046SOL    HW1 7037   6.759   2.128   3.977
 2046SOL    HW2 7038   6.794   2.284   3.945
 2047SOL     OW 7039   6.660   1.597   6.939
 2047SOL    HW1 7040   6.657   1.558   0.012
 2047SOL    HW2 7041   6.627   1.530   6.873
 2048SOL     OW 7042   1.446   6.563   6.442
 2048SOL    HW1 7043   1.360   6.515   6.425
 2048SOL    HW2 7044   1.488   6.527   6.525
 2049SOL     OW 7045   5.733   1.479   5.632
 2049SOL    HW1 7046   5.665   1.533   5.582
 2049SOL    HW2 7047   5.724   1.383   5.608
 2050SOL     OW 7048   0.258   2.955   3.973
 2050SOL    HW1 7049   0.337   3.000   3.931
 2050SOL    HW2 7050   0.182   3.019   3.980
 2051SOL     OW 7051   1.033   5.817   0.360
 2051SOL    HW1 7052   0.938   5.830   0.333
 2051SOL    HW2 7053   1.051   5.719   0.372
 2052SOL     OW 7054   1.459   3.654   1.051
 2052SOL    HW1 7055   1.432   3.575   0.996
 2052SOL    HW2 7056   1.522   3.624   1.123
 2053SOL     OW 7057   5.565   6.574   4.720
 2053SOL    HW1 7058   5.662   6.559   4.741
 2053SOL    HW2 7059   5.539   6.516   4.643
 2054SOL     OW 7060   3.470   3.865   2.826
 2054SOL    HW1 7061   3.397   3.934   2.823
 2054SOL    HW2 7062   3.445   3.792   2.889
 2055SOL     OW 7063   6.168   3.531   3.251
 2055SOL    HW1 7064   6.092   3.590   3.278
 2055SOL    HW2 7065   6.233   3.582   3.195
 2056SOL     OW 7066   3.269   6.128   2.740
 2056SOL    HW1 7067   3.290   6.182   2.821
 2056SOL    HW2 7068   3.281   6.184   2.658
 2057SOL     OW 7069   5.448   3.773   5.086
 2057SOL    HW1 7070   5.463   3.812   5.177
 2057SOL    HW2 7071   5.509   3.817   5.020
 2058SOL     OW 7072   0.514   1.740   3.410
 2058SOL    HW1 7073   0.538   1.671   3.478
 2058SOL    HW2 7074   0.583   1.812   3.408
 2059SOL     OW 7075   1.555   5.778   6.357
 2059SOL    HW1 7076   1.581   5.865   6.317
 2059SOL    HW2 7077   1.473   5.789   6.413
 2060SOL     OW 7078   0.285   4.266   1.209
 2060SOL    HW1 7079   0.371   4.311   1.235
 2060SOL    HW2 7080   0.221   4.269   1.286
 2061SOL     OW 7081   0.118   2.047   3.579
 2061SOL    HW1 7082   0.101   2.086   3.489
 2061SOL    HW2 7083   0.059   2.091   3.647
 2062SOL     OW 7084   6.114   0.068   3.928
 2062SOL    HW1 7085   6.156   0.150   3.889
 2062SOL    HW2 7086   6.185   0.004   3.955
 2063SOL     OW 7087   2.007   0.427   6.421
 2063SOL    HW1 7088   2.083   0.438   6.358
 2063SOL    HW2 7089   1.925   0.469   6.383
 2064SOL     OW 7090   0.948   2.313   5.480
 2064SOL    HW1 7091   0.988   2.388   5.533
 2064SOL    HW2 7092   0.849   2.313   5.491
 2065SOL     OW 7093   6.442   2.528   5.046
 2065SOL    HW1 7094   6.394   2.553   5.130
 2065SOL    HW2 7095   6.381   2.478   4.986
 2066SOL     OW 7096   1.073   4.970   3.932
 2066SOL    HW1 7097   1.117   5.001   3.848
 2066SOL    HW2 7098   1.128   4.898   3.974
 2067SOL     OW 7099   6.421   4.849   1.151
 2067SOL    HW1 7100   6.345   4.784   1.150
 2067SOL    HW2 7101   6.461   4.852   1.243
 2068SOL     OW 7102   1.709   1.042   4.903
 2068SOL    HW1 7103   1.735   1.134   4.932
 2068SOL    HW2 7104   1.787   0.980   4.912
 2069SOL     OW 7105   0.243   2.688   3.940
 2069SOL    HW1 7106   0.244   2.786   3.958
 2069SOL    HW2 7107   0.279   2.670   3.849
 2070SOL     OW 7108   1.435   1.073   1.756
 2070SOL    HW1 7109   1.407   1.096   1.849
 2070SOL    HW2 7110   1.358   1.087   1.694
 2071SOL     OW 7111   6.674   6.219   5.962
 2071SOL    HW1 7112   6.623   6.303   5.944
 2071SOL    HW2 7113   6.696   6.214   6.059
 2072SOL     OW 7114   4.215   6.054   3.975
 2072SOL    HW1 7115   4.295   6.001   3.949
 2072SOL    HW2 7116   4.235   6.152   3.966
 2073SOL     OW 7117   3.731   0.059   4.488
 2073SOL    HW1 7118   3.666   0.120   4.533
 2073SOL    HW2 7119   3.806   0.112   4.450
 2074SOL     OW 7120   1.761   2.601   0.136
 2074SOL    HW1 7121   1.734   2.621   0.230
 2074SOL    HW2 7122   1.748   2.683   0.080
 2075SOL     OW 7123   5.993   3.297   2.443
 2075SOL    HW1 7124   6.027   3.220   2.497
 2075SOL    HW2 7125   5.926   3.348   2.496
 2076SOL     OW 7126   5.987   0.198   0.211
 2076SOL    HW1 7127   6.079   0.203   0.172
 2076SOL    HW2 7128   5.976   0.113   0.262
 2077SOL     OW 7129   5.377   2.617   2.964
 2077SOL    HW1 7130   5.417   2.527   2.980
 2077SOL    HW2 7131   5.448   2.679   2.929
 2078SOL     OW 7132   1.068   5.995   5.938
 2078SOL    HW1 7133   1.038   6.078   5.891
 2078SOL    HW2 7134   1.133   5.946   5.880
 2079SOL     OW 7135   5.588   2.113   3.642
 2079SOL    HW1 7136   5.667   2.172   3.663
 2079SOL    HW2 7137   5.507   2.170   3.628
 2080SOL     OW 7138   1.652   6.841   4.593
 2080SOL    HW1 7139   1.738   6.836   4.644
 2080SOL    HW2 7140   1.660   6.912   4.522
 2081SOL     OW 7141   1.336   5.119   4.618
 2081SOL    HW1 7142   1.333   5.111   4.518
 2081SOL    HW2 7143   1.429   5.136   4.648
 2082SOL     OW 7144   0.822   0.144   2.779
 2082SOL    HW1 7145   0.863   0.136   2.870
 2082SOL    HW2 7146   0.868   0.217   2.728
 2083SOL     OW 7147   6.478   4.809   6.414
 2083SOL    HW1 7148   6.393   4.861   6.420
 2083SOL    HW2 7149   6.456   4.711   6.408
 2084SOL     OW 7150   1.222   3.559   3.227
 2084SOL    HW1 7151   1.190   3.466   3.208
 2084SOL    HW2 7152   1.313   3.554   3.270
 2085SOL     OW 7153   4.543   0.606   6.734
 2085SOL    HW1 7154   4.603   0.526   6.746
 2085SOL    HW2 7155   4.447   0.577   6.741
 2086SOL     OW 7156   4.059   6.020   5.605
 2086SOL    HW1 7157   4.091   6.087   5.672
 2086SOL    HW2 7158   4.137   5.985   5.553
 2087SOL     OW 7159   5.200   0.460   1.122
 2087SOL    HW1 7160   5.133   0.429   1.189
 2087SOL    HW2 7161   5.240   0.380   1.077
 2088SOL     OW 7162   1.384   6.249   0.152
 2088SOL    HW1 7163   1.363   6.329   0.209
 2088SOL    HW2 7164   1.465   6.203   0.187
 2089SOL     OW 7165   5.485   1.931   6.511
 2089SOL    HW1 7166   5.559   1.988   6.474
 2089SOL    HW2 7167   5.427   1.987   6.570
 2090SOL     OW 7168   4.215   2.844   5.641
 2090SOL    HW1 7169   4.224   2.861   5.739
 2090SOL    HW2 7170   4.128   2.881   5.609
 2091SOL     OW 7171   0.091   5.630   0.944
 2091SOL    HW1 7172   0.016   5.675   0.894
 2091SOL    HW2 7173   0.169   5.692   0.951
 2092SOL     OW 7174   5.436   3.553   0.171
 2092SOL    HW1 7175   5.466   3.540   0.077
 2092SOL    HW2 7176   5.401   3.646   0.182
 2093SOL     OW 7177   2.748   2.165   1.735
 2093SOL    HW1 7178   2.744   2.265   1.735
 2093SOL    HW2 7179   2.801   2.134   1.814
 2094SOL     OW 7180   5.698   1.767   2.839
 2094SOL    HW1 7181   5.779   1.812   2.802
 2094SOL    HW2 7182   5.713   1.744   2.935
 2095SOL     OW 7183   5.880   6.842   5.208
 2095SOL    HW1 7184   5.801   6.781   5.205
 2095SOL    HW2 7185   5.920   6.841   5.300
 2096SOL     OW 7186   4.822   3.872   2.826
 2096SOL    HW1 7187   4.829   3.882   2.727
 2096SOL    HW2 7188   4.815   3.775   2.849
 2097SOL     OW 7189   2.919   3.597   6.458
 2097SOL    HW1 7190   2.979   3.670   6.489
 2097SOL    HW2 7191   2.968   3.538   6.394
 2098SOL     OW 7192   3.412   5.876   2.046
 2098SOL    HW1 7193   3.457   5.955   2.087
 2098SOL    HW2 7194   3.345   5.839   2.111
 2099SOL     OW 7195   3.177   2.667   6.548
 2099SOL    HW1 7196   3.159   2.596   6.480
 2099SOL    HW2 7197   3.213   2.625   6.632
 2100SOL     OW 7198   5.598   2.261   6.738
 2100SOL    HW1 7199   5.697   2.272   6.727
 2100SOL    HW2 7200   5.550   2.320   6.673
 2101SOL     OW 7201   1.257   6.649   1.636
 2101SOL    HW1 7202   1.353   6.667   1.614
 2101SOL    HW2 7203   1.222   6.721   1.697
 2102SOL     OW 7204   5.566   4.570   2.938
 2102SOL    HW1 7205   5.643   4.570   3.002
 2102SOL    HW2 7206   5.491   4.624   2.976
 2103SOL     OW 7207   3.720   4.315   6.275
 2103SOL    HW1 7208   3.727   4.357   6.185
 2103SOL    HW2 7209   3.627   4.326   6.310
 2104SOL     OW 7210   1.755   4.751   1.629
 2104SOL    HW1 7211   1.710   4.692   1.562
 2104SOL    HW2 7212   1.702   4.835   1.641
 2105SOL     OW 7213   5.492   5.632   5.093
 2105SOL    HW1 7214   5.461   5.605   5.002
 2105SOL    HW2 7215   5.477   5.557   5.158
 2106SOL     OW 7216   4.892   4.171   0.823
 2106SOL    HW1 7217   4.873   4.131   0.734
 2106SOL    HW2 7218   4.807   4.186   0.872
 2107SOL     OW 7219   5.434   2.781   5.638
 2107SOL    HW1 7220   5.504   2.747   5.575
 2107SOL    HW2 7221   5.357   2.818   5.586
 2108SOL     OW 7222   6.150   5.576   4.910
 2108SOL    HW1 7223   6.206   5.625   4.977
 2108SOL    HW2 7224   6.160   5.620   4.821
 2109SOL     OW 7225   4.266   5.717   2.245
 2109SOL    HW1 7226   4.220   5.646   2.191
 2109SOL    HW2 7227   4.230   5.716   2.339
 2110SOL     OW 7228   2.087   1.526   0.325
 2110SOL    HW1 7229   2.125   1.584   0.397
 2110SOL    HW2 7230   1.998   1.491   0.353
 2111SOL     OW 7231   1.858   2.723   6.636
 2111SOL    HW1 7232   1.795   2.649   6.611
 2111SOL    HW2 7233   1.888   2.771   6.554
 2112SOL     OW 7234   5.698   2.996   0.401
 2112SOL    HW1 7235   5.784   3.045   0.417
 2112SOL    HW2 7236   5.626   3.035   0.458
 2113SOL     OW 7237   2.853   1.631   4.564
 2113SOL    HW1 7238   2.778   1.668   4.619
 2113SOL    HW2 7239   2.835   1.650   4.467
 2114SOL     OW 7240   1.797   1.941   5.974
 2114SOL    HW1 7241   1.866   1.923   6.045
 2114SOL    HW2 7242   1.708   1.957   6.018
 2115SOL     OW 7243   1.852   3.998   3.234
 2115SOL    HW1 7244   1.777   3.978   3.297
 2115SOL    HW2 7245   1.939   3.990   3.283
 2116SOL     OW 7246   0.988   5.181   3.135
 2116SOL    HW1 7247   0.914   5.245   3.159
 2116SOL    HW2 7248   0.991   5.170   3.036
 2117SOL     OW 7249   0.125   4.405   1.760
 2117SOL    HW1 7250   0.106   4.327   1.701
 2117SOL    HW2 7251   0.211   4.448   1.732
 2118SOL     OW 7252   6.173   3.050   3.023
 2118SOL    HW1 7253   6.239   3.124   3.012
 2118SOL    HW2 7254   6.097   3.082   3.080
 2119SOL     OW 7255   1.011   0.340   1.275
 2119SOL    HW1 7256   1.073   0.292   1.337
 2119SOL    HW2 7257   1.053   0.425   1.244
 2120SOL     OW 7258   0.540   4.755   3.122
 2120SOL    HW1 7259   0.613   4.824   3.119
 2120SOL    HW2 7260   0.580   4.664   3.121
 2121SOL     OW 7261   1.569   4.116   6.504
 2121SOL    HW1 7262   1.487   4.059   6.489
 2121SOL    HW2 7263   1.642   4.059   6.541
 2122SOL     OW 7264   5.477   4.432   5.793
 2122SOL    HW1 7265   5.551   4.365   5.789
 2122SOL    HW2 7266   5.440   4.436   5.886
 2123SOL     OW 7267   7.011   5.383   2.484
 2123SOL    HW1 7268   0.086   5.361   2.509
 2123SOL    HW2 7269   6.991   5.478   2.507
 2124SOL     OW 7270   3.215   2.333   1.362
 2124SOL    HW1 7271   3.161   2.416   1.372
 2124SOL    HW2 7272   3.154   2.256   1.343
 2125SOL     OW 7273   1.880   0.888   2.334
 2125SOL    HW1 7274   1.935   0.868   2.253
 2125SOL    HW2 7275   1.783   0.880   2.312
 2126SOL     OW 7276   3.651   2.136   6.618
 2126SOL    HW1 7277   3.712   2.162   6.543
 2126SOL    HW2 7278   3.556   2.149   6.590
 2127SOL     OW 7279   1.243   2.638   5.483
 2127SOL    HW1 7280   1.313   2.704   5.510
 2127SOL    HW2 7281   1.286   2.556   5.445
 2128SOL     OW 7282   6.371   3.598   4.058
 2128SOL    HW1 7283   6.404   3.693   4.050
 2128SOL    HW2 7284   6.365   3.558   3.967
 2129SOL     OW 7285   4.396   3.252   5.386
 2129SOL    HW1 7286   4.333   3.323   5.418
 2129SOL    HW2 7287   4.355   3.162   5.399
 2130SOL     OW 7288   4.171   0.174   2.994
 2130SOL    HW1 7289   4.215   0.221   3.070
 2130SOL    HW2 7290   4.096   0.118   3.027
 2131SOL     OW 7291   4.673   1.734   6.919
 2131SOL    HW1 7292   4.749   1.765   6.861
 2131SOL    HW2 7293   4.646   1.807   6.981
 2132SOL     OW 7294   3.470   0.434   0.898
 2132SOL    HW1 7295   3.513   0.344   0.901
 2132SOL    HW2 7296   3.508   0.486   0.821
 2133SOL     OW 7297   3.190   2.828   0.718
 2133SOL    HW1 7298   3.144   2.907   0.759
 2133SOL    HW2 7299   3.187   2.836   0.618
 2134SOL     OW 7300   0.434   0.635   5.898
 2134SOL    HW1 7301   0.428   0.684   5.811
 2134SOL    HW2 7302   0.374   0.556   5.896
 2135SOL     OW 7303   1.479   3.317   5.308
 2135SOL    HW1 7304   1.489   3.408   5.347
 2135SOL    HW2 7305   1.440   3.324   5.216
 2136SOL     OW 7306   0.908   4.061   4.318
 2136SOL    HW1 7307   0.855   4.145   4.325
 2136SOL    HW2 7308   0.892   4.018   4.229
 2137SOL     OW 7309   1.835   5.560   4.462
 2137SOL    HW1 7310   1.817   5.627   4.391
 2137SOL    HW2 7311   1.762   5.492   4.464
 2138SOL     OW 7312   6.500   0.813   2.729
 2138SOL    HW1 7313   6.578   0.836   2.788
 2138SOL    HW2 7314   6.452   0.896   2.703
 2139SOL     OW 7315   3.579   0.455   3.023
 2139SOL    HW1 7316   3.488   0.440   3.062
 2139SOL    HW2 7317   3.578   0.432   2.926
 2140SOL     OW 7318   4.043   6.159   4.357
 2140SOL    HW1 7319   4.043   6.259   4.356
 2140SOL    HW2 7320   3.950   6.125   4.343
 2141SOL     OW 7321   6.246   4.002   2.534
 2141SOL    HW1 7322   6.339   3.964   2.539
 2141SOL    HW2 7323   6.245   4.078   2.470
 2142SOL     OW 7324   1.161   2.241   3.229
 2142SOL    HW1 7325   1.081   2.250   3.169
 2142SOL    HW2 7326   1.244   2.251   3.175
 2143SOL     OW 7327   3.220   4.468   1.461
 2143SOL    HW1 7328   3.157   4.521   1.517
 2143SOL    HW2 7329   3.168   4.416   1.393
 2144SOL     OW 7330   1.210   5.393   4.423
 2144SOL    HW1 7331   1.214   5.309   4.477
 2144SOL    HW2 7332   1.118   5.431   4.426
 2145SOL     OW 7333   4.264   5.999   4.272
 2145SOL    HW1 7334   4.259   6.014   4.174
 2145SOL    HW2 7335   4.185   6.042   4.316
 2146SOL     OW 7336   2.711   3.742   1.509
 2146SOL    HW1 7337   2.801   3.700   1.496
 2146SOL    HW2 7338   2.673   3.714   1.597
 2147SOL     OW 7339   6.739   1.731   5.931
 2147SOL    HW1 7340   6.806   1.659   5.910
 2147SOL    HW2 7341   6.761   1.771   6.020
 2148SOL     OW 7342   5.572   1.694   5.534
 2148SOL    HW1 7343   5.566   1.775   5.592
 2148SOL    HW2 7344   5.567   1.722   5.438
 2149SOL     OW 7345   3.367   2.526   1.172
 2149SOL    HW1 7346   3.452   2.564   1.210
 2149SOL    HW2 7347   3.335   2.452   1.231
 2150SOL     OW 7348   3.124   1.695   2.724
 2150SOL    HW1 7349   3.070   1.612   2.734
 2150SOL    HW2 7350   3.068   1.767   2.683
 2151SOL     OW 7351   1.586   0.482   4.866
 2151SOL    HW1 7352   1.501   0.432   4.850
 2151SOL    HW2 7353   1.591   0.560   4.804
 2152SOL     OW 7354   3.854   5.993   1.323
 2152SOL    HW1 7355   3.865   5.894   1.330
 2152SOL    HW2 7356   3.808   6.028   1.405
 2153SOL     OW 7357   3.749   0.492   3.242
 2153SOL    HW1 7358   3.695   0.466   3.162
 2153SOL    HW2 7359   3.811   0.418   3.266
 2154SOL     OW 7360   4.908   0.019   4.993
 2154SOL    HW1 7361   5.008   0.016   4.995
 2154SOL    HW2 7362   4.878   0.025   4.897
 2155SOL     OW 7363   2.020   6.209   0.085
 2155SOL    HW1 7364   2.012   6.158   0.171
 2155SOL    HW2 7365   1.999   6.305   0.101
 2156SOL     OW 7366   2.674   0.940   4.602
 2156SOL    HW1 7367   2.589   0.992   4.599
 2156SOL    HW2 7368   2.693   0.901   4.512
 2157SOL     OW 7369   6.112   1.157   3.642
 2157SOL    HW1 7370   6.033   1.096   3.647
 2157SOL    HW2 7371   6.101   1.219   3.565
 2158SOL     OW 7372   4.177   6.090   0.783
 2158SOL    HW1 7373   4.165   6.055   0.690
 2158SOL    HW2 7374   4.230   6.024   0.836
 2159SOL     OW 7375   1.830   6.649   5.527
 2159SOL    HW1 7376   1.928   6.660   5.542
 2159SOL    HW2 7377   1.813   6.612   5.436
 2160SOL     OW 7378   3.816   4.109   0.334
 2160SOL    HW1 7379   3.726   4.079   0.364
 2160SOL    HW2 7380   3.819   4.110   0.234
 2161SOL     OW 7381   5.224   4.497   3.218
 2161SOL    HW1 7382   5.171   4.440   3.155
 2161SOL    HW2 7383   5.262   4.575   3.169
 2162SOL     OW 7384   2.418   0.952   1.880
 2162SOL    HW1 7385   2.456   1.026   1.825
 2162SOL    HW2 7386   2.392   0.987   1.970
 2163SOL     OW 7387   0.725   4.735   6.269
 2163SOL    HW1 7388   0.644   4.792   6.262
 2163SOL    HW2 7389   0.753   4.703   6.179
 2164SOL     OW 7390   1.264   3.380   6.998
 2164SOL    HW1 7391   1.200   3.384   6.921
 2164SOL    HW2 7392   1.223   3.425   0.058
 2165SOL     OW 7393   0.421   2.262   2.745
 2165SOL    HW1 7394   0.493   2.282   2.811
 2165SOL    HW2 7395   0.382   2.348   2.711
 2166SOL     OW 7396   1.335   2.321   4.820
 2166SOL    HW1 7397   1.291   2.409   4.804
 2166SOL    HW2 7398   1.286   2.249   4.770
 2167SOL     OW 7399   1.640   1.502   3.771
 2167SOL    HW1 7400   1.577   1.424   3.777
 2167SOL    HW2 7401   1.606   1.566   3.702
 2168SOL     OW 7402   0.631   2.058   4.093
 2168SOL    HW1 7403   0.571   2.136   4.075
 2168SOL    HW2 7404   0.599   1.979   4.040
 2169SOL     OW 7405   5.330   1.388   6.099
 2169SOL    HW1 7406   5.352   1.336   6.016
 2169SOL    HW2 7407   5.231   1.386   6.115
 2170SOL     OW 7408   6.856   5.009   5.625
 2170SOL    HW1 7409   6.784   4.962   5.677
 2170SOL    HW2 7410   6.874   5.098   5.667
 2171SOL     OW 7411   0.278   3.812   1.544
 2171SOL    HW1 7412   0.334   3.730   1.531
 2171SOL    HW2 7413   0.182   3.788   1.538
 2172SOL     OW 7414   2.611   2.481   0.375
 2172SOL    HW1 7415   2.655   2.391   0.368
 2172SOL    HW2 7416   2.571   2.492   0.465
 2173SOL     OW 7417   3.928   0.673   4.909
 2173SOL    HW1 7418   3.873   0.740   4.959
 2173SOL    HW2 7419   3.962   0.713   4.824
 2174SOL     OW 7420   5.308   5.727   5.355
 2174SOL    HW1 7421   5.343   5.819   5.367
 2174SOL    HW2 7422   5.371   5.661   5.396
 2175SOL     OW 7423   2.243   2.451   4.282
 2175SOL    HW1 7424   2.230   2.365   4.233
 2175SOL    HW2 7425   2.185   2.452   4.363
 2176SOL     OW 7426   1.234   2.501   0.403
 2176SOL    HW1 7427   1.269   2.504   0.309
 2176SOL    HW2 7428   1.134   2.505   0.401
 2177SOL     OW 7429   5.697   1.659   3.779
 2177SOL    HW1 7430   5.659   1.609   3.701
 2177SOL    HW2 7431   5.795   1.638   3.788
 2178SOL     OW 7432   1.418   3.109   0.551
 2178SOL    HW1 7433   1.421   3.110   0.651
 2178SOL    HW2 7434   1.381   3.022   0.520
 2179SOL     OW 7435   1.824   5.570   4.733
 2179SOL    HW1 7436   1.903   5.614   4.774
 2179SOL    HW2 7437   1.839   5.557   4.635
 2180SOL     OW 7438   2.257   2.884   1.792
 2180SOL    HW1 7439   2.183   2.825   1.759
 2180SOL    HW2 7440   2.263   2.965   1.733
 2181SOL     OW 7441   4.424   4.992   5.250
 2181SOL    HW1 7442   4.356   4.983   5.322
 2181SOL    HW2 7443   4.443   4.902   5.210
 2182SOL     OW 7444   0.920   3.361   4.652
 2182SOL    HW1 7445   0.982   3.426   4.609
 2182SOL    HW2 7446   0.827   3.377   4.620
 2183SOL     OW 7447   2.800   4.364   6.184
 2183SOL    HW1 7448   2.749   4.285   6.150
 2183SOL    HW2 7449   2.788   4.371   6.283
 2184SOL     OW 7450   4.433   2.206   6.955
 2184SOL    HW1 7451   4.500   2.273   6.925
 2184SOL    HW2 7452   4.351   2.253   6.989
 2185SOL     OW 7453   1.361   2.173   1.161
 2185SOL    HW1 7454   1.459   2.185   1.177
 2185SOL    HW2 7455   1.347   2.106   1.088
 2186SOL     OW 7456   0.252   5.575   2.106
 2186SOL    HW1 7457   0.209   5.662   2.080
 2186SOL    HW2 7458   0.219   5.503   2.046
 2187SOL     OW 7459   6.648   1.161   2.508
 2187SOL    HW1 7460   6.618   1.116   2.424
 2187SOL    HW2 7461   6.613   1.255   2.509
 2188SOL     OW 7462   6.015   6.329   5.125
 2188SOL    HW1 7463   6.006   6.352   5.028
 2188SOL    HW2 7464   6.112   6.333   5.151
 2189SOL     OW 7465   1.977   0.318   0.647
 2189SOL    HW1 7466   2.044   0.370   0.594
 2189SOL    HW2 7467   1.941   0.374   0.721
 2190SOL     OW 7468   0.144   3.066   1.996
 2190SOL    HW1 7469   0.047   3.061   2.021
 2190SOL    HW2 7470   0.193   2.988   2.035
 2191SOL     OW 7471   3.008   1.873   6.572
 2191SOL    HW1 7472   2.981   1.952   6.627
 2191SOL    HW2 7473   2.927   1.831   6.532
 2192SOL     OW 7474   3.841   1.462   2.766
 2192SOL    HW1 7475   3.792   1.414   2.839
 2192SOL    HW2 7476   3.886   1.543   2.804
 2193SOL     OW 7477   6.919   5.529   5.849
 2193SOL    HW1 7478   6.972   5.579   5.780
 2193SOL    HW2 7479   6.953   5.553   5.940
 2194SOL     OW 7480   2.318   4.911   6.315
 2194SOL    HW1 7481   2.259   4.939   6.390
 2194SOL    HW2 7482   2.411   4.945   6.332
 2195SOL     OW 7483   6.986   0.521   3.883
 2195SOL    HW1 7484   6.901   0.537   3.932
 2195SOL    HW2 7485   6.966   0.486   3.792
 2196SOL     OW 7486   3.336   0.191   5.128
 2196SOL    HW1 7487   3.253   0.214   5.180
 2196SOL    HW2 7488   3.357   0.095   5.140
 2197SOL     OW 7489   3.330   3.611   1.018
 2197SOL    HW1 7490   3.278   3.593   0.935
 2197SOL    HW2 7491   3.276   3.584   1.098
 2198SOL     OW 7492   6.354   1.284   0.289
 2198SOL    HW1 7493   6.403   1.365   0.320
 2198SOL    HW2 7494   6.256   1.303   0.286
 2199SOL     OW 7495   5.472   1.164   3.199
 2199SOL    HW1 7496   5.380   1.127   3.212
 2199SOL    HW2 7497   5.538   1.105   3.246
 2200SOL     OW 7498   2.871   0.359   4.787
 2200SOL    HW1 7499   2.849   0.262   4.778
 2200SOL    HW2 7500   2.970   0.370   4.799
 2201SOL     OW 7501   6.502   2.899   3.647
 2201SOL    HW1 7502   6.486   2.950   3.732
 2201SOL    HW2 7503   6.440   2.932   3.576
 2202SOL     OW 7504   3.042   4.824   2.221
 2202SOL    HW1 7505   2.960   4.801   2.169
 2202SOL    HW2 7506   3.123   4.798   2.167
 2203SOL     OW 7507   2.072   2.972   1.460
 2203SOL    HW1 7508   1.987   2.978   1.512
 2203SOL    HW2 7509   2.056   2.919   1.377
 2204SOL     OW 7510   4.246   1.152   0.320
 2204SOL    HW1 7511   4.332   1.163   0.369
 2204SOL    HW2 7512   4.253   1.193   0.229
 2205SOL     OW 7513   1.442   0.368   5.813
 2205SOL    HW1 7514   1.359   0.313   5.804
 2205SOL    HW2 7515   1.442   0.440   5.743
 2206SOL     OW 7516   3.096   4.458   6.414
 2206SOL    HW1 7517   3.122   4.437   6.319
 2206SOL    HW2 7518   3.108   4.556   6.430
 2207SOL     OW 7519   2.961   4.615   0.212
 2207SOL    HW1 7520   2.889   4.598   0.145
 2207SOL    HW2 7521   3.042   4.651   0.166
 2208SOL     OW 7522   1.588   6.363   2.491
 2208SOL    HW1 7523   1.657   6.317   2.546
 2208SOL    HW2 7524   1.598   6.337   2.395
 2209SOL     OW 7525   1.721   6.217   5.361
 2209SOL    HW1 7526   1.816   6.186   5.370
 2209SOL    HW2 7527   1.698   6.275   5.439
 2210SOL     OW 7528   6.707   5.309   3.858
 2210SOL    HW1 7529   6.726   5.406   3.841
 2210SOL    HW2 7530   6.613   5.300   3.892
 2211SOL     OW 7531   5.242   0.574   0.225
 2211SOL    HW1 7532   5.188   0.615   0.151
 2211SOL    HW2 7533   5.189   0.577   0.310
 2212SOL     OW 7534   1.639   6.420   6.927
 2212SOL    HW1 7535   1.718   6.448   6.981
 2212SOL    HW2 7536   1.650   6.325   6.899
 2213SOL     OW 7537   3.739   2.864   5.224
 2213SOL    HW1 7538   3.733   2.947   5.278
 2213SOL    HW2 7539   3.743   2.784   5.285
 2214SOL     OW 7540   3.780   3.039   5.006
 2214SOL    HW1 7541   3.725   3.109   5.050
 2214SOL    HW2 7542   3.755   2.949   5.042
 2215SOL     OW 7543   6.898   1.718   6.966
 2215SOL    HW1 7544   6.803   1.688   6.972
 2215SOL    HW2 7545   6.904   1.815   6.991
 2216SOL     OW 7546   2.012   0.496   5.738
 2216SOL    HW1 7547   2.073   0.570   5.766
 2216SOL    HW2 7548   2.066   0.422   5.698
 2217SOL     OW 7549   3.831   6.798   1.374
 2217SOL    HW1 7550   3.880   6.719   1.337
 2217SOL    HW2 7551   3.748   6.766   1.421
 2218SOL     OW 7552   0.875   0.019   0.460
 2218SOL    HW1 7553   0.942   6.963   0.466
 2218SOL    HW2 7554   0.917   0.097   0.415
 2219SOL     OW 7555   6.199   1.879   2.151
 2219SOL    HW1 7556   6.190   1.816   2.228
 2219SOL    HW2 7557   6.221   1.828   2.068
 2220SOL     OW 7558   1.384   0.123   4.211
 2220SOL    HW1 7559   1.290   0.157   4.216
 2220SOL    HW2 7560   1.436   0.158   4.289
 2221SOL     OW 7561   5.842   0.834   5.119
 2221SOL    HW1 7562   5.781   0.760   5.148
 2221SOL    HW2 7563   5.905   0.799   5.050
 2222SOL     OW 7564   4.384   7.004   0.670
 2222SOL    HW1 7565   4.346   0.026   0.587
 2222SOL    HW2 7566   4.356   6.909   0.676
 2223SOL     OW 7567   5.806   0.808   4.462
 2223SOL    HW1 7568   5.898   0.803   4.421
 2223SOL    HW2 7569   5.774   0.903   4.457
 2224SOL     OW 7570   1.961   4.238   1.299
 2224SOL    HW1 7571   2.014   4.196   1.373
 2224SOL    HW2 7572   2.013   4.315   1.261
 2225SOL     OW 7573   6.202   6.499   2.864
 2225SOL    HW1 7574   6.149   6.426   2.907
 2225SOL    HW2 7575   6.198   6.490   2.765
 2226SOL     OW 7576   4.126   4.837   1.148
 2226SOL    HW1 7577   4.195   4.765   1.159
 2226SOL    HW2 7578   4.155   4.901   1.077
 2227SOL     OW 7579   5.502   3.631   0.783
 2227SOL    HW1 7580   5.589   3.593   0.752
 2227SOL    HW2 7581   5.463   3.688   0.711
 2228SOL     OW 7582   2.810   5.149   1.279
 2228SOL    HW1 7583   2.803   5.224   1.345
 2228SOL    HW2 7584   2.778   5.064   1.322
 2229SOL     OW 7585   4.376   1.512   4.617
 2229SOL    HW1 7586   4.400   1.569   4.696
 2229SOL    HW2 7587   4.437   1.432   4.615
 2230SOL     OW 7588   5.757   5.624   6.237
 2230SOL    HW1 7589   5.762   5.524   6.227
 2230SOL    HW2 7590   5.850   5.661   6.246
 2231SOL     OW 7591   0.622   0.743   2.463
 2231SOL    HW1 7592   0.640   0.803   2.385
 2231SOL    HW2 7593   0.664   0.654   2.447
 2232SOL     OW 7594   0.802   3.201   5.006
 2232SOL    HW1 7595   0.853   3.179   4.922
 2232SOL    HW2 7596   0.752   3.120   5.036
 2233SOL     OW 7597   2.472   4.512   1.242
 2233SOL    HW1 7598   2.498   4.585   1.178
 2233SOL    HW2 7599   2.376   4.488   1.229
 2234SOL     OW 7600   4.082   1.923   2.009
 2234SOL    HW1 7601   4.165   1.964   1.971
 2234SOL    HW2 7602   4.068   1.832   1.969
 2235SOL     OW 7603   2.081   0.557   1.584
 2235SOL    HW1 7604   2.002   0.572   1.524
 2235SOL    HW2 7605   2.153   0.623   1.562
 2236SOL     OW 7606   1.009   4.555   6.554
 2236SOL    HW1 7607   1.107   4.559   6.576
 2236SOL    HW2 7608   0.958   4.610   6.620
 2237SOL     OW 7609   5.406   5.164   3.905
 2237SOL    HW1 7610   5.428   5.247   3.957
 2237SOL    HW2 7611   5.342   5.108   3.958
 2238SOL     OW 7612   5.576   4.636   0.959
 2238SOL    HW1 7613   5.669   4.650   0.926
 2238SOL    HW2 7614   5.520   4.594   0.887
 2239SOL     OW 7615   3.189   4.961   3.183
 2239SOL    HW1 7616   3.171   4.937   3.278
 2239SOL    HW2 7617   3.117   4.924   3.125
 2240SOL     OW 7618   4.697   5.976   3.382
 2240SOL    HW1 7619   4.635   5.937   3.450
 2240SOL    HW2 7620   4.704   6.075   3.396
 2241SOL     OW 7621   0.101   6.631   2.515
 2241SOL    HW1 7622   0.186   6.618   2.567
 2241SOL    HW2 7623   0.027   6.584   2.561
 2242SOL     OW 7624   5.006   1.598   3.041
 2242SOL    HW1 7625   5.048   1.509   3.021
 2242SOL    HW2 7626   4.907   1.588   3.045
 2243SOL     OW 7627   2.833   6.239   5.578
 2243SOL    HW1 7628   2.896   6.171   5.543
 2243SOL    HW2 7629   2.757   6.193   5.626
 2244SOL     OW 7630   2.258   6.602   2.212
 2244SOL    HW1 7631   2.302   6.651   2.136
 2244SOL    HW2 7632   2.160   6.622   2.212
 2245SOL     OW 7633   0.533   1.986   2.038
 2245SOL    HW1 7634   0.512   1.897   2.078
 2245SOL    HW2 7635   0.513   2.058   2.104
 2246SOL     OW 7636   0.799   1.602   5.760
 2246SOL    HW1 7637   0.727   1.628   5.695
 2246SOL    HW2 7638   0.782   1.509   5.794
 2247SOL     OW 7639   2.965   3.495   4.945
 2247SOL    HW1 7640   3.047   3.545   4.920
 2247SOL    HW2 7641   2.987   3.429   5.017
 2248SOL     OW 7642   4.012   4.444   5.944
 2248SOL    HW1 7643   4.021   4.357   5.895
 2248SOL    HW2 7644   4.048   4.434   6.037
 2249SOL     OW 7645   6.366   6.744   2.779
 2249SOL    HW1 7646   6.301   6.669   2.789
 2249SOL    HW2 7647   6.452   6.709   2.741
 2250SOL     OW 7648   4.174   3.191   0.094
 2250SOL    HW1 7649   4.109   3.231   0.159
 2250SOL    HW2 7650   4.221   3.114   0.136
 2251SOL     OW 7651   5.237   1.055   0.218
 2251SOL    HW1 7652   5.166   1.125   0.217
 2251SOL    HW2 7653   5.195   0.964   0.220
 2252SOL     OW 7654   5.532   2.371   2.997
 2252SOL    HW1 7655   5.582   2.381   2.911
 2252SOL    HW2 7656   5.589   2.325   3.064
 2253SOL     OW 7657   1.259   3.608   6.615
 2253SOL    HW1 7658   1.199   3.628   6.538
 2253SOL    HW2 7659   1.307   3.522   6.598
 2254SOL     OW 7660   3.745   3.858   5.352
 2254SOL    HW1 7661   3.667   3.796   5.345
 2254SOL    HW2 7662   3.717   3.942   5.399
 2255SOL     OW 7663   4.871   2.625   6.695
 2255SOL    HW1 7664   4.909   2.587   6.610
 2255SOL    HW2 7665   4.878   2.556   6.768
 2256SOL     OW 7666   4.910   5.844   1.219
 2256SOL    HW1 7667   4.907   5.879   1.125
 2256SOL    HW2 7668   4.950   5.753   1.220
 2257SOL     OW 7669   0.310   1.926   4.178
 2257SOL    HW1 7670   0.360   1.905   4.094
 2257SOL    HW2 7671   0.242   1.997   4.160
 2258SOL     OW 7672   1.320   5.432   5.684
 2258SOL    HW1 7673   1.349   5.399   5.594
 2258SOL    HW2 7674   1.370   5.515   5.707
 2259SOL     OW 7675   5.123   4.095   6.745
 2259SOL    HW1 7676   5.031   4.102   6.783
 2259SOL    HW2 7677   5.162   4.006   6.767
 2260SOL     OW 7678   5.789   4.548   3.099
 2260SOL    HW1 7679   5.857   4.585   3.036
 2260SOL    HW2 7680   5.824   4.464   3.141
 2261SOL     OW 7681   6.774   5.684   0.290
 2261SOL    HW1 7682   6.778   5.783   0.303
 2261SOL    HW2 7683   6.700   5.662   0.226
 2262SOL     OW 7684   5.512   1.479   2.116
 2262SOL    HW1 7685   5.415   1.483   2.090
 2262SOL    HW2 7686   5.562   1.549   2.065
 2263SOL     OW 7687   2.624   5.616   0.068
 2263SOL    HW1 7688   2.544   5.657   0.025
 2263SOL    HW2 7689   2.619   5.629   0.167
 2264SOL     OW 7690   3.485   3.632   0.620
 2264SOL    HW1 7691   3.428   3.630   0.537
 2264SOL    HW2 7692   3.426   3.644   0.700
 2265SOL     OW 7693   0.426   1.026   4.376
 2265SOL    HW1 7694   0.511   1.067   4.345
 2265SOL    HW2 7695   0.417   1.036   4.475
 2266SOL     OW 7696   6.179   1.918   1.297
 2266SOL    HW1 7697   6.174   1.966   1.385
 2266SOL    HW2 7698   6.117   1.839   1.299
 2267SOL     OW 7699   4.948   2.519   5.054
 2267SOL    HW1 7700   4.924   2.568   5.138
 2267SOL    HW2 7701   4.909   2.568   4.975
 2268SOL     OW 7702   6.836   3.805   6.587
 2268SOL    HW1 7703   6.875   3.794   6.678
 2268SOL    HW2 7704   6.739   3.830   6.595
 2269SOL     OW 7705   5.830   5.898   5.166
 2269SOL    HW1 7706   5.769   5.818   5.168
 2269SOL    HW2 7707   5.859   5.916   5.072
 2270SOL     OW 7708   3.571   2.447   6.340
 2270SOL    HW1 7709   3.637   2.440   6.415
 2270SOL    HW2 7710   3.504   2.518   6.361
 2271SOL     OW 7711   6.291   4.361   0.684
 2271SOL    HW1 7712   6.233   4.310   0.621
 2271SOL    HW2 7713   6.364   4.405   0.633
 2272SOL     OW 7714   6.029   1.639   6.042
 2272SOL    HW1 7715   6.117   1.633   5.995
 2272SOL    HW2 7716   5.955   1.617   5.978
 2273SOL     OW 7717   1.912   0.155   2.193
 2273SOL    HW1 7718   1.994   0.212   2.184
 2273SOL    HW2 7719   1.835   0.213   2.218
 2274SOL     OW 7720   1.019   2.934   5.996
 2274SOL    HW1 7721   0.973   3.018   6.025
 2274SOL    HW2 7722   1.110   2.956   5.962
 2275SOL     OW 7723   6.022   0.730   3.929
 2275SOL    HW1 7724   5.959   0.711   3.853
 2275SOL    HW2 7725   6.101   0.669   3.923
 2276SOL     OW 7726   2.761   5.377   1.426
 2276SOL    HW1 7727   2.819   5.450   1.462
 2276SOL    HW2 7728   2.694   5.351   1.496
 2277SOL     OW 7729   3.225   3.744   5.382
 2277SOL    HW1 7730   3.140   3.741   5.435
 2277SOL    HW2 7731   3.207   3.781   5.291
 2278SOL     OW 7732   6.937   5.166   3.941
 2278SOL    HW1 7733   6.839   5.177   3.926
 2278SOL    HW2 7734   6.982   5.255   3.927
 2279SOL     OW 7735   4.679   6.080   4.665
 2279SOL    HW1 7736   4.755   6.118   4.613
 2279SOL    HW2 7737   4.606   6.053   4.601
 2280SOL     OW 7738   6.826   6.207   4.411
 2280SOL    HW1 7739   6.915   6.162   4.424
 2280SOL    HW2 7740   6.838   6.288   4.353
 2281SOL     OW 7741   3.196   1.414   1.274
 2281SOL    HW1 7742   3.156   1.488   1.328
 2281SOL    HW2 7743   3.278   1.447   1.227
 2282SOL     OW 7744   4.416   6.280   5.031
 2282SOL    HW1 7745   4.477   6.274   4.953
 2282SOL    HW2 7746   4.449   6.349   5.095
 2283SOL     OW 7747   6.697   4.254   2.065
 2283SOL    HW1 7748   6.705   4.263   1.966
 2283SOL    HW2 7749   6.604   4.276   2.094
 2284SOL     OW 7750   1.936   2.419   0.578
 2284SOL    HW1 7751   1.938   2.500   0.521
 2284SOL    HW2 7752   2.027   2.401   0.615
 2285SOL     OW 7753   1.791   2.409   1.029
 2285SOL    HW1 7754   1.886   2.437   1.038
 2285SOL    HW2 7755   1.733   2.466   1.087
 2286SOL     OW 7756   0.261   0.286   4.422
 2286SOL    HW1 7757   0.251   0.196   4.381
 2286SOL    HW2 7758   0.336   0.335   4.379
 2287SOL     OW 7759   1.928   1.491   2.960
 2287SOL    HW1 7760   1.975   1.431   3.024
 2287SOL    HW2 7761   1.885   1.566   3.010
 2288SOL     OW 7762   5.800   5.329   4.306
 2288SOL    HW1 7763   5.852   5.406   4.343
 2288SOL    HW2 7764   5.705   5.335   4.337
 2289SOL     OW 7765   6.716   4.809   2.713
 2289SOL    HW1 7766   6.631   4.782   2.667
 2289SOL    HW2 7767   6.787   4.825   2.644
 2290SOL     OW 7768   1.537   3.710   1.943
 2290SOL    HW1 7769   1.551   3.800   1.985
 2290SOL    HW2 7770   1.603   3.696   1.870
 2291SOL     OW 7771   2.336   2.554   6.503
 2291SOL    HW1 7772   2.243   2.524   6.481
 2291SOL    HW2 7773   2.397   2.475   6.503
 2292SOL     OW 7774   5.735   3.211   4.115
 2292SOL    HW1 7775   5.769   3.304   4.102
 2292SOL    HW2 7776   5.738   3.162   4.028
 2293SOL     OW 7777   5.476   6.463   1.009
 2293SOL    HW1 7778   5.390   6.415   0.991
 2293SOL    HW2 7779   5.491   6.470   1.107
 2294SOL     OW 7780   3.855   0.695   6.426
 2294SOL    HW1 7781   3.947   0.735   6.430
 2294SOL    HW2 7782   3.836   0.646   6.512
 2295SOL     OW 7783   0.498   1.584   2.835
 2295SOL    HW1 7784   0.456   1.557   2.748
 2295SOL    HW2 7785   0.589   1.541   2.843
 2296SOL     OW 7786   3.228   5.696   2.281
 2296SOL    HW1 7787   3.303   5.675   2.344
 2296SOL    HW2 7788   3.199   5.791   2.293
 2297SOL     OW 7789   5.230   4.333   5.338
 2297SOL    HW1 7790   5.140   4.326   5.296
 2297SOL    HW2 7791   5.299   4.348   5.268
 2298SOL     OW 7792   3.881   3.621   1.809
 2298SOL    HW1 7793   3.962   3.610   1.751
 2298SOL    HW2 7794   3.818   3.685   1.766
 2299SOL     OW 7795   4.721   4.664   5.043
 2299SOL    HW1 7796   4.791   4.597   5.065
 2299SOL    HW2 7797   4.755   4.756   5.062
 2300SOL     OW 7798   2.519   5.909   2.600
 2300SOL    HW1 7799   2.600   5.879   2.549
 2300SOL    HW2 7800   2.518   6.009   2.605
 2301SOL     OW 7801   3.579   2.870   3.171
 2301SOL    HW1 7802   3.533   2.914   3.248
 2301SOL    HW2 7803   3.658   2.819   3.205
 2302SOL     OW 7804   3.651   0.411   1.351
 2302SOL    HW1 7805   3.663   0.501   1.310
 2302SOL    HW2 7806   3.740   0.376   1.383
 2303SOL     OW 7807   2.283   3.091   7.016
 2303SOL    HW1 7808   2.339   3.032   0.055
 2303SOL    HW2 7809   2.218   3.142   0.054
 2304SOL     OW 7810   5.483   6.783   4.329
 2304SOL    HW1 7811   5.459   6.735   4.245
 2304SOL    HW2 7812   5.572   6.752   4.361
 2305SOL     OW 7813   3.018   0.078   2.255
 2305SOL    HW1 7814   2.943   0.049   2.314
 2305SOL    HW2 7815   3.009   0.176   2.236
 2306SOL     OW 7816   1.948   5.007   1.675
 2306SOL    HW1 7817   1.899   4.921   1.662
 2306SOL    HW2 7818   2.019   4.994   1.744
 2307SOL     OW 7819   0.087   3.186   4.330
 2307SOL    HW1 7820   0.070   3.191   4.428
 2307SOL    HW2 7821   0.022   3.122   4.288
 2308SOL     OW 7822   1.877   4.711   1.894
 2308SOL    HW1 7823   1.864   4.720   1.795
 2308SOL    HW2 7824   1.954   4.649   1.912
 2309SOL     OW 7825   1.632   0.774   5.713
 2309SOL    HW1 7826   1.556   0.719   5.677
 2309SOL    HW2 7827   1.693   0.715   5.766
 2310SOL     OW 7828   5.864   5.561   0.919
 2310SOL    HW1 7829   5.870   5.501   0.840
 2310SOL    HW2 7830   5.768   5.578   0.941
 2311SOL     OW 7831   2.234   0.355   1.454
 2311SOL    HW1 7832   2.181   0.270   1.442
 2311SOL    HW2 7833   2.235   0.379   1.551
 2312SOL     OW 7834   4.504   6.129   3.135
 2312SOL    HW1 7835   4.581   6.170   3.182
 2312SOL    HW2 7836   4.420   6.147   3.186
 2313SOL     OW 7837   5.850   5.492   1.436
 2313SOL    HW1 7838   5.758   5.526   1.417
 2313SOL    HW2 7839   5.908   5.567   1.465
 2314SOL     OW 7840   5.251   6.037   3.690
 2314SOL    HW1 7841   5.184   6.011   3.760
 2314SOL    HW2 7842   5.289   5.955   3.649
 2315SOL     OW 7843   5.299   3.023   6.663
 2315SOL    HW1 7844   5.274   2.930   6.690
 2315SOL    HW2 7845   5.243   3.089   6.714
 2316SOL     OW 7846   4.664   1.620   4.062
 2316SOL    HW1 7847   4.599   1.683   4.104
 2316SOL    HW2 7848   4.632   1.526   4.076
 2317SOL     OW 7849   0.769   6.471   3.158
 2317SOL    HW1 7850   0.859   6.493   3.119
 2317SOL    HW2 7851   0.776   6.465   3.257
 2318SOL     OW 7852   1.197   2.855   3.785
 2318SOL    HW1 7853   1.220   2.920   3.857
 2318SOL    HW2 7854   1.127   2.894   3.725
 2319SOL     OW 7855   1.619   4.652   4.109
 2319SOL    HW1 7856   1.550   4.724   4.113
 2319SOL    HW2 7857   1.575   4.564   4.127
 2320SOL     OW 7858   1.148   2.124   4.357
 2320SOL    HW1 7859   1.141   2.216   4.319
 2320SOL    HW2 7860   1.184   2.062   4.287
 2321SOL     OW 7861   2.656   0.155   6.566
 2321SOL    HW1 7862   2.687   0.175   6.473
 2321SOL    HW2 7863   2.695   0.222   6.629
 2322SOL     OW 7864   3.107   1.916   5.333
 2322SOL    HW1 7865   3.053   1.866   5.265
 2322SOL    HW2 7866   3.125   1.857   5.411
 2323SOL     OW 7867   2.577   5.081   1.845
 2323SOL    HW1 7868   2.480   5.106   1.841
 2323SOL    HW2 7869   2.606   5.046   1.756
 2324SOL     OW 7870   6.029   6.604   1.192
 2324SOL    HW1 7871   5.990   6.521   1.152
 2324SOL    HW2 7872   5.955   6.663   1.224
 2325SOL     OW 7873   1.367   4.501   2.434
 2325SOL    HW1 7874   1.423   4.584   2.434
 2325SOL    HW2 7875   1.360   4.466   2.340
 2326SOL     OW 7876   3.464   5.362   5.584
 2326SOL    HW1 7877   3.379   5.364   5.531
 2326SOL    HW2 7878   3.464   5.282   5.645
 2327SOL     OW 7879   6.078   3.529   5.122
 2327SOL    HW1 7880   5.991   3.577   5.132
 2327SOL    HW2 7881   6.063   3.437   5.087
 2328SOL     OW 7882   3.455   2.031   3.124
 2328SOL    HW1 7883   3.519   1.994   3.057
 2328SOL    HW2 7884   3.505   2.052   3.208
 2329SOL     OW 7885   1.625   3.476   4.832
 2329SOL    HW1 7886   1.710   3.498   4.784
 2329SOL    HW2 7887   1.606   3.546   4.901
 2330SOL     OW 7888   1.066   3.783   2.082
 2330SOL    HW1 7889   1.005   3.771   2.160
 2330SOL    HW2 7890   1.019   3.834   2.010
 2331SOL     OW 7891   6.101   4.197   0.959
 2331SOL    HW1 7892   6.052   4.254   0.893
 2331SOL    HW2 7893   6.168   4.140   0.910
 2332SOL     OW 7894   4.205   1.572   5.689
 2332SOL    HW1 7895   4.156   1.536   5.610
 2332SOL    HW2 7896   4.184   1.669   5.699
 2333SOL     OW 7897   0.269   5.935   3.088
 2333SOL    HW1 7898   0.260   5.898   2.996
 2333SOL    HW2 7899   0.178   5.940   3.131
 2334SOL     OW 7900   2.260   0.604   0.255
 2334SOL    HW1 7901   2.201   0.638   0.183
 2334SOL    HW2 7902   2.324   0.537   0.217
 2335SOL     OW 7903   6.077   1.111   3.144
 2335SOL    HW1 7904   6.110   1.024   3.108
 2335SOL    HW2 7905   6.013   1.152   3.079
 2336SOL     OW 7906   4.157   1.683   4.890
 2336SOL    HW1 7907   4.205   1.746   4.951
 2336SOL    HW2 7908   4.146   1.726   4.800
 2337SOL     OW 7909   4.382   0.837   3.241
 2337SOL    HW1 7910   4.479   0.861   3.237
 2337SOL    HW2 7911   4.372   0.750   3.290
 2338SOL     OW 7912   1.645   1.519   6.117
 2338SOL    HW1 7913   1.633   1.437   6.060
 2338SOL    HW2 7914   1.703   1.585   6.069
 2339SOL     OW 7915   3.371   4.204   5.228
 2339SOL    HW1 7916   3.429   4.173   5.153
 2339SOL    HW2 7917   3.276   4.177   5.210
 2340SOL     OW 7918   5.486   4.875   6.486
 2340SOL    HW1 7919   5.493   4.891   6.585
 2340SOL    HW2 7920   5.576   4.854   6.449
 2341SOL     OW 7921   5.814   4.245   1.427
 2341SOL    HW1 7922   5.771   4.268   1.515
 2341SOL    HW2 7923   5.911   4.226   1.442
 2342SOL     OW 7924   0.005   6.331   5.121
 2342SOL    HW1 7925   0.008   6.315   5.220
 2342SOL    HW2 7926   6.984   6.421   5.103
 2343SOL     OW 7927   1.667   6.600   2.212
 2343SOL    HW1 7928   1.703   6.506   2.210
 2343SOL    HW2 7929   1.570   6.599   2.187
 2344SOL     OW 7930   1.615   0.735   1.286
 2344SOL    HW1 7931   1.591   0.676   1.363
 2344SOL    HW2 7932   1.714   0.736   1.275
 2345SOL     OW 7933   2.345   5.267   5.397
 2345SOL    HW1 7934   2.434   5.313   5.400
 2345SOL    HW2 7935   2.359   5.168   5.394
 2346SOL     OW 7936   4.810   2.992   4.625
 2346SOL    HW1 7937   4.784   2.983   4.721
 2346SOL    HW2 7938   4.817   3.089   4.602
 2347SOL     OW 7939   2.267   3.662   1.653
 2347SOL    HW1 7940   2.222   3.594   1.596
 2347SOL    HW2 7941   2.300   3.619   1.737
 2348SOL     OW 7942   3.566   6.056   4.006
 2348SOL    HW1 7943   3.520   6.137   3.970
 2348SOL    HW2 7944   3.518   6.024   4.088
 2349SOL     OW 7945   0.713   5.131   6.259
 2349SOL    HW1 7946   0.615   5.146   6.251
 2349SOL    HW2 7947   0.742   5.061   6.193
 2350SOL     OW 7948   5.299   6.865   6.548
 2350SOL    HW1 7949   5.343   6.953   6.534
 2350SOL    HW2 7950   5.231   6.849   6.476
 2351SOL     OW 7951   4.162   5.097   2.218
 2351SOL    HW1 7952   4.245   5.102   2.161
 2351SOL    HW2 7953   4.188   5.097   2.314
 2352SOL     OW 7954   1.432   3.801   2.447
 2352SOL    HW1 7955   1.496   3.725   2.440
 2352SOL    HW2 7956   1.455   3.871   2.379
 2353SOL     OW 7957   2.868   4.896   4.924
 2353SOL    HW1 7958   2.857   4.803   4.959
 2353SOL    HW2 7959   2.859   4.895   4.824
 2354SOL     OW 7960   2.848   1.707   6.391
 2354SOL    HW1 7961   2.859   1.758   6.306
 2354SOL    HW2 7962   2.752   1.678   6.401
 2355SOL     OW 7963   1.453   5.514   6.943
 2355SOL    HW1 7964   1.453   5.524   6.843
 2355SOL    HW2 7965   1.513   5.439   6.969
 2356SOL     OW 7966   2.093   4.303   0.439
 2356SOL    HW1 7967   2.090   4.327   0.342
 2356SOL    HW2 7968   2.189   4.289   0.466
 2357SOL     OW 7969   4.133   5.263   3.890
 2357SOL    HW1 7970   4.207   5.215   3.937
 2357SOL    HW2 7971   4.172   5.333   3.830
 2358SOL     OW 7972   2.305   5.238   4.837
 2358SOL    HW1 7973   2.207   5.254   4.844
 2358SOL    HW2 7974   2.335   5.179   4.913
 2359SOL     OW 7975   0.015   0.958   5.575
 2359SOL    HW1 7976   7.004   1.053   5.587
 2359SOL    HW2 7977   0.029   0.916   5.664
 2360SOL     OW 7978   4.851   6.309   5.912
 2360SOL    HW1 7979   4.820   6.262   5.829
 2360SOL    HW2 7980   4.939   6.272   5.940
 2361SOL     OW 7981   3.214   6.755   4.662
 2361SOL    HW1 7982   3.134   6.713   4.704
 2361SOL    HW2 7983   3.192   6.848   4.632
 2362SOL     OW 7984   3.407   6.564   5.349
 2362SOL    HW1 7985   3.473   6.636   5.368
 2362SOL    HW2 7986   3.345   6.553   5.427
 2363SOL     OW 7987   4.403   2.682   5.539
 2363SOL    HW1 7988   4.480   2.683   5.602
 2363SOL    HW2 7989   4.330   2.741   5.574
 2364SOL     OW 7990   6.909   2.800   3.241
 2364SOL    HW1 7991   6.850   2.725   3.271
 2364SOL    HW2 7992   6.993   2.800   3.296
 2365SOL     OW 7993   5.841   2.271   6.289
 2365SOL    HW1 7994   5.798   2.361   6.295
 2365SOL    HW2 7995   5.844   2.243   6.193
 2366SOL     OW 7996   1.303   4.304   5.780
 2366SOL    HW1 7997   1.317   4.312   5.681
 2366SOL    HW2 7998   1.387   4.273   5.824
 2367SOL     OW 7999   3.044   3.572   6.732
 2367SOL    HW1 8000   2.990   3.517   6.668
 2367SOL    HW2 8001   3.076   3.655   6.687
 2368SOL     OW 8002   4.687   0.388   3.631
 2368SOL    HW1 8003   4.781   0.378   3.665
 2368SOL    HW2 8004   4.638   0.453   3.689
 2369SOL     OW 8005   2.207   2.443   4.739
 2369SOL    HW1 8006   2.204   2.539   4.768
 2369SOL    HW2 8007   2.259   2.435   4.654
 2370SOL     OW 8008   4.366   4.152   6.351
 2370SOL    HW1 8009   4.341   4.062   6.314
 2370SOL    HW2 8010   4.285   4.198   6.385
 2371SOL     OW 8011   1.298   6.274   1.703
 2371SOL    HW1 8012   1.301   6.364   1.745
 2371SOL    HW2 8013   1.378   6.261   1.644
 2372SOL     OW 8014   1.001   2.175   1.297
 2372SOL    HW1 8015   0.981   2.211   1.388
 2372SOL    HW2 8016   0.965   2.237   1.227
 2373SOL     OW 8017   5.826   0.336   0.041
 2373SOL    HW1 8018   5.865   0.268   0.102
 2373SOL    HW2 8019   5.729   0.348   0.062
 2374SOL     OW 8020   6.379   0.841   4.100
 2374SOL    HW1 8021   6.451   0.829   4.031
 2374SOL    HW2 8022   6.405   0.790   4.182
 2375SOL     OW 8023   1.388   6.740   4.304
 2375SOL    HW1 8024   1.478   6.783   4.310
 2375SOL    HW2 8025   1.384   6.682   4.222
 2376SOL     OW 8026   6.196   2.596   4.113
 2376SOL    HW1 8027   6.274   2.579   4.174
 2376SOL    HW2 8028   6.179   2.694   4.108
 2377SOL     OW 8029   3.346   4.126   3.514
 2377SOL    HW1 8030   3.280   4.084   3.576
 2377SOL    HW2 8031   3.407   4.187   3.565
 2378SOL     OW 8032   5.585   1.689   6.657
 2378SOL    HW1 8033   5.536   1.614   6.614
 2378SOL    HW2 8034   5.572   1.773   6.604
 2379SOL     OW 8035   6.935   1.570   6.122
 2379SOL    HW1 8036   6.926   1.669   6.117
 2379SOL    HW2 8037   7.016   1.546   6.176
 2380SOL     OW 8038   6.811   6.735   6.081
 2380SOL    HW1 8039   6.755   6.731   6.163
 2380SOL    HW2 8040   6.835   6.830   6.061
 2381SOL     OW 8041   2.334   4.338   3.949
 2381SOL    HW1 8042   2.317   4.254   4.001
 2381SOL    HW2 8043   2.279   4.338   3.866
 2382SOL     OW 8044   2.196   4.617   2.539
 2382SOL    HW1 8045   2.201   4.566   2.624
 2382SOL    HW2 8046   2.214   4.714   2.556
 2383SOL     OW 8047   5.270   5.922   6.686
 2383SOL    HW1 8048   5.171   5.929   6.691
 2383SOL    HW2 8049   5.312   5.989   6.748
 2384SOL     OW 8050   0.813   0.328   2.554
 2384SOL    HW1 8051   0.889   0.273   2.518
 2384SOL    HW2 8052   0.839   0.424   2.555
 2385SOL     OW 8053   6.249   0.277   0.710
 2385SOL    HW1 8054   6.323   0.217   0.741
 2385SOL    HW2 8055   6.172   0.222   0.679
 2386SOL     OW 8056   4.255   5.313   4.470
 2386SOL    HW1 8057   4.264   5.390   4.406
 2386SOL    HW2 8058   4.268   5.346   4.563
 2387SOL     OW 8059   6.943   2.731   4.133
 2387SOL    HW1 8060   6.964   2.634   4.131
 2387SOL    HW2 8061   6.948   2.769   4.040
 2388SOL     OW 8062   1.110   1.418   4.395
 2388SOL    HW1 8063   1.113   1.475   4.478
 2388SOL    HW2 8064   1.175   1.454   4.328
 2389SOL     OW 8065   5.055   4.240   3.708
 2389SOL    HW1 8066   5.122   4.166   3.714
 2389SOL    HW2 8067   5.065   4.287   3.620
 2390SOL     OW 8068   3.735   3.098   4.587
 2390SOL    HW1 8069   3.686   3.014   4.610
 2390SOL    HW2 8070   3.817   3.105   4.644
 2391SOL     OW 8071   4.260   4.115   5.755
 2391SOL    HW1 8072   4.302   4.181   5.817
 2391SOL    HW2 8073   4.274   4.023   5.790
 2392SOL     OW 8074   3.188   6.061   5.577
 2392SOL    HW1 8075   3.208   6.075   5.673
 2392SOL    HW2 8076   3.171   5.964   5.559
 2393SOL     OW 8077   3.491   5.470   0.709
 2393SOL    HW1 8078   3.450   5.561   0.706
 2393SOL    HW2 8079   3.447   5.415   0.780
 2394SOL     OW 8080   1.814   3.331   5.098
 2394SOL    HW1 8081   1.749   3.348   5.024
 2394SOL    HW2 8082   1.807   3.236   5.128
 2395SOL     OW 8083   6.633   2.202   6.943
 2395SOL    HW1 8084   6.690   2.149   6.881
 2395SOL    HW2 8085   6.632   2.159   0.014
 2396SOL     OW 8086   4.754   5.543   0.337
 2396SOL    HW1 8087   4.745   5.472   0.407
 2396SOL    HW2 8088   4.783   5.502   0.251
 2397SOL     OW 8089   6.973   4.411   0.531
 2397SOL    HW1 8090   0.026   4.360   0.578
 2397SOL    HW2 8091   6.898   4.430   0.594
 2398SOL     OW 8092   2.982   5.130   5.851
 2398SOL    HW1 8093   3.011   5.071   5.926
 2398SOL    HW2 8094   2.908   5.086   5.801
 2399SOL     OW 8095   4.475   1.609   1.919
 2399SOL    HW1 8096   4.448   1.654   1.834
 2399SOL    HW2 8097   4.398   1.611   1.984
 2400SOL     OW 8098   4.059   4.668   0.558
 2400SOL    HW1 8099   3.998   4.608   0.508
 2400SOL    HW2 8100   4.006   4.741   0.602
 2401SOL     OW 8101   3.846   0.661   5.986
 2401SOL    HW1 8102   3.861   0.605   6.067
 2401SOL    HW2 8103   3.930   0.708   5.961
 2402SOL     OW 8104   0.138   2.855   4.233
 2402SOL    HW1 8105   0.173   2.869   4.140
 2402SOL    HW2 8106   0.045   2.819   4.229
 2403SOL     OW 8107   2.675   2.705   6.824
 2403SOL    HW1 8108   2.687   2.645   6.903
 2403SOL    HW2 8109   2.708   2.797   6.847
 2404SOL     OW 8110   5.691   1.244   2.671
 2404SOL    HW1 8111   5.670   1.316   2.738
 2404SOL    HW2 8112   5.739   1.285   2.593
 2405SOL     OW 8113   3.430   3.786   4.892
 2405SOL    HW1 8114   3.410   3.699   4.937
 2405SOL    HW2 8115   3.461   3.769   4.798
 2406SOL     OW 8116   1.504   0.397   3.611
 2406SOL    HW1 8117   1.517   0.408   3.512
 2406SOL    HW2 8118   1.583   0.436   3.659
 2407SOL     OW 8119   4.900   2.235   3.244
 2407SOL    HW1 8120   4.858   2.172   3.310
 2407SOL    HW2 8121   4.868   2.213   3.152
 2408SOL     OW 8122   3.608   5.605   2.753
 2408SOL    HW1 8123   3.524   5.552   2.740
 2408SOL    HW2 8124   3.637   5.598   2.848
 2409SOL     OW 8125   1.862   2.990   1.959
 2409SOL    HW1 8126   1.938   2.976   2.022
 2409SOL    HW2 8127   1.780   2.945   1.994
 2410SOL     OW 8128   6.429   2.609   5.546
 2410SOL    HW1 8129   6.381   2.545   5.487
 2410SOL    HW2 8130   6.468   2.560   5.624
 2411SOL     OW 8131   4.271   5.028   5.469
 2411SOL    HW1 8132   4.216   5.099   5.515
 2411SOL    HW2 8133   4.230   4.938   5.487
 2412SOL     OW 8134   2.811   4.417   6.864
 2412SOL    HW1 8135   2.881   4.487   6.847
 2412SOL    HW2 8136   2.777   4.426   6.958
 2413SOL     OW 8137   6.737   2.995   6.828
 2413SOL    HW1 8138   6.778   2.932   6.894
 2413SOL    HW2 8139   6.782   2.983   6.739
 2414SOL     OW 8140   5.391   3.720   2.501
 2414SOL    HW1 8141   5.482   3.743   2.534
 2414SOL    HW2 8142   5.322   3.750   2.567
 2415SOL     OW 8143   1.115   0.269   0.847
 2415SOL    HW1 8144   1.124   0.318   0.934
 2415SOL    HW2 8145   1.182   0.195   0.844
 2416SOL     OW 8146   2.600   1.760   5.112
 2416SOL    HW1 8147   2.533   1.747   5.039
 2416SOL    HW2 8148   2.591   1.686   5.179
 2417SOL     OW 8149   4.173   2.818   0.470
 2417SOL    HW1 8150   4.096   2.754   0.472
 2417SOL    HW2 8151   4.143   2.907   0.505
 2418SOL     OW 8152   3.278   3.406   4.093
 2418SOL    HW1 8153   3.274   3.342   4.016
 2418SOL    HW2 8154   3.299   3.357   4.177
 2419SOL     OW 8155   0.456   6.571   4.104
 2419SOL    HW1 8156   0.460   6.665   4.072
 2419SOL    HW2 8157   0.361   6.546   4.124
 2420SOL     OW 8158   4.234   0.306   2.262
 2420SOL    HW1 8159   4.258   0.403   2.257
 2420SOL    HW2 8160   4.315   0.250   2.248
 2421SOL     OW 8161   2.712   0.531   4.642
 2421SOL    HW1 8162   2.760   0.466   4.701
 2421SOL    HW2 8163   2.727   0.506   4.546
 2422SOL     OW 8164   5.554   0.336   1.280
 2422SOL    HW1 8165   5.585   0.255   1.328
 2422SOL    HW2 8166   5.632   0.396   1.262
 2423SOL     OW 8167   1.171   6.271   3.254
 2423SOL    HW1 8168   1.217   6.186   3.231
 2423SOL    HW2 8169   1.189   6.339   3.184
 2424SOL     OW 8170   5.234   5.558   6.139
 2424SOL    HW1 8171   5.294   5.583   6.215
 2424SOL    HW2 8172   5.192   5.641   6.101
 2425SOL     OW 8173   6.140   0.065   4.568
 2425SOL    HW1 8174   6.077   7.015   4.533
 2425SOL    HW2 8175   6.184   0.113   4.492
 2426SOL     OW 8176   0.856   4.747   4.625
 2426SOL    HW1 8177   0.873   4.694   4.542
 2426SOL    HW2 8178   0.839   4.842   4.602
 2427SOL     OW 8179   6.504   5.621   0.128
 2427SOL    HW1 8180   6.551   5.701   0.092
 2427SOL    HW2 8181   6.435   5.589   0.063
 2428SOL     OW 8182   0.852   6.950   3.353
 2428SOL    HW1 8183   0.791   6.936   3.431
 2428SOL    HW2 8184   0.895   6.863   3.327
 2429SOL     OW 8185   6.559   5.769   3.485
 2429SOL    HW1 8186   6.514   5.775   3.396
 2429SOL    HW2 8187   6.621   5.847   3.497
 2430SOL     OW 8188   6.250   2.375   1.626
 2430SOL    HW1 8189   6.157   2.341   1.612
 2430SOL    HW2 8190   6.269   2.447   1.560
 2431SOL     OW 8191   4.320   0.062   1.888
 2431SOL    HW1 8192   4.415   0.041   1.863
 2431SOL    HW2 8193   4.298   0.155   1.858
 2432SOL     OW 8194   4.285   6.147   2.839
 2432SOL    HW1 8195   4.260   6.163   2.744
 2432SOL    HW2 8196   4.235   6.210   2.898
 2433SOL     OW 8197   3.198   0.049   0.525
 2433SOL    HW1 8198   3.110   0.053   0.572
 2433SOL    HW2 8199   3.259   0.119   0.562
 2434SOL     OW 8200   4.784   1.402   3.682
 2434SOL    HW1 8201   4.685   1.386   3.684
 2434SOL    HW2 8202   4.802   1.499   3.693
 2435SOL     OW 8203   4.629   5.321   6.603
 2435SOL    HW1 8204   4.605   5.229   6.570
 2435SOL    HW2 8205   4.717   5.348   6.566
 2436SOL     OW 8206   2.080   0.411   0.915
 2436SOL    HW1 8207   2.158   0.360   0.878
 2436SOL    HW2 8208   2.042   0.361   0.993
 2437SOL     OW 8209   4.984   5.166   0.502
 2437SOL    HW1 8210   5.055   5.105   0.537
 2437SOL    HW2 8211   5.025   5.233   0.440
 2438SOL     OW 8212   3.838   0.985   5.634
 2438SOL    HW1 8213   3.866   0.898   5.595
 2438SOL    HW2 8214   3.904   1.056   5.609
 2439SOL     OW 8215   1.405   3.870   0.059
 2439SOL    HW1 8216   1.400   3.883   6.979
 2439SOL    HW2 8217   1.313   3.871   0.097
 2440SOL     OW 8218   3.481   6.216   4.939
 2440SOL    HW1 8219   3.561   6.194   4.993
 2440SOL    HW2 8220   3.411   6.258   4.997
 2441SOL     OW 8221   6.576   1.474   6.720
 2441SOL    HW1 8222   6.547   1.529   6.641
 2441SOL    HW2 8223   6.606   1.384   6.688
 2442SOL     OW 8224   6.312   5.834   3.654
 2442SOL    HW1 8225   6.285   5.758   3.713
 2442SOL    HW2 8226   6.392   5.807   3.600
 2443SOL     OW 8227   3.128   0.013   6.606
 2443SOL    HW1 8228   3.075   0.053   6.531
 2443SOL    HW2 8229   3.080   0.029   6.693
 2444SOL     OW 8230   3.877   4.127   6.373
 2444SOL    HW1 8231   3.933   4.075   6.309
 2444SOL    HW2 8232   3.826   4.197   6.323
 2445SOL     OW 8233   0.108   1.373   2.360
 2445SOL    HW1 8234   0.045   1.329   2.424
 2445SOL    HW2 8235   0.202   1.359   2.390
 2446SOL     OW 8236   0.823   2.955   4.327
 2446SOL    HW1 8237   0.744   2.896   4.315
 2446SOL    HW2 8238   0.856   2.948   4.421
 2447SOL     OW 8239   2.825   0.874   0.866
 2447SOL    HW1 8240   2.887   0.945   0.899
 2447SOL    HW2 8241   2.736   0.914   0.846
 2448SOL     OW 8242   0.522   0.672   4.135
 2448SOL    HW1 8243   0.478   0.639   4.051
 2448SOL    HW2 8244   0.454   0.718   4.192
 2449SOL     OW 8245   6.428   4.462   2.986
 2449SOL    HW1 8246   6.430   4.476   2.887
 2449SOL    HW2 8247   6.334   4.468   3.018
 2450SOL     OW 8248   3.091   5.288   4.750
 2450SOL    HW1 8249   2.995   5.289   4.722
 2450SOL    HW2 8250   3.096   5.263   4.847
 2451SOL     OW 8251   0.660   0.447   3.541
 2451SOL    HW1 8252   0.714   0.390   3.603
 2451SOL    HW2 8253   0.578   0.397   3.514
 2452SOL     OW 8254   2.881   2.329   3.298
 2452SOL    HW1 8255   2.963   2.303   3.247
 2452SOL    HW2 8256   2.892   2.301   3.394
 2453SOL     OW 8257   6.568   3.124   0.677
 2453SOL    HW1 8258   6.585   3.089   0.769
 2453SOL    HW2 8259   6.475   3.161   0.671
 2454SOL     OW 8260   3.098   0.780   0.166
 2454SOL    HW1 8261   3.173   0.786   0.231
 2454SOL    HW2 8262   3.071   0.872   0.138
 2455SOL     OW 8263   5.063   1.029   1.198
 2455SOL    HW1 8264   5.107   0.991   1.279
 2455SOL    HW2 8265   4.981   0.976   1.177
 2456SOL     OW 8266   5.728   1.525   0.399
 2456SOL    HW1 8267   5.709   1.441   0.348
 2456SOL    HW2 8268   5.675   1.600   0.360
 2457SOL     OW 8269   6.562   5.917   6.447
 2457SOL    HW1 8270   6.585   5.933   6.351
 2457SOL    HW2 8271   6.555   5.818   6.463
 2458SOL     OW 8272   2.333   5.993   3.964
 2458SOL    HW1 8273   2.241   5.959   3.945
 2458SOL    HW2 8274   2.332   6.046   4.049
 2459SOL     OW 8275   2.763   6.270   5.903
 2459SOL    HW1 8276   2.757   6.290   6.001
 2459SOL    HW2 8277   2.682   6.219   5.874
 2460SOL     OW 8278   1.504   1.554   1.858
 2460SOL    HW1 8279   1.542   1.498   1.785
 2460SOL    HW2 8280   1.545   1.645   1.855
 2461SOL     OW 8281   4.930   0.050   2.945
 2461SOL    HW1 8282   4.919   0.059   3.044
 2461SOL    HW2 8283   5.015   0.001   2.925
 2462SOL     OW 8284   1.788   5.805   0.553
 2462SOL    HW1 8285   1.766   5.714   0.519
 2462SOL    HW2 8286   1.730   5.825   0.633
 2463SOL     OW 8287   6.564   2.538   4.733
 2463SOL    HW1 8288   6.656   2.507   4.711
 2463SOL    HW2 8289   6.568   2.604   4.808
 2464SOL     OW 8290   1.951   4.081   1.636
 2464SOL    HW1 8291   1.873   4.082   1.574
 2464SOL    HW2 8292   2.032   4.049   1.587
 2465SOL     OW 8293   0.652   0.436   2.079
 2465SOL    HW1 8294   0.752   0.431   2.080
 2465SOL    HW2 8295   0.616   0.384   2.157
 2466SOL     OW 8296   2.844   1.735   2.872
 2466SOL    HW1 8297   2.777   1.696   2.809
 2466SOL    HW2 8298   2.851   1.834   2.856
 2467SOL     OW 8299   4.994   1.468   4.463
 2467SOL    HW1 8300   5.018   1.441   4.557
 2467SOL    HW2 8301   5.062   1.532   4.429
 2468SOL     OW 8302   5.189   6.216   1.787
 2468SOL    HW1 8303   5.158   6.161   1.709
 2468SOL    HW2 8304   5.142   6.186   1.870
 2469SOL     OW 8305   4.277   4.039   5.458
 2469SOL    HW1 8306   4.277   4.066   5.555
 2469SOL    HW2 8307   4.250   4.117   5.402
 2470SOL     OW 8308   3.600   4.901   5.834
 2470SOL    HW1 8309   3.575   4.860   5.746
 2470SOL    HW2 8310   3.691   4.871   5.860
 2471SOL     OW 8311   2.622   6.031   0.928
 2471SOL    HW1 8312   2.638   5.935   0.903
 2471SOL    HW2 8313   2.565   6.035   1.010
 2472SOL     OW 8314   5.294   2.614   4.231
 2472SOL    HW1 8315   5.263   2.598   4.325
 2472SOL    HW2 8316   5.392   2.599   4.226
 2473SOL     OW 8317   2.088   3.904   5.073
 2473SOL    HW1 8318   2.060   3.920   5.168
 2473SOL    HW2 8319   2.171   3.956   5.054
 2474SOL     OW 8320   0.631   6.156   0.523
 2474SOL    HW1 8321   0.647   6.243   0.476
 2474SOL    HW2 8322   0.713   6.099   0.517
 2475SOL     OW 8323   5.211   0.672   1.524
 2475SOL    HW1 8324   5.269   0.603   1.480
 2475SOL    HW2 8325   5.207   0.754   1.467
 2476SOL     OW 8326   0.055   2.268   3.759
 2476SOL    HW1 8327   0.046   2.363   3.788
 2476SOL    HW2 8328   6.987   2.237   3.720
 2477SOL     OW 8329   4.926   1.852   2.848
 2477SOL    HW1 8330   5.006   1.911   2.855
 2477SOL    HW2 8331   4.948   1.773   2.790
 2478SOL     OW 8332   6.271   0.796   1.955
 2478SOL    HW1 8333   6.291   0.699   1.970
 2478SOL    HW2 8334   6.186   0.805   1.903
 2479SOL     OW 8335   1.546   3.738   1.542
 2479SOL    HW1 8336   1.624   3.749   1.604
 2479SOL    HW2 8337   1.579   3.731   1.448
 2480SOL     OW 8338   6.267   3.988   0.862
 2480SOL    HW1 8339   6.325   4.009   0.940
 2480SOL    HW2 8340   6.197   3.922   0.890
 2481SOL     OW 8341   3.076   1.203   0.350
 2481SOL    HW1 8342   3.147   1.266   0.318
 2481SOL    HW2 8343   2.986   1.245   0.340
 2482SOL     OW 8344   4.605   3.110   5.871
 2482SOL    HW1 8345   4.638   3.122   5.964
 2482SOL    HW2 8346   4.509   3.136   5.866
 2483SOL     OW 8347   2.351   2.154   6.944
 2483SOL    HW1 8348   2.264   2.114   6.917
 2483SOL    HW2 8349   2.336   2.246   6.980
 2484SOL     OW 8350   2.416   0.773   0.417
 2484SOL    HW1 8351   2.424   0.764   0.517
 2484SOL    HW2 8352   2.355   0.702   0.382
 2485SOL     OW 8353   5.554   3.593   2.093
 2485SOL    HW1 8354   5.485   3.645   2.143
 2485SOL    HW2 8355   5.558   3.625   1.998
 2486SOL     OW 8356   2.303   5.016   4.133
 2486SOL    HW1 8357   2.361   4.957   4.188
 2486SOL    HW2 8358   2.306   4.986   4.037
 2487SOL     OW 8359   3.807   5.907   0.108
 2487SOL    HW1 8360   3.782   5.842   0.180
 2487SOL    HW2 8361   3.753   5.991   0.119
 2488SOL     OW 8362   1.933   4.343   2.100
 2488SOL    HW1 8363   1.969   4.289   2.176
 2488SOL    HW2 8364   1.834   4.348   2.106
 2489SOL     OW 8365   1.857   5.366   3.210
 2489SOL    HW1 8366   1.812   5.436   3.154
 2489SOL    HW2 8367   1.788   5.314   3.260
 2490SOL     OW 8368   6.739   4.962   1.723
 2490SOL    HW1 8369   6.648   4.990   1.755
 2490SOL    HW2 8370   6.805   5.034   1.745
 2491SOL     OW 8371   2.770   5.491   1.177
 2491SOL    HW1 8372   2.764   5.431   1.257
 2491SOL    HW2 8373   2.857   5.540   1.178
 2492SOL     OW 8374   4.682   3.010   6.918
 2492SOL    HW1 8375   4.767   2.986   6.870
 2492SOL    HW2 8376   4.606   2.960   6.877
 2493SOL     OW 8377   6.349   0.323   2.385
 2493SOL    HW1 8378   6.321   0.230   2.405
 2493SOL    HW2 8379   6.437   0.342   2.429
 2494SOL     OW 8380   6.056   4.167   2.166
 2494SOL    HW1 8381   6.061   4.070   2.189
 2494SOL    HW2 8382   6.079   4.180   2.069
 2495SOL     OW 8383   5.533   0.695   4.982
 2495SOL    HW1 8384   5.594   0.674   4.905
 2495SOL    HW2 8385   5.517   0.793   4.986
 2496SOL     OW 8386   0.275   4.153   6.565
 2496SOL    HW1 8387   0.226   4.240   6.573
 2496SOL    HW2 8388   0.319   4.131   6.652
 2497SOL     OW 8389   0.184   1.392   0.917
 2497SOL    HW1 8390   0.180   1.395   1.017
 2497SOL    HW2 8391   0.097   1.424   0.879
 2498SOL     OW 8392   3.370   1.938   3.704
 2498SOL    HW1 8393   3.461   1.973   3.684
 2498SOL    HW2 8394   3.338   1.975   3.791
 2499SOL     OW 8395   5.011   2.419   4.442
 2499SOL    HW1 8396   4.962   2.419   4.529
 2499SOL    HW2 8397   5.038   2.325   4.419
 2500SOL     OW 8398   4.266   2.818   6.379
 2500SOL    HW1 8399   4.306   2.745   6.323
 2500SOL    HW2 8400   4.167   2.805   6.383
 2501SOL     OW 8401   6.751   5.764   6.649
 2501SOL    HW1 8402   6.666   5.735   6.606
 2501SOL    HW2 8403   6.732   5.833   6.718
 2502SOL     OW 8404   2.451   5.882   3.286
 2502SOL    HW1 8405   2.535   5.828   3.283
 2502SOL    HW2 8406   2.431   5.918   3.195
 2503SOL     OW 8407   3.260   5.184   5.233
 2503SOL    HW1 8408   3.224   5.277   5.241
 2503SOL    HW2 8409   3.188   5.123   5.201
 2504SOL     OW 8410   2.781   5.251   5.295
 2504SOL    HW1 8411   2.721   5.316   5.248
 2504SOL    HW2 8412   2.790   5.168   5.240
 2505SOL     OW 8413   1.804   5.906   3.994
 2505SOL    HW1 8414   1.839   5.857   3.914
 2505SOL    HW2 8415   1.769   5.995   3.967
 2506SOL     OW 8416   5.857   3.403   6.463
 2506SOL    HW1 8417   5.915   3.324   6.480
 2506SOL    HW2 8418   5.891   3.452   6.383
 2507SOL     OW 8419   0.875   3.986   0.554
 2507SOL    HW1 8420   0.785   3.984   0.511
 2507SOL    HW2 8421   0.867   4.023   0.647
 2508SOL     OW 8422   2.731   1.452   2.495
 2508SOL    HW1 8423   2.801   1.381   2.488
 2508SOL    HW2 8424   2.715   1.491   2.404
 2509SOL     OW 8425   5.996   2.295   2.697
 2509SOL    HW1 8426   5.934   2.332   2.766
 2509SOL    HW2 8427   5.952   2.300   2.608
 2510SOL     OW 8428   3.583   4.393   1.403
 2510SOL    HW1 8429   3.670   4.343   1.409
 2510SOL    HW2 8430   3.584   4.451   1.321
 2511SOL     OW 8431   2.160   1.688   4.039
 2511SOL    HW1 8432   2.238   1.735   4.080
 2511SOL    HW2 8433   2.163   1.591   4.063
 2512SOL     OW 8434   4.713   5.252   5.236
 2512SOL    HW1 8435   4.691   5.180   5.302
 2512SOL    HW2 8436   4.795   5.225   5.184
 2513SOL     OW 8437   1.194   3.256   5.351
 2513SOL    HW1 8438   1.192   3.160   5.377
 2513SOL    HW2 8439   1.275   3.275   5.296
 2514SOL     OW 8440   6.161   3.893   4.418
 2514SOL    HW1 8441   6.098   3.947   4.362
 2514SOL    HW2 8442   6.255   3.924   4.402
 2515SOL     OW 8443   1.660   6.703   0.211
 2515SOL    HW1 8444   1.692   6.780   0.155
 2515SOL    HW2 8445   1.572   6.726   0.252
 2516SOL     OW 8446   5.986   0.197   3.471
 2516SOL    HW1 8447   5.928   0.214   3.551
 2516SOL    HW2 8448   5.933   0.150   3.400
 2517SOL     OW 8449   1.199   5.750   5.831
 2517SOL    HW1 8450   1.202   5.749   5.931
 2517SOL    HW2 8451   1.286   5.719   5.794
 2518SOL     OW 8452   2.562   3.611   0.065
 2518SOL    HW1 8453   2.556   3.589   0.163
 2518SOL    HW2 8454   2.475   3.651   0.036
 2519SOL     OW 8455   4.408   5.871   3.927
 2519SOL    HW1 8456   4.487   5.820   3.894
 2519SOL    HW2 8457   4.369   5.824   4.007
 2520SOL     OW 8458   1.101   3.182   0.272
 2520SOL    HW1 8459   1.003   3.184   0.254
 2520SOL    HW2 8460   1.122   3.102   0.329
 2521SOL     OW 8461   1.104   6.388   5.542
 2521SOL    HW1 8462   1.115   6.483   5.572
 2521SOL    HW2 8463   1.062   6.387   5.451
 2522SOL     OW 8464   6.822   3.124   5.693
 2522SOL    HW1 8465   6.799   3.036   5.651
 2522SOL    HW2 8466   6.744   3.158   5.745
 2523SOL     OW 8467   0.105   3.101   1.362
 2523SOL    HW1 8468   0.086   3.198   1.348
 2523SOL    HW2 8469   0.024   3.047   1.342
 2524SOL     OW 8470   0.629   5.530   4.589
 2524SOL    HW1 8471   0.703   5.469   4.562
 2524SOL    HW2 8472   0.563   5.537   4.514
 2525SOL     OW 8473   1.185   2.384   4.250
 2525SOL    HW1 8474   1.237   2.463   4.281
 2525SOL    HW2 8475   1.094   2.414   4.220
 2526SOL     OW 8476   1.435   3.939   5.672
 2526SOL    HW1 8477   1.391   3.883   5.742
 2526SOL    HW2 8478   1.520   3.977   5.708
 2527SOL     OW 8479   5.080   6.644   5.339
 2527SOL    HW1 8480   5.035   6.577   5.399
 2527SOL    HW2 8481   5.171   6.611   5.315
 2528SOL     OW 8482   6.151   4.299   1.222
 2528SOL    HW1 8483   6.131   4.395   1.239
 2528SOL    HW2 8484   6.119   4.274   1.131
 2529SOL     OW 8485   6.680   5.475   6.196
 2529SOL    HW1 8486   6.632   5.452   6.280
 2529SOL    HW2 8487   6.773   5.438   6.199
 2530SOL     OW 8488   1.106   5.861   4.462
 2530SOL    HW1 8489   1.200   5.893   4.451
 2530SOL    HW2 8490   1.081   5.863   4.559
 2531SOL     OW 8491   5.312   5.785   4.126
 2531SOL    HW1 8492   5.240   5.764   4.060
 2531SOL    HW2 8493   5.291   5.741   4.213
 2532SOL     OW 8494   0.962   6.064   1.061
 2532SOL    HW1 8495   0.906   6.096   0.985
 2532SOL    HW2 8496   0.934   5.971   1.086
 2533SOL     OW 8497   4.581   6.781   3.249
 2533SOL    HW1 8498   4.660   6.759   3.191
 2533SOL    HW2 8499   4.614   6.809   3.339
 2534SOL     OW 8500   2.218   0.243   3.110
 2534SOL    HW1 8501   2.309   0.208   3.087
 2534SOL    HW2 8502   2.227   0.333   3.153
 2535SOL     OW 8503   2.460   2.909   6.621
 2535SOL    HW1 8504   2.443   2.831   6.681
 2535SOL    HW2 8505   2.439   2.884   6.527
 2536SOL     OW 8506   0.011   2.528   3.848
 2536SOL    HW1 8507   6.983   2.582   3.778
 2536SOL    HW2 8508   0.098   2.571   3.872
 2537SOL     OW 8509   5.353   0.022   6.257
 2537SOL    HW1 8510   5.342   0.108   6.207
 2537SOL    HW2 8511   5.436   0.026   6.313
 2538SOL     OW 8512   1.616   4.314   4.781
 2538SOL    HW1 8513   1.520   4.339   4.765
 2538SOL    HW2 8514   1.674   4.395   4.768
 2539SOL     OW 8515   4.230   0.124   5.845
 2539SOL    HW1 8516   4.194   0.210   5.881
 2539SOL    HW2 8517   4.213   0.119   5.746
 2540SOL     OW 8518   4.709   1.094   1.803
 2540SOL    HW1 8519   4.623   1.045   1.787
 2540SOL    HW2 8520   4.691   1.193   1.802
 2541SOL     OW 8521   1.716   6.854   5.382
 2541SOL    HW1 8522   1.762   6.776   5.425
 2541SOL    HW2 8523   1.675   6.911   5.453
 2542SOL     OW 8524   4.466   1.883   5.648
 2542SOL    HW1 8525   4.369   1.905   5.642
 2542SOL    HW2 8526   4.520   1.967   5.638
 2543SOL     OW 8527   1.749   1.167   3.254
 2543SOL    HW1 8528   1.811   1.089   3.260
 2543SOL    HW2 8529   1.662   1.139   3.213
 2544SOL     OW 8530   7.000   5.351   2.209
 2544SOL    HW1 8531   6.992   5.447   2.182
 2544SOL    HW2 8532   6.972   5.342   2.305
 2545SOL     OW 8533   2.007   0.938   0.987
 2545SOL    HW1 8534   2.103   0.964   1.000
 2545SOL    HW2 8535   1.994   0.844   1.019
 2546SOL     OW 8536   0.054   2.240   2.205
 2546SOL    HW1 8537   0.101   2.197   2.127
 2546SOL    HW2 8538   0.119   2.251   2.280
 2547SOL     OW 8539   6.223   5.215   0.159
 2547SOL    HW1 8540   6.238   5.116   0.165
 2547SOL    HW2 8541   6.214   5.253   0.251
 2548SOL     OW 8542   2.974   6.686   5.242
 2548SOL    HW1 8543   3.019   6.665   5.329
 2548SOL    HW2 8544   2.876   6.669   5.251
 2549SOL     OW 8545   2.272   1.801   1.413
 2549SOL    HW1 8546   2.281   1.883   1.469
 2549SOL    HW2 8547   2.287   1.824   1.317
 2550SOL     OW 8548   6.389   0.405   6.502
 2550SOL    HW1 8549   6.357   0.445   6.416
 2550SOL    HW2 8550   6.327   0.430   6.576
 2551SOL     OW 8551   2.588   5.628   0.389
 2551SOL    HW1 8552   2.590   5.532   0.359
 2551SOL    HW2 8553   2.678   5.669   0.376
 2552SOL     OW 8554   0.984   6.089   5.402
 2552SOL    HW1 8555   1.074   6.122   5.374
 2552SOL    HW2 8556   0.913   6.136   5.350
 2553SOL     OW 8557   2.887   3.574   6.976
 2553SOL    HW1 8558   2.981   3.583   6.942
 2553SOL    HW2 8559   2.823   3.610   6.909
 2554SOL     OW 8560   1.698   5.603   6.534
 2554SOL    HW1 8561   1.658   5.659   6.462
 2554SOL    HW2 8562   1.744   5.523   6.494
 2555SOL     OW 8563   5.739   6.201   6.271
 2555SOL    HW1 8564   5.737   6.279   6.208
 2555SOL    HW2 8565   5.827   6.153   6.262
 2556SOL     OW 8566   4.066   6.246   0.467
 2556SOL    HW1 8567   4.062   6.202   0.378
 2556SOL    HW2 8568   4.161   6.259   0.494
 2557SOL     OW 8569   2.263   2.229   6.606
 2557SOL    HW1 8570   2.213   2.265   6.685
 2557SOL    HW2 8571   2.277   2.131   6.617
 2558SOL     OW 8572   3.412   3.296   6.207
 2558SOL    HW1 8573   3.333   3.350   6.179
 2558SOL    HW2 8574   3.418   3.214   6.150
 2559SOL     OW 8575   6.418   3.013   4.625
 2559SOL    HW1 8576   6.502   2.961   4.644
 2559SOL    HW2 8577   6.339   2.953   4.637
 2560SOL     OW 8578   5.115   3.516   4.389
 2560SOL    HW1 8579   5.146   3.510   4.295
 2560SOL    HW2 8580   5.152   3.599   4.432
 2561SOL     OW 8581   3.604   0.246   3.864
 2561SOL    HW1 8582   3.627   0.342   3.849
 2561SOL    HW2 8583   3.617   0.224   3.961
 2562SOL     OW 8584   2.141   5.180   2.203
 2562SOL    HW1 8585   2.113   5.267   2.244
 2562SOL    HW2 8586   2.241   5.175   2.203
 2563SOL     OW 8587   4.129   1.757   6.717
 2563SOL    HW1 8588   4.091   1.846   6.692
 2563SOL    HW2 8589   4.167   1.761   6.809
 2564SOL     OW 8590   1.198   0.439   6.373
 2564SOL    HW1 8591   1.158   0.351   6.350
 2564SOL    HW2 8592   1.255   0.471   6.297
 2565SOL     OW 8593   6.882   0.614   0.637
 2565SOL    HW1 8594   6.971   0.651   0.612
 2565SOL    HW2 8595   6.813   0.645   0.571
 2566SOL     OW 8596   1.527   0.255   0.861
 2566SOL    HW1 8597   1.470   0.325   0.904
 2566SOL    HW2 8598   1.474   0.171   0.849
 2567SOL     OW 8599   1.282   1.704   2.165
 2567SOL    HW1 8600   1.310   1.745   2.078
 2567SOL    HW2 8601   1.203   1.752   2.201
 2568SOL     OW 8602   2.525   1.164   6.824
 2568SOL    HW1 8603   2.477   1.077   6.837
 2568SOL    HW2 8604   2.623   1.147   6.813
 2569SOL     OW 8605   2.947   0.837   2.349
 2569SOL    HW1 8606   3.007   0.841   2.429
 2569SOL    HW2 8607   2.865   0.785   2.371
 2570SOL     OW 8608   5.798   0.747   6.519
 2570SOL    HW1 8609   5.844   0.658   6.514
 2570SOL    HW2 8610   5.845   0.805   6.585
 2571SOL     OW 8611   2.679   3.637   5.314
 2571SOL    HW1 8612   2.723   3.670   5.397
 2571SOL    HW2 8613   2.742   3.648   5.236
 2572SOL     OW 8614   2.033   6.614   1.256
 2572SOL    HW1 8615   1.955   6.555   1.235
 2572SOL    HW2 8616   2.118   6.565   1.239
 2573SOL     OW 8617   6.324   1.714   2.668
 2573SOL    HW1 8618   6.355   1.746   2.758
 2573SOL    HW2 8619   6.401   1.712   2.605
 2574SOL     OW 8620   0.300   2.948   0.702
 2574SOL    HW1 8621   0.373   3.016   0.693
 2574SOL    HW2 8622   0.312   2.896   0.786
 2575SOL     OW 8623   5.287   4.295   0.084
 2575SOL    HW1 8624   5.245   4.243   0.159
 2575SOL    HW2 8625   5.319   4.231   0.013
 2576SOL     OW 8626   4.024   7.001   3.574
 2576SOL    HW1 8627   4.019   6.904   3.595
 2576SOL    HW2 8628   3.989   7.017   3.481
 2577SOL     OW 8629   4.475   6.283   2.433
 2577SOL    HW1 8630   4.496   6.272   2.336
 2577SOL    HW2 8631   4.554   6.321   2.480
 2578SOL     OW 8632   4.529   2.753   5.101
 2578SOL    HW1 8633   4.611   2.799   5.137
 2578SOL    HW2 8634   4.455   2.760   5.168
 2579SOL     OW 8635   1.236   0.652   3.816
 2579SOL    HW1 8636   1.208   0.640   3.911
 2579SOL    HW2 8637   1.260   0.563   3.777
 2580SOL     OW 8638   2.296   2.817   0.298
 2580SOL    HW1 8639   2.245   2.741   0.259
 2580SOL    HW2 8640   2.358   2.783   0.369
 2581SOL     OW 8641   6.548   4.481   1.898
 2581SOL    HW1 8642   6.645   4.504   1.891
 2581SOL    HW2 8643   6.498   4.523   1.821
 2582SOL     OW 8644   1.307   4.490   2.700
 2582SOL    HW1 8645   1.324   4.506   2.602
 2582SOL    HW2 8646   1.323   4.393   2.721
 2583SOL     OW 8647   0.861   1.857   1.122
 2583SOL    HW1 8648   0.948   1.809   1.134
 2583SOL    HW2 8649   0.857   1.898   1.032
 2584SOL     OW 8650   4.104   5.959   0.526
 2584SOL    HW1 8651   4.087   6.034   0.462
 2584SOL    HW2 8652   4.186   5.909   0.497
 2585SOL     OW 8653   3.462   0.820   0.157
 2585SOL    HW1 8654   3.542   0.836   0.099
 2585SOL    HW2 8655   3.409   0.905   0.165
 2586SOL     OW 8656   4.160   1.941   3.291
 2586SOL    HW1 8657   4.103   2.011   3.247
 2586SOL    HW2 8658   4.113   1.853   3.289
 2587SOL     OW 8659   6.634   0.509   3.866
 2587SOL    HW1 8660   6.586   0.596   3.875
 2587SOL    HW2 8661   6.648   0.489   3.769
 2588SOL     OW 8662   4.652   0.354   6.803
 2588SOL    HW1 8663   4.676   0.260   6.779
 2588SOL    HW2 8664   4.646   0.363   6.902
 2589SOL     OW 8665   0.432   5.947   5.532
 2589SOL    HW1 8666   0.358   5.914   5.591
 2589SOL    HW2 8667   0.473   5.869   5.484
 2590SOL     OW 8668   3.243   6.115   1.588
 2590SOL    HW1 8669   3.230   6.121   1.687
 2590SOL    HW2 8670   3.155   6.096   1.545
 2591SOL     OW 8671   6.715   5.818   2.119
 2591SOL    HW1 8672   6.701   5.724   2.088
 2591SOL    HW2 8673   6.633   5.872   2.098
 2592SOL     OW 8674   2.903   6.759   1.293
 2592SOL    HW1 8675   2.883   6.843   1.343
 2592SOL    HW2 8676   2.863   6.681   1.341
 2593SOL     OW 8677   2.728   6.489   1.385
 2593SOL    HW1 8678   2.800   6.441   1.335
 2593SOL    HW2 8679   2.700   6.435   1.464
 2594SOL     OW 8680   0.114   5.603   6.043
 2594SOL    HW1 8681   0.168   5.687   6.034
 2594SOL    HW2 8682   0.031   5.623   6.096
 2595SOL     OW 8683   6.253   1.296   5.138
 2595SOL    HW1 8684   6.303   1.266   5.056
 2595SOL    HW2 8685   6.291   1.381   5.171
 2596SOL     OW 8686   3.794   1.965   2.092
 2596SOL    HW1 8687   3.871   1.937   2.034
 2596SOL    HW2 8688   3.757   2.051   2.059
 2597SOL     OW 8689   1.908   3.768   6.577
 2597SOL    HW1 8690   1.978   3.773   6.506
 2597SOL    HW2 8691   1.874   3.674   6.583
 2598SOL     OW 8692   6.095   0.896   4.214
 2598SOL    HW1 8693   6.170   0.911   4.149
 2598SOL    HW2 8694   6.123   0.829   4.283
 2599SOL     OW 8695   2.755   0.460   0.832
 2599SOL    HW1 8696   2.851   0.483   0.820
 2599SOL    HW2 8697   2.724   0.405   0.755
 2600SOL     OW 8698   4.876   3.404   4.447
 2600SOL    HW1 8699   4.966   3.440   4.422
 2600SOL    HW2 8700   4.809   3.479   4.444
 2601SOL     OW 8701   2.615   1.744   6.531
 2601SOL    HW1 8702   2.573   1.739   6.622
 2601SOL    HW2 8703   2.650   1.654   6.506
 2602SOL     OW 8704   6.703   4.513   3.816
 2602SOL    HW1 8705   6.636   4.519   3.890
 2602SOL    HW2 8706   6.781   4.572   3.837
 2603SOL     OW 8707   2.199   1.911   2.638
 2603SOL    HW1 8708   2.288   1.920   2.593
 2603SOL    HW2 8709   2.128   1.947   2.578
 2604SOL     OW 8710   4.942   1.046   3.391
 2604SOL    HW1 8711   4.935   0.980   3.317
 2604SOL    HW2 8712   4.862   1.106   3.390
 2605SOL     OW 8713   2.608   4.523   3.203
 2605SOL    HW1 8714   2.653   4.611   3.187
 2605SOL    HW2 8715   2.676   4.450   3.203
 2606SOL     OW 8716   6.911   4.650   1.133
 2606SOL    HW1 8717   6.843   4.723   1.137
 2606SOL    HW2 8718   7.002   4.690   1.126
 2607SOL     OW 8719   0.249   1.344   6.084
 2607SOL    HW1 8720   0.264   1.443   6.078
 2607SOL    HW2 8721   0.306   1.307   6.158
 2608SOL     OW 8722   4.403   5.092   2.108
 2608SOL    HW1 8723   4.442   5.024   2.170
 2608SOL    HW2 8724   4.476   5.132   2.052
 2609SOL     OW 8725   0.209   1.588   1.745
 2609SOL    HW1 8726   0.175   1.494   1.743
 2609SOL    HW2 8727   0.215   1.619   1.840
 2610SOL     OW 8728   0.042   5.152   4.190
 2610SOL    HW1 8729   0.044   5.243   4.231
 2610SOL    HW2 8730   0.017   5.160   4.093
 2611SOL     OW 8731   4.482   6.141   0.946
 2611SOL    HW1 8732   4.581   6.129   0.954
 2611SOL    HW2 8733   4.437   6.052   0.957
 2612SOL     OW 8734   6.373   6.418   5.872
 2612SOL    HW1 8735   6.455   6.469   5.899
 2612SOL    HW2 8736   6.318   6.399   5.952
 2613SOL     OW 8737   2.498   6.428   0.980
 2613SOL    HW1 8738   2.432   6.369   0.934
 2613SOL    HW2 8739   2.587   6.381   0.984
 2614SOL     OW 8740   6.450   0.551   6.021
 2614SOL    HW1 8741   6.493   0.487   5.957
 2614SOL    HW2 8742   6.444   0.641   5.979
 2615SOL     OW 8743   6.349   3.734   3.673
 2615SOL    HW1 8744   6.344   3.821   3.722
 2615SOL    HW2 8745   6.317   3.747   3.579
 2616SOL     OW 8746   3.779   3.353   4.419
 2616SOL    HW1 8747   3.753   3.423   4.484
 2616SOL    HW2 8748   3.777   3.263   4.463
 2617SOL     OW 8749   3.882   6.955   0.652
 2617SOL    HW1 8750   3.785   6.946   0.630
 2617SOL    HW2 8751   3.894   0.010   0.718
 2618SOL     OW 8752   0.169   6.737   4.421
 2618SOL    HW1 8753   0.230   6.792   4.366
 2618SOL    HW2 8754   0.092   6.705   4.365
 2619SOL     OW 8755   4.084   1.362   2.971
 2619SOL    HW1 8756   4.160   1.362   2.906
 2619SOL    HW2 8757   4.095   1.285   3.034
 2620SOL     OW 8758   0.236   6.101   2.825
 2620SOL    HW1 8759   0.237   6.180   2.764
 2620SOL    HW2 8760   0.328   6.085   2.860
 2621SOL     OW 8761   1.370   5.802   2.310
 2621SOL    HW1 8762   1.464   5.797   2.275
 2621SOL    HW2 8763   1.371   5.783   2.409
 2622SOL     OW 8764   2.276   2.536   5.667
 2622SOL    HW1 8765   2.376   2.538   5.657
 2622SOL    HW2 8766   2.242   2.446   5.641
 2623SOL     OW 8767   2.398   1.197   5.513
 2623SOL    HW1 8768   2.365   1.178   5.421
 2623SOL    HW2 8769   2.333   1.162   5.580
 2624SOL     OW 8770   6.238   2.381   4.907
 2624SOL    HW1 8771   6.252   2.392   4.808
 2624SOL    HW2 8772   6.145   2.348   4.924
 2625SOL     OW 8773   2.546   1.952   5.630
 2625SOL    HW1 8774   2.617   1.947   5.560
 2625SOL    HW2 8775   2.586   1.928   5.719
 2626SOL     OW 8776   0.301   0.206   5.190
 2626SOL    HW1 8777   0.372   0.260   5.234
 2626SOL    HW2 8778   0.275   0.130   5.249
 2627SOL     OW 8779   1.177   1.430   5.281
 2627SOL    HW1 8780   1.236   1.358   5.318
 2627SOL    HW2 8781   1.135   1.398   5.196
 2628SOL     OW 8782   1.969   4.746   6.024
 2628SOL    HW1 8783   2.043   4.784   5.969
 2628SOL    HW2 8784   1.894   4.717   5.965
 2629SOL     OW 8785   3.200   4.138   1.871
 2629SOL    HW1 8786   3.113   4.169   1.832
 2629SOL    HW2 8787   3.183   4.083   1.952
 2630SOL     OW 8788   3.095   1.561   3.436
 2630SOL    HW1 8789   3.147   1.645   3.455
 2630SOL    HW2 8790   3.106   1.537   3.340
 2631SOL     OW 8791   5.076   0.315   4.832
 2631SOL    HW1 8792   5.152   0.341   4.892
 2631SOL    HW2 8793   5.017   0.250   4.879
 2632SOL     OW 8794   3.059   2.067   6.179
 2632SOL    HW1 8795   3.118   2.048   6.101
 2632SOL    HW2 8796   3.023   2.160   6.172
 2633SOL     OW 8797   6.372   1.206   4.860
 2633SOL    HW1 8798   6.394   1.192   4.763
 2633SOL    HW2 8799   6.313   1.286   4.869
 2634SOL     OW 8800   1.362   3.784   3.074
 2634SOL    HW1 8801   1.368   3.745   2.982
 2634SOL    HW2 8802   1.300   3.728   3.130
 2635SOL     OW 8803   6.216   5.743   5.477
 2635SOL    HW1 8804   6.236   5.680   5.552
 2635SOL    HW2 8805   6.299   5.795   5.455
 2636SOL     OW 8806   4.876   0.382   5.259
 2636SOL    HW1 8807   4.949   0.345   5.202
 2636SOL    HW2 8808   4.822   0.447   5.205
 2637SOL     OW 8809   5.343   1.540   3.466
 2637SOL    HW1 8810   5.352   1.638   3.481
 2637SOL    HW2 8811   5.326   1.494   3.553
 2638SOL     OW 8812   6.612   0.265   3.421
 2638SOL    HW1 8813   6.537   0.204   3.395
 2638SOL    HW2 8814   6.664   0.290   3.339
 2639SOL     OW 8815   0.887   6.809   1.634
 2639SOL    HW1 8816   0.866   6.748   1.558
 2639SOL    HW2 8817   0.840   6.897   1.620
 2640SOL     OW 8818   0.014   6.022   4.542
 2640SOL    HW1 8819   0.015   5.965   4.460
 2640SOL    HW2 8820   0.103   6.067   4.552
 2641SOL     OW 8821   4.895   3.079   2.101
 2641SOL    HW1 8822   4.842   3.064   2.018
 2641SOL    HW2 8823   4.874   3.007   2.167
 2642SOL     OW 8824   4.226   0.190   4.174
 2642SOL    HW1 8825   4.287   0.266   4.194
 2642SOL    HW2 8826   4.279   0.106   4.166
 2643SOL     OW 8827   0.077   3.459   2.449
 2643SOL    HW1 8828   0.046   3.552   2.430
 2643SOL    HW2 8829   0.088   3.447   2.548
 2644SOL     OW 8830   5.919   5.218   6.043
 2644SOL    HW1 8831   5.956   5.265   5.963
 2644SOL    HW2 8832   5.994   5.190   6.103
 2645SOL     OW 8833   4.595   5.577   4.884
 2645SOL    HW1 8834   4.572   5.674   4.873
 2645SOL    HW2 8835   4.592   5.553   4.981
 2646SOL     OW 8836   6.032   0.745   6.914
 2646SOL    HW1 8837   5.933   0.759   6.910
 2646SOL    HW2 8838   6.064   0.762   7.008
 2647SOL     OW 8839   6.500   0.419   1.770
 2647SOL    HW1 8840   6.403   0.397   1.758
 2647SOL    HW2 8841   6.547   0.341   1.812
 2648SOL     OW 8842   0.480   0.076   3.941
 2648SOL    HW1 8843   0.420   0.123   4.006
 2648SOL    HW2 8844   0.435   0.073   3.851
 2649SOL     OW 8845   5.970   3.140   6.483
 2649SOL    HW1 8846   6.039   3.077   6.519
 2649SOL    HW2 8847   5.879   3.104   6.501
 2650SOL     OW 8848   0.710   4.288   4.342
 2650SOL    HW1 8849   0.739   4.379   4.313
 2650SOL    HW2 8850   0.645   4.296   4.418
 2651SOL     OW 8851   0.743   1.342   0.212
 2651SOL    HW1 8852   0.741   1.276   0.288
 2651SOL    HW2 8853   0.772   1.296   0.129
 2652SOL     OW 8854   3.410   4.095   3.962
 2652SOL    HW1 8855   3.442   4.001   3.952
 2652SOL    HW2 8856   3.395   4.114   4.059
 2653SOL     OW 8857   5.234   6.489   5.779
 2653SOL    HW1 8858   5.184   6.567   5.815
 2653SOL    HW2 8859   5.327   6.517   5.756
 2654SOL     OW 8860   5.237   5.234   1.191
 2654SOL    HW1 8861   5.192   5.171   1.254
 2654SOL    HW2 8862   5.302   5.184   1.134
 2655SOL     OW 8863   4.675   5.538   4.173
 2655SOL    HW1 8864   4.675   5.488   4.086
 2655SOL    HW2 8865   4.632   5.482   4.244
 2656SOL     OW 8866   3.391   4.920   3.870
 2656SOL    HW1 8867   3.386   4.875   3.959
 2656SOL    HW2 8868   3.460   4.993   3.873
 2657SOL     OW 8869   1.386   3.937   6.426
 2657SOL    HW1 8870   1.437   3.861   6.387
 2657SOL    HW2 8871   1.291   3.911   6.441
 2658SOL     OW 8872   4.998   4.475   0.277
 2658SOL    HW1 8873   5.063   4.549   0.259
 2658SOL    HW2 8874   5.030   4.391   0.233
 2659SOL     OW 8875   6.057   3.091   4.749
 2659SOL    HW1 8876   6.151   3.112   4.774
 2659SOL    HW2 8877   6.045   2.992   4.745
 2660SOL     OW 8878   1.048   1.063   1.128
 2660SOL    HW1 8879   1.047   0.983   1.188
 2660SOL    HW2 8880   1.112   1.048   1.053
 2661SOL     OW 8881   2.188   0.092   0.666
 2661SOL    HW1 8882   2.209   0.171   0.724
 2661SOL    HW2 8883   2.094   0.063   0.684
 2662SOL     OW 8884   4.585   6.693   5.505
 2662SOL    HW1 8885   4.535   6.752   5.568
 2662SOL    HW2 8886   4.593   6.738   5.416
 2663SOL     OW 8887   3.073   4.350   0.836
 2663SOL    HW1 8888   3.068   4.374   0.739
 2663SOL    HW2 8889   2.992   4.296   0.861
 2664SOL     OW 8890   3.989   4.064   5.479
 2664SOL    HW1 8891   4.082   4.041   5.451
 2664SOL    HW2 8892   3.943   4.114   5.406
 2665SOL     OW 8893   2.535   2.889   5.429
 2665SOL    HW1 8894   2.604   2.927   5.491
 2665SOL    HW2 8895   2.514   2.955   5.358
 2666SOL     OW 8896   5.688   4.065   1.087
 2666SOL    HW1 8897   5.656   4.016   1.006
 2666SOL    HW2 8898   5.774   4.024   1.119
 2667SOL     OW 8899   1.507   6.153   4.233
 2667SOL    HW1 8900   1.467   6.159   4.142
 2667SOL    HW2 8901   1.534   6.244   4.264
 2668SOL     OW 8902   6.382   3.677   4.443
 2668SOL    HW1 8903   6.289   3.650   4.468
 2668SOL    HW2 8904   6.379   3.766   4.398
 2669SOL     OW 8905   2.664   4.380   5.297
 2669SOL    HW1 8906   2.591   4.408   5.235
 2669SOL    HW2 8907   2.752   4.413   5.261
 2670SOL     OW 8908   6.044   2.522   6.470
 2670SOL    HW1 8909   6.068   2.616   6.446
 2670SOL    HW2 8910   5.988   2.521   6.552
 2671SOL     OW 8911   4.048   5.313   6.423
 2671SOL    HW1 8912   4.001   5.250   6.484
 2671SOL    HW2 8913   4.091   5.262   6.348
 2672SOL     OW 8914   0.457   5.494   0.710
 2672SOL    HW1 8915   0.361   5.503   0.683
 2672SOL    HW2 8916   0.481   5.398   0.722
 2673SOL     OW 8917   6.182   1.461   3.853
 2673SOL    HW1 8918   6.112   1.440   3.784
 2673SOL    HW2 8919   6.157   1.418   3.940
 2674SOL     OW 8920   1.156   4.368   3.414
 2674SOL    HW1 8921   1.230   4.398   3.355
 2674SOL    HW2 8922   1.187   4.292   3.471
 2675SOL     OW 8923   6.585   5.496   3.505
 2675SOL    HW1 8924   6.594   5.595   3.513
 2675SOL    HW2 8925   6.525   5.462   3.578
 2676SOL     OW 8926   4.422   1.888   0.486
 2676SOL    HW1 8927   4.420   1.813   0.421
 2676SOL    HW2 8928   4.399   1.974   0.440
 2677SOL     OW 8929   2.921   3.433   0.374
 2677SOL    HW1 8930   2.983   3.397   0.444
 2677SOL    HW2 8931   2.831   3.447   0.415
 2678SOL     OW 8932   0.355   2.731   1.396
 2678SOL    HW1 8933   0.316   2.769   1.480
 2678SOL    HW2 8934   0.440   2.684   1.417
 2679SOL     OW 8935   3.315   4.970   1.017
 2679SOL    HW1 8936   3.321   4.986   0.919
 2679SOL    HW2 8937   3.360   5.045   1.067
 2680SOL     OW 8938   1.278   1.361   0.718
 2680SOL    HW1 8939   1.202   1.423   0.701
 2680SOL    HW2 8940   1.297   1.358   0.817
 2681SOL     OW 8941   1.183   2.757   4.873
 2681SOL    HW1 8942   1.178   2.710   4.961
 2681SOL    HW2 8943   1.279   2.773   4.849
 2682SOL     OW 8944   5.147   4.685   2.420
 2682SOL    HW1 8945   5.092   4.626   2.479
 2682SOL    HW2 8946   5.115   4.678   2.326
 2683SOL     OW 8947   2.825   4.799   1.161
 2683SOL    HW1 8948   2.907   4.856   1.147
 2683SOL    HW2 8949   2.843   4.735   1.237
 2684SOL     OW 8950   4.339   5.435   1.257
 2684SOL    HW1 8951   4.347   5.444   1.158
 2684SOL    HW2 8952   4.309   5.342   1.280
 2685SOL     OW 8953   6.460   6.300   6.462
 2685SOL    HW1 8954   6.402   6.373   6.497
 2685SOL    HW2 8955   6.459   6.301   6.362
 2686SOL     OW 8956   1.554   1.846   5.650
 2686SOL    HW1 8957   1.587   1.849   5.556
 2686SOL    HW2 8958   1.522   1.937   5.678
 2687SOL     OW 8959   4.765   4.181   2.096
 2687SOL    HW1 8960   4.688   4.214   2.151
 2687SOL    HW2 8961   4.732   4.143   2.010
 2688SOL     OW 8962   4.441   4.125   0.190
 2688SOL    HW1 8963   4.512   4.194   0.205
 2688SOL    HW2 8964   4.419   4.120   0.092
 2689SOL     OW 8965   1.683   3.456   3.749
 2689SOL    HW1 8966   1.600   3.414   3.714
 2689SOL    HW2 8967   1.702   3.422   3.841
 2690SOL     OW 8968   3.261   3.764   3.552
 2690SOL    HW1 8969   3.348   3.793   3.591
 2690SOL    HW2 8970   3.229   3.682   3.599
 2691SOL     OW 8971   1.474   5.671   1.910
 2691SOL    HW1 8972   1.470   5.771   1.902
 2691SOL    HW2 8973   1.479   5.630   1.819
 2692SOL     OW 8974   3.247   5.213   2.441
 2692SOL    HW1 8975   3.217   5.297   2.486
 2692SOL    HW2 8976   3.191   5.136   2.474
 2693SOL     OW 8977   1.951   5.005   2.572
 2693SOL    HW1 8978   2.015   5.073   2.607
 2693SOL    HW2 8979   1.880   5.049   2.518
 2694SOL     OW 8980   4.081   6.293   2.982
 2694SOL    HW1 8981   4.091   6.354   2.903
 2694SOL    HW2 8982   4.033   6.341   3.055
 2695SOL     OW 8983   5.129   0.222   2.422
 2695SOL    HW1 8984   5.166   0.315   2.423
 2695SOL    HW2 8985   5.177   0.167   2.355
 2696SOL     OW 8986   3.576   3.393   5.426
 2696SOL    HW1 8987   3.646   3.414   5.494
 2696SOL    HW2 8988   3.619   3.374   5.338
 2697SOL     OW 8989   3.677   1.938   2.974
 2697SOL    HW1 8990   3.770   1.974   2.986
 2697SOL    HW2 8991   3.646   1.960   2.881
 2698SOL     OW 8992   2.378   6.626   0.484
 2698SOL    HW1 8993   2.374   6.545   0.543
 2698SOL    HW2 8994   2.340   6.604   0.394
 2699SOL     OW 8995   2.872   6.749   0.649
 2699SOL    HW1 8996   2.887   6.847   0.635
 2699SOL    HW2 8997   2.783   6.723   0.611
 2700SOL     OW 8998   2.196   3.898   0.826
 2700SOL    HW1 8999   2.146   3.945   0.754
 2700SOL    HW2 9000   2.169   3.936   0.915
 2701SOL     OW 9001   4.894   1.209   6.423
 2701SOL    HW1 9002   4.890   1.204   6.522
 2701SOL    HW2 9003   4.802   1.198   6.385
 2702SOL     OW 9004   0.848   3.107   3.867
 2702SOL    HW1 9005   0.908   3.077   3.941
 2702SOL    HW2 9006   0.870   3.202   3.842
 2703SOL     OW 9007   1.663   0.648   1.872
 2703SOL    HW1 9008   1.661   0.649   1.972
 2703SOL    HW2 9009   1.667   0.553   1.840
 2704SOL     OW 9010   6.955   6.648   1.258
 2704SOL    HW1 9011   6.901   6.581   1.310
 2704SOL    HW2 9012   7.007   6.705   1.322
 2705SOL     OW 9013   0.063   5.620   4.430
 2705SOL    HW1 9014   0.115   5.643   4.512
 2705SOL    HW2 9015   0.109   5.547   4.380
 2706SOL     OW 9016   0.228   0.121   1.497
 2706SOL    HW1 9017   0.165   0.069   1.439
 2706SOL    HW2 9018   0.182   0.203   1.530
 2707SOL     OW 9019   3.061   0.085   4.338
 2707SOL    HW1 9020   2.995   0.144   4.291
 2707SOL    HW2 9021   3.146   0.082   4.285
 2708SOL     OW 9022   0.590   2.526   6.519
 2708SOL    HW1 9023   0.617   2.502   6.612
 2708SOL    HW2 9024   0.668   2.513   6.458
 2709SOL     OW 9025   6.688   6.369   0.059
 2709SOL    HW1 9026   6.695   6.416   6.991
 2709SOL    HW2 9027   6.755   6.409   0.123
 2710SOL     OW 9028   0.741   3.957   3.763
 2710SOL    HW1 9029   0.649   3.926   3.783
 2710SOL    HW2 9030   0.781   3.999   3.845
 2711SOL     OW 9031   2.390   1.500   4.306
 2711SOL    HW1 9032   2.375   1.406   4.336
 2711SOL    HW2 9033   2.479   1.507   4.261
 2712SOL     OW 9034   3.048   4.565   1.008
 2712SOL    HW1 9035   2.963   4.603   0.970
 2712SOL    HW2 9036   3.075   4.484   0.956
 2713SOL     OW 9037   2.379   2.153   4.720
 2713SOL    HW1 9038   2.372   2.244   4.679
 2713SOL    HW2 9039   2.376   2.160   4.820
 2714SOL     OW 9040   4.147   2.278   0.328
 2714SOL    HW1 9041   4.058   2.234   0.337
 2714SOL    HW2 9042   4.137   2.377   0.340
 2715SOL     OW 9043   5.019   1.464   0.942
 2715SOL    HW1 9044   4.943   1.469   0.878
 2715SOL    HW2 9045   5.106   1.469   0.892
 2716SOL     OW 9046   5.185   4.332   2.947
 2716SOL    HW1 9047   5.109   4.290   2.998
 2716SOL    HW2 9048   5.271   4.295   2.981
 2717SOL     OW 9049   1.244   5.695   2.081
 2717SOL    HW1 9050   1.308   5.659   2.012
 2717SOL    HW2 9051   1.295   5.731   2.158
 2718SOL     OW 9052   1.726   2.177   5.313
 2718SOL    HW1 9053   1.764   2.255   5.363
 2718SOL    HW2 9054   1.628   2.191   5.299
 2719SOL     OW 9055   6.746   5.759   1.025
 2719SOL    HW1 9056   6.802   5.713   0.956
 2719SOL    HW2 9057   6.704   5.840   0.985
 2720SOL     OW 9058   1.693   6.152   2.002
 2720SOL    HW1 9059   1.722   6.056   2.006
 2720SOL    HW2 9060   1.608   6.159   1.951
 2721SOL     OW 9061   2.839   0.431   3.986
 2721SOL    HW1 9062   2.742   0.440   4.008
 2721SOL    HW2 9063   2.893   0.448   4.069
 2722SOL     OW 9064   6.448   5.584   1.417
 2722SOL    HW1 9065   6.420   5.565   1.322
 2722SOL    HW2 9066   6.533   5.635   1.416
 2723SOL     OW 9067   1.034   0.011   6.100
 2723SOL    HW1 9068   1.100   6.966   6.060
 2723SOL    HW2 9069   0.946   0.001   6.053
 2724SOL     OW 9070   2.146   0.019   6.783
 2724SOL    HW1 9071   2.094   0.065   6.711
 2724SOL    HW2 9072   2.194   0.087   6.838
 2725SOL     OW 9073   5.368   5.131   4.543
 2725SOL    HW1 9074   5.440   5.199   4.546
 2725SOL    HW2 9075   5.383   5.069   4.466
 2726SOL     OW 9076   6.729   2.883   1.119
 2726SOL    HW1 9077   6.827   2.879   1.100
 2726SOL    HW2 9078   6.686   2.796   1.097
 2727SOL     OW 9079   0.478   5.196   3.020
 2727SOL    HW1 9080   0.408   5.129   3.001
 2727SOL    HW2 9081   0.532   5.213   2.937
 2728SOL     OW 9082   4.048   6.631   5.762
 2728SOL    HW1 9083   4.022   6.670   5.851
 2728SOL    HW2 9084   4.139   6.588   5.770
 2729SOL     OW 9085   6.627   6.266   0.963
 2729SOL    HW1 9086   6.715   6.294   1.000
 2729SOL    HW2 9087   6.625   6.286   0.865
 2730SOL     OW 9088   1.891   5.567   1.602
 2730SOL    HW1 9089   1.848   5.656   1.616
 2730SOL    HW2 9090   1.916   5.557   1.506
 2731SOL     OW 9091   3.933   3.366   2.467
 2731SOL    HW1 9092   3.959   3.282   2.515
 2731SOL    HW2 9093   3.855   3.408   2.514
 2732SOL     OW 9094   5.513   2.164   1.751
 2732SOL    HW1 9095   5.490   2.204   1.662
 2732SOL    HW2 9096   5.609   2.181   1.772
 2733SOL     OW 9097   0.006   6.972   4.291
 2733SOL    HW1 9098   0.075   7.004   4.356
 2733SOL    HW2 9099   0.015   0.003   4.205
 2734SOL     OW 9100   2.344   5.963   1.378
 2734SOL    HW1 9101   2.271   6.030   1.362
 2734SOL    HW2 9102   2.419   5.979   1.313
 2735SOL     OW 9103   0.832   3.828   2.501
 2735SOL    HW1 9104   0.823   3.752   2.566
 2735SOL    HW2 9105   0.887   3.900   2.542
 2736SOL     OW 9106   4.672   6.717   5.068
 2736SOL    HW1 9107   4.766   6.732   5.100
 2736SOL    HW2 9108   4.639   6.798   5.019
 2737SOL     OW 9109   3.334   3.258   5.485
 2737SOL    HW1 9110   3.433   3.270   5.491
 2737SOL    HW2 9111   3.291   3.347   5.470
 2738SOL     OW 9112   5.163   5.551   3.224
 2738SOL    HW1 9113   5.211   5.528   3.309
 2738SOL    HW2 9114   5.123   5.468   3.184
 2739SOL     OW 9115   0.424   5.085   1.241
 2739SOL    HW1 9116   0.426   4.987   1.222
 2739SOL    HW2 9117   0.509   5.127   1.207
 2740SOL     OW 9118   6.461   3.871   2.753
 2740SOL    HW1 9119   6.372   3.912   2.772
 2740SOL    HW2 9120   6.532   3.919   2.806
 2741SOL     OW 9121   6.160   0.497   5.594
 2741SOL    HW1 9122   6.229   0.548   5.646
 2741SOL    HW2 9123   6.133   0.550   5.514
 2742SOL     OW 9124   1.827   5.409   6.412
 2742SOL    HW1 9125   1.899   5.452   6.358
 2742SOL    HW2 9126   1.815   5.314   6.382
 2743SOL     OW 9127   6.774   5.291   2.006
 2743SOL    HW1 9128   6.707   5.262   2.074
 2743SOL    HW2 9129   6.864   5.297   2.049
 2744SOL     OW 9130   5.210   1.573   6.609
 2744SOL    HW1 9131   5.223   1.659   6.660
 2744SOL    HW2 9132   5.255   1.581   6.520
 2745SOL     OW 9133   0.389   6.772   5.985
 2745SOL    HW1 9134   0.426   6.812   6.069
 2745SOL    HW2 9135   0.326   6.699   6.008
 2746SOL     OW 9136   2.357   2.026   3.899
 2746SOL    HW1 9137   2.260   2.040   3.880
 2746SOL    HW2 9138   2.412   2.064   3.825
 2747SOL     OW 9139   6.047   3.745   6.204
 2747SOL    HW1 9140   5.955   3.783   6.214
 2747SOL    HW2 9141   6.104   3.774   6.281
 2748SOL     OW 9142   5.498   1.550   1.354
 2748SOL    HW1 9143   5.416   1.501   1.383
 2748SOL    HW2 9144   5.545   1.497   1.283
 2749SOL     OW 9145   6.304   4.799   3.394
 2749SOL    HW1 9146   6.243   4.837   3.463
 2749SOL    HW2 9147   6.378   4.864   3.375
 2750SOL     OW 9148   0.525   5.500   1.290
 2750SOL    HW1 9149   0.559   5.413   1.325
 2750SOL    HW2 9150   0.442   5.484   1.236
 2751SOL     OW 9151   0.329   6.468   1.480
 2751SOL    HW1 9152   0.243   6.432   1.517
 2751SOL    HW2 9153   0.352   6.554   1.526
 2752SOL     OW 9154   4.303   4.788   5.783
 2752SOL    HW1 9155   4.311   4.752   5.690
 2752SOL    HW2 9156   4.394   4.812   5.817
 2753SOL     OW 9157   0.237   6.623   5.226
 2753SOL    HW1 9158   0.263   6.588   5.316
 2753SOL    HW2 9159   0.299   6.586   5.156
 2754SOL     OW 9160   0.120   0.524   3.211
 2754SOL    HW1 9161   0.058   0.533   3.289
 2754SOL    HW2 9162   0.148   0.615   3.180
 2755SOL     OW 9163   2.125   6.891   3.415
 2755SOL    HW1 9164   2.150   6.802   3.377
 2755SOL    HW2 9165   2.092   6.950   3.341
 2756SOL     OW 9166   5.794   3.847   6.203
 2756SOL    HW1 9167   5.698   3.826   6.182
 2756SOL    HW2 9168   5.811   3.944   6.188
 2757SOL     OW 9169   2.270   1.212   6.075
 2757SOL    HW1 9170   2.309   1.153   6.004
 2757SOL    HW2 9171   2.236   1.296   6.033
 2758SOL     OW 9172   4.793   6.116   2.833
 2758SOL    HW1 9173   4.757   6.047   2.896
 2758SOL    HW2 9174   4.749   6.106   2.744
 2759SOL     OW 9175   4.937   5.483   5.473
 2759SOL    HW1 9176   4.863   5.416   5.465
 2759SOL    HW2 9177   4.908   5.558   5.533
 2760SOL     OW 9178   0.298   5.587   2.929
 2760SOL    HW1 9179   0.349   5.663   2.887
 2760SOL    HW2 9180   0.324   5.580   3.025
 2761SOL     OW 9181   2.121   4.222   5.097
 2761SOL    HW1 9182   2.198   4.173   5.056
 2761SOL    HW2 9183   2.154   4.278   5.173
 2762SOL     OW 9184   1.950   1.066   6.108
 2762SOL    HW1 9185   1.984   0.979   6.144
 2762SOL    HW2 9186   2.026   1.128   6.091
 2763SOL     OW 9187   4.646   2.294   5.115
 2763SOL    HW1 9188   4.739   2.274   5.082
 2763SOL    HW2 9189   4.603   2.361   5.055
 2764SOL     OW 9190   0.207   0.902   1.475
 2764SOL    HW1 9191   0.285   0.845   1.502
 2764SOL    HW2 9192   0.225   0.997   1.502
 2765SOL     OW 9193   6.412   6.804   0.699
 2765SOL    HW1 9194   6.356   6.873   0.653
 2765SOL    HW2 9195   6.462   6.847   0.774
 2766SOL     OW 9196   4.671   2.992   0.399
 2766SOL    HW1 9197   4.612   2.912   0.404
 2766SOL    HW2 9198   4.616   3.075   0.410
 2767SOL     OW 9199   6.803   5.413   0.553
 2767SOL    HW1 9200   6.834   5.508   0.549
 2767SOL    HW2 9201   6.788   5.379   0.461
 2768SOL     OW 9202   4.501   0.375   1.190
 2768SOL    HW1 9203   4.577   0.437   1.205
 2768SOL    HW2 9204   4.519   0.318   1.109
 2769SOL     OW 9205   1.782   4.756   6.306
 2769SOL    HW1 9206   1.821   4.824   6.244
 2769SOL    HW2 9207   1.703   4.712   6.261
 2770SOL     OW 9208   4.344   5.368   5.724
 2770SOL    HW1 9209   4.279   5.424   5.775
 2770SOL    HW2 9210   4.377   5.294   5.782
 2771SOL     OW 9211   5.956   1.398   4.681
 2771SOL    HW1 9212   5.864   1.397   4.643
 2771SOL    HW2 9213   5.972   1.313   4.733
 2772SOL     OW 9214   3.481   0.969   0.821
 2772SOL    HW1 9215   3.390   0.969   0.781
 2772SOL    HW2 9216   3.549   0.957   0.749
 2773SOL     OW 9217   6.567   2.150   4.601
 2773SOL    HW1 9218   6.526   2.089   4.534
 2773SOL    HW2 9219   6.510   2.153   4.683
 2774SOL     OW 9220   5.634   2.488   3.483
 2774SOL    HW1 9221   5.566   2.561   3.479
 2774SOL    HW2 9222   5.601   2.414   3.541
 2775SOL     OW 9223   6.854   3.880   5.661
 2775SOL    HW1 9224   6.935   3.867   5.719
 2775SOL    HW2 9225   6.824   3.975   5.667
 2776SOL     OW 9226   4.826   4.044   5.855
 2776SOL    HW1 9227   4.851   4.136   5.823
 2776SOL    HW2 9228   4.735   4.047   5.896
 2777SOL     OW 9229   2.988   1.971   1.694
 2777SOL    HW1 9230   2.984   1.996   1.791
 2777SOL    HW2 9231   2.916   2.019   1.645
 2778SOL     OW 9232   1.468   6.981   6.076
 2778SOL    HW1 9233   1.507   6.890   6.061
 2778SOL    HW2 9234   1.438   6.989   6.171
 2779SOL     OW 9235   5.334   6.330   2.238
 2779SOL    HW1 9236   5.295   6.238   2.238
 2779SOL    HW2 9237   5.294   6.383   2.163
 2780SOL     OW 9238   0.778   6.957   6.015
 2780SOL    HW1 9239   0.756   6.859   6.016
 2780SOL    HW2 9240   0.694   7.009   6.000
 2781SOL     OW 9241   5.848   0.229   1.829
 2781SOL    HW1 9242   5.892   0.171   1.898
 2781SOL    HW2 9243   5.871   0.325   1.846
 2782SOL     OW 9244   4.335   1.149   5.218
 2782SOL    HW1 9245   4.402   1.078   5.241
 2782SOL    HW2 9246   4.279   1.169   5.299
 2783SOL     OW 9247   5.373   4.234   2.391
 2783SOL    HW1 9248   5.424   4.174   2.453
 2783SOL    HW2 9249   5.437   4.289   2.338
 2784SOL     OW 9250   3.748   1.212   2.314
 2784SOL    HW1 9251   3.770   1.271   2.391
 2784SOL    HW2 9252   3.722   1.268   2.235
 2785SOL     OW 9253   5.640   2.208   0.836
 2785SOL    HW1 9254   5.645   2.305   0.863
 2785SOL    HW2 9255   5.624   2.152   0.918
 2786SOL     OW 9256   5.550   6.704   2.259
 2786SOL    HW1 9257   5.555   6.665   2.167
 2786SOL    HW2 9258   5.534   6.802   2.253
 2787SOL     OW 9259   5.563   6.777   5.716
 2787SOL    HW1 9260   5.533   6.868   5.746
 2787SOL    HW2 9261   5.528   6.709   5.780
 2788SOL     OW 9262   2.354   6.154   5.855
 2788SOL    HW1 9263   2.314   6.229   5.907
 2788SOL    HW2 9264   2.395   6.190   5.771
 2789SOL     OW 9265   1.922   2.050   4.155
 2789SOL    HW1 9266   1.873   2.056   4.068
 2789SOL    HW2 9267   1.941   1.954   4.176
 2790SOL     OW 9268   3.520   5.742   1.761
 2790SOL    HW1 9269   3.422   5.760   1.768
 2790SOL    HW2 9270   3.546   5.671   1.826
 2791SOL     OW 9271   0.453   2.716   2.235
 2791SOL    HW1 9272   0.533   2.761   2.276
 2791SOL    HW2 9273   0.378   2.782   2.230
 2792SOL     OW 9274   1.970   0.661   3.840
 2792SOL    HW1 9275   2.042   0.620   3.784
 2792SOL    HW2 9276   1.989   0.758   3.852
 2793SOL     OW 9277   5.179   3.842   1.339
 2793SOL    HW1 9278   5.169   3.780   1.261
 2793SOL    HW2 9279   5.136   3.802   1.419
 2794SOL     OW 9280   6.571   1.868   6.249
 2794SOL    HW1 9281   6.474   1.847   6.242
 2794SOL    HW2 9282   6.599   1.925   6.172
 2795SOL     OW 9283   1.032   3.330   0.972
 2795SOL    HW1 9284   1.035   3.292   1.064
 2795SOL    HW2 9285   1.072   3.422   0.972
 2796SOL     OW 9286   0.168   6.435   3.310
 2796SOL    HW1 9287   0.201   6.380   3.233
 2796SOL    HW2 9288   0.158   6.530   3.281
 2797SOL     OW 9289   5.264   5.365   5.216
 2797SOL    HW1 9290   5.350   5.398   5.256
 2797SOL    HW2 9291   5.189   5.423   5.246
 2798SOL     OW 9292   6.230   5.588   2.661
 2798SOL    HW1 9293   6.221   5.577   2.760
 2798SOL    HW2 9294   6.208   5.502   2.615
 2799SOL     OW 9295   5.520   5.295   5.823
 2799SOL    HW1 9296   5.483   5.332   5.908
 2799SOL    HW2 9297   5.522   5.195   5.828
 2800SOL     OW 9298   4.493   6.529   5.947
 2800SOL    HW1 9299   4.475   6.592   6.022
 2800SOL    HW2 9300   4.532   6.445   5.982
 2801SOL     OW 9301   0.388   5.238   5.759
 2801SOL    HW1 9302   0.385   5.309   5.829
 2801SOL    HW2 9303   0.440   5.272   5.680
 2802SOL     OW 9304   4.968   6.122   5.522
 2802SOL    HW1 9305   5.044   6.176   5.558
 2802SOL    HW2 9306   5.000   6.030   5.501
 2803SOL     OW 9307   4.178   5.093   6.332
 2803SOL    HW1 9308   4.231   5.068   6.414
 2803SOL    HW2 9309   4.192   5.024   6.262
 2804SOL     OW 9310   1.287   4.329   5.506
 2804SOL    HW1 9311   1.262   4.360   5.414
 2804SOL    HW2 9312   1.257   4.234   5.519
 2805SOL     OW 9313   5.893   3.480   2.754
 2805SOL    HW1 9314   5.943   3.503   2.671
 2805SOL    HW2 9315   5.795   3.477   2.736
 2806SOL     OW 9316   1.876   4.062   5.964
 2806SOL    HW1 9317   1.886   4.045   5.866
 2806SOL    HW2 9318   1.783   4.036   5.992
 2807SOL     OW 9319   3.954   6.645   3.806
 2807SOL    HW1 9320   3.922   6.566   3.858
 2807SOL    HW2 9321   3.970   6.722   3.868
 2808SOL     OW 9322   6.319   5.372   2.044
 2808SOL    HW1 9323   6.269   5.375   2.130
 2808SOL    HW2 9324   6.258   5.341   1.971
 2809SOL     OW 9325   5.226   2.883   0.679
 2809SOL    HW1 9326   5.239   2.839   0.590
 2809SOL    HW2 9327   5.209   2.981   0.665
 2810SOL     OW 9328   2.104   5.671   2.883
 2810SOL    HW1 9329   2.187   5.616   2.891
 2810SOL    HW2 9330   2.121   5.748   2.821
 2811SOL     OW 9331   1.501   1.840   4.057
 2811SOL    HW1 9332   1.484   1.913   4.123
 2811SOL    HW2 9333   1.494   1.877   3.964
 2812SOL     OW 9334   5.679   2.986   0.055
 2812SOL    HW1 9335   5.715   2.895   0.073
 2812SOL    HW2 9336   5.680   3.039   0.140
 2813SOL     OW 9337   0.953   1.001   7.008
 2813SOL    HW1 9338   1.028   0.948   6.969
 2813SOL    HW2 9339   0.870   0.945   7.012
 2814SOL     OW 9340   3.469   4.287   5.536
 2814SOL    HW1 9341   3.508   4.364   5.587
 2814SOL    HW2 9342   3.374   4.307   5.513
 2815SOL     OW 9343   0.102   5.080   6.384
 2815SOL    HW1 9344   0.068   5.127   6.302
 2815SOL    HW2 9345   0.109   4.982   6.365
 2816SOL     OW 9346   6.547   5.779   3.823
 2816SOL    HW1 9347   6.561   5.848   3.752
 2816SOL    HW2 9348   6.522   5.823   3.908
 2817SOL     OW 9349   3.169   0.222   1.823
 2817SOL    HW1 9350   3.203   0.136   1.785
 2817SOL    HW2 9351   3.199   0.232   1.917
 2818SOL     OW 9352   0.214   0.896   2.385
 2818SOL    HW1 9353   0.225   0.808   2.431
 2818SOL    HW2 9354   0.197   0.968   2.453
 2819SOL     OW 9355   2.208   0.380   1.721
 2819SOL    HW1 9356   2.188   0.376   1.819
 2819SOL    HW2 9357   2.147   0.446   1.677
 2820SOL     OW 9358   1.332   1.957   3.542
 2820SOL    HW1 9359   1.233   1.955   3.559
 2820SOL    HW2 9360   1.351   1.924   3.449
 2821SOL     OW 9361   4.077   4.899   5.656
 2821SOL    HW1 9362   4.043   4.991   5.673
 2821SOL    HW2 9363   4.164   4.886   5.704
 2822SOL     OW 9364   4.129   1.850   6.989
 2822SOL    HW1 9365   4.071   1.931   6.986
 2822SOL    HW2 9366   4.107   1.797   0.052
 2823SOL     OW 9367   5.054   1.081   0.786
 2823SOL    HW1 9368   5.101   1.121   0.865
 2823SOL    HW2 9369   5.092   1.119   0.702
 2824SOL     OW 9370   2.079   1.680   4.905
 2824SOL    HW1 9371   2.174   1.677   4.872
 2824SOL    HW2 9372   2.050   1.775   4.914
 2825SOL     OW 9373   5.406   6.614   6.581
 2825SOL    HW1 9374   5.381   6.708   6.557
 2825SOL    HW2 9375   5.407   6.558   6.498
 2826SOL     OW 9376   4.520   2.708   6.984
 2826SOL    HW1 9377   4.421   2.702   6.967
 2826SOL    HW2 9378   4.569   2.701   6.898
 2827SOL     OW 9379   0.409   1.236   6.302
 2827SOL    HW1 9380   0.483   1.170   6.318
 2827SOL    HW2 9381   0.414   1.308   6.371
 2828SOL     OW 9382   2.178   2.349   0.694
 2828SOL    HW1 9383   2.238   2.426   0.716
 2828SOL    HW2 9384   2.206   2.308   0.608
 2829SOL     OW 9385   3.496   3.225   3.549
 2829SOL    HW1 9386   3.508   3.324   3.546
 2829SOL    HW2 9387   3.401   3.202   3.525
 2830SOL     OW 9388   3.007   4.450   5.403
 2830SOL    HW1 9389   2.972   4.476   5.313
 2830SOL    HW2 9390   3.008   4.351   5.411
 2831SOL     OW 9391   0.763   3.434   3.157
 2831SOL    HW1 9392   0.738   3.340   3.134
 2831SOL    HW2 9393   0.682   3.492   3.151
 2832SOL     OW 9394   0.842   3.138   1.681
 2832SOL    HW1 9395   0.810   3.221   1.636
 2832SOL    HW2 9396   0.812   3.058   1.629
 2833SOL     OW 9397   2.976   1.466   2.689
 2833SOL    HW1 9398   3.008   1.461   2.595
 2833SOL    HW2 9399   2.877   1.455   2.692
 2834SOL     OW 9400   3.651   6.338   5.742
 2834SOL    HW1 9401   3.605   6.335   5.653
 2834SOL    HW2 9402   3.699   6.251   5.758
 2835SOL     OW 9403   0.649   0.029   1.267
 2835SOL    HW1 9404   0.685   0.121   1.269
 2835SOL    HW2 9405   0.713   6.987   1.221
 2836SOL     OW 9406   0.756   6.713   1.882
 2836SOL    HW1 9407   0.813   6.751   1.809
 2836SOL    HW2 9408   0.781   6.618   1.898
 2837SOL     OW 9409   5.001   4.560   2.633
 2837SOL    HW1 9410   4.911   4.601   2.625
 2837SOL    HW2 9411   5.046   4.594   2.715
 2838SOL     OW 9412   4.507   3.873   0.756
 2838SOL    HW1 9413   4.459   3.795   0.716
 2838SOL    HW2 9414   4.461   3.958   0.731
 2839SOL     OW 9415   6.952   2.162   2.749
 2839SOL    HW1 9416   0.023   2.119   2.751
 2839SOL    HW2 9417   6.900   2.135   2.830
 2840SOL     OW 9418   1.915   6.666   1.896
 2840SOL    HW1 9419   1.855   6.718   1.835
 2840SOL    HW2 9420   1.861   6.602   1.950
 2841SOL     OW 9421   6.234   2.160   6.270
 2841SOL    HW1 9422   6.173   2.094   6.225
 2841SOL    HW2 9423   6.186   2.247   6.279
 2842SOL     OW 9424   0.062   4.805   4.101
 2842SOL    HW1 9425   0.147   4.780   4.056
 2842SOL    HW2 9426   0.021   4.883   4.055
 2843SOL     OW 9427   2.640   2.166   3.186
 2843SOL    HW1 9428   2.740   2.163   3.186
 2843SOL    HW2 9429   2.604   2.095   3.246
 2844SOL     OW 9430   6.391   5.215   0.473
 2844SOL    HW1 9431   6.442   5.292   0.436
 2844SOL    HW2 9432   6.434   5.184   0.558
 2845SOL     OW 9433   5.345   3.013   2.410
 2845SOL    HW1 9434   5.264   3.038   2.356
 2845SOL    HW2 9435   5.416   3.082   2.396
 2846SOL     OW 9436   4.239   0.082   0.451
 2846SOL    HW1 9437   4.190   0.130   0.524
 2846SOL    HW2 9438   4.271   0.148   0.383
 2847SOL     OW 9439   5.000   4.226   3.166
 2847SOL    HW1 9440   5.019   4.164   3.089
 2847SOL    HW2 9441   5.062   4.205   3.241
 2848SOL     OW 9442   2.535   2.457   5.072
 2848SOL    HW1 9443   2.495   2.430   5.160
 2848SOL    HW2 9444   2.477   2.527   5.030
 2849SOL     OW 9445   3.797   0.306   1.071
 2849SOL    HW1 9446   3.835   0.305   1.164
 2849SOL    HW2 9447   3.697   0.308   1.076
 2850SOL     OW 9448   1.636   0.239   2.807
 2850SOL    HW1 9449   1.651   0.332   2.841
 2850SOL    HW2 9450   1.724   0.195   2.791
 2851SOL     OW 9451   6.016   2.119   6.499
 2851SOL    HW1 9452   6.106   2.151   6.531
 2851SOL    HW2 9453   5.982   2.180   6.428
 2852SOL     OW 9454   6.564   4.201   6.936
 2852SOL    HW1 9455   6.638   4.218   7.001
 2852SOL    HW2 9456   6.543   4.103   6.935
 2853SOL     OW 9457   2.084   2.389   6.124
 2853SOL    HW1 9458   2.108   2.441   6.206
 2853SOL    HW2 9459   2.145   2.311   6.115
 2854SOL     OW 9460   3.696   1.098   5.843
 2854SOL    HW1 9461   3.747   1.053   5.770
 2854SOL    HW2 9462   3.706   1.047   5.928
 2855SOL     OW 9463   1.382   1.661   5.547
 2855SOL    HW1 9464   1.433   1.728   5.600
 2855SOL    HW2 9465   1.417   1.658   5.453
 2856SOL     OW 9466   0.659   3.668   5.017
 2856SOL    HW1 9467   0.703   3.628   5.097
 2856SOL    HW2 9468   0.665   3.768   5.022
 2857SOL     OW 9469   0.863   2.379   1.134
 2857SOL    HW1 9470   0.887   2.393   1.038
 2857SOL    HW2 9471   0.763   2.370   1.142
 2858SOL     OW 9472   4.191   5.199   2.526
 2858SOL    HW1 9473   4.106   5.198   2.474
 2858SOL    HW2 9474   4.197   5.285   2.578
 2859SOL     OW 9475   6.561   0.348   6.692
 2859SOL    HW1 9476   6.601   0.432   6.729
 2859SOL    HW2 9477   6.496   0.371   6.620
 2860SOL     OW 9478   2.194   1.334   2.339
 2860SOL    HW1 9479   2.259   1.405   2.313
 2860SOL    HW2 9480   2.102   1.373   2.347
 2861SOL     OW 9481   3.013   5.713   5.074
 2861SOL    HW1 9482   3.093   5.710   5.014
 2861SOL    HW2 9483   2.931   5.689   5.022
 2862SOL     OW 9484   4.284   2.100   1.471
 2862SOL    HW1 9485   4.253   2.176   1.530
 2862SOL    HW2 9486   4.382   2.108   1.456
 2863SOL     OW 9487   4.802   1.367   6.685
 2863SOL    HW1 9488   4.730   1.392   6.621
 2863SOL    HW2 9489   4.796   1.269   6.705
 2864SOL     OW 9490   4.499   2.260   1.014
 2864SOL    HW1 9491   4.436   2.336   1.030
 2864SOL    HW2 9492   4.450   2.185   0.970
 2865SOL     OW 9493   4.342   6.285   4.324
 2865SOL    HW1 9494   4.255   6.251   4.360
 2865SOL    HW2 9495   4.406   6.209   4.314
 2866SOL     OW 9496   5.597   4.610   6.671
 2866SOL    HW1 9497   5.526   4.541   6.658
 2866SOL    HW2 9498   5.635   4.636   6.582
 2867SOL     OW 9499   6.152   6.569   2.615
 2867SOL    HW1 9500   6.057   6.601   2.608
 2867SOL    HW2 9501   6.213   6.636   2.572
 2868SOL     OW 9502   1.385   1.136   5.898
 2868SOL    HW1 9503   1.452   1.101   5.832
 2868SOL    HW2 9504   1.354   1.226   5.869
 2869SOL     OW 9505   6.696   1.069   2.777
 2869SOL    HW1 9506   6.692   1.109   2.685
 2869SOL    HW2 9507   6.603   1.051   2.810
 2870SOL     OW 9508   0.642   1.628   5.536
 2870SOL    HW1 9509   0.579   1.683   5.590
 2870SOL    HW2 9510   0.720   1.684   5.509
 2871SOL     OW 9511   5.959   0.934   0.259
 2871SOL    HW1 9512   5.865   0.898   0.264
 2871SOL    HW2 9513   5.969   1.009   0.325
 2872SOL     OW 9514   2.341   2.001   1.578
 2872SOL    HW1 9515   2.435   1.968   1.583
 2872SOL    HW2 9516   2.333   2.087   1.628
 2873SOL     OW 9517   6.390   6.531   2.111
 2873SOL    HW1 9518   6.474   6.500   2.157
 2873SOL    HW2 9519   6.413   6.601   2.044
 2874SOL     OW 9520   4.136   6.457   2.561
 2874SOL    HW1 9521   4.220   6.406   2.581
 2874SOL    HW2 9522   4.058   6.395   2.564
 2875SOL     OW 9523   5.568   6.764   0.918
 2875SOL    HW1 9524   5.510   6.687   0.943
 2875SOL    HW2 9525   5.512   6.845   0.900
 2876SOL     OW 9526   1.947   0.525   2.577
 2876SOL    HW1 9527   1.978   0.618   2.597
 2876SOL    HW2 9528   2.026   0.464   2.571
 2877SOL     OW 9529   2.889   1.234   5.730
 2877SOL    HW1 9530   2.829   1.309   5.758
 2877SOL    HW2 9531   2.976   1.241   5.779
 2878SOL     OW 9532   3.020   4.129   5.380
 2878SOL    HW1 9533   2.963   4.067   5.325
 2878SOL    HW2 9534   3.114   4.096   5.380
 2879SOL     OW 9535   5.009   5.387   6.249
 2879SOL    HW1 9536   5.069   5.455   6.207
 2879SOL    HW2 9537   4.933   5.367   6.187
 2880SOL     OW 9538   0.430   1.847   2.891
 2880SOL    HW1 9539   0.449   1.751   2.867
 2880SOL    HW2 9540   0.484   1.906   2.831
 2881SOL     OW 9541   4.187   6.012   6.951
 2881SOL    HW1 9542   4.124   5.941   6.920
 2881SOL    HW2 9543   4.172   6.031   0.029
 2882SOL     OW 9544   0.068   5.850   1.743
 2882SOL    HW1 9545   0.026   5.868   1.654
 2882SOL    HW2 9546   0.016   5.779   1.791
 2883SOL     OW 9547   5.857   0.083   3.946
 2883SOL    HW1 9548   5.955   0.072   3.932
 2883SOL    HW2 9549   5.837   0.179   3.968
 2884SOL     OW 9550   0.857   6.732   2.886
 2884SOL    HW1 9551   0.796   6.729   2.807
 2884SOL    HW2 9552   0.880   6.639   2.915
 2885SOL     OW 9553   1.445   3.386   3.955
 2885SOL    HW1 9554   1.508   3.310   3.936
 2885SOL    HW2 9555   1.472   3.430   4.041
 2886SOL     OW 9556   1.825   3.503   6.590
 2886SOL    HW1 9557   1.753   3.437   6.611
 2886SOL    HW2 9558   1.908   3.453   6.562
 2887SOL     OW 9559   0.545   6.870   5.040
 2887SOL    HW1 9560   0.516   6.873   5.136
 2887SOL    HW2 9561   0.498   6.795   4.993
 2888SOL     OW 9562   0.201   4.034   6.834
 2888SOL    HW1 9563   0.212   3.966   6.906
 2888SOL    HW2 9564   0.181   3.988   6.747
 2889SOL     OW 9565   2.781   6.231   2.470
 2889SOL    HW1 9566   2.787   6.329   2.488
 2889SOL    HW2 9567   2.704   6.213   2.409
 2890SOL     OW 9568   2.008   6.476   0.275
 2890SOL    HW1 9569   2.021   6.432   0.364
 2890SOL    HW2 9570   1.995   6.574   0.288
 2891SOL     OW 9571   0.348   4.380   3.377
 2891SOL    HW1 9572   0.283   4.449   3.345
 2891SOL    HW2 9573   0.427   4.425   3.418
 2892SOL     OW 9574   6.305   2.689   0.727
 2892SOL    HW1 9575   6.319   2.751   0.650
 2892SOL    HW2 9576   6.228   2.628   0.709
 2893SOL     OW 9577   0.582   5.322   4.304
 2893SOL    HW1 9578   0.592   5.362   4.213
 2893SOL    HW2 9579   0.507   5.367   4.353
 2894SOL     OW 9580   0.338   3.012   2.359
 2894SOL    HW1 9581   0.298   2.978   2.274
 2894SOL    HW2 9582   0.303   2.959   2.437
 2895SOL     OW 9583   4.835   0.955   5.144
 2895SOL    HW1 9584   4.857   0.866   5.104
 2895SOL    HW2 9585   4.761   0.997   5.092
 2896SOL     OW 9586   4.280   6.973   5.333
 2896SOL    HW1 9587   4.290   6.906   5.407
 2896SOL    HW2 9588   4.305   6.931   5.246
 2897SOL     OW 9589   4.157   5.058   2.925
 2897SOL    HW1 9590   4.182   5.058   3.021
 2897SOL    HW2 9591   4.057   5.066   2.917
 2898SOL     OW 9592   4.400   4.607   4.529
 2898SOL    HW1 9593   4.475   4.582   4.467
 2898SOL    HW2 9594   4.323   4.639   4.475
 2899SOL     OW 9595   0.719   1.853   0.712
 2899SOL    HW1 9596   0.702   1.782   0.643
 2899SOL    HW2 9597   0.782   1.921   0.674
 2900SOL     OW 9598   2.995   4.616   6.859
 2900SOL    HW1 9599   2.991   4.684   6.785
 2900SOL    HW2 9600   3.015   4.662   6.945
 2901SOL     OW 9601   2.526   4.904   3.186
 2901SOL    HW1 9602   2.509   4.958   3.104
 2901SOL    HW2 9603   2.446   4.848   3.206
 2902SOL     OW 9604   5.944   4.965   3.069
 2902SOL    HW1 9605   5.986   5.013   2.992
 2902SOL    HW2 9606   6.011   4.903   3.111
 2903SOL     OW 9607   4.461   6.549   0.584
 2903SOL    HW1 9608   4.493   6.455   0.592
 2903SOL    HW2 9609   4.481   6.583   0.492
 2904SOL     OW 9610   2.580   4.969   4.523
 2904SOL    HW1 9611   2.566   5.014   4.435
 2904SOL    HW2 9612   2.619   4.878   4.509
 2905SOL     OW 9613   1.539   4.087   4.480
 2905SOL    HW1 9614   1.624   4.140   4.475
 2905SOL    HW2 9615   1.558   3.991   4.459
 2906SOL     OW 9616   4.508   4.832   2.500
 2906SOL    HW1 9617   4.523   4.924   2.535
 2906SOL    HW2 9618   4.490   4.770   2.577
 2907SOL     OW 9619   0.582   1.918   3.676
 2907SOL    HW1 9620   0.522   1.837   3.679
 2907SOL    HW2 9621   0.528   1.997   3.647
 2908SOL     OW 9622   5.390   6.267   3.599
 2908SOL    HW1 9623   5.357   6.174   3.620
 2908SOL    HW2 9624   5.425   6.269   3.506
 2909SOL     OW 9625   1.764   6.130   3.863
 2909SOL    HW1 9626   1.797   6.093   3.777
 2909SOL    HW2 9627   1.682   6.185   3.847
 2910SOL     OW 9628   5.697   0.558   4.439
 2910SOL    HW1 9629   5.665   0.529   4.530
 2910SOL    HW2 9630   5.733   0.651   4.445
 2911SOL     OW 9631   1.714   6.101   3.174
 2911SOL    HW1 9632   1.648   6.082   3.246
 2911SOL    HW2 9633   1.805   6.071   3.204
 2912SOL     OW 9634   5.694   6.635   0.521
 2912SOL    HW1 9635   5.653   6.725   0.534
 2912SOL    HW2 9636   5.640   6.583   0.455
 2913SOL     OW 9637   3.847   4.901   1.930
 2913SOL    HW1 9638   3.901   4.817   1.925
 2913SOL    HW2 9639   3.752   4.882   1.905
 2914SOL     OW 9640   6.372   6.054   6.568
 2914SOL    HW1 9641   6.397   6.140   6.525
 2914SOL    HW2 9642   6.438   5.983   6.542
 2915SOL     OW 9643   3.142   2.136   3.497
 2915SOL    HW1 9644   3.052   2.152   3.537
 2915SOL    HW2 9645   3.139   2.158   3.399
 2916SOL     OW 9646   1.242   5.938   0.467
 2916SOL    HW1 9647   1.318   5.899   0.415
 2916SOL    HW2 9648   1.156   5.902   0.431
 2917SOL     OW 9649   2.689   6.869   3.431
 2917SOL    HW1 9650   2.729   6.837   3.345
 2917SOL    HW2 9651   2.762   6.901   3.491
 2918SOL     OW 9652   6.179   4.156   5.329
 2918SOL    HW1 9653   6.265   4.105   5.321
 2918SOL    HW2 9654   6.199   4.248   5.364
 2919SOL     OW 9655   5.952   0.319   2.236
 2919SOL    HW1 9656   5.899   0.354   2.313
 2919SOL    HW2 9657   6.040   0.366   2.231
 2920SOL     OW 9658   2.796   0.975   1.161
 2920SOL    HW1 9659   2.881   1.006   1.118
 2920SOL    HW2 9660   2.799   0.994   1.259
 2921SOL     OW 9661   0.735   6.488   4.615
 2921SOL    HW1 9662   0.708   6.463   4.522
 2921SOL    HW2 9663   0.834   6.498   4.620
 2922SOL     OW 9664   4.818   6.832   1.397
 2922SOL    HW1 9665   4.743   6.883   1.438
 2922SOL    HW2 9666   4.886   6.896   1.361
 2923SOL     OW 9667   6.080   5.487   3.174
 2923SOL    HW1 9668   6.136   5.553   3.223
 2923SOL    HW2 9669   6.119   5.395   3.185
 2924SOL     OW 9670   6.600   2.326   5.444
 2924SOL    HW1 9671   6.607   2.393   5.370
 2924SOL    HW2 9672   6.527   2.354   5.507
 2925SOL     OW 9673   5.948   1.866   0.534
 2925SOL    HW1 9674   5.988   1.882   0.624
 2925SOL    HW2 9675   5.848   1.864   0.542
 2926SOL     OW 9676   5.918   1.885   6.635
 2926SOL    HW1 9677   5.827   1.843   6.626
 2926SOL    HW2 9678   5.924   1.964   6.575
 2927SOL     OW 9679   1.441   4.089   1.329
 2927SOL    HW1 9680   1.526   4.126   1.365
 2927SOL    HW2 9681   1.382   4.164   1.299
 2928SOL     OW 9682   0.204   0.525   6.893
 2928SOL    HW1 9683   0.169   0.451   6.835
 2928SOL    HW2 9684   0.141   0.541   6.969
 2929SOL     OW 9685   1.477   2.510   6.137
 2929SOL    HW1 9686   1.500   2.568   6.216
 2929SOL    HW2 9687   1.383   2.528   6.109
 2930SOL     OW 9688   5.057   6.709   5.859
 2930SOL    HW1 9689   5.075   6.787   5.918
 2930SOL    HW2 9690   5.056   6.740   5.763
 2931SOL     OW 9691   5.228   4.868   7.006
 2931SOL    HW1 9692   5.284   4.814   6.943
 2931SOL    HW2 9693   5.275   4.953   0.009
 2932SOL     OW 9694   0.901   6.029   1.752
 2932SOL    HW1 9695   0.945   6.005   1.839
 2932SOL    HW2 9696   0.945   5.979   1.678
 2933SOL     OW 9697   1.665   5.846   2.339
 2933SOL    HW1 9698   1.693   5.766   2.392
 2933SOL    HW2 9699   1.624   5.914   2.400
 2934SOL     OW 9700   5.267   1.699   6.859
 2934SOL    HW1 9701   5.332   1.649   6.915
 2934SOL    HW2 9702   5.188   1.726   6.915
 2935SOL     OW 9703   6.888   2.429   6.141
 2935SOL    HW1 9704   6.844   2.348   6.180
 2935SOL    HW2 9705   6.819   2.501   6.127
 2936SOL     OW 9706   4.584   6.226   0.126
 2936SOL    HW1 9707   4.550   6.139   0.161
 2936SOL    HW2 9708   4.657   6.209   0.059
 2937SOL     OW 9709   5.768   4.900   1.634
 2937SOL    HW1 9710   5.789   4.884   1.537
 2937SOL    HW2 9711   5.848   4.939   1.679
 2938SOL     OW 9712   5.054   4.978   6.550
 2938SOL    HW1 9713   5.037   4.882   6.527
 2938SOL    HW2 9714   5.137   5.009   6.504
 2939SOL     OW 9715   2.537   0.775   2.211
 2939SOL    HW1 9716   2.440   0.788   2.233
 2939SOL    HW2 9717   2.545   0.724   2.125
 2940SOL     OW 9718   5.533   5.112   5.457
 2940SOL    HW1 9719   5.460   5.088   5.393
 2940SOL    HW2 9720   5.532   5.210   5.475
 2941SOL     OW 9721   1.752   2.240   4.165
 2941SOL    HW1 9722   1.813   2.161   4.166
 2941SOL    HW2 9723   1.706   2.248   4.253
 2942SOL     OW 9724   4.004   2.228   0.625
 2942SOL    HW1 9725   4.103   2.217   0.611
 2942SOL    HW2 9726   3.969   2.293   0.558
 2943SOL     OW 9727   5.600   3.998   3.816
 2943SOL    HW1 9728   5.645   3.996   3.906
 2943SOL    HW2 9729   5.542   3.917   3.807
 2944SOL     OW 9730   2.855   5.820   4.477
 2944SOL    HW1 9731   2.926   5.797   4.542
 2944SOL    HW2 9732   2.765   5.809   4.520
 2945SOL     OW 9733   3.504   3.229   2.337
 2945SOL    HW1 9734   3.462   3.145   2.302
 2945SOL    HW2 9735   3.435   3.283   2.384
 2946SOL     OW 9736   1.557   5.041   6.161
 2946SOL    HW1 9737   1.618   5.063   6.084
 2946SOL    HW2 9738   1.548   4.942   6.168
 2947SOL     OW 9739   0.159   5.205   1.603
 2947SOL    HW1 9740   0.224   5.136   1.635
 2947SOL    HW2 9741   0.192   5.247   1.519
 2948SOL     OW 9742   0.351   4.090   4.181
 2948SOL    HW1 9743   0.430   4.042   4.218
 2948SOL    HW2 9744   0.267   4.051   4.218
 2949SOL     OW 9745   1.489   5.565   1.048
 2949SOL    HW1 9746   1.494   5.653   1.000
 2949SOL    HW2 9747   1.574   5.550   1.099
 2950SOL     OW 9748   5.577   5.605   4.181
 2950SOL    HW1 9749   5.538   5.684   4.135
 2950SOL    HW2 9750   5.521   5.583   4.261
 2951SOL     OW 9751   5.222   1.605   2.384
 2951SOL    HW1 9752   5.245   1.654   2.468
 2951SOL    HW2 9753   5.149   1.540   2.402
 2952SOL     OW 9754   6.932   5.802   5.431
 2952SOL    HW1 9755   6.900   5.764   5.344
 2952SOL    HW2 9756   6.981   5.887   5.414
 2953SOL     OW 9757   5.963   3.880   2.484
 2953SOL    HW1 9758   5.876   3.927   2.468
 2953SOL    HW2 9759   6.016   3.876   2.399
 2954SOL     OW 9760   1.020   5.446   1.854
 2954SOL    HW1 9761   1.016   5.544   1.872
 2954SOL    HW2 9762   1.083   5.428   1.778
 2955SOL     OW 9763   0.861   4.301   1.336
 2955SOL    HW1 9764   0.862   4.243   1.417
 2955SOL    HW2 9765   0.822   4.251   1.259
 2956SOL     OW 9766   5.727   6.174   2.607
 2956SOL    HW1 9767   5.770   6.246   2.661
 2956SOL    HW2 9768   5.795   6.105   2.581
 2957SOL     OW 9769   5.421   4.187   1.533
 2957SOL    HW1 9770   5.456   4.266   1.584
 2957SOL    HW2 9771   5.486   4.162   1.461
 2958SOL     OW 9772   2.334   4.271   3.545
 2958SOL    HW1 9773   2.348   4.350   3.486
 2958SOL    HW2 9774   2.325   4.189   3.489
 2959SOL     OW 9775   4.874   3.922   1.179
 2959SOL    HW1 9776   4.967   3.884   1.176
 2959SOL    HW2 9777   4.821   3.883   1.104
 2960SOL     OW 9778   3.293   0.639   0.489
 2960SOL    HW1 9779   3.229   0.595   0.552
 2960SOL    HW2 9780   3.369   0.577   0.471
 2961SOL     OW 9781   6.130   4.772   3.180
 2961SOL    HW1 9782   6.167   4.681   3.160
 2961SOL    HW2 9783   6.179   4.811   3.258
 2962SOL     OW 9784   4.751   6.214   3.219
 2962SOL    HW1 9785   4.834   6.165   3.248
 2962SOL    HW2 9786   4.772   6.272   3.141
 2963SOL     OW 9787   1.699   1.298   6.546
 2963SOL    HW1 9788   1.779   1.273   6.600
 2963SOL    HW2 9789   1.729   1.343   6.462
 2964SOL     OW 9790   0.141   1.315   5.329
 2964SOL    HW1 9791   0.133   1.412   5.303
 2964SOL    HW2 9792   0.080   1.260   5.272
 2965SOL     OW 9793   0.342   0.758   4.326
 2965SOL    HW1 9794   0.344   0.856   4.308
 2965SOL    HW2 9795   0.335   0.742   4.424
 2966SOL     OW 9796   4.298   4.879   3.496
 2966SOL    HW1 9797   4.365   4.845   3.563
 2966SOL    HW2 9798   4.278   4.807   3.429
 2967SOL     OW 9799   6.049   1.057   4.955
 2967SOL    HW1 9800   5.958   1.058   4.999
 2967SOL    HW2 9801   6.099   0.976   4.985
 2968SOL     OW 9802   0.885   2.779   0.686
 2968SOL    HW1 9803   0.809   2.805   0.746
 2968SOL    HW2 9804   0.854   2.779   0.591
 2969SOL     OW 9805   4.958   2.674   4.324
 2969SOL    HW1 9806   4.960   2.576   4.344
 2969SOL    HW2 9807   4.864   2.703   4.306
 2970SOL     OW 9808   2.719   2.627   5.413
 2970SOL    HW1 9809   2.741   2.582   5.326
 2970SOL    HW2 9810   2.667   2.711   5.395
 2971SOL     OW 9811   5.081   4.205   0.244
 2971SOL    HW1 9812   5.003   4.170   0.193
 2971SOL    HW2 9813   5.085   4.161   0.334
 2972SOL     OW 9814   0.121   4.797   6.392
 2972SOL    HW1 9815   0.219   4.783   6.404
 2972SOL    HW2 9816   0.091   4.752   6.308
 2973SOL     OW 9817   5.109   5.933   1.711
 2973SOL    HW1 9818   5.054   5.954   1.792
 2973SOL    HW2 9819   5.049   5.908   1.635
 2974SOL     OW 9820   0.312   4.734   4.017
 2974SOL    HW1 9821   0.267   4.657   3.972
 2974SOL    HW2 9822   0.382   4.772   3.956
 2975SOL     OW 9823   5.177   3.702   4.080
 2975SOL    HW1 9824   5.096   3.650   4.106
 2975SOL    HW2 9825   5.150   3.797   4.061
 2976SOL     OW 9826   4.459   2.229   2.731
 2976SOL    HW1 9827   4.406   2.222   2.816
 2976SOL    HW2 9828   4.467   2.326   2.706
 2977SOL     OW 9829   1.804   0.497   2.340
 2977SOL    HW1 9830   1.755   0.410   2.342
 2977SOL    HW2 9831   1.873   0.498   2.413
 2978SOL     OW 9832   3.710   4.804   0.285
 2978SOL    HW1 9833   3.663   4.824   0.371
 2978SOL    HW2 9834   3.806   4.783   0.304
 2979SOL     OW 9835   3.692   1.186   3.720
 2979SOL    HW1 9836   3.752   1.240   3.662
 2979SOL    HW2 9837   3.644   1.118   3.664
 2980SOL     OW 9838   1.598   5.353   5.196
 2980SOL    HW1 9839   1.609   5.415   5.118
 2980SOL    HW2 9840   1.621   5.260   5.166
 2981SOL     OW 9841   2.932   1.014   6.248
 2981SOL    HW1 9842   3.022   1.043   6.281
 2981SOL    HW2 9843   2.895   1.084   6.186
 2982SOL     OW 9844   2.991   5.943   1.871
 2982SOL    HW1 9845   3.006   5.845   1.888
 2982SOL    HW2 9846   2.941   5.983   1.948
 2983SOL     OW 9847   6.272   2.279   2.551
 2983SOL    HW1 9848   6.188   2.291   2.605
 2983SOL    HW2 9849   6.330   2.359   2.563
 2984SOL     OW 9850   6.301   4.494   0.129
 2984SOL    HW1 9851   6.221   4.480   0.070
 2984SOL    HW2 9852   6.339   4.405   0.153
 2985SOL     OW 9853   2.076   2.562   4.478
 2985SOL    HW1 9854   2.005   2.599   4.418
 2985SOL    HW2 9855   2.036   2.534   4.565
 2986SOL     OW 9856   3.591   4.156   3.107
 2986SOL    HW1 9857   3.676   4.131   3.153
 2986SOL    HW2 9858   3.515   4.146   3.170
 2987SOL     OW 9859   1.146   1.873   3.827
 2987SOL    HW1 9860   1.104   1.883   3.917
 2987SOL    HW2 9861   1.080   1.899   3.757
 2988SOL     OW 9862   1.912   6.299   2.835
 2988SOL    HW1 9863   2.001   6.256   2.849
 2988SOL    HW2 9864   1.855   6.240   2.777
 2989SOL     OW 9865   5.174   5.332   5.509
 2989SOL    HW1 9866   5.089   5.381   5.523
 2989SOL    HW2 9867   5.188   5.266   5.583
 2990SOL     OW 9868   3.578   1.485   4.378
 2990SOL    HW1 9869   3.634   1.432   4.441
 2990SOL    HW2 9870   3.556   1.430   4.298
 2991SOL     OW 9871   6.548   3.794   5.673
 2991SOL    HW1 9872   6.627   3.776   5.614
 2991SOL    HW2 9873   6.566   3.757   5.764
 2992SOL     OW 9874   1.075   5.179   4.586
 2992SOL    HW1 9875   1.156   5.162   4.640
 2992SOL    HW2 9876   1.006   5.225   4.643
 2993SOL     OW 9877   0.150   4.991   1.395
 2993SOL    HW1 9878   0.187   4.933   1.468
 2993SOL    HW2 9879   0.219   5.057   1.366
 2994SOL     OW 9880   3.604   6.523   6.622
 2994SOL    HW1 9881   3.576   6.569   6.537
 2994SOL    HW2 9882   3.668   6.448   6.600
 2995SOL     OW 9883   3.464   1.475   6.677
 2995SOL    HW1 9884   3.391   1.540   6.659
 2995SOL    HW2 9885   3.544   1.497   6.621
 2996SOL     OW 9886   0.402   1.473   5.001
 2996SOL    HW1 9887   0.332   1.431   4.944
 2996SOL    HW2 9888   0.368   1.482   5.095
 2997SOL     OW 9889   5.148   6.913   2.871
 2997SOL    HW1 9890   5.172   6.857   2.791
 2997SOL    HW2 9891   5.227   6.968   2.898
 2998SOL     OW 9892   5.478   6.331   3.323
 2998SOL    HW1 9893   5.439   6.423   3.327
 2998SOL    HW2 9894   5.578   6.336   3.328
 2999SOL     OW 9895   2.438   5.127   5.034
 2999SOL    HW1 9896   2.464   5.087   5.121
 2999SOL    HW2 9897   2.488   5.082   4.960
 3000SOL     OW 9898   3.420   4.114   6.254
 3000SOL    HW1 9899   3.440   4.076   6.164
 3000SOL    HW2 9900   3.466   4.060   6.325
 3001SOL     OW 9901   6.677   0.875   6.167
 3001SOL    HW1 9902   6.736   0.949   6.136
 3001SOL    HW2 9903   6.709   0.788   6.128
 3002SOL     OW 9904   3.174   1.768   6.792
 3002SOL    HW1 9905   3.094   1.777   6.732
 3002SOL    HW2 9906   3.189   1.671   6.812
 3003SOL     OW 9907   1.187   6.749   0.944
 3003SOL    HW1 9908   1.228   6.793   1.024
 3003SOL    HW2 9909   1.209   6.800   0.862
 3004SOL     OW 9910   0.498   4.105   2.683
 3004SOL    HW1 9911   0.432   4.052   2.737
 3004SOL    HW2 9912   0.465   4.198   2.672
 3005SOL     OW 9913   1.362   2.881   6.835
 3005SOL    HW1 9914   1.453   2.914   6.809
 3005SOL    HW2 9915   1.316   2.952   6.890
 3006SOL     OW 9916   5.491   2.097   4.345
 3006SOL    HW1 9917   5.469   2.120   4.250
 3006SOL    HW2 9918   5.554   2.165   4.382
 3007SOL     OW 9919   5.832   3.871   0.856
 3007SOL    HW1 9920   5.821   3.783   0.904
 3007SOL    HW2 9921   5.742   3.911   0.840
 3008SOL     OW 9922   3.264   2.329   6.116
 3008SOL    HW1 9923   3.194   2.378   6.065
 3008SOL    HW2 9924   3.336   2.298   6.054
 3009SOL     OW 9925   6.666   2.367   2.755
 3009SOL    HW1 9926   6.709   2.443   2.804
 3009SOL    HW2 9927   6.688   2.281   2.801
 3010SOL     OW 9928   3.188   5.683   3.267
 3010SOL    HW1 9929   3.159   5.778   3.273
 3010SOL    HW2 9930   3.117   5.624   3.306
 3011SOL     OW 9931   5.864   1.040   2.722
 3011SOL    HW1 9932   5.803   1.116   2.703
 3011SOL    HW2 9933   5.876   1.031   2.821
 3012SOL     OW 9934   1.959   3.609   6.864
 3012SOL    HW1 9935   1.883   3.600   6.800
 3012SOL    HW2 9936   1.996   3.519   6.885
 3013SOL     OW 9937   5.076   5.700   3.960
 3013SOL    HW1 9938   5.074   5.793   3.925
 3013SOL    HW2 9939   4.985   5.659   3.952
 3014SOL     OW 9940   4.566   2.340   5.521
 3014SOL    HW1 9941   4.651   2.362   5.473
 3014SOL    HW2 9942   4.489   2.346   5.458
 3015SOL     OW 9943   2.411   1.734   0.143
 3015SOL    HW1 9944   2.472   1.655   0.149
 3015SOL    HW2 9945   2.396   1.757   0.047
 3016SOL     OW 9946   3.003   6.118   4.587
 3016SOL    HW1 9947   3.053   6.204   4.597
 3016SOL    HW2 9948   3.038   6.068   4.508
 3017SOL     OW 9949   6.159   5.655   1.894
 3017SOL    HW1 9950   6.245   5.620   1.931
 3017SOL    HW2 9951   6.165   5.661   1.794
 3018SOL     OW 9952   2.595   0.144   6.091
 3018SOL    HW1 9953   2.565   0.193   6.173
 3018SOL    HW2 9954   2.558   0.189   6.010
 3019SOL     OW 9955   0.388   6.640   6.634
 3019SOL    HW1 9956   0.359   6.736   6.635
 3019SOL    HW2 9957   0.317   6.585   6.590
 3020SOL     OW 9958   3.805   2.636   1.144
 3020SOL    HW1 9959   3.803   2.536   1.139
 3020SOL    HW2 9960   3.729   2.673   1.091
 3021SOL     OW 9961   3.420   7.017   5.638
 3021SOL    HW1 9962   3.386   0.074   5.693
 3021SOL    HW2 9963   3.361   6.937   5.653
 3022SOL     OW 9964   4.058   5.523   5.142
 3022SOL    HW1 9965   4.135   5.586   5.130
 3022SOL    HW2 9966   3.979   5.558   5.092
 3023SOL     OW 9967   4.373   6.676   3.126
 3023SOL    HW1 9968   4.284   6.691   3.170
 3023SOL    HW2 9969   4.446   6.706   3.188
 3024SOL     OW 9970   5.153   6.721   4.981
 3024SOL    HW1 9971   5.063   6.688   5.008
 3024SOL    HW2 9972   5.146   6.768   4.893
 3025SOL     OW 9973   4.458   6.474   1.005
 3025SOL    HW1 9974   4.531   6.516   0.951
 3025SOL    HW2 9975   4.441   6.381   0.971
 3026SOL     OW 9976   1.176   0.987   5.887
 3026SOL    HW1 9977   1.250   1.052   5.873
 3026SOL    HW2 9978   1.088   1.035   5.886
 3027SOL     OW 9979   4.478   1.319   3.060
 3027SOL    HW1 9980   4.456   1.231   3.102
 3027SOL    HW2 9981   4.513   1.381   3.131
 3028SOL     OW 9982   1.533   3.532   5.896
 3028SOL    HW1 9983   1.615   3.532   5.838
 3028SOL    HW2 9984   1.547   3.472   5.974
 3029SOL     OW 9985   0.493   3.019   5.260
 3029SOL    HW1 9986   0.552   2.998   5.182
 3029SOL    HW2 9987   0.548   3.054   5.335
 3030SOL     OW 9988   0.605   3.530   0.295
 3030SOL    HW1 9989   0.655   3.484   0.368
 3030SOL    HW2 9990   0.511   3.497   0.292
 3031SOL     OW 9991   6.985   4.765   1.405
 3031SOL    HW1 9992   0.010   4.851   1.380
 3031SOL    HW2 9993   6.978   4.707   1.323
 3032SOL     OW 9994   2.465   6.654   1.544
 3032SOL    HW1 9995   2.460   6.680   1.447
 3032SOL    HW2 9996   2.537   6.707   1.589
 3033SOL     OW 9997   5.327   1.066   1.713
 3033SOL    HW1 9998   5.381   1.108   1.786
 3033SOL    HW2 9999   5.345   0.968   1.710
 3034SOL     OW10000   1.093   0.492   2.632
 3034SOL    HW110001   1.164   0.534   2.688
 3034SOL    HW210002   1.008   0.486   2.685
 3035SOL     OW10003   0.242   2.729   5.894
 3035SOL    HW110004   0.321   2.789   5.890
 3035SOL    HW210005   0.251   2.657   5.824
 3036SOL     OW10006   1.983   1.563   5.613
 3036SOL    HW110007   1.909   1.559   5.546
 3036SOL    HW210008   2.041   1.642   5.594
 3037SOL     OW10009   6.300   5.666   6.657
 3037SOL    HW110010   6.294   5.596   6.729
 3037SOL    HW210011   6.249   5.635   6.577
 3038SOL     OW10012   4.927   5.672   5.700
 3038SOL    HW110013   5.006   5.624   5.738
 3038SOL    HW210014   4.861   5.690   5.773
 3039SOL     OW10015   0.699   3.538   1.169
 3039SOL    HW110016   0.732   3.625   1.133
 3039SOL    HW210017   0.689   3.544   1.268
 3040SOL     OW10018   3.018   4.093   5.856
 3040SOL    HW110019   2.943   4.122   5.797
 3040SOL    HW210020   2.982   4.040   5.933
 3041SOL     OW10021   2.347   3.206   5.368
 3041SOL    HW110022   2.388   3.297   5.370
 3041SOL    HW210023   2.395   3.149   5.300
 3042SOL     OW10024   6.094   6.219   2.607
 3042SOL    HW110025   6.027   6.197   2.535
 3042SOL    HW210026   6.109   6.138   2.664
 3043SOL     OW10027   2.859   4.332   1.199
 3043SOL    HW110028   2.865   4.430   1.180
 3043SOL    HW210029   2.837   4.283   1.115
 3044SOL     OW10030   3.304   5.197   6.157
 3044SOL    HW110031   3.205   5.201   6.143
 3044SOL    HW210032   3.331   5.262   6.228
 3045SOL     OW10033   4.741   6.647   3.531
 3045SOL    HW110034   4.658   6.700   3.511
 3045SOL    HW210035   4.785   6.622   3.445
 3046SOL     OW10036   3.135   0.997   5.673
 3046SOL    HW110037   3.148   0.898   5.678
 3046SOL    HW210038   3.222   1.041   5.653
 3047SOL     OW10039   6.015   0.391   1.604
 3047SOL    HW110040   5.962   0.474   1.585
 3047SOL    HW210041   5.953   0.317   1.629
 3048SOL     OW10042   3.926   2.178   1.582
 3048SOL    HW110043   3.931   2.166   1.681
 3048SOL    HW210044   3.870   2.105   1.542
 3049SOL     OW10045   1.402   0.063   2.943
 3049SOL    HW110046   1.314   0.083   2.987
 3049SOL    HW210047   1.455   0.148   2.935
 3050SOL     OW10048   2.957   1.660   2.454
 3050SOL    HW110049   2.978   1.749   2.496
 3050SOL    HW210050   2.880   1.618   2.501
 3051SOL     OW10051   1.860   6.088   6.164
 3051SOL    HW110052   1.920   6.066   6.241
 3051SOL    HW210053   1.909   6.143   6.098
 3052SOL     OW10054   5.003   5.283   1.923
 3052SOL    HW110055   4.916   5.301   1.878
 3052SOL    HW210056   5.066   5.241   1.858
 3053SOL     OW10057   0.261   2.557   0.925
 3053SOL    HW110058   0.167   2.563   0.892
 3053SOL    HW210059   0.261   2.541   1.024
 3054SOL     OW10060   6.196   2.022   1.535
 3054SOL    HW110061   6.225   2.019   1.631
 3054SOL    HW210062   6.100   1.996   1.529
 3055SOL     OW10063   5.097   0.253   5.104
 3055SOL    HW110064   5.124   0.159   5.080
 3055SOL    HW210065   5.172   0.298   5.151
 3056SOL     OW10066   5.858   0.813   5.532
 3056SOL    HW110067   5.763   0.839   5.514
 3056SOL    HW210068   5.919   0.866   5.472
 3057SOL     OW10069   4.112   5.491   3.539
 3057SOL    HW110070   4.065   5.565   3.587
 3057SOL    HW210071   4.062   5.406   3.552
 3058SOL     OW10072   0.252   4.602   1.336
 3058SOL    HW110073   0.198   4.670   1.385
 3058SOL    HW210074   0.228   4.511   1.370
 3059SOL     OW10075   3.021   2.010   4.369
 3059SOL    HW110076   3.094   1.998   4.437
 3059SOL    HW210077   2.999   2.107   4.361
 3060SOL     OW10078   1.319   5.437   0.331
 3060SOL    HW110079   1.308   5.427   0.232
 3060SOL    HW210080   1.391   5.377   0.363
 3061SOL     OW10081   6.596   5.627   5.562
 3061SOL    HW110082   6.518   5.607   5.622
 3061SOL    HW210083   6.629   5.542   5.521
 3062SOL     OW10084   2.105   0.533   1.267
 3062SOL    HW110085   2.156   0.554   1.350
 3062SOL    HW210086   2.134   0.445   1.230
 3063SOL     OW10087   1.753   5.000   1.920
 3063SOL    HW110088   1.786   4.906   1.908
 3063SOL    HW210089   1.815   5.049   1.982
 3064SOL     OW10090   5.253   3.518   0.717
 3064SOL    HW110091   5.346   3.544   0.694
 3064SOL    HW210092   5.225   3.565   0.802
 3065SOL     OW10093   1.575   1.960   6.139
 3065SOL    HW110094   1.548   1.947   6.234
 3065SOL    HW210095   1.539   2.048   6.106
 3066SOL     OW10096   5.302   4.381   0.509
 3066SOL    HW110097   5.345   4.432   0.434
 3066SOL    HW210098   5.344   4.290   0.516
 3067SOL     OW10099   4.066   1.131   5.867
 3067SOL    HW110100   4.144   1.170   5.819
 3067SOL    HW210101   3.984   1.184   5.845
 3068SOL     OW10102   0.216   6.883   0.873
 3068SOL    HW110103   0.277   6.831   0.814
 3068SOL    HW210104   0.243   6.870   0.969
 3069SOL     OW10105   6.804   6.892   2.144
 3069SOL    HW110106   6.860   6.825   2.096
 3069SOL    HW210107   6.784   6.858   2.236
 3070SOL     OW10108   3.122   1.498   6.891
 3070SOL    HW110109   3.046   1.528   6.949
 3070SOL    HW210110   3.097   1.413   6.846
 3071SOL     OW10111   6.704   6.531   3.901
 3071SOL    HW110112   6.799   6.507   3.881
 3071SOL    HW210113   6.701   6.618   3.950
 3072SOL     OW10114   2.264   5.901   6.341
 3072SOL    HW110115   2.360   5.926   6.334
 3072SOL    HW210116   2.256   5.812   6.387
 3073SOL     OW10117   6.789   3.925   4.380
 3073SOL    HW110118   6.845   4.007   4.397
 3073SOL    HW210119   6.823   3.850   4.437
 3074SOL     OW10120   0.150   4.372   1.426
 3074SOL    HW110121   0.056   4.340   1.412
 3074SOL    HW210122   0.183   4.341   1.515
 3075SOL     OW10123   2.598   5.640   1.895
 3075SOL    HW110124   2.679   5.593   1.930
 3075SOL    HW210125   2.626   5.709   1.828
 3076SOL     OW10126   6.062   0.595   3.492
 3076SOL    HW110127   6.157   0.578   3.521
 3076SOL    HW210128   6.059   0.608   3.393
 3077SOL     OW10129   5.887   4.150   1.794
 3077SOL    HW110130   5.881   4.063   1.745
 3077SOL    HW210131   5.833   4.219   1.747
 3078SOL     OW10132   0.083   3.552   2.970
 3078SOL    HW110133   0.088   3.476   3.035
 3078SOL    HW210134   0.119   3.635   3.013
 3079SOL     OW10135   2.738   1.984   2.937
 3079SOL    HW110136   2.699   1.989   3.029
 3079SOL    HW210137   2.674   1.936   2.877
 3080SOL     OW10138   5.566   5.286   2.170
 3080SOL    HW110139   5.663   5.304   2.187
 3080SOL    HW210140   5.519   5.270   2.257
 3081SOL     OW10141   1.229   3.113   6.277
 3081SOL    HW110142   1.256   3.038   6.217
 3081SOL    HW210143   1.235   3.200   6.227
 3082SOL     OW10144   1.996   6.131   4.253
 3082SOL    HW110145   2.049   6.064   4.201
 3082SOL    HW210146   1.939   6.185   4.190
 3083SOL     OW10147   3.058   5.997   3.904
 3083SOL    HW110148   3.043   6.092   3.933
 3083SOL    HW210149   3.119   5.951   3.968
 3084SOL     OW10150   0.020   4.037   4.539
 3084SOL    HW110151   6.990   3.954   4.567
 3084SOL    HW210152   7.003   4.116   4.589
 3085SOL     OW10153   6.076   4.011   0.373
 3085SOL    HW110154   6.083   3.965   0.461
 3085SOL    HW210155   6.104   3.949   0.300
 3086SOL     OW10156   5.158   1.185   1.008
 3086SOL    HW110157   5.154   1.276   1.049
 3086SOL    HW210158   5.128   1.117   1.076
 3087SOL     OW10159   1.861   6.272   4.062
 3087SOL    HW110160   1.817   6.221   3.988
 3087SOL    HW210161   1.921   6.343   4.023
 3088SOL     OW10162   2.176   5.063   4.621
 3088SOL    HW110163   2.224   5.025   4.542
 3088SOL    HW210164   2.217   5.150   4.646
 3089SOL     OW10165   3.239   1.816   4.878
 3089SOL    HW110166   3.190   1.740   4.835
 3089SOL    HW210167   3.172   1.880   4.918
 3090SOL     OW10168   2.264   1.668   2.106
 3090SOL    HW110169   2.299   1.757   2.079
 3090SOL    HW210170   2.193   1.680   2.176
 3091SOL     OW10171   1.549   1.138   1.149
 3091SOL    HW110172   1.638   1.111   1.112
 3091SOL    HW210173   1.523   1.074   1.222
 3092SOL     OW10174   5.615   0.866   0.705
 3092SOL    HW110175   5.606   0.864   0.805
 3092SOL    HW210176   5.712   0.880   0.682
 3093SOL     OW10177   5.851   6.210   6.756
 3093SOL    HW110178   5.852   6.215   6.656
 3093SOL    HW210179   5.937   6.170   6.787
 3094SOL     OW10180   2.063   0.260   3.885
 3094SOL    HW110181   2.013   0.175   3.902
 3094SOL    HW210182   2.043   0.293   3.793
 3095SOL     OW10183   2.259   4.337   5.927
 3095SOL    HW110184   2.332   4.379   5.981
 3095SOL    HW210185   2.212   4.268   5.982
 3096SOL     OW10186   0.855   5.212   5.580
 3096SOL    HW110187   0.809   5.183   5.495
 3096SOL    HW210188   0.953   5.219   5.564
 3097SOL     OW10189   5.418   3.294   6.842
 3097SOL    HW110190   5.493   3.350   6.878
 3097SOL    HW210191   5.340   3.353   6.819
 3098SOL     OW10192   2.124   2.899   0.982
 3098SOL    HW110193   2.195   2.952   0.936
 3098SOL    HW210194   2.059   2.864   0.915
 3099SOL     OW10195   1.148   6.542   4.304
 3099SOL    HW110196   1.200   6.521   4.222
 3099SOL    HW210197   1.138   6.459   4.359
 3100SOL     OW10198   0.065   6.896   3.772
 3100SOL    HW110199   0.037   6.861   3.683
 3100SOL    HW210200   0.128   6.973   3.760
 3101SOL     OW10201   6.087   6.124   6.838
 3101SOL    HW110202   6.142   6.156   6.915
 3101SOL    HW210203   6.112   6.030   6.816
 3102SOL     OW10204   6.588   6.432   1.845
 3102SOL    HW110205   6.538   6.429   1.758
 3102SOL    HW210206   6.651   6.509   1.844
 3103SOL     OW10207   4.294   0.976   1.968
 3103SOL    HW110208   4.208   1.010   1.928
 3103SOL    HW210209   4.364   0.974   1.897
 3104SOL     OW10210   4.476   0.385   6.166
 3104SOL    HW110211   4.418   0.374   6.085
 3104SOL    HW210212   4.424   0.361   6.248
 3105SOL     OW10213   5.906   3.934   1.387
 3105SOL    HW110214   5.974   3.991   1.432
 3105SOL    HW210215   5.916   3.943   1.287
 3106SOL     OW10216   5.022   0.100   3.994
 3106SOL    HW110217   5.058   0.008   4.009
 3106SOL    HW210218   5.053   0.160   4.067
 3107SOL     OW10219   3.835   0.969   5.013
 3107SOL    HW110220   3.806   1.044   4.954
 3107SOL    HW210221   3.760   0.944   5.074
 3108SOL     OW10222   1.748   5.743   4.268
 3108SOL    HW110223   1.740   5.839   4.293
 3108SOL    HW210224   1.769   5.735   4.170
 3109SOL     OW10225   5.692   6.182   3.672
 3109SOL    HW110226   5.652   6.272   3.654
 3109SOL    HW210227   5.786   6.180   3.640
 3110SOL     OW10228   1.043   3.319   3.152
 3110SOL    HW110229   1.061   3.276   3.241
 3110SOL    HW210230   0.945   3.339   3.144
 3111SOL     OW10231   0.084   4.533   3.015
 3111SOL    HW110232   7.017   4.573   2.983
 3111SOL    HW210233   0.105   4.452   2.960
 3112SOL     OW10234   3.440   2.795   6.857
 3112SOL    HW110235   3.353   2.831   6.825
 3112SOL    HW210236   3.424   2.733   6.934
 3113SOL     OW10237   3.117   4.944   3.444
 3113SOL    HW110238   3.049   5.017   3.452
 3113SOL    HW210239   3.177   4.945   3.524
 3114SOL     OW10240   3.796   1.829   0.545
 3114SOL    HW110241   3.888   1.804   0.574
 3114SOL    HW210242   3.800   1.908   0.483
 3115SOL     OW10243   4.410   4.549   6.313
 3115SOL    HW110244   4.470   4.471   6.297
 3115SOL    HW210245   4.459   4.634   6.293
 3116SOL     OW10246   6.876   2.789   0.345
 3116SOL    HW110247   6.939   2.816   0.272
 3116SOL    HW210248   6.852   2.870   0.400
 3117SOL     OW10249   4.709   3.852   5.317
 3117SOL    HW110250   4.750   3.779   5.263
 3117SOL    HW210251   4.779   3.899   5.370
 3118SOL     OW10252   0.508   5.542   2.035
 3118SOL    HW110253   0.420   5.560   2.079
 3118SOL    HW210254   0.536   5.622   1.982
 3119SOL     OW10255   2.013   2.906   0.016
 3119SOL    HW110256   2.039   2.954   0.100
 3119SOL    HW210257   2.088   2.847   7.006
 3120SOL     OW10258   3.033   0.190   6.406
 3120SOL    HW110259   3.054   0.188   6.308
 3120SOL    HW210260   3.001   0.281   6.432
 3121SOL     OW10261   0.149   1.038   4.276
 3121SOL    HW110262   0.099   1.006   4.356
 3121SOL    HW210263   0.110   0.997   4.194
 3122SOL     OW10264   4.240   5.739   6.336
 3122SOL    HW110265   4.236   5.706   6.242
 3122SOL    HW210266   4.329   5.783   6.352
 3123SOL     OW10267   2.271   2.132   2.790
 3123SOL    HW110268   2.235   2.053   2.739
 3123SOL    HW210269   2.298   2.203   2.725
 3124SOL     OW10270   5.034   6.411   4.947
 3124SOL    HW110271   4.941   6.444   4.962
 3124SOL    HW210272   5.068   6.443   4.858
 3125SOL     OW10273   0.747   3.309   5.428
 3125SOL    HW110274   0.699   3.397   5.426
 3125SOL    HW210275   0.829   3.314   5.370
 3126SOL     OW10276   5.754   4.119   5.522
 3126SOL    HW110277   5.669   4.072   5.547
 3126SOL    HW210278   5.832   4.060   5.544
 3127SOL     OW10279   2.104   2.628   6.351
 3127SOL    HW110280   2.112   2.713   6.403
 3127SOL    HW210281   2.018   2.583   6.375
 3128SOL     OW10282   2.661   0.424   6.373
 3128SOL    HW110283   2.694   0.492   6.307
 3128SOL    HW210284   2.722   0.423   6.452
 3129SOL     OW10285   6.308   3.578   6.842
 3129SOL    HW110286   6.385   3.602   6.782
 3129SOL    HW210287   6.325   3.489   6.884
 3130SOL     OW10288   2.111   4.542   2.285
 3130SOL    HW110289   2.014   4.544   2.260
 3130SOL    HW210290   2.121   4.557   2.383
 3131SOL     OW10291   0.197   3.161   1.614
 3131SOL    HW110292   0.157   3.116   1.534
 3131SOL    HW210293   0.126   3.177   1.683
 3132SOL     OW10294   4.279   5.346   6.188
 3132SOL    HW110295   4.226   5.269   6.222
 3132SOL    HW210296   4.354   5.365   6.251
 3133SOL     OW10297   2.785   0.661   3.416
 3133SOL    HW110298   2.821   0.653   3.323
 3133SOL    HW210299   2.851   0.624   3.481
 3134SOL     OW10300   4.490   3.843   1.562
 3134SOL    HW110301   4.535   3.803   1.482
 3134SOL    HW210302   4.490   3.943   1.554
 3135SOL     OW10303   4.098   0.338   5.933
 3135SOL    HW110304   4.173   0.402   5.949
 3135SOL    HW210305   4.013   0.378   5.968
 3136SOL     OW10306   5.390   0.290   2.330
 3136SOL    HW110307   5.468   0.327   2.381
 3136SOL    HW210308   5.321   0.361   2.320
 3137SOL     OW10309   6.337   0.574   2.800
 3137SOL    HW110310   6.380   0.659   2.771
 3137SOL    HW210311   6.368   0.499   2.741
 3138SOL     OW10312   0.111   5.255   3.022
 3138SOL    HW110313   0.115   5.328   3.090
 3138SOL    HW210314   0.082   5.293   2.934
 3139SOL     OW10315   4.327   5.507   0.314
 3139SOL    HW110316   4.271   5.427   0.331
 3139SOL    HW210317   4.369   5.500   0.223
 3140SOL     OW10318   6.995   6.238   0.309
 3140SOL    HW110319   6.951   6.327   0.320
 3140SOL    HW210320   6.992   6.211   0.213
 3141SOL     OW10321   1.019   0.160   6.822
 3141SOL    HW110322   1.088   0.121   6.761
 3141SOL    HW210323   0.973   0.236   6.776
 3142SOL     OW10324   3.441   6.952   2.779
 3142SOL    HW110325   3.392   7.018   2.836
 3142SOL    HW210326   3.452   6.989   2.687
 3143SOL     OW10327   6.530   2.082   0.609
 3143SOL    HW110328   6.577   2.018   0.548
 3143SOL    HW210329   6.583   2.092   0.693
 3144SOL     OW10330   4.152   3.461   0.943
 3144SOL    HW110331   4.245   3.495   0.957
 3144SOL    HW210332   4.088   3.537   0.947
 3145SOL     OW10333   2.362   6.022   2.347
 3145SOL    HW110334   2.353   5.993   2.442
 3145SOL    HW210335   2.295   6.094   2.327
 3146SOL     OW10336   0.862   1.536   4.344
 3146SOL    HW110337   0.933   1.467   4.349
 3146SOL    HW210338   0.780   1.496   4.302
 3147SOL     OW10339   2.918   5.666   0.854
 3147SOL    HW110340   2.963   5.713   0.930
 3147SOL    HW210341   2.904   5.570   0.878
 3148SOL     OW10342   6.371   7.012   3.742
 3148SOL    HW110343   6.315   0.001   3.660
 3148SOL    HW210344   6.415   6.922   3.743
 3149SOL     OW10345   3.545   0.434   5.815
 3149SOL    HW110346   3.580   0.524   5.787
 3149SOL    HW210347   3.447   0.439   5.830
 3150SOL     OW10348   6.739   5.549   5.246
 3150SOL    HW110349   6.684   5.467   5.234
 3150SOL    HW210350   6.681   5.626   5.272
 3151SOL     OW10351   0.277   0.756   4.605
 3151SOL    HW110352   0.238   0.810   4.680
 3151SOL    HW210353   0.356   0.705   4.637
 3152SOL     OW10354   0.800   5.620   1.294
 3152SOL    HW110355   0.723   5.557   1.283
 3152SOL    HW210356   0.795   5.664   1.384
 3153SOL     OW10357   6.186   5.383   0.762
 3153SOL    HW110358   6.167   5.317   0.835
 3153SOL    HW210359   6.261   5.443   0.790
 3154SOL     OW10360   0.564   1.539   6.449
 3154SOL    HW110361   0.497   1.495   6.509
 3154SOL    HW210362   0.654   1.497   6.464
 3155SOL     OW10363   6.646   4.184   0.576
 3155SOL    HW110364   6.568   4.121   0.567
 3155SOL    HW210365   6.656   4.237   0.492
 3156SOL     OW10366   3.548   2.960   2.641
 3156SOL    HW110367   3.524   2.910   2.725
 3156SOL    HW210368   3.599   3.043   2.665
 3157SOL     OW10369   2.402   1.461   4.812
 3157SOL    HW110370   2.440   1.551   4.835
 3157SOL    HW210371   2.462   1.389   4.847
 3158SOL     OW10372   3.483   1.407   3.470
 3158SOL    HW110373   3.455   1.351   3.548
 3158SOL    HW210374   3.447   1.499   3.481
 3159SOL     OW10375   6.113   0.727   0.161
 3159SOL    HW110376   6.058   0.803   0.195
 3159SOL    HW210377   6.075   0.641   0.194
 3160SOL     OW10378   0.543   6.146   5.693
 3160SOL    HW110379   0.494   6.073   5.646
 3160SOL    HW210380   0.640   6.123   5.699
 3161SOL     OW10381   2.291   2.648   3.042
 3161SOL    HW110382   2.266   2.703   2.963
 3161SOL    HW210383   2.253   2.557   3.034
 3162SOL     OW10384   1.325   5.739   1.626
 3162SOL    HW110385   1.243   5.795   1.611
 3162SOL    HW210386   1.299   5.642   1.627
 3163SOL     OW10387   4.515   3.024   6.676
 3163SOL    HW110388   4.576   3.101   6.656
 3163SOL    HW210389   4.423   3.059   6.693
 3164SOL     OW10390   4.118   5.938   1.213
 3164SOL    HW110391   4.037   5.979   1.255
 3164SOL    HW210392   4.097   5.911   1.119
 3165SOL     OW10393   1.207   0.051   1.049
 3165SOL    HW110394   1.118   0.038   1.092
 3165SOL    HW210395   1.278   0.047   1.120
 3166SOL     OW10396   4.054   1.661   4.275
 3166SOL    HW110397   4.090   1.627   4.362
 3166SOL    HW210398   3.988   1.595   4.238
 3167SOL     OW10399   6.506   4.538   0.640
 3167SOL    HW110400   6.552   4.567   0.556
 3167SOL    HW210401   6.575   4.510   0.707
 3168SOL     OW10402   4.952   3.015   0.545
 3168SOL    HW110403   4.858   2.981   0.551
 3168SOL    HW210404   4.982   3.017   0.450
 3169SOL     OW10405   1.706   4.282   4.260
 3169SOL    HW110406   1.703   4.302   4.162
 3169SOL    HW210407   1.666   4.358   4.311
 3170SOL     OW10408   4.416   5.988   1.399
 3170SOL    HW110409   4.489   5.958   1.338
 3170SOL    HW210410   4.443   6.071   1.447
 3171SOL     OW10411   0.113   1.060   2.567
 3171SOL    HW110412   0.045   1.133   2.567
 3171SOL    HW210413   0.069   0.974   2.593
 3172SOL     OW10414   0.191   5.796   0.627
 3172SOL    HW110415   0.219   5.790   0.532
 3172SOL    HW210416   0.212   5.710   0.674
 3173SOL     OW10417   3.060   2.074   0.342
 3173SOL    HW110418   3.119   2.123   0.277
 3173SOL    HW210419   3.051   2.127   0.426
 3174SOL     OW10420   2.999   2.367   0.460
 3174SOL    HW110421   2.944   2.346   0.541
 3174SOL    HW210422   3.094   2.383   0.488
 3175SOL     OW10423   6.299   0.563   1.574
 3175SOL    HW110424   6.340   0.651   1.595
 3175SOL    HW210425   6.203   0.563   1.603
 3176SOL     OW10426   1.623   4.001   6.135
 3176SOL    HW110427   1.554   4.060   6.177
 3176SOL    HW210428   1.688   3.971   6.205
 3177SOL     OW10429   4.937   3.959   3.695
 3177SOL    HW110430   5.035   3.973   3.704
 3177SOL    HW210431   4.907   3.888   3.759
 3178SOL     OW10432   6.272   2.507   0.302
 3178SOL    HW110433   6.353   2.497   0.244
 3178SOL    HW210434   6.300   2.533   0.394
 3179SOL     OW10435   1.040   2.798   2.344
 3179SOL    HW110436   1.111   2.728   2.353
 3179SOL    HW210437   1.065   2.878   2.399
 3180SOL     OW10438   5.602   0.666   6.749
 3180SOL    HW110439   5.505   0.646   6.737
 3180SOL    HW210440   5.648   0.667   6.660
 3181SOL     OW10441   0.061   2.329   3.105
 3181SOL    HW110442   0.104   2.282   3.028
 3181SOL    HW210443   0.001   2.401   3.071
 3182SOL     OW10444   2.591   0.552   6.691
 3182SOL    HW110445   2.636   0.629   6.737
 3182SOL    HW210446   2.653   0.474   6.689
 3183SOL     OW10447   5.245   4.074   2.115
 3183SOL    HW110448   5.169   4.072   2.050
 3183SOL    HW210449   5.209   4.086   2.207
 3184SOL     OW10450   0.923   3.518   2.918
 3184SOL    HW110451   1.005   3.518   2.975
 3184SOL    HW210452   0.846   3.480   2.969
 3185SOL     OW10453   5.126   5.699   6.543
 3185SOL    HW110454   5.199   5.764   6.562
 3185SOL    HW210455   5.051   5.746   6.497
 3186SOL     OW10456   3.796   1.982   1.363
 3186SOL    HW110457   3.716   2.032   1.396
 3186SOL    HW210458   3.780   1.951   1.270
 3187SOL     OW10459   4.714   4.563   0.744
 3187SOL    HW110460   4.683   4.470   0.721
 3187SOL    HW210461   4.653   4.630   0.703
 3188SOL     OW10462   1.720   0.247   4.069
 3188SOL    HW110463   1.677   0.303   4.139
 3188SOL    HW210464   1.807   0.288   4.042
 3189SOL     OW10465   1.586   1.520   1.487
 3189SOL    HW110466   1.514   1.493   1.423
 3189SOL    HW210467   1.592   1.452   1.560
 3190SOL     OW10468   0.530   5.517   0.055
 3190SOL    HW110469   0.462   5.444   0.061
 3190SOL    HW210470   0.620   5.477   0.038
 3191SOL     OW10471   4.954   5.626   0.933
 3191SOL    HW110472   4.923   5.540   0.893
 3191SOL    HW210473   4.973   5.613   1.030
 3192SOL     OW10474   0.509   2.932   1.843
 3192SOL    HW110475   0.583   2.995   1.867
 3192SOL    HW210476   0.536   2.839   1.867
 3193SOL     OW10477   3.728   1.063   6.956
 3193SOL    HW110478   3.658   1.104   6.898
 3193SOL    HW210479   3.817   1.104   6.935
 3194SOL     OW10480   1.590   2.179   6.437
 3194SOL    HW110481   1.551   2.088   6.449
 3194SOL    HW210482   1.684   2.171   6.405
 3195SOL     OW10483   3.149   1.034   3.259
 3195SOL    HW110484   3.085   1.108   3.241
 3195SOL    HW210485   3.197   1.010   3.174
 3196SOL     OW10486   0.535   0.392   6.279
 3196SOL    HW110487   0.530   0.359   6.373
 3196SOL    HW210488   0.526   0.492   6.279
 3197SOL     OW10489   2.901   6.680   3.781
 3197SOL    HW110490   2.812   6.702   3.742
 3197SOL    HW210491   2.917   6.581   3.775
 3198SOL     OW10492   6.228   2.790   4.615
 3198SOL    HW110493   6.213   2.736   4.532
 3198SOL    HW210494   6.140   2.808   4.659
 3199SOL     OW10495   5.132   4.133   2.417
 3199SOL    HW110496   5.222   4.175   2.417
 3199SOL    HW210497   5.069   4.187   2.473
 3200SOL     OW10498   6.321   3.156   2.299
 3200SOL    HW110499   6.387   3.084   2.322
 3200SOL    HW210500   6.231   3.115   2.284
 3201SOL     OW10501   6.143   5.034   4.257
 3201SOL    HW110502   6.085   5.073   4.329
 3201SOL    HW210503   6.090   5.024   4.173
 3202SOL     OW10504   0.666   4.572   1.987
 3202SOL    HW110505   0.754   4.579   2.032
 3202SOL    HW210506   0.595   4.611   2.046
 3203SOL     OW10507   6.455   2.262   0.290
 3203SOL    HW110508   6.378   2.221   0.241
 3203SOL    HW210509   6.516   2.189   0.323
 3204SOL     OW10510   4.351   6.415   3.325
 3204SOL    HW110511   4.307   6.493   3.280
 3204SOL    HW210512   4.326   6.331   3.278
 3205SOL     OW10513   6.475   2.447   6.292
 3205SOL    HW110514   6.383   2.411   6.281
 3205SOL    HW210515   6.498   2.449   6.390
 3206SOL     OW10516   1.578   5.168   6.700
 3206SOL    HW110517   1.667   5.137   6.666
 3206SOL    HW210518   1.532   5.221   6.628
 3207SOL     OW10519   0.926   0.823   6.068
 3207SOL    HW110520   0.841   0.857   6.027
 3207SOL    HW210521   0.966   0.754   6.009
 3208SOL     OW10522   4.579   5.849   5.998
 3208SOL    HW110523   4.642   5.801   5.937
 3208SOL    HW210524   4.541   5.929   5.951
 3209SOL     OW10525   4.326   5.680   3.499
 3209SOL    HW110526   4.269   5.606   3.535
 3209SOL    HW210527   4.284   5.715   3.415
 3210SOL     OW10528   0.858   4.880   1.490
 3210SOL    HW110529   0.885   4.903   1.584
 3210SOL    HW210530   0.820   4.788   1.488
 3211SOL     OW10531   1.883   3.624   1.020
 3211SOL    HW110532   1.848   3.639   1.113
 3211SOL    HW210533   1.871   3.707   0.966
 3212SOL     OW10534   3.042   0.404   1.132
 3212SOL    HW110535   3.044   0.497   1.169
 3212SOL    HW210536   2.956   0.391   1.082
 3213SOL     OW10537   1.256   6.602   1.220
 3213SOL    HW110538   1.215   6.538   1.154
 3213SOL    HW210539   1.284   6.552   1.302
 3214SOL     OW10540   4.528   5.132   0.523
 3214SOL    HW110541   4.444   5.186   0.529
 3214SOL    HW210542   4.551   5.096   0.614
 3215SOL     OW10543   6.870   2.998   1.364
 3215SOL    HW110544   6.849   3.051   1.447
 3215SOL    HW210545   6.789   2.994   1.306
 3216SOL     OW10546   6.553   5.115   0.155
 3216SOL    HW110547   6.521   5.172   0.230
 3216SOL    HW210548   6.557   5.020   0.185
 3217SOL     OW10549   6.730   5.547   2.604
 3217SOL    HW110550   6.678   5.468   2.636
 3217SOL    HW210551   6.782   5.585   2.681
 3218SOL     OW10552   4.303   2.025   3.515
 3218SOL    HW110553   4.359   2.102   3.482
 3218SOL    HW210554   4.239   1.998   3.443
 3219SOL     OW10555   0.144   2.438   3.523
 3219SOL    HW110556   0.210   2.433   3.448
 3219SOL    HW210557   0.116   2.345   3.548
 3220SOL     OW10558   6.859   5.308   6.551
 3220SOL    HW110559   6.881   5.331   6.456
 3220SOL    HW210560   6.759   5.305   6.562
 3221SOL     OW10561   3.848   0.941   1.831
 3221SOL    HW110562   3.793   0.912   1.909
 3221SOL    HW210563   3.919   1.004   1.862
 3222SOL     OW10564   3.420   1.770   2.425
 3222SOL    HW110565   3.370   1.702   2.477
 3222SOL    HW210566   3.405   1.755   2.327
 3223SOL     OW10567   1.982   0.005   6.426
 3223SOL    HW110568   1.894   0.026   6.382
 3223SOL    HW210569   2.005   6.928   6.411
 3224SOL     OW10570   4.263   4.000   6.039
 3224SOL    HW110571   4.208   3.934   5.988
 3224SOL    HW210572   4.271   3.970   6.134
 3225SOL     OW10573   5.222   2.747   6.683
 3225SOL    HW110574   5.158   2.708   6.616
 3225SOL    HW210575   5.307   2.695   6.682
 3226SOL     OW10576   2.343   1.553   3.195
 3226SOL    HW110577   2.255   1.601   3.197
 3226SOL    HW210578   2.338   1.471   3.252
 3227SOL     OW10579   3.266   2.471   0.016
 3227SOL    HW110580   3.184   2.416   0.035
 3227SOL    HW210581   3.327   2.468   0.095
 3228SOL     OW10582   6.952   4.193   2.691
 3228SOL    HW110583   6.942   4.211   2.593
 3228SOL    HW210584   6.904   4.264   2.743
 3229SOL     OW10585   4.173   0.310   4.567
 3229SOL    HW110586   4.132   0.219   4.568
 3229SOL    HW210587   4.126   0.367   4.499
 3230SOL     OW10588   2.055   3.692   5.420
 3230SOL    HW110589   2.115   3.625   5.464
 3230SOL    HW210590   1.995   3.646   5.355
 3231SOL     OW10591   2.859   1.208   1.385
 3231SOL    HW110592   2.840   1.282   1.449
 3231SOL    HW210593   2.957   1.206   1.364
 3232SOL     OW10594   4.883   5.611   5.056
 3232SOL    HW110595   4.926   5.630   5.144
 3232SOL    HW210596   4.787   5.637   5.060
 3233SOL     OW10597   1.047   2.755   1.590
 3233SOL    HW110598   0.983   2.778   1.664
 3233SOL    HW210599   1.005   2.775   1.502
 3234SOL     OW10600   0.086   1.615   0.116
 3234SOL    HW110601   0.174   1.649   0.084
 3234SOL    HW210602   0.013   1.650   0.057
 3235SOL     OW10603   5.628   0.830   2.146
 3235SOL    HW110604   5.602   0.734   2.137
 3235SOL    HW210605   5.618   0.859   2.241
 3236SOL     OW10606   1.786   3.465   0.315
 3236SOL    HW110607   1.690   3.474   0.340
 3236SOL    HW210608   1.827   3.391   0.368
 3237SOL     OW10609   4.898   1.265   4.044
 3237SOL    HW110610   4.990   1.236   4.069
 3237SOL    HW210611   4.873   1.224   3.956
 3238SOL     OW10612   6.850   5.619   0.817
 3238SOL    HW110613   6.869   5.657   0.726
 3238SOL    HW210614   6.785   5.544   0.810
 3239SOL     OW10615   6.818   1.600   2.068
 3239SOL    HW110616   6.729   1.578   2.029
 3239SOL    HW210617   6.886   1.535   2.035
 3240SOL     OW10618   0.011   6.839   6.575
 3240SOL    HW110619   7.015   6.870   6.669
 3240SOL    HW210620   6.995   6.907   6.511
 3241SOL     OW10621   4.256   1.796   5.146
 3241SOL    HW110622   4.172   1.811   5.199
 3241SOL    HW210623   4.306   1.718   5.183
 3242SOL     OW10624   4.007   4.021   6.788
 3242SOL    HW110625   3.962   4.104   6.755
 3242SOL    HW210626   3.998   4.014   6.887
 3243SOL     OW10627   4.178   4.238   0.707
 3243SOL    HW110628   4.189   4.327   0.751
 3243SOL    HW210629   4.113   4.246   0.632
 3244SOL     OW10630   4.803   5.336   0.149
 3244SOL    HW110631   4.714   5.306   0.185
 3244SOL    HW210632   4.814   5.302   0.056
 3245SOL     OW10633   5.282   3.097   5.087
 3245SOL    HW110634   5.336   3.105   5.003
 3245SOL    HW210635   5.244   3.005   5.093
 3246SOL     OW10636   5.629   0.119   2.465
 3246SOL    HW110637   5.717   0.097   2.506
 3246SOL    HW210638   5.622   0.217   2.448
 3247SOL     OW10639   5.774   4.979   2.757
 3247SOL    HW110640   5.709   4.905   2.746
 3247SOL    HW210641   5.725   5.063   2.781
 3248SOL     OW10642   6.116   3.793   0.954
 3248SOL    HW110643   6.046   3.731   0.990
 3248SOL    HW210644   6.202   3.778   1.003
 3249SOL     OW10645   4.067   3.398   4.384
 3249SOL    HW110646   3.968   3.408   4.386
 3249SOL    HW210647   4.103   3.405   4.477
 3250SOL     OW10648   5.300   6.689   1.740
 3250SOL    HW110649   5.312   6.729   1.831
 3250SOL    HW210650   5.209   6.713   1.705
 3251SOL     OW10651   3.277   0.556   3.510
 3251SOL    HW110652   3.246   0.580   3.418
 3251SOL    HW210653   3.272   0.458   3.524
 3252SOL     OW10654   2.258   1.287   2.900
 3252SOL    HW110655   2.213   1.317   2.985
 3252SOL    HW210656   2.218   1.336   2.823
 3253SOL     OW10657   4.989   4.383   1.925
 3253SOL    HW110658   4.983   4.377   2.025
 3253SOL    HW210659   5.025   4.298   1.888
 3254SOL     OW10660   4.768   5.805   5.375
 3254SOL    HW110661   4.767   5.900   5.406
 3254SOL    HW210662   4.860   5.780   5.345
 3255SOL     OW10663   5.616   5.890   0.248
 3255SOL    HW110664   5.519   5.912   0.237
 3255SOL    HW210665   5.666   5.919   0.167
 3256SOL     OW10666   3.213   1.346   0.824
 3256SOL    HW110667   3.126   1.321   0.783
 3256SOL    HW210668   3.236   1.440   0.798
 3257SOL     OW10669   1.625   1.928   2.145
 3257SOL    HW110670   1.695   1.859   2.161
 3257SOL    HW210671   1.591   1.962   2.233
 3258SOL     OW10672   4.327   4.622   1.755
 3258SOL    HW110673   4.347   4.527   1.731
 3258SOL    HW210674   4.229   4.634   1.769
 3259SOL     OW10675   5.002   5.506   4.285
 3259SOL    HW110676   4.913   5.544   4.259
 3259SOL    HW210677   5.074   5.572   4.265
 3260SOL     OW10678   1.634   2.188   1.113
 3260SOL    HW110679   1.685   2.272   1.097
 3260SOL    HW210680   1.697   2.112   1.127
 3261SOL     OW10681   5.900   0.391   0.970
 3261SOL    HW110682   5.835   0.406   1.044
 3261SOL    HW210683   5.850   0.368   0.886
 3262SOL     OW10684   3.287   1.762   2.918
 3262SOL    HW110685   3.228   1.753   2.838
 3262SOL    HW210686   3.351   1.686   2.921
 3263SOL     OW10687   2.453   0.685   3.442
 3263SOL    HW110688   2.380   0.752   3.455
 3263SOL    HW210689   2.466   0.633   3.527
 3264SOL     OW10690   1.402   4.179   1.018
 3264SOL    HW110691   1.380   4.082   1.008
 3264SOL    HW210692   1.474   4.190   1.086
 3265SOL     OW10693   5.807   0.759   6.221
 3265SOL    HW110694   5.807   0.802   6.312
 3265SOL    HW210695   5.830   0.827   6.152
 3266SOL     OW10696   2.047   4.016   0.606
 3266SOL    HW110697   1.996   4.089   0.560
 3266SOL    HW210698   2.069   3.944   0.540
 3267SOL     OW10699   3.615   6.868   0.631
 3267SOL    HW110700   3.526   6.849   0.590
 3267SOL    HW210701   3.602   6.898   0.726
 3268SOL     OW10702   1.358   3.343   1.021
 3268SOL    HW110703   1.349   3.278   0.945
 3268SOL    HW210704   1.286   3.412   1.014
 3269SOL     OW10705   4.789   5.718   2.402
 3269SOL    HW110706   4.748   5.645   2.347
 3269SOL    HW210707   4.775   5.699   2.499
 3270SOL     OW10708   1.006   4.317   6.368
 3270SOL    HW110709   1.078   4.272   6.421
 3270SOL    HW210710   0.960   4.384   6.425
 3271SOL     OW10711   5.724   4.010   2.786
 3271SOL    HW110712   5.755   4.104   2.775
 3271SOL    HW210713   5.709   3.992   2.883
 3272SOL     OW10714   3.400   4.763   6.168
 3272SOL    HW110715   3.427   4.687   6.227
 3272SOL    HW210716   3.396   4.732   6.073
 3273SOL     OW10717   0.895   6.431   0.768
 3273SOL    HW110718   0.876   6.479   0.682
 3273SOL    HW210719   0.821   6.367   0.787
 3274SOL     OW10720   5.001   0.477   0.934
 3274SOL    HW110721   5.044   0.485   1.024
 3274SOL    HW210722   4.990   0.568   0.894
 3275SOL     OW10723   6.653   1.655   6.420
 3275SOL    HW110724   6.586   1.586   6.449
 3275SOL    HW210725   6.612   1.715   6.352
 3276SOL     OW10726   2.404   5.911   0.316
 3276SOL    HW110727   2.324   5.879   0.367
 3276SOL    HW210728   2.477   5.844   0.322
 3277SOL     OW10729   3.882   6.645   6.874
 3277SOL    HW110730   3.788   6.613   6.881
 3277SOL    HW210731   3.945   6.569   6.889
 3278SOL     OW10732   0.979   1.323   5.535
 3278SOL    HW110733   0.989   1.372   5.621
 3278SOL    HW210734   0.959   1.388   5.462
 3279SOL     OW10735   5.593   0.371   6.871
 3279SOL    HW110736   5.606   0.326   6.783
 3279SOL    HW210737   5.659   0.446   6.881
 3280SOL     OW10738   4.036   4.836   4.616
 3280SOL    HW110739   3.974   4.889   4.558
 3280SOL    HW210740   3.983   4.791   4.688
 3281SOL     OW10741   2.048   5.568   1.997
 3281SOL    HW110742   1.975   5.629   1.964
 3281SOL    HW210743   2.064   5.496   1.930
 3282SOL     OW10744   0.220   4.662   5.579
 3282SOL    HW110745   0.151   4.651   5.651
 3282SOL    HW210746   0.223   4.757   5.551
 3283SOL     OW10747   3.916   0.951   0.833
 3283SOL    HW110748   3.883   0.943   0.739
 3283SOL    HW210749   3.983   1.025   0.839
 3284SOL     OW10750   0.022   5.250   0.214
 3284SOL    HW110751   0.094   5.311   0.182
 3284SOL    HW210752   0.058   5.192   0.287
 3285SOL     OW10753   4.873   2.558   3.259
 3285SOL    HW110754   4.849   2.635   3.200
 3285SOL    HW210755   4.971   2.538   3.248
 3286SOL     OW10756   3.680   3.275   2.734
 3286SOL    HW110757   3.751   3.211   2.763
 3286SOL    HW210758   3.723   3.358   2.698
 3287SOL     OW10759   0.424   0.428   0.008
 3287SOL    HW110760   0.364   0.507   0.003
 3287SOL    HW210761   0.504   0.449   0.064
 3288SOL     OW10762   0.642   5.495   6.020
 3288SOL    HW110763   0.683   5.413   6.060
 3288SOL    HW210764   0.645   5.570   6.086
 3289SOL     OW10765   2.600   6.670   6.016
 3289SOL    HW110766   2.584   6.755   5.966
 3289SOL    HW210767   2.684   6.678   6.069
 3290SOL     OW10768   0.436   0.102   1.874
 3290SOL    HW110769   0.525   0.085   1.916
 3290SOL    HW210770   0.428   0.199   1.851
 3291SOL     OW10771   1.641   6.870   0.776
 3291SOL    HW110772   1.608   6.928   0.702
 3291SOL    HW210773   1.628   6.916   0.864
 3292SOL     OW10774   0.741   0.963   0.665
 3292SOL    HW110775   0.815   0.895   0.662
 3292SOL    HW210776   0.762   1.032   0.733
 3293SOL     OW10777   0.244   3.361   2.217
 3293SOL    HW110778   0.149   3.353   2.187
 3293SOL    HW210779   0.304   3.311   2.154
 3294SOL     OW10780   6.325   1.421   6.942
 3294SOL    HW110781   6.387   1.470   6.881
 3294SOL    HW210782   6.368   1.337   6.973
 3295SOL     OW10783   1.523   2.944   2.345
 3295SOL    HW110784   1.611   2.992   2.345
 3295SOL    HW210785   1.476   2.962   2.432
 3296SOL     OW10786   1.715   6.921   2.164
 3296SOL    HW110787   1.717   6.843   2.226
 3296SOL    HW210788   1.781   6.990   2.195
 3297SOL     OW10789   2.724   0.521   4.350
 3297SOL    HW110790   2.639   0.573   4.360
 3297SOL    HW210791   2.789   0.574   4.296
 3298SOL     OW10792   5.740   1.508   4.881
 3298SOL    HW110793   5.770   1.570   4.953
 3298SOL    HW210794   5.729   1.416   4.919
 3299SOL     OW10795   2.715   5.562   3.310
 3299SOL    HW110796   2.621   5.544   3.340
 3299SOL    HW210797   2.772   5.583   3.389
 3300SOL     OW10798   6.566   0.583   5.470
 3300SOL    HW110799   6.478   0.590   5.517
 3300SOL    HW210800   6.588   0.670   5.425
 3301SOL     OW10801   1.796   2.804   3.551
 3301SOL    HW110802   1.731   2.877   3.535
 3301SOL    HW210803   1.763   2.719   3.509
 3302SOL     OW10804   6.724   4.693   5.535
 3302SOL    HW110805   6.750   4.605   5.574
 3302SOL    HW210806   6.685   4.751   5.606
 3303SOL     OW10807   3.516   3.541   1.365
 3303SOL    HW110808   3.426   3.535   1.321
 3303SOL    HW210809   3.536   3.455   1.411
 3304SOL     OW10810   0.635   6.216   4.181
 3304SOL    HW110811   0.695   6.288   4.214
 3304SOL    HW210812   0.574   6.187   4.255
 3305SOL     OW10813   2.162   1.434   2.678
 3305SOL    HW110814   2.064   1.450   2.681
 3305SOL    HW210815   2.187   1.394   2.589
 3306SOL     OW10816   1.847   5.541   5.150
 3306SOL    HW110817   1.775   5.526   5.083
 3306SOL    HW210818   1.808   5.580   5.233
 3307SOL     OW10819   0.103   5.566   6.922
 3307SOL    HW110820   0.004   5.577   6.917
 3307SOL    HW210821   0.145   5.607   6.842
 3308SOL     OW10822   3.069   6.319   0.504
 3308SOL    HW110823   3.122   6.309   0.420
 3308SOL    HW210824   3.107   6.259   0.575
 3309SOL     OW10825   6.999   6.055   2.830
 3309SOL    HW110826   6.986   6.130   2.764
 3309SOL    HW210827   0.077   6.048   2.852
 3310SOL     OW10828   6.974   3.122   5.997
 3310SOL    HW110829   0.008   3.084   5.921
 3310SOL    HW210830   6.879   3.133   5.970
 3311SOL     OW10831   2.216   4.461   1.692
 3311SOL    HW110832   2.163   4.501   1.618
 3311SOL    HW210833   2.245   4.368   1.666
 3312SOL     OW10834   4.384   4.293   5.934
 3312SOL    HW110835   4.419   4.382   5.904
 3312SOL    HW210836   4.338   4.303   6.022
 3313SOL     OW10837   0.607   5.279   3.413
 3313SOL    HW110838   0.695   5.235   3.427
 3313SOL    HW210839   0.535   5.226   3.459
 3314SOL     OW10840   2.898   1.384   3.477
 3314SOL    HW110841   2.984   1.428   3.450
 3314SOL    HW210842   2.847   1.359   3.395
 3315SOL     OW10843   6.629   3.477   4.951
 3315SOL    HW110844   6.537   3.511   4.932
 3315SOL    HW210845   6.696   3.549   4.934
 3316SOL     OW10846   5.030   1.482   6.067
 3316SOL    HW110847   5.031   1.415   6.141
 3316SOL    HW210848   5.001   1.571   6.102
 3317SOL     OW10849   4.255   3.176   1.769
 3317SOL    HW110850   4.228   3.080   1.758
 3317SOL    HW210851   4.355   3.183   1.768
 3318SOL     OW10852   2.438   1.240   1.223
 3318SOL    HW110853   2.486   1.308   1.168
 3318SOL    HW210854   2.464   1.149   1.192
 3319SOL     OW10855   6.651   1.008   3.779
 3319SOL    HW110856   6.556   1.038   3.767
 3319SOL    HW210857   6.712   1.081   3.749
 3320SOL     OW10858   5.831   6.984   4.890
 3320SOL    HW110859   5.878   6.911   4.941
 3320SOL    HW210860   5.840   0.051   4.941
 3321SOL     OW10861   4.731   1.651   0.265
 3321SOL    HW110862   4.662   1.612   0.204
 3321SOL    HW210863   4.694   1.733   0.309
 3322SOL     OW10864   5.611   3.153   0.984
 3322SOL    HW110865   5.697   3.186   1.025
 3322SOL    HW210866   5.629   3.069   0.934
 3323SOL     OW10867   2.802   2.933   0.623
 3323SOL    HW110868   2.882   2.936   0.684
 3323SOL    HW210869   2.721   2.904   0.675
 3324SOL     OW10870   3.265   5.707   0.023
 3324SOL    HW110871   3.285   5.609   0.027
 3324SOL    HW210872   3.350   5.758   0.010
 3325SOL     OW10873   1.284   3.115   6.927
 3325SOL    HW110874   1.199   3.089   6.879
 3325SOL    HW210875   1.274   3.207   6.964
 3326SOL     OW10876   5.019   2.225   1.951
 3326SOL    HW110877   5.003   2.140   2.001
 3326SOL    HW210878   5.110   2.224   1.910
 3327SOL     OW10879   2.756   6.293   1.960
 3327SOL    HW110880   2.777   6.356   1.885
 3327SOL    HW210881   2.659   6.299   1.982
 3328SOL     OW10882   4.183   1.719   0.519
 3328SOL    HW110883   4.276   1.685   0.513
 3328SOL    HW210884   4.118   1.644   0.507
 3329SOL     OW10885   4.960   6.821   4.404
 3329SOL    HW110886   4.925   6.844   4.314
 3329SOL    HW210887   5.018   6.896   4.437
 3330SOL     OW10888   6.424   4.615   1.700
 3330SOL    HW110889   6.388   4.589   1.610
 3330SOL    HW210890   6.437   4.714   1.704
 3331SOL     OW10891   1.952   3.147   1.012
 3331SOL    HW110892   1.936   3.235   0.967
 3331SOL    HW210893   2.042   3.112   0.987
 3332SOL     OW10894   6.538   4.848   0.088
 3332SOL    HW110895   6.600   4.770   0.094
 3332SOL    HW210896   6.560   4.902   0.007
 3333SOL     OW10897   3.753   4.106   0.061
 3333SOL    HW110898   3.690   4.168   0.013
 3333SOL    HW210899   3.847   4.133   0.041
 3334SOL     OW10900   2.940   3.928   1.066
 3334SOL    HW110901   2.976   3.874   1.143
 3334SOL    HW210902   2.918   3.867   0.990
 3335SOL     OW10903   4.984   6.484   5.542
 3335SOL    HW110904   5.055   6.458   5.608
 3335SOL    HW210905   4.908   6.527   5.591
 3336SOL     OW10906   1.573   6.424   4.721
 3336SOL    HW110907   1.626   6.341   4.739
 3336SOL    HW210908   1.479   6.410   4.752
 3337SOL     OW10909   3.030   3.847   2.325
 3337SOL    HW110910   3.036   3.768   2.387
 3337SOL    HW210911   2.948   3.900   2.347
 3338SOL     OW10912   5.719   3.225   2.609
 3338SOL    HW110913   5.802   3.169   2.601
 3338SOL    HW210914   5.669   3.198   2.691
 3339SOL     OW10915   0.198   0.042   6.686
 3339SOL    HW110916   0.290   0.009   6.663
 3339SOL    HW210917   0.143   6.986   6.722
 3340SOL     OW10918   4.198   1.682   2.779
 3340SOL    HW110919   4.101   1.681   2.801
 3340SOL    HW210920   4.243   1.604   2.823
 3341SOL     OW10921   0.894   5.431   3.343
 3341SOL    HW110922   0.887   5.523   3.306
 3341SOL    HW210923   0.841   5.425   3.428
 3342SOL     OW10924   1.908   6.675   3.931
 3342SOL    HW110925   1.894   6.584   3.893
 3342SOL    HW210926   1.999   6.708   3.904
 3343SOL     OW10927   5.622   3.438   6.985
 3343SOL    HW110928   5.603   3.392   0.052
 3343SOL    HW210929   5.717   3.470   6.984
 3344SOL     OW10930   5.989   3.197   3.937
 3344SOL    HW110931   6.021   3.125   3.875
 3344SOL    HW210932   6.050   3.203   4.016
 3345SOL     OW10933   1.915   3.257   5.769
 3345SOL    HW110934   1.924   3.328   5.838
 3345SOL    HW210935   1.842   3.281   5.705
 3346SOL     OW10936   1.750   1.069   0.410
 3346SOL    HW110937   1.672   1.118   0.371
 3346SOL    HW210938   1.830   1.130   0.411
 3347SOL     OW10939   0.700   3.469   5.886
 3347SOL    HW110940   0.693   3.369   5.877
 3347SOL    HW210941   0.694   3.510   5.795
 3348SOL     OW10942   3.634   3.823   4.387
 3348SOL    HW110943   3.665   3.912   4.354
 3348SOL    HW210944   3.579   3.779   4.316
 3349SOL     OW10945   1.300   5.320   3.078
 3349SOL    HW110946   1.262   5.290   3.165
 3349SOL    HW210947   1.397   5.342   3.090
 3350SOL     OW10948   0.641   2.705   5.920
 3350SOL    HW110949   0.580   2.775   5.881
 3350SOL    HW210950   0.736   2.729   5.899
 3351SOL     OW10951   4.739   1.031   2.322
 3351SOL    HW110952   4.727   0.999   2.227
 3351SOL    HW210953   4.698   0.964   2.384
 3352SOL     OW10954   6.981   2.365   0.519
 3352SOL    HW110955   0.042   2.321   0.558
 3352SOL    HW210956   6.974   2.459   0.553
 3353SOL     OW10957   2.660   5.871   1.764
 3353SOL    HW110958   2.757   5.895   1.758
 3353SOL    HW210959   2.607   5.933   1.707
 3354SOL     OW10960   4.931   2.580   5.545
 3354SOL    HW110961   4.927   2.508   5.476
 3354SOL    HW210962   4.986   2.550   5.623
 3355SOL     OW10963   2.254   2.158   6.082
 3355SOL    HW110964   2.228   2.130   5.989
 3355SOL    HW210965   2.300   2.246   6.078
 3356SOL     OW10966   0.515   5.132   5.192
 3356SOL    HW110967   0.556   5.179   5.114
 3356SOL    HW210968   0.418   5.155   5.197
 3357SOL     OW10969   2.149   3.976   2.040
 3357SOL    HW110970   2.185   3.965   2.133
 3357SOL    HW210971   2.138   3.887   1.998
 3358SOL     OW10972   4.733   1.505   0.763
 3358SOL    HW110973   4.780   1.560   0.694
 3358SOL    HW210974   4.707   1.417   0.723
 3359SOL     OW10975   0.347   6.583   2.675
 3359SOL    HW110976   0.420   6.614   2.613
 3359SOL    HW210977   0.327   6.655   2.741
 3360SOL     OW10978   1.579   1.602   6.998
 3360SOL    HW110979   1.504   1.602   0.046
 3360SOL    HW210980   1.594   1.695   6.965
 3361SOL     OW10981   0.754   5.116   4.224
 3361SOL    HW110982   0.736   5.020   4.246
 3361SOL    HW210983   0.680   5.172   4.261
 3362SOL     OW10984   3.672   1.241   2.935
 3362SOL    HW110985   3.584   1.207   2.966
 3362SOL    HW210986   3.731   1.260   3.013
 3363SOL     OW10987   6.259   0.151   2.164
 3363SOL    HW110988   6.203   0.085   2.114
 3363SOL    HW210989   6.213   0.239   2.168
 3364SOL     OW10990   1.110   5.112   3.652
 3364SOL    HW110991   1.046   5.171   3.701
 3364SOL    HW210992   1.132   5.152   3.564
 3365SOL     OW10993   6.674   2.488   5.239
 3365SOL    HW110994   6.773   2.493   5.224
 3365SOL    HW210995   6.626   2.516   5.156
 3366SOL     OW10996   6.191   6.050   5.091
 3366SOL    HW110997   6.201   6.116   5.165
 3366SOL    HW210998   6.094   6.043   5.065
 3367SOL     OW10999   3.808   2.902   2.066
 3367SOL    HW111000   3.808   2.980   2.128
 3367SOL    HW211001   3.896   2.856   2.070
 3368SOL     OW11002   0.866   5.324   6.120
 3368SOL    HW111003   0.895   5.296   6.029
 3368SOL    HW211004   0.820   5.247   6.165
 3369SOL     OW11005   3.860   2.377   0.450
 3369SOL    HW111006   3.789   2.395   0.519
 3369SOL    HW211007   3.885   2.462   0.405
 3370SOL     OW11008   0.395   6.064   0.472
 3370SOL    HW111009   0.476   6.109   0.509
 3370SOL    HW211010   0.367   5.990   0.533
 3371SOL     OW11011   2.535   2.872   1.731
 3371SOL    HW111012   2.453   2.918   1.764
 3371SOL    HW211013   2.510   2.786   1.686
 3372SOL     OW11014   0.559   2.194   1.729
 3372SOL    HW111015   0.594   2.106   1.698
 3372SOL    HW211016   0.497   2.180   1.807
 3373SOL     OW11017   6.913   1.476   3.667
 3373SOL    HW111018   7.007   1.446   3.653
 3373SOL    HW211019   6.897   1.560   3.615
 3374SOL     OW11020   1.752   5.996   4.603
 3374SOL    HW111021   1.697   5.913   4.613
 3374SOL    HW211022   1.769   6.012   4.506
 3375SOL     OW11023   6.955   4.186   6.864
 3375SOL    HW111024   0.027   4.169   6.828
 3375SOL    HW211025   6.891   4.199   6.788
 3376SOL     OW11026   4.028   3.740   3.985
 3376SOL    HW111027   4.053   3.655   3.938
 3376SOL    HW211028   4.057   3.735   4.081
 3377SOL     OW11029   6.991   5.755   6.247
 3377SOL    HW111030   6.930   5.820   6.201
 3377SOL    HW211031   6.948   5.723   6.332
 3378SOL     OW11032   0.791   1.190   0.467
 3378SOL    HW111033   0.855   1.260   0.497
 3378SOL    HW211034   0.774   1.125   0.541
 3379SOL     OW11035   6.696   6.968   6.303
 3379SOL    HW111036   6.667   6.905   6.375
 3379SOL    HW211037   6.723   0.036   6.345
 3380SOL     OW11038   5.544   6.264   4.937
 3380SOL    HW111039   5.469   6.202   4.912
 3380SOL    HW211040   5.506   6.353   4.962
 3381SOL     OW11041   0.650   2.949   1.533
 3381SOL    HW111042   0.706   2.883   1.484
 3381SOL    HW211043   0.553   2.927   1.521
 3382SOL     OW11044   0.911   2.464   0.894
 3382SOL    HW111045   0.829   2.432   0.847
 3382SOL    HW211046   0.993   2.427   0.849
 3383SOL     OW11047   4.622   5.875   1.208
 3383SOL    HW111048   4.710   5.829   1.220
 3383SOL    HW211049   4.557   5.813   1.165
 3384SOL     OW11050   2.607   3.313   6.395
 3384SOL    HW111051   2.651   3.357   6.473
 3384SOL    HW211052   2.508   3.326   6.400
 3385SOL     OW11053   6.522   3.252   4.533
 3385SOL    HW111054   6.575   3.259   4.449
 3385SOL    HW211055   6.490   3.158   4.545
 3386SOL     OW11056   6.009   4.556   0.082
 3386SOL    HW111057   5.915   4.527   0.059
 3386SOL    HW211058   6.018   4.565   0.181
 3387SOL     OW11059   3.090   0.394   3.043
 3387SOL    HW111060   3.057   0.484   3.014
 3387SOL    HW211061   3.040   0.366   3.125
 3388SOL     OW11062   5.177   2.993   1.621
 3388SOL    HW111063   5.182   3.092   1.630
 3388SOL    HW211064   5.244   2.950   1.681
 3389SOL     OW11065   5.774   5.351   6.234
 3389SOL    HW111066   5.684   5.308   6.243
 3389SOL    HW211067   5.823   5.311   6.157
 3390SOL     OW11068   5.627   6.340   6.459
 3390SOL    HW111069   5.669   6.291   6.383
 3390SOL    HW211070   5.562   6.407   6.423
 3391SOL     OW11071   4.938   3.267   4.692
 3391SOL    HW111072   4.939   3.323   4.776
 3391SOL    HW211073   4.905   3.323   4.616
 3392SOL     OW11074   2.559   0.524   3.628
 3392SOL    HW111075   2.602   0.578   3.701
 3392SOL    HW211076   2.622   0.453   3.597
 3393SOL     OW11077   0.402   6.106   7.001
 3393SOL    HW111078   0.369   6.012   7.000
 3393SOL    HW211079   0.353   6.160   6.932
 3394SOL     OW11080   5.359   3.396   1.849
 3394SOL    HW111081   5.431   3.458   1.817
 3394SOL    HW211082   5.305   3.442   1.920
 3395SOL     OW11083   5.023   3.457   3.401
 3395SOL    HW111084   4.971   3.510   3.468
 3395SOL    HW211085   4.984   3.366   3.392
 3396SOL     OW11086   5.393   1.912   3.126
 3396SOL    HW111087   5.320   1.844   3.129
 3396SOL    HW211088   5.367   1.986   3.064
 3397SOL     OW11089   2.787   6.612   5.713
 3397SOL    HW111090   2.743   6.627   5.624
 3397SOL    HW211091   2.769   6.690   5.772
 3398SOL     OW11092   1.145   6.610   4.912
 3398SOL    HW111093   1.173   6.702   4.939
 3398SOL    HW211094   1.224   6.559   4.878
 3399SOL     OW11095   5.703   4.114   3.375
 3399SOL    HW111096   5.605   4.132   3.367
 3399SOL    HW211097   5.748   4.192   3.419
 3400SOL     OW11098   4.360   3.196   5.882
 3400SOL    HW111099   4.295   3.137   5.833
 3400SOL    HW211100   4.317   3.284   5.901
 3401SOL     OW11101   0.918   2.799   1.366
 3401SOL    HW111102   0.979   2.833   1.295
 3401SOL    HW211103   0.907   2.700   1.357
 3402SOL     OW11104   4.376   6.091   6.739
 3402SOL    HW111105   4.323   6.036   6.803
 3402SOL    HW211106   4.444   6.034   6.694
 3403SOL     OW11107   3.104   5.795   5.559
 3403SOL    HW111108   3.054   5.745   5.629
 3403SOL    HW211109   3.137   5.731   5.489
 3404SOL     OW11110   5.070   1.366   0.010
 3404SOL    HW111111   4.987   1.419   7.013
 3404SOL    HW211112   5.126   1.366   6.946
 3405SOL     OW11113   6.450   4.015   5.393
 3405SOL    HW111114   6.466   4.023   5.491
 3405SOL    HW211115   6.436   3.919   5.368
 3406SOL     OW11116   0.943   3.940   1.889
 3406SOL    HW111117   0.963   3.926   1.792
 3406SOL    HW211118   0.850   3.974   1.900
 3407SOL     OW11119   1.379   4.991   6.392
 3407SOL    HW111120   1.429   5.034   6.317
 3407SOL    HW211121   1.376   4.892   6.378
 3408SOL     OW11122   4.992   4.056   4.809
 3408SOL    HW111123   4.920   4.085   4.746
 3408SOL    HW211124   5.079   4.053   4.761
 3409SOL     OW11125   3.306   6.830   6.717
 3409SOL    HW111126   3.267   6.922   6.707
 3409SOL    HW211127   3.297   6.781   6.630
 3410SOL     OW11128   6.519   6.853   0.958
 3410SOL    HW111129   6.441   6.892   1.009
 3410SOL    HW211130   6.545   6.766   1.000
 3411SOL     OW11131   0.850   3.462   2.096
 3411SOL    HW111132   0.906   3.404   2.037
 3411SOL    HW211133   0.906   3.538   2.130
 3412SOL     OW11134   4.644   3.197   0.726
 3412SOL    HW111135   4.670   3.101   0.717
 3412SOL    HW211136   4.723   3.250   0.758
 3413SOL     OW11137   5.925   1.270   0.822
 3413SOL    HW111138   5.954   1.366   0.830
 3413SOL    HW211139   5.940   1.223   0.908
 3414SOL     OW11140   3.951   1.376   6.213
 3414SOL    HW111141   3.929   1.415   6.303
 3414SOL    HW211142   4.048   1.390   6.194
 3415SOL     OW11143   2.129   3.512   4.501
 3415SOL    HW111144   2.101   3.577   4.572
 3415SOL    HW211145   2.192   3.557   4.438
 3416SOL     OW11146   6.445   5.782   0.955
 3416SOL    HW111147   6.483   5.828   1.036
 3416SOL    HW211148   6.414   5.851   0.890
 3417SOL     OW11149   0.507   6.592   3.052
 3417SOL    HW111150   0.584   6.535   3.080
 3417SOL    HW211151   0.434   6.534   3.016
 3418SOL     OW11152   2.936   6.407   3.732
 3418SOL    HW111153   2.893   6.327   3.690
 3418SOL    HW211154   3.003   6.446   3.668
 3419SOL     OW11155   2.753   5.948   5.408
 3419SOL    HW111156   2.746   5.980   5.313
 3419SOL    HW211157   2.795   5.857   5.409
 3420SOL     OW11158   5.750   3.280   4.383
 3420SOL    HW111159   5.745   3.249   4.288
 3420SOL    HW211160   5.831   3.240   4.426
 3421SOL     OW11161   4.550   0.932   5.252
 3421SOL    HW111162   4.625   0.870   5.229
 3421SOL    HW211163   4.536   0.932   5.350
 3422SOL     OW11164   2.458   0.446   1.044
 3422SOL    HW111165   2.425   0.538   1.067
 3422SOL    HW211166   2.555   0.451   1.020
 3423SOL     OW11167   0.478   4.631   6.704
 3423SOL    HW111168   0.529   4.717   6.702
 3423SOL    HW211169   0.404   4.635   6.637
 3424SOL     OW11170   2.862   6.713   0.933
 3424SOL    HW111171   2.886   6.683   0.841
 3424SOL    HW211172   2.905   6.652   1.000
 3425SOL     OW11173   5.365   5.358   2.355
 3425SOL    HW111174   5.276   5.399   2.375
 3425SOL    HW211175   5.402   5.317   2.438
 3426SOL     OW11176   3.628   2.629   0.573
 3426SOL    HW111177   3.711   2.684   0.580
 3426SOL    HW211178   3.547   2.688   0.580
 3427SOL     OW11179   6.975   0.924   0.014
 3427SOL    HW111180   6.890   0.973   0.035
 3427SOL    HW211181   6.976   0.899   6.936
 3428SOL     OW11182   2.221   5.498   0.070
 3428SOL    HW111183   2.298   5.550   0.032
 3428SOL    HW211184   2.194   5.538   0.158
 3429SOL     OW11185   1.210   1.920   0.651
 3429SOL    HW111186   1.245   1.833   0.616
 3429SOL    HW211187   1.111   1.911   0.666
 3430SOL     OW11188   1.736   6.606   5.265
 3430SOL    HW111189   1.657   6.549   5.284
 3430SOL    HW211190   1.709   6.703   5.269
 3431SOL     OW11191   1.510   0.298   1.305
 3431SOL    HW111192   1.489   0.205   1.274
 3431SOL    HW211193   1.601   0.323   1.275
 3432SOL     OW11194   1.865   2.935   6.799
 3432SOL    HW111195   1.874   2.851   6.746
 3432SOL    HW211196   1.908   2.923   6.888
 3433SOL     OW11197   1.301   0.303   5.444
 3433SOL    HW111198   1.284   0.400   5.425
 3433SOL    HW211199   1.220   0.263   5.486
 3434SOL     OW11200   4.360   1.470   1.528
 3434SOL    HW111201   4.312   1.490   1.443
 3434SOL    HW211202   4.328   1.533   1.600
 3435SOL     OW11203   1.171   1.652   1.183
 3435SOL    HW111204   1.200   1.640   1.088
 3435SOL    HW211205   1.149   1.747   1.200
 3436SOL     OW11206   4.447   6.564   6.721
 3436SOL    HW111207   4.483   6.611   6.802
 3436SOL    HW211208   4.498   6.593   6.640
 3437SOL     OW11209   2.031   0.289   5.371
 3437SOL    HW111210   1.974   0.211   5.396
 3437SOL    HW211211   2.043   0.349   5.450
 3438SOL     OW11212   1.134   2.873   0.052
 3438SOL    HW111213   1.101   2.792   0.003
 3438SOL    HW211214   1.232   2.862   0.070
 3439SOL     OW11215   2.255   5.897   4.563
 3439SOL    HW111216   2.296   5.837   4.631
 3439SOL    HW211217   2.171   5.937   4.600
 3440SOL     OW11218   3.234   3.544   1.280
 3440SOL    HW111219   3.165   3.613   1.300
 3440SOL    HW211220   3.238   3.479   1.355
 3441SOL     OW11221   5.736   5.940   5.441
 3441SOL    HW111222   5.769   5.916   5.350
 3441SOL    HW211223   5.787   6.018   5.475
 3442SOL     OW11224   2.194   4.808   2.090
 3442SOL    HW111225   2.221   4.717   2.060
 3442SOL    HW211226   2.102   4.805   2.128
 3443SOL     OW11227   4.221   6.178   1.396
 3443SOL    HW111228   4.273   6.248   1.347
 3443SOL    HW211229   4.254   6.087   1.368
 3444SOL     OW11230   5.344   5.113   0.021
 3444SOL    HW111231   5.359   5.211   0.035
 3444SOL    HW211232   5.427   5.063   0.044
 3445SOL     OW11233   6.385   5.585   3.106
 3445SOL    HW111234   6.317   5.556   3.038
 3445SOL    HW211235   6.445   5.508   3.127
 3446SOL     OW11236   6.919   1.251   2.545
 3446SOL    HW111237   6.836   1.218   2.502
 3446SOL    HW211238   6.896   1.308   2.624
 3447SOL     OW11239   5.923   5.394   0.710
 3447SOL    HW111240   5.901   5.298   0.728
 3447SOL    HW211241   6.020   5.409   0.727
 3448SOL     OW11242   3.336   0.554   0.140
 3448SOL    HW111243   3.393   0.634   0.158
 3448SOL    HW211244   3.391   0.471   0.144
 3449SOL     OW11245   5.633   5.872   4.536
 3449SOL    HW111246   5.698   5.796   4.545
 3449SOL    HW211247   5.543   5.844   4.567
 3450SOL     OW11248   0.001   2.631   6.355
 3450SOL    HW111249   6.996   2.577   6.275
 3450SOL    HW211250   6.960   2.711   6.360
 3451SOL     OW11251   2.369   5.980   0.783
 3451SOL    HW111252   2.405   5.910   0.721
 3451SOL    HW211253   2.347   5.938   0.872
 3452SOL     OW11254   6.091   0.733   6.015
 3452SOL    HW111255   6.035   0.782   5.948
 3452SOL    HW211256   6.174   0.785   6.033
 3453SOL     OW11257   6.926   5.616   6.495
 3453SOL    HW111258   6.871   5.686   6.540
 3453SOL    HW211259   6.888   5.526   6.513
 3454SOL     OW11260   1.155   2.651   5.135
 3454SOL    HW111261   1.137   2.737   5.183
 3454SOL    HW211262   1.105   2.577   5.179
 3455SOL     OW11263   2.830   2.186   4.695
 3455SOL    HW111264   2.801   2.102   4.741
 3455SOL    HW211265   2.776   2.263   4.728
 3456SOL     OW11266   5.589   5.553   1.840
 3456SOL    HW111267   5.670   5.519   1.888
 3456SOL    HW211268   5.591   5.653   1.837
 3457SOL     OW11269   2.871   5.120   3.043
 3457SOL    HW111270   2.889   5.028   3.008
 3457SOL    HW211271   2.806   5.115   3.119
 3458SOL     OW11272   5.009   0.694   2.451
 3458SOL    HW111273   5.080   0.755   2.487
 3458SOL    HW211274   4.985   0.722   2.358
 3459SOL     OW11275   5.606   3.168   3.372
 3459SOL    HW111276   5.651   3.084   3.343
 3459SOL    HW211277   5.673   3.231   3.411
 3460SOL     OW11278   2.491   3.242   0.515
 3460SOL    HW111279   2.539   3.227   0.601
 3460SOL    HW211280   2.518   3.331   0.477
 3461SOL     OW11281   4.874   4.909   5.072
 3461SOL    HW111282   4.939   4.930   5.145
 3461SOL    HW211283   4.879   4.979   5.001
 3462SOL     OW11284   0.105   4.807   3.345
 3462SOL    HW111285   0.005   4.809   3.335
 3462SOL    HW211286   0.130   4.836   3.437
 3463SOL     OW11287   1.232   4.203   2.288
 3463SOL    HW111288   1.181   4.154   2.218
 3463SOL    HW211289   1.258   4.293   2.253
 3464SOL     OW11290   6.791   4.308   6.272
 3464SOL    HW111291   6.836   4.397   6.279
 3464SOL    HW211292   6.852   4.236   6.306
 3465SOL     OW11293   1.531   1.978   2.380
 3465SOL    HW111294   1.592   2.029   2.441
 3465SOL    HW211295   1.491   1.901   2.429
 3466SOL     OW11296   0.076   4.736   0.284
 3466SOL    HW111297   0.134   4.806   0.325
 3466SOL    HW211298   0.111   4.645   0.307
 3467SOL     OW11299   1.979   2.673   0.478
 3467SOL    HW111300   2.078   2.669   0.476
 3467SOL    HW211301   1.949   2.767   0.494
 3468SOL     OW11302   4.972   6.435   2.543
 3468SOL    HW111303   5.025   6.366   2.592
 3468SOL    HW211304   4.929   6.497   2.609
 3469SOL     OW11305   5.559   0.439   2.478
 3469SOL    HW111306   5.512   0.525   2.497
 3469SOL    HW211307   5.608   0.409   2.560
 3470SOL     OW11308   5.955   4.007   1.100
 3470SOL    HW111309   6.009   4.089   1.081
 3470SOL    HW211310   5.991   3.930   1.048
 3471SOL     OW11311   4.080   5.104   4.495
 3471SOL    HW111312   4.123   5.050   4.567
 3471SOL    HW211313   4.128   5.191   4.485
 3472SOL     OW11314   2.556   0.968   2.409
 3472SOL    HW111315   2.572   0.894   2.344
 3472SOL    HW211316   2.519   1.048   2.360
 3473SOL     OW11317   0.582   2.433   1.112
 3473SOL    HW111318   0.521   2.489   1.169
 3473SOL    HW211319   0.544   2.340   1.105
 3474SOL     OW11320   1.545   4.906   2.073
 3474SOL    HW111321   1.550   4.806   2.062
 3474SOL    HW211322   1.589   4.950   1.995
 3475SOL     OW11323   0.666   5.183   3.879
 3475SOL    HW111324   0.718   5.133   3.949
 3475SOL    HW211325   0.712   5.173   3.791
 3476SOL     OW11326   3.354   1.389   3.219
 3476SOL    HW111327   3.285   1.462   3.216
 3476SOL    HW211328   3.428   1.417   3.280
 3477SOL     OW11329   2.639   5.189   1.057
 3477SOL    HW111330   2.589   5.272   1.082
 3477SOL    HW211331   2.704   5.166   1.129
 3478SOL     OW11332   2.207   6.200   4.773
 3478SOL    HW111333   2.154   6.126   4.731
 3478SOL    HW211334   2.233   6.266   4.704
 3479SOL     OW11335   1.785   0.714   2.879
 3479SOL    HW111336   1.733   0.673   2.803
 3479SOL    HW211337   1.728   0.717   2.961
 3480SOL     OW11338   0.004   6.883   4.987
 3480SOL    HW111339   0.004   6.983   4.993
 3480SOL    HW211340   6.974   6.845   5.065
 3481SOL     OW11341   4.544   0.348   0.611
 3481SOL    HW111342   4.617   0.337   0.679
 3481SOL    HW211343   4.456   0.342   0.657
 3482SOL     OW11344   5.865   1.373   2.009
 3482SOL    HW111345   5.865   1.442   2.081
 3482SOL    HW211346   5.933   1.303   2.031
 3483SOL     OW11347   4.655   1.719   1.280
 3483SOL    HW111348   4.571   1.755   1.320
 3483SOL    HW211349   4.681   1.634   1.327
 3484SOL     OW11350   1.241   3.755   0.493
 3484SOL    HW111351   1.196   3.684   0.547
 3484SOL    HW211352   1.309   3.802   0.550
 3485SOL     OW11353   1.872   0.852   4.449
 3485SOL    HW111354   1.965   0.882   4.430
 3485SOL    HW211355   1.870   0.801   4.535
 3486SOL     OW11356   3.000   0.956   2.827
 3486SOL    HW111357   2.997   0.881   2.893
 3486SOL    HW211358   2.915   1.008   2.832
 3487SOL     OW11359   5.517   2.593   5.979
 3487SOL    HW111360   5.599   2.615   6.032
 3487SOL    HW211361   5.476   2.677   5.945
 3488SOL     OW11362   6.041   1.832   4.653
 3488SOL    HW111363   6.004   1.762   4.715
 3488SOL    HW211364   6.081   1.906   4.707
 3489SOL     OW11365   3.194   0.173   1.095
 3489SOL    HW111366   3.164   0.255   1.143
 3489SOL    HW211367   3.135   0.096   1.119
 3490SOL     OW11368   4.157   4.290   0.265
 3490SOL    HW111369   4.097   4.364   0.233
 3490SOL    HW211370   4.244   4.294   0.215
 3491SOL     OW11371   5.376   2.706   4.988
 3491SOL    HW111372   5.348   2.786   5.041
 3491SOL    HW211373   5.475   2.694   4.995
 3492SOL     OW11374   0.180   5.629   1.509
 3492SOL    HW111375   0.134   5.573   1.577
 3492SOL    HW211376   0.135   5.617   1.420
 3493SOL     OW11377   5.537   4.203   6.260
 3493SOL    HW111378   5.637   4.210   6.252
 3493SOL    HW211379   5.510   4.107   6.250
 3494SOL     OW11380   4.051   0.777   1.752
 3494SOL    HW111381   4.128   0.830   1.718
 3494SOL    HW211382   3.972   0.837   1.765
 3495SOL     OW11383   5.312   5.513   2.597
 3495SOL    HW111384   5.244   5.531   2.527
 3495SOL    HW211385   5.322   5.592   2.656
 3496SOL     OW11386   6.803   3.938   0.586
 3496SOL    HW111387   6.788   4.034   0.610
 3496SOL    HW211388   6.732   3.882   0.629
 3497SOL     OW11389   3.503   0.519   3.653
 3497SOL    HW111390   3.424   0.493   3.598
 3497SOL    HW211391   3.580   0.458   3.634
 3498SOL     OW11392   2.524   2.047   1.220
 3498SOL    HW111393   2.573   1.994   1.288
 3498SOL    HW211394   2.572   2.042   1.132
 3499SOL     OW11395   4.699   2.793   4.290
 3499SOL    HW111396   4.633   2.861   4.256
 3499SOL    HW211397   4.684   2.778   4.388
 3500SOL     OW11398   1.624   3.297   4.582
 3500SOL    HW111399   1.599   3.365   4.651
 3500SOL    HW211400   1.708   3.251   4.610
 3501SOL     OW11401   1.767   5.270   4.301
 3501SOL    HW111402   1.800   5.189   4.350
 3501SOL    HW211403   1.671   5.285   4.322
 3502SOL     OW11404   5.895   2.340   2.438
 3502SOL    HW111405   5.902   2.314   2.342
 3502SOL    HW211406   5.888   2.439   2.446
 3503SOL     OW11407   6.671   6.361   4.675
 3503SOL    HW111408   6.723   6.284   4.712
 3503SOL    HW211409   6.598   6.385   4.739
 3504SOL     OW11410   2.085   2.078   1.463
 3504SOL    HW111411   2.182   2.057   1.459
 3504SOL    HW211412   2.037   2.010   1.519
 3505SOL     OW11413   5.596   4.913   5.186
 3505SOL    HW111414   5.578   4.981   5.114
 3505SOL    HW211415   5.510   4.891   5.232
 3506SOL     OW11416   4.764   5.451   6.131
 3506SOL    HW111417   4.679   5.418   6.090
 3506SOL    HW211418   4.742   5.514   6.206
 3507SOL     OW11419   1.802   1.455   6.922
 3507SOL    HW111420   1.728   1.494   6.976
 3507SOL    HW211421   1.798   1.355   6.927
 3508SOL     OW11422   3.067   2.599   6.016
 3508SOL    HW111423   3.144   2.660   6.035
 3508SOL    HW211424   3.013   2.635   5.940
 3509SOL     OW11425   6.043   0.062   5.565
 3509SOL    HW111426   5.955   0.092   5.528
 3509SOL    HW211427   6.055   0.098   5.658
 3510SOL     OW11428   1.853   2.743   1.618
 3510SOL    HW111429   1.756   2.723   1.605
 3510SOL    HW211430   1.864   2.836   1.653
 3511SOL     OW11431   1.980   5.062   0.436
 3511SOL    HW111432   1.992   5.072   0.535
 3511SOL    HW211433   1.900   5.005   0.417
 3512SOL     OW11434   0.589   5.255   0.761
 3512SOL    HW111435   0.559   5.163   0.784
 3512SOL    HW211436   0.642   5.253   0.676
 3513SOL     OW11437   6.204   3.471   0.811
 3513SOL    HW111438   6.168   3.378   0.809
 3513SOL    HW211439   6.294   3.471   0.855
 3514SOL     OW11440   0.977   1.629   2.166
 3514SOL    HW111441   1.026   1.716   2.170
 3514SOL    HW211442   0.985   1.590   2.075
 3515SOL     OW11443   4.226   6.197   3.206
 3515SOL    HW111444   4.172   6.180   3.289
 3515SOL    HW211445   4.164   6.225   3.132
 3516SOL     OW11446   4.802   6.908   0.685
 3516SOL    HW111447   4.864   6.985   0.700
 3516SOL    HW211448   4.851   6.822   0.699
 3517SOL     OW11449   0.932   2.036   0.902
 3517SOL    HW111450   0.864   2.108   0.912
 3517SOL    HW211451   0.948   2.018   0.805
 3518SOL     OW11452   5.679   3.888   4.973
 3518SOL    HW111453   5.643   3.977   4.946
 3518SOL    HW211454   5.703   3.835   4.892
 3519SOL     OW11455   1.091   0.966   6.237
 3519SOL    HW111456   1.103   0.876   6.280
 3519SOL    HW211457   1.091   0.955   6.137
 3520SOL     OW11458   3.042   5.288   6.708
 3520SOL    HW111459   3.008   5.213   6.651
 3520SOL    HW211460   3.142   5.287   6.709
 3521SOL     OW11461   5.783   3.115   6.844
 3521SOL    HW111462   5.743   3.095   6.933
 3521SOL    HW211463   5.718   3.092   6.772
 3522SOL     OW11464   6.258   4.345   2.052
 3522SOL    HW111465   6.208   4.273   2.005
 3522SOL    HW211466   6.353   4.346   2.021
 3523SOL     OW11467   3.096   5.132   5.563
 3523SOL    HW111468   3.078   5.118   5.660
 3523SOL    HW211469   3.069   5.225   5.537
 3524SOL     OW11470   3.314   0.941   1.299
 3524SOL    HW111471   3.341   0.957   1.204
 3524SOL    HW211472   3.324   0.844   1.321
 3525SOL     OW11473   1.150   4.259   2.551
 3525SOL    HW111474   1.074   4.323   2.537
 3525SOL    HW211475   1.205   4.254   2.468
 3526SOL     OW11476   2.608   5.956   3.932
 3526SOL    HW111477   2.508   5.968   3.928
 3526SOL    HW211478   2.647   6.030   3.987
 3527SOL     OW11479   6.315   2.987   6.232
 3527SOL    HW111480   6.361   3.074   6.243
 3527SOL    HW211481   6.365   2.930   6.166
 3528SOL     OW11482   0.979   5.213   4.098
 3528SOL    HW111483   0.895   5.199   4.151
 3528SOL    HW211484   1.004   5.128   4.053
 3529SOL     OW11485   4.726   0.444   6.265
 3529SOL    HW111486   4.713   0.437   6.364
 3529SOL    HW211487   4.639   0.428   6.219
 3530SOL     OW11488   1.748   5.037   3.679
 3530SOL    HW111489   1.827   5.077   3.632
 3530SOL    HW211490   1.754   5.056   3.777
 3531SOL     OW11491   4.752   3.761   0.968
 3531SOL    HW111492   4.739   3.725   0.875
 3531SOL    HW211493   4.670   3.810   0.996
 3532SOL     OW11494   2.640   1.114   1.498
 3532SOL    HW111495   2.713   1.155   1.445
 3532SOL    HW211496   2.665   1.114   1.595
 3533SOL     OW11497   1.641   1.959   2.629
 3533SOL    HW111498   1.677   1.866   2.637
 3533SOL    HW211499   1.692   2.020   2.690
 3534SOL     OW11500   5.543   0.895   5.204
 3534SOL    HW111501   5.480   0.820   5.183
 3534SOL    HW211502   5.577   0.934   5.118
 3535SOL     OW11503   0.777   5.854   0.310
 3535SOL    HW111504   0.691   5.813   0.281
 3535SOL    HW211505   0.774   5.953   0.297
 3536SOL     OW11506   2.224   1.902   4.400
 3536SOL    HW111507   2.269   1.908   4.311
 3536SOL    HW211508   2.210   1.806   4.424
 3537SOL     OW11509   2.410   5.101   0.696
 3537SOL    HW111510   2.441   5.187   0.656
 3537SOL    HW211511   2.433   5.025   0.635
 3538SOL     OW11512   0.876   0.694   5.403
 3538SOL    HW111513   0.917   0.777   5.440
 3538SOL    HW211514   0.794   0.670   5.455
 3539SOL     OW11515   5.917   3.495   6.200
 3539SOL    HW111516   5.958   3.572   6.152
 3539SOL    HW211517   5.959   3.410   6.169
 3540SOL     OW11518   1.735   2.434   5.497
 3540SOL    HW111519   1.789   2.511   5.531
 3540SOL    HW211520   1.692   2.460   5.411
 3541SOL     OW11521   2.174   2.691   6.091
 3541SOL    HW111522   2.162   2.663   6.186
 3541SOL    HW211523   2.095   2.746   6.063
 3542SOL     OW11524   0.822   4.155   1.566
 3542SOL    HW111525   0.880   4.074   1.579
 3542SOL    HW211526   0.841   4.221   1.639
 3543SOL     OW11527   0.776   4.036   5.702
 3543SOL    HW111528   0.793   3.996   5.612
 3543SOL    HW211529   0.848   4.104   5.722
 3544SOL     OW11530   2.080   5.207   6.574
 3544SOL    HW111531   2.124   5.206   6.484
 3544SOL    HW211532   2.095   5.295   6.617
 3545SOL     OW11533   3.918   5.060   0.377
 3545SOL    HW111534   3.865   5.088   0.297
 3545SOL    HW211535   3.933   4.961   0.375
 3546SOL     OW11536   0.082   4.988   2.745
 3546SOL    HW111537   0.042   5.008   2.834
 3546SOL    HW211538   0.111   4.892   2.743
 3547SOL     OW11539   6.221   4.764   4.851
 3547SOL    HW111540   6.123   4.755   4.832
 3547SOL    HW211541   6.235   4.779   4.948
 3548SOL     OW11542   4.576   0.198   5.626
 3548SOL    HW111543   4.518   0.271   5.589
 3548SOL    HW211544   4.549   0.179   5.720
 3549SOL     OW11545   0.483   4.787   5.986
 3549SOL    HW111546   0.530   4.710   5.942
 3549SOL    HW211547   0.435   4.841   5.916
 3550SOL     OW11548   6.178   2.765   3.793
 3550SOL    HW111549   6.220   2.675   3.809
 3550SOL    HW211550   6.078   2.755   3.791
 3551SOL     OW11551   3.446   2.078   3.419
 3551SOL    HW111552   3.354   2.115   3.435
 3551SOL    HW211553   3.497   2.078   3.505
 3552SOL     OW11554   6.193   0.029   1.717
 3552SOL    HW111555   6.223   6.988   1.791
 3552SOL    HW211556   6.120   7.004   1.665
 3553SOL     OW11557   4.060   5.298   0.487
 3553SOL    HW111558   3.985   5.363   0.480
 3553SOL    HW211559   4.032   5.210   0.448
 3554SOL     OW11560   4.476   1.947   0.997
 3554SOL    HW111561   4.564   1.908   1.021
 3554SOL    HW211562   4.418   1.951   1.078
 3555SOL     OW11563   0.467   3.812   4.757
 3555SOL    HW111564   0.543   3.863   4.797
 3555SOL    HW211565   0.381   3.857   4.780
 3556SOL     OW11566   4.306   0.675   4.232
 3556SOL    HW111567   4.395   0.701   4.194
 3556SOL    HW211568   4.270   0.751   4.287
 3557SOL     OW11569   1.117   0.413   3.988
 3557SOL    HW111570   1.055   0.434   3.913
 3557SOL    HW211571   1.069   0.353   4.054
 3558SOL     OW11572   1.576   6.043   2.498
 3558SOL    HW111573   1.532   6.044   2.587
 3558SOL    HW211574   1.560   6.131   2.452
 3559SOL     OW11575   0.698   6.462   5.147
 3559SOL    HW111576   0.762   6.487   5.075
 3559SOL    HW211577   0.661   6.544   5.190
 3560SOL     OW11578   2.291   5.411   2.387
 3560SOL    HW111579   2.343   5.496   2.391
 3560SOL    HW211580   2.239   5.408   2.302
 3561SOL     OW11581   4.617   4.095   5.246
 3561SOL    HW111582   4.666   4.137   5.169
 3561SOL    HW211583   4.646   4.000   5.256
 3562SOL     OW11584   3.830   0.841   3.195
 3562SOL    HW111585   3.784   0.929   3.207
 3562SOL    HW211586   3.799   0.777   3.265
 3563SOL     OW11587   6.326   1.911   0.684
 3563SOL    HW111588   6.401   1.967   0.650
 3563SOL    HW211589   6.266   1.967   0.741
 3564SOL     OW11590   1.198   4.215   3.089
 3564SOL    HW111591   1.210   4.137   3.028
 3564SOL    HW211592   1.154   4.184   3.174
 3565SOL     OW11593   3.163   5.846   4.704
 3565SOL    HW111594   3.150   5.905   4.784
 3565SOL    HW211595   3.105   5.765   4.714
 3566SOL     OW11596   6.546   3.190   6.290
 3566SOL    HW111597   6.622   3.134   6.256
 3566SOL    HW211598   6.493   3.225   6.213
 3567SOL     OW11599   0.369   1.972   6.316
 3567SOL    HW111600   0.452   1.918   6.327
 3567SOL    HW211601   0.319   1.973   6.402
 3568SOL     OW11602   4.845   3.936   4.091
 3568SOL    HW111603   4.941   3.962   4.081
 3568SOL    HW211604   4.790   4.019   4.103
 3569SOL     OW11605   2.367   1.814   5.848
 3569SOL    HW111606   2.273   1.809   5.883
 3569SOL    HW211607   2.414   1.892   5.889
 3570SOL     OW11608   5.170   0.242   5.884
 3570SOL    HW111609   5.191   0.320   5.825
 3570SOL    HW211610   5.081   0.256   5.927
 3571SOL     OW11611   0.950   5.493   5.452
 3571SOL    HW111612   0.970   5.539   5.538
 3571SOL    HW211613   0.870   5.535   5.409
 3572SOL     OW11614   6.051   3.706   2.845
 3572SOL    HW111615   6.109   3.667   2.915
 3572SOL    HW211616   5.984   3.637   2.815
 3573SOL     OW11617   0.322   5.196   3.256
 3573SOL    HW111618   0.399   5.232   3.204
 3573SOL    HW211619   0.321   5.096   3.251
 3574SOL     OW11620   0.377   3.667   1.006
 3574SOL    HW111621   0.287   3.637   1.039
 3574SOL    HW211622   0.419   3.728   1.073
 3575SOL     OW11623   4.966   4.863   2.781
 3575SOL    HW111624   5.026   4.910   2.716
 3575SOL    HW211625   5.015   4.849   2.867
 3576SOL     OW11626   0.491   2.103   5.918
 3576SOL    HW111627   0.576   2.056   5.894
 3576SOL    HW211628   0.477   2.098   6.017
 3577SOL     OW11629   1.857   2.028   5.731
 3577SOL    HW111630   1.824   1.987   5.816
 3577SOL    HW211631   1.786   2.087   5.693
 3578SOL     OW11632   3.446   2.202   0.661
 3578SOL    HW111633   3.525   2.261   0.642
 3578SOL    HW211634   3.410   2.223   0.752
 3579SOL     OW11635   6.442   2.570   4.234
 3579SOL    HW111636   6.483   2.608   4.317
 3579SOL    HW211637   6.507   2.578   4.158
 3580SOL     OW11638   5.436   2.917   1.859
 3580SOL    HW111639   5.411   3.012   1.876
 3580SOL    HW211640   5.373   2.857   1.909
 3581SOL     OW11641   1.106   5.921   3.402
 3581SOL    HW111642   1.094   5.996   3.468
 3581SOL    HW211643   1.125   5.836   3.451
 3582SOL     OW11644   0.902   2.732   5.864
 3582SOL    HW111645   0.952   2.795   5.924
 3582SOL    HW211646   0.943   2.641   5.869
 3583SOL     OW11647   0.609   3.982   6.655
 3583SOL    HW111648   0.602   3.974   6.755
 3583SOL    HW211649   0.586   3.894   6.613
 3584SOL     OW11650   5.556   5.564   0.004
 3584SOL    HW111651   5.527   5.559   0.100
 3584SOL    HW211652   5.654   5.542   7.017
 3585SOL     OW11653   3.425   0.698   4.908
 3585SOL    HW111654   3.480   0.615   4.922
 3585SOL    HW211655   3.455   0.744   4.825
 3586SOL     OW11656   6.597   1.861   4.933
 3586SOL    HW111657   6.580   1.938   4.995
 3586SOL    HW211658   6.681   1.814   4.959
 3587SOL     OW11659   2.563   5.002   6.405
 3587SOL    HW111660   2.616   4.994   6.489
 3587SOL    HW211661   2.625   5.002   6.326
 3588SOL     OW11662   1.247   2.339   6.012
 3588SOL    HW111663   1.239   2.374   5.919
 3588SOL    HW211664   1.333   2.288   6.021
 3589SOL     OW11665   3.958   1.125   4.642
 3589SOL    HW111666   4.043   1.176   4.659
 3589SOL    HW211667   3.952   1.101   4.546
 3590SOL     OW11668   1.025   3.011   6.810
 3590SOL    HW111669   1.024   2.916   6.778
 3590SOL    HW211670   1.046   3.013   6.908
 3591SOL     OW11671   5.219   4.082   6.483
 3591SOL    HW111672   5.266   3.995   6.499
 3591SOL    HW211673   5.189   4.121   6.570
 3592SOL     OW11674   0.192   4.663   2.010
 3592SOL    HW111675   0.183   4.563   2.007
 3592SOL    HW211676   0.101   4.704   2.003
 3593SOL     OW11677   0.816   5.719   4.839
 3593SOL    HW111678   0.763   5.803   4.837
 3593SOL    HW211679   0.860   5.710   4.929
 3594SOL     OW11680   4.210   6.912   3.154
 3594SOL    HW111681   4.230   7.007   3.131
 3594SOL    HW211682   4.265   6.852   3.096
 3595SOL     OW11683   3.494   5.841   7.012
 3595SOL    HW111684   3.465   5.936   7.001
 3595SOL    HW211685   3.552   5.816   6.935
 3596SOL     OW11686   6.372   3.003   3.459
 3596SOL    HW111687   6.400   3.052   3.377
 3596SOL    HW211688   6.282   2.962   3.445
 3597SOL     OW11689   1.408   1.935   4.988
 3597SOL    HW111690   1.456   1.945   4.902
 3597SOL    HW211691   1.316   1.899   4.971
 3598SOL     OW11692   1.227   5.247   6.066
 3598SOL    HW111693   1.153   5.198   6.112
 3598SOL    HW211694   1.190   5.323   6.014
 3599SOL     OW11695   0.379   2.162   6.582
 3599SOL    HW111696   0.467   2.159   6.536
 3599SOL    HW211697   0.331   2.246   6.559
 3600SOL     OW11698   0.976   3.418   1.432
 3600SOL    HW111699   1.027   3.369   1.502
 3600SOL    HW211700   0.879   3.420   1.456
 3601SOL     OW11701   5.468   3.914   6.234
 3601SOL    HW111702   5.477   3.898   6.135
 3601SOL    HW211703   5.451   3.826   6.280
 3602SOL     OW11704   1.956   2.957   0.497
 3602SOL    HW111705   1.997   3.030   0.552
 3602SOL    HW211706   1.982   2.969   0.401
 3603SOL     OW11707   3.703   0.361   3.577
 3603SOL    HW111708   3.716   0.356   3.478
 3603SOL    HW211709   3.761   0.293   3.622
 3604SOL     OW11710   6.369   5.119   3.481
 3604SOL    HW111711   6.445   5.179   3.506
 3604SOL    HW211712   6.403   5.038   3.435
 3605SOL     OW11713   6.345   3.485   5.143
 3605SOL    HW111714   6.245   3.487   5.150
 3605SOL    HW211715   6.374   3.535   5.061
 3606SOL     OW11716   0.000   0.625   4.525
 3606SOL    HW111717   0.045   0.537   4.539
 3606SOL    HW211718   0.069   0.697   4.518
 3607SOL     OW11719   5.961   5.727   1.631
 3607SOL    HW111720   5.879   5.772   1.667
 3607SOL    HW211721   6.036   5.792   1.628
 3608SOL     OW11722   5.921   2.684   3.823
 3608SOL    HW111723   5.838   2.680   3.769
 3608SOL    HW211724   5.920   2.611   3.892
 3609SOL     OW11725   1.215   6.439   4.027
 3609SOL    HW111726   1.291   6.502   4.046
 3609SOL    HW211727   1.246   6.345   4.041
 3610SOL     OW11728   1.816   0.247   5.698
 3610SOL    HW111729   1.905   0.206   5.718
 3610SOL    HW211730   1.747   0.211   5.761
 3611SOL     OW11731   4.070   5.632   5.401
 3611SOL    HW111732   4.007   5.585   5.463
 3611SOL    HW211733   4.073   5.585   5.313
 3612SOL     OW11734   6.773   6.824   6.915
 3612SOL    HW111735   6.703   6.880   6.959
 3612SOL    HW211736   6.780   6.736   6.962
 3613SOL     OW11737   4.513   4.658   2.278
 3613SOL    HW111738   4.441   4.695   2.219
 3613SOL    HW211739   4.528   4.720   2.355
 3614SOL     OW11740   3.994   3.186   1.578
 3614SOL    HW111741   3.931   3.250   1.622
 3614SOL    HW211742   4.073   3.236   1.543
 3615SOL     OW11743   4.908   5.574   6.670
 3615SOL    HW111744   4.938   5.561   6.764
 3615SOL    HW211745   4.973   5.633   6.622
 3616SOL     OW11746   0.712   2.079   0.206
 3616SOL    HW111747   0.643   2.148   0.227
 3616SOL    HW211748   0.795   2.124   0.171
 3617SOL     OW11749   3.519   1.203   6.821
 3617SOL    HW111750   3.451   1.129   6.816
 3617SOL    HW211751   3.476   1.289   6.792
 3618SOL     OW11752   1.992   2.348   4.924
 3618SOL    HW111753   2.035   2.403   4.853
 3618SOL    HW211754   1.893   2.344   4.909
 3619SOL     OW11755   5.824   2.614   4.560
 3619SOL    HW111756   5.733   2.654   4.549
 3619SOL    HW211757   5.887   2.682   4.597
 3620SOL     OW11758   6.308   6.506   6.215
 3620SOL    HW111759   6.261   6.583   6.171
 3620SOL    HW211760   6.256   6.422   6.200
 3621SOL     OW11761   3.260   2.967   4.953
 3621SOL    HW111762   3.307   2.923   5.030
 3621SOL    HW211763   3.161   2.968   4.971
 3622SOL     OW11764   1.429   1.688   5.270
 3622SOL    HW111765   1.487   1.753   5.221
 3622SOL    HW211766   1.429   1.600   5.221
 3623SOL     OW11767   6.226   5.548   4.469
 3623SOL    HW111768   6.318   5.586   4.457
 3623SOL    HW211769   6.210   5.479   4.399
 3624SOL     OW11770   1.428   6.903   2.007
 3624SOL    HW111771   1.526   6.908   2.028
 3624SOL    HW211772   1.389   6.995   2.011
 3625SOL     OW11773   6.628   2.582   6.667
 3625SOL    HW111774   6.562   2.529   6.615
 3625SOL    HW211775   6.647   2.668   6.618
 3626SOL     OW11776   1.653   2.244   5.688
 3626SOL    HW111777   1.660   2.313   5.616
 3626SOL    HW211778   1.649   2.290   5.777
 3627SOL     OW11779   3.098   3.392   2.498
 3627SOL    HW111780   3.105   3.374   2.596
 3627SOL    HW211781   3.074   3.308   2.450
 3628SOL     OW11782   1.834   1.337   2.101
 3628SOL    HW111783   1.736   1.355   2.110
 3628SOL    HW211784   1.880   1.365   2.185
 3629SOL     OW11785   6.698   0.821   5.373
 3629SOL    HW111786   6.685   0.914   5.408
 3629SOL    HW211787   6.792   0.791   5.393
 3630SOL     OW11788   5.127   3.121   4.140
 3630SOL    HW111789   5.161   3.028   4.156
 3630SOL    HW211790   5.035   3.130   4.178
 3631SOL     OW11791   2.602   1.140   3.386
 3631SOL    HW111792   2.637   1.048   3.367
 3631SOL    HW211793   2.615   1.198   3.305
 3632SOL     OW11794   5.347   5.468   1.260
 3632SOL    HW111795   5.299   5.551   1.287
 3632SOL    HW211796   5.287   5.389   1.273
 3633SOL     OW11797   3.758   1.839   5.914
 3633SOL    HW111798   3.821   1.767   5.885
 3633SOL    HW211799   3.716   1.815   6.001
 3634SOL     OW11800   1.737   4.704   5.050
 3634SOL    HW111801   1.679   4.625   5.029
 3634SOL    HW211802   1.712   4.740   5.140
 3635SOL     OW11803   3.342   0.250   0.638
 3635SOL    HW111804   3.268   0.317   0.637
 3635SOL    HW211805   3.430   0.299   0.634
 3636SOL     OW11806   0.093   5.998   1.090
 3636SOL    HW111807   0.081   6.098   1.097
 3636SOL    HW211808   0.012   5.953   1.128
 3637SOL     OW11809   0.208   1.926   1.994
 3637SOL    HW111810   0.290   1.877   2.024
 3637SOL    HW211811   0.136   1.916   2.062
 3638SOL     OW11812   0.682   4.535   3.148
 3638SOL    HW111813   0.737   4.489   3.079
 3638SOL    HW211814   0.729   4.532   3.236
 3639SOL     OW11815   3.749   5.025   0.811
 3639SOL    HW111816   3.774   5.119   0.832
 3639SOL    HW211817   3.676   5.024   0.742
 3640SOL     OW11818   4.359   0.441   7.019
 3640SOL    HW111819   4.326   0.407   6.931
 3640SOL    HW211820   4.420   0.373   0.041
 3641SOL     OW11821   5.012   3.701   2.228
 3641SOL    HW111822   4.990   3.690   2.131
 3641SOL    HW211823   4.989   3.794   2.256
 3642SOL     OW11824   5.710   1.290   0.211
 3642SOL    HW111825   5.651   1.210   0.205
 3642SOL    HW211826   5.800   1.263   0.243
 3643SOL     OW11827   3.697   5.588   4.250
 3643SOL    HW111828   3.638   5.606   4.328
 3643SOL    HW211829   3.782   5.545   4.282
 3644SOL     OW11830   0.419   0.907   1.898
 3644SOL    HW111831   0.322   0.882   1.910
 3644SOL    HW211832   0.476   0.837   1.941
 3645SOL     OW11833   0.604   2.983   3.921
 3645SOL    HW111834   0.622   2.886   3.906
 3645SOL    HW211835   0.689   3.035   3.912
 3646SOL     OW11836   1.174   4.198   6.539
 3646SOL    HW111837   1.193   4.102   6.558
 3646SOL    HW211838   1.252   4.254   6.565
 3647SOL     OW11839   2.625   5.434   6.191
 3647SOL    HW111840   2.543   5.439   6.249
 3647SOL    HW211841   2.599   5.448   6.096
 3648SOL     OW11842   4.209   4.833   1.882
 3648SOL    HW111843   4.136   4.764   1.886
 3648SOL    HW211844   4.295   4.790   1.856
 3649SOL     OW11845   5.227   3.246   1.425
 3649SOL    HW111846   5.169   3.225   1.347
 3649SOL    HW211847   5.170   3.270   1.504
 3650SOL     OW11848   6.570   6.029   1.214
 3650SOL    HW111849   6.491   6.050   1.157
 3650SOL    HW211850   6.616   6.114   1.239
 3651SOL     OW11851   1.009   6.721   4.709
 3651SOL    HW111852   1.080   6.739   4.641
 3651SOL    HW211853   1.052   6.682   4.792
 3652SOL     OW11854   5.993   6.339   3.760
 3652SOL    HW111855   6.087   6.368   3.777
 3652SOL    HW211856   5.931   6.415   3.779
 3653SOL     OW11857   0.861   1.807   3.692
 3653SOL    HW111858   0.782   1.866   3.708
 3653SOL    HW211859   0.844   1.717   3.730
 3654SOL     OW11860   3.421   4.491   0.554
 3654SOL    HW111861   3.509   4.443   0.552
 3654SOL    HW211862   3.351   4.436   0.508
 3655SOL     OW11863   2.623   6.327   4.323
 3655SOL    HW111864   2.596   6.414   4.282
 3655SOL    HW211865   2.708   6.295   4.280
 3656SOL     OW11866   0.391   4.798   1.195
 3656SOL    HW111867   0.490   4.781   1.193
 3656SOL    HW211868   0.344   4.718   1.233
 3657SOL     OW11869   5.176   5.699   5.833
 3657SOL    HW111870   5.238   5.707   5.755
 3657SOL    HW211871   5.209   5.757   5.907
 3658SOL     OW11872   2.002   4.988   6.249
 3658SOL    HW111873   2.072   5.054   6.277
 3658SOL    HW211874   2.033   4.941   6.166
 3659SOL     OW11875   2.448   3.721   6.086
 3659SOL    HW111876   2.405   3.679   6.006
 3659SOL    HW211877   2.451   3.820   6.073
 3660SOL     OW11878   5.614   5.877   3.552
 3660SOL    HW111879   5.607   5.866   3.651
 3660SOL    HW211880   5.675   5.954   3.532
 3661SOL     OW11881   5.747   0.567   5.582
 3661SOL    HW111882   5.797   0.654   5.575
 3661SOL    HW211883   5.808   0.498   5.622
 3662SOL     OW11884   3.768   0.878   3.561
 3662SOL    HW111885   3.753   0.802   3.498
 3662SOL    HW211886   3.680   0.908   3.598
 3663SOL     OW11887   2.027   2.038   0.255
 3663SOL    HW111888   2.113   2.009   0.296
 3663SOL    HW211889   2.007   1.981   0.176
 3664SOL     OW11890   4.831   2.363   1.336
 3664SOL    HW111891   4.873   2.442   1.292
 3664SOL    HW211892   4.826   2.378   1.435
 3665SOL     OW11893   1.343   6.261   5.077
 3665SOL    HW111894   1.396   6.182   5.043
 3665SOL    HW211895   1.405   6.338   5.092
 3666SOL     OW11896   0.354   3.229   3.112
 3666SOL    HW111897   0.350   3.284   3.195
 3666SOL    HW211898   0.395   3.282   3.038
 3667SOL     OW11899   1.122   1.515   3.395
 3667SOL    HW111900   1.038   1.559   3.428
 3667SOL    HW211901   1.137   1.431   3.446
 3668SOL     OW11902   1.408   1.028   0.894
 3668SOL    HW111903   1.458   1.091   0.834
 3668SOL    HW211904   1.440   1.038   0.988
 3669SOL     OW11905   5.196   1.336   3.691
 3669SOL    HW111906   5.116   1.385   3.723
 3669SOL    HW211907   5.171   1.276   3.615
 3670SOL     OW11908   1.815   5.698   0.120
 3670SOL    HW111909   1.733   5.755   0.121
 3670SOL    HW211910   1.891   5.748   0.160
 3671SOL     OW11911   6.945   1.910   4.205
 3671SOL    HW111912   6.847   1.913   4.227
 3671SOL    HW211913   6.957   1.883   4.110
 3672SOL     OW11914   5.075   1.619   1.456
 3672SOL    HW111915   5.060   1.660   1.546
 3672SOL    HW211916   5.076   1.690   1.386
 3673SOL     OW11917   3.691   6.134   0.183
 3673SOL    HW111918   3.684   6.234   0.175
 3673SOL    HW211919   3.686   6.108   0.280
 3674SOL     OW11920   1.232   5.559   5.444
 3674SOL    HW111921   1.238   5.658   5.438
 3674SOL    HW211922   1.147   5.533   5.491
 3675SOL     OW11923   2.292   2.905   3.862
 3675SOL    HW111924   2.277   2.837   3.790
 3675SOL    HW211925   2.386   2.898   3.895
 3676SOL     OW11926   5.914   4.617   2.866
 3676SOL    HW111927   5.997   4.572   2.833
 3676SOL    HW211928   5.839   4.597   2.804
 3677SOL     OW11929   2.474   6.090   4.215
 3677SOL    HW111930   2.562   6.126   4.245
 3677SOL    HW211931   2.401   6.133   4.267
 3678SOL     OW11932   0.476   1.286   4.044
 3678SOL    HW111933   0.450   1.191   4.026
 3678SOL    HW211934   0.418   1.324   4.116
 3679SOL     OW11935   0.472   0.847   3.396
 3679SOL    HW111936   0.483   0.795   3.481
 3679SOL    HW211937   0.378   0.877   3.387
 3680SOL     OW11938   5.149   3.396   4.124
 3680SOL    HW111939   5.242   3.423   4.099
 3680SOL    HW211940   5.147   3.297   4.142
 3681SOL     OW11941   0.039   0.562   6.070
 3681SOL    HW111942   0.116   0.515   6.026
 3681SOL    HW211943   0.060   0.659   6.079
 3682SOL     OW11944   4.945   2.430   6.887
 3682SOL    HW111945   4.996   2.350   6.857
 3682SOL    HW211946   4.985   2.466   6.971
 3683SOL     OW11947   6.637   1.785   3.887
 3683SOL    HW111948   6.542   1.754   3.889
 3683SOL    HW211949   6.696   1.708   3.863
 3684SOL     OW11950   1.174   4.799   6.978
 3684SOL    HW111951   1.121   4.828   6.898
 3684SOL    HW211952   1.149   4.705   7.002
 3685SOL     OW11953   1.821   6.414   6.585
 3685SOL    HW111954   1.779   6.403   6.675
 3685SOL    HW211955   1.788   6.341   6.524
 3686SOL     OW11956   5.370   5.585   4.368
 3686SOL    HW111957   5.307   5.652   4.408
 3686SOL    HW211958   5.325   5.495   4.365
 3687SOL     OW11959   3.777   5.821   4.585
 3687SOL    HW111960   3.753   5.725   4.600
 3687SOL    HW211961   3.840   5.827   4.508
 3688SOL     OW11962   0.788   3.317   6.626
 3688SOL    HW111963   0.720   3.270   6.682
 3688SOL    HW211964   0.774   3.415   6.631
 3689SOL     OW11965   2.467   7.008   5.807
 3689SOL    HW111966   2.406   6.974   5.878
 3689SOL    HW211967   2.474   6.939   5.734
 3690SOL     OW11968   4.436   5.929   0.129
 3690SOL    HW111969   4.480   5.842   0.150
 3690SOL    HW211970   4.401   5.928   0.036
 3691SOL     OW11971   2.390   1.599   6.185
 3691SOL    HW111972   2.454   1.552   6.124
 3691SOL    HW211973   2.301   1.607   6.141
 3692SOL     OW11974   6.646   5.137   5.436
 3692SOL    HW111975   6.711   5.094   5.498
 3692SOL    HW211976   6.693   5.163   5.352
 3693SOL     OW11977   2.156   3.844   3.168
 3693SOL    HW111978   2.192   3.872   3.079
 3693SOL    HW211979   2.063   3.809   3.156
 3694SOL     OW11980   0.722   6.461   2.346
 3694SOL    HW111981   0.686   6.434   2.257
 3694SOL    HW211982   0.820   6.480   2.338
 3695SOL     OW11983   5.364   3.177   2.009
 3695SOL    HW111984   5.445   3.206   2.058
 3695SOL    HW211985   5.347   3.238   1.932
 3696SOL     OW11986   4.055   6.848   4.368
 3696SOL    HW111987   3.968   6.851   4.417
 3696SOL    HW211988   4.118   6.788   4.417
 3697SOL     OW11989   0.273   6.324   2.643
 3697SOL    HW111990   0.311   6.416   2.648
 3697SOL    HW211991   0.338   6.263   2.599
 3698SOL     OW11992   2.875   0.960   4.258
 3698SOL    HW111993   2.909   0.995   4.346
 3698SOL    HW211994   2.776   0.949   4.263
 3699SOL     OW11995   1.699   2.603   4.476
 3699SOL    HW111996   1.611   2.565   4.505
 3699SOL    HW211997   1.734   2.549   4.399
 3700SOL     OW11998   0.791   5.323   4.486
 3700SOL    HW111999   0.796   5.246   4.549
 3700SOL    HW212000   0.726   5.301   4.412
 3701SOL     OW12001   1.540   1.356   4.291
 3701SOL    HW112002   1.459   1.414   4.281
 3701SOL    HW212003   1.596   1.362   4.208
 3702SOL     OW12004   5.686   6.876   3.291
 3702SOL    HW112005   5.605   6.852   3.238
 3702SOL    HW212006   5.766   6.829   3.253
 3703SOL     OW12007   5.764   0.137   5.975
 3703SOL    HW112008   5.748   0.141   5.876
 3703SOL    HW212009   5.857   0.165   5.995
 3704SOL     OW12010   3.603   1.382   1.030
 3704SOL    HW112011   3.513   1.338   1.027
 3704SOL    HW212012   3.667   1.332   0.972
 3705SOL     OW12013   5.042   4.315   4.565
 3705SOL    HW112014   5.087   4.298   4.653
 3705SOL    HW212015   4.980   4.393   4.575
 3706SOL     OW12016   1.566   4.060   0.380
 3706SOL    HW112017   1.540   4.104   0.466
 3706SOL    HW212018   1.582   4.129   0.310
 3707SOL     OW12019   4.984   4.923   3.972
 3707SOL    HW112020   5.055   4.909   3.903
 3707SOL    HW212021   5.019   4.987   4.042
 3708SOL     OW12022   6.541   0.951   6.638
 3708SOL    HW112023   6.568   0.931   6.732
 3708SOL    HW212024   6.470   0.887   6.608
 3709SOL     OW12025   3.651   0.986   1.110
 3709SOL    HW112026   3.703   0.985   1.025
 3709SOL    HW212027   3.710   0.959   1.186
 3710SOL     OW12028   6.332   5.579   5.642
 3710SOL    HW112029   6.346   5.480   5.641
 3710SOL    HW212030   6.299   5.606   5.732
 3711SOL     OW12031   1.212   6.196   4.277
 3711SOL    HW112032   1.163   6.141   4.209
 3711SOL    HW212033   1.307   6.165   4.283
 3712SOL     OW12034   0.912   5.324   5.836
 3712SOL    HW112035   0.888   5.275   5.752
 3712SOL    HW212036   0.838   5.388   5.859
 3713SOL     OW12037   0.594   6.584   5.639
 3713SOL    HW112038   0.589   6.527   5.722
 3713SOL    HW212039   0.687   6.580   5.602
 3714SOL     OW12040   5.513   5.808   6.122
 3714SOL    HW112041   5.589   5.745   6.138
 3714SOL    HW212042   5.495   5.861   6.206
 3715SOL     OW12043   0.586   3.905   2.499
 3715SOL    HW112044   0.683   3.886   2.488
 3715SOL    HW212045   0.574   3.989   2.551
 3716SOL     OW12046   6.155   6.551   4.090
 3716SOL    HW112047   6.078   6.491   4.111
 3716SOL    HW212048   6.219   6.551   4.167
 3717SOL     OW12049   6.962   6.371   6.679
 3717SOL    HW112050   0.025   6.318   6.658
 3717SOL    HW212051   6.881   6.319   6.651
 3718SOL     OW12052   0.603   0.623   6.549
 3718SOL    HW112053   0.551   0.686   6.607
 3718SOL    HW212054   0.686   0.669   6.517
 3719SOL     OW12055   5.304   4.037   1.728
 3719SOL    HW112056   5.346   4.086   1.805
 3719SOL    HW212057   5.331   4.081   1.643
 3720SOL     OW12058   5.829   2.831   6.786
 3720SOL    HW112059   5.905   2.767   6.796
 3720SOL    HW212060   5.838   2.904   6.854
 3721SOL     OW12061   6.165   4.397   1.627
 3721SOL    HW112062   6.186   4.450   1.545
 3721SOL    HW212063   6.133   4.458   1.699
 3722SOL     OW12064   5.703   5.803   0.587
 3722SOL    HW112065   5.708   5.782   0.489
 3722SOL    HW212066   5.608   5.823   0.611
 3723SOL     OW12067   5.806   4.719   1.320
 3723SOL    HW112068   5.781   4.815   1.308
 3723SOL    HW212069   5.731   4.661   1.289
 3724SOL     OW12070   1.956   4.682   4.837
 3724SOL    HW112071   1.968   4.769   4.789
 3724SOL    HW212072   1.886   4.692   4.907
 3725SOL     OW12073   6.820   5.407   0.272
 3725SOL    HW112074   6.889   5.351   0.226
 3725SOL    HW212075   6.850   5.502   0.273
 3726SOL     OW12076   6.219   3.076   0.208
 3726SOL    HW112077   6.317   3.070   0.188
 3726SOL    HW212078   6.170   3.008   0.153
 3727SOL     OW12079   6.388   1.542   5.220
 3727SOL    HW112080   6.469   1.539   5.162
 3727SOL    HW212081   6.415   1.550   5.316
 3728SOL     OW12082   1.437   3.797   6.130
 3728SOL    HW112083   1.407   3.788   6.035
 3728SOL    HW212084   1.505   3.870   6.136
 3729SOL     OW12085   1.522   1.984   4.613
 3729SOL    HW112086   1.447   1.920   4.631
 3729SOL    HW212087   1.601   1.933   4.579
 3730SOL     OW12088   2.969   5.357   5.498
 3730SOL    HW112089   2.909   5.396   5.567
 3730SOL    HW212090   2.916   5.334   5.417
 3731SOL     OW12091   0.639   1.638   0.519
 3731SOL    HW112092   0.636   1.543   0.547
 3731SOL    HW212093   0.663   1.644   0.422
 3732SOL     OW12094   2.754   1.415   0.194
 3732SOL    HW112095   2.747   1.326   0.238
 3732SOL    HW212096   2.663   1.444   0.163
 3733SOL     OW12097   1.558   3.190   3.300
 3733SOL    HW112098   1.489   3.123   3.275
 3733SOL    HW212099   1.573   3.252   3.222
 3734SOL     OW12100   5.245   0.231   1.015
 3734SOL    HW112101   5.148   0.244   1.035
 3734SOL    HW212102   5.271   0.137   1.035
 3735SOL     OW12103   2.579   0.870   3.063
 3735SOL    HW112104   2.568   0.844   3.159
 3735SOL    HW212105   2.505   0.831   3.009
 3736SOL     OW12106   6.848   2.277   1.243
 3736SOL    HW112107   6.912   2.227   1.301
 3736SOL    HW212108   6.755   2.263   1.277
 3737SOL     OW12109   5.195   0.906   3.972
 3737SOL    HW112110   5.249   0.824   3.992
 3737SOL    HW212111   5.225   0.944   3.884
 3738SOL     OW12112   0.210   0.319   2.048
 3738SOL    HW112113   0.141   0.391   2.053
 3738SOL    HW212114   0.295   0.357   2.011
 3739SOL     OW12115   2.206   5.809   0.480
 3739SOL    HW112116   2.117   5.852   0.499
 3739SOL    HW212117   2.243   5.770   0.564
 3740SOL     OW12118   6.638   0.484   0.954
 3740SOL    HW112119   6.712   0.536   0.996
 3740SOL    HW212120   6.579   0.447   1.026
 3741SOL     OW12121   5.555   3.004   6.286
 3741SOL    HW112122   5.574   3.088   6.337
 3741SOL    HW212123   5.623   2.994   6.213
 3742SOL     OW12124   2.644   2.012   6.538
 3742SOL    HW112125   2.730   2.061   6.556
 3742SOL    HW212126   2.657   1.915   6.561
 3743SOL     OW12127   5.976   3.216   0.364
 3743SOL    HW112128   5.961   3.277   0.286
 3743SOL    HW212129   6.042   3.145   0.338
 3744SOL     OW12130   1.661   6.082   1.679
 3744SOL    HW112131   1.601   6.012   1.717
 3744SOL    HW212132   1.756   6.061   1.701
 3745SOL     OW12133   4.514   4.814   1.929
 3745SOL    HW112134   4.579   4.888   1.943
 3745SOL    HW212135   4.446   4.816   2.003
 3746SOL     OW12136   6.079   0.984   3.901
 3746SOL    HW112137   6.007   1.052   3.915
 3746SOL    HW212138   6.044   0.893   3.922
 3747SOL     OW12139   2.563   6.046   5.102
 3747SOL    HW112140   2.661   6.032   5.111
 3747SOL    HW212141   2.544   6.106   5.023
 3748SOL     OW12142   5.414   0.805   1.725
 3748SOL    HW112143   5.379   0.712   1.737
 3748SOL    HW212144   5.509   0.800   1.695
 3749SOL     OW12145   1.747   5.437   3.581
 3749SOL    HW112146   1.677   5.491   3.534
 3749SOL    HW212147   1.814   5.405   3.514
 3750SOL     OW12148   6.537   4.783   1.405
 3750SOL    HW112149   6.487   4.858   1.448
 3750SOL    HW212150   6.588   4.733   1.474
 3751SOL     OW12151   6.557   3.380   1.320
 3751SOL    HW112152   6.627   3.448   1.297
 3751SOL    HW212153   6.466   3.421   1.314
 3752SOL     OW12154   6.335   6.444   0.485
 3752SOL    HW112155   6.386   6.444   0.571
 3752SOL    HW212156   6.383   6.390   0.417
 3753SOL     OW12157   6.569   0.415   4.216
 3753SOL    HW112158   6.518   0.361   4.149
 3753SOL    HW212159   6.666   0.395   4.208
 3754SOL     OW12160   3.907   0.028   1.255
 3754SOL    HW112161   3.858   6.975   1.305
 3754SOL    HW212162   4.001   0.034   1.290
 3755SOL     OW12163   5.143   5.743   4.395
 3755SOL    HW112164   5.064   5.801   4.376
 3755SOL    HW212165   5.142   5.715   4.491
 3756SOL     OW12166   2.319   5.518   6.658
 3756SOL    HW112167   2.251   5.581   6.621
 3756SOL    HW212168   2.276   5.431   6.681
 3757SOL     OW12169   4.614   6.328   6.309
 3757SOL    HW112170   4.678   6.382   6.363
 3757SOL    HW212171   4.522   6.366   6.319
 3758SOL     OW12172   2.555   1.532   5.274
 3758SOL    HW112173   2.571   1.454   5.213
 3758SOL    HW212174   2.503   1.502   5.354
 3759SOL     OW12175   4.511   5.870   6.606
 3759SOL    HW112176   4.525   5.864   6.507
 3759SOL    HW212177   4.488   5.780   6.642
 3760SOL     OW12178   1.574   1.232   4.718
 3760SOL    HW112179   1.579   1.132   4.725
 3760SOL    HW212180   1.578   1.272   4.809
 3761SOL     OW12181   1.186   1.258   4.655
 3761SOL    HW112182   1.117   1.326   4.681
 3761SOL    HW212183   1.262   1.304   4.609
 3762SOL     OW12184   1.116   3.673   0.738
 3762SOL    HW112185   1.067   3.643   0.656
 3762SOL    HW212186   1.111   3.773   0.745
 3763SOL     OW12187   6.682   3.632   1.362
 3763SOL    HW112188   6.728   3.628   1.450
 3763SOL    HW212189   6.749   3.625   1.288
 3764SOL     OW12190   1.937   6.975   2.958
 3764SOL    HW112191   1.841   6.988   2.980
 3764SOL    HW212192   1.948   6.968   2.859
 3765SOL     OW12193   5.273   0.943   0.577
 3765SOL    HW112194   5.319   0.984   0.655
 3765SOL    HW212195   5.271   0.844   0.588
 3766SOL     OW12196   1.395   0.983   3.746
 3766SOL    HW112197   1.466   1.046   3.778
 3766SOL    HW212198   1.316   0.989   3.807
 3767SOL     OW12199   1.825   4.563   0.291
 3767SOL    HW112200   1.761   4.638   0.272
 3767SOL    HW212201   1.894   4.595   0.355
 3768SOL     OW12202   1.316   6.431   4.768
 3768SOL    HW112203   1.323   6.477   4.679
 3768SOL    HW212204   1.268   6.344   4.758
 3769SOL     OW12205   6.669   6.114   5.569
 3769SOL    HW112206   6.603   6.072   5.507
 3769SOL    HW212207   6.715   6.043   5.623
 3770SOL     OW12208   2.126   1.632   6.107
 3770SOL    HW112209   2.095   1.727   6.104
 3770SOL    HW212210   2.090   1.582   6.027
 3771SOL     OW12211   5.948   3.351   6.885
 3771SOL    HW112212   5.897   3.267   6.901
 3771SOL    HW212213   6.026   3.331   6.825
 3772SOL     OW12214   0.167   0.820   6.414
 3772SOL    HW112215   0.093   0.886   6.427
 3772SOL    HW212216   0.128   0.728   6.408
 3773SOL     OW12217   6.152   2.718   6.183
 3773SOL    HW112218   6.128   2.814   6.193
 3773SOL    HW212219   6.162   2.676   6.274
 3774SOL     OW12220   0.132   6.039   0.735
 3774SOL    HW112221   0.152   5.945   0.708
 3774SOL    HW212222   0.035   6.049   0.752
 3775SOL     OW12223   4.617   5.186   1.984
 3775SOL    HW112224   4.618   5.241   1.900
 3775SOL    HW212225   4.707   5.190   2.027
 3776SOL     OW12226   4.524   1.593   0.090
 3776SOL    HW112227   4.436   1.557   0.058
 3776SOL    HW212228   4.572   1.636   0.013
 3777SOL     OW12229   3.474   5.836   3.859
 3777SOL    HW112230   3.544   5.765   3.872
 3777SOL    HW212231   3.509   5.923   3.894
 3778SOL     OW12232   3.564   5.167   2.635
 3778SOL    HW112233   3.486   5.108   2.657
 3778SOL    HW212234   3.570   5.178   2.536
 3779SOL     OW12235   1.419   4.562   0.314
 3779SOL    HW112236   1.393   4.517   0.228
 3779SOL    HW212237   1.415   4.661   0.301
 3780SOL     OW12238   6.325   5.393   5.372
 3780SOL    HW112239   6.390   5.404   5.297
 3780SOL    HW212240   6.375   5.383   5.458
 3781SOL     OW12241   0.536   5.996   4.617
 3781SOL    HW112242   0.463   5.928   4.613
 3781SOL    HW212243   0.580   5.991   4.707
 3782SOL     OW12244   2.321   0.465   3.720
 3782SOL    HW112245   2.415   0.488   3.695
 3782SOL    HW212246   2.322   0.389   3.785
 3783SOL     OW12247   5.871   5.652   3.249
 3783SOL    HW112248   5.786   5.606   3.273
 3783SOL    HW212249   5.943   5.584   3.233
 3784SOL     OW12250   4.693   2.781   2.896
 3784SOL    HW112251   4.745   2.866   2.894
 3784SOL    HW212252   4.709   2.730   2.811
 3785SOL     OW12253   2.363   2.843   5.971
 3785SOL    HW112254   2.346   2.931   6.015
 3785SOL    HW212255   2.295   2.777   6.003
 3786SOL     OW12256   2.089   5.397   3.080
 3786SOL    HW112257   2.146   5.471   3.116
 3786SOL    HW212258   2.016   5.376   3.145
 3787SOL     OW12259   5.993   1.100   2.503
 3787SOL    HW112260   5.948   1.185   2.475
 3787SOL    HW212261   5.948   1.065   2.585
 3788SOL     OW12262   0.798   4.470   4.735
 3788SOL    HW112263   0.872   4.401   4.730
 3788SOL    HW212264   0.830   4.556   4.696
 3789SOL     OW12265   0.455   3.061   4.903
 3789SOL    HW112266   0.381   3.041   4.838
 3789SOL    HW212267   0.435   3.146   4.951
 3790SOL     OW12268   1.533   4.450   5.595
 3790SOL    HW112269   1.492   4.500   5.671
 3790SOL    HW212270   1.461   4.417   5.534
 3791SOL     OW12271   5.380   0.682   6.978
 3791SOL    HW112272   5.306   0.702   0.022
 3791SOL    HW212273   5.351   0.703   6.885
 3792SOL     OW12274   0.914   2.375   4.941
 3792SOL    HW112275   0.926   2.460   4.889
 3792SOL    HW212276   0.937   2.392   5.037
 3793SOL     OW12277   4.798   6.867   2.021
 3793SOL    HW112278   4.888   6.902   2.049
 3793SOL    HW212279   4.783   6.778   2.062
 3794SOL     OW12280   2.396   3.737   0.703
 3794SOL    HW112281   2.410   3.804   0.631
 3794SOL    HW212282   2.320   3.765   0.761
 3795SOL     OW12283   4.112   6.502   6.975
 3795SOL    HW112284   4.135   6.599   6.969
 3795SOL    HW212285   4.161   6.451   6.905
 3796SOL     OW12286   2.981   2.210   2.722
 3796SOL    HW112287   2.972   2.185   2.819
 3796SOL    HW212288   3.074   2.190   2.691
 3797SOL     OW12289   0.042   3.967   1.367
 3797SOL    HW112290   0.061   3.902   1.294
 3797SOL    HW212291   0.128   4.003   1.404
 3798SOL     OW12292   2.554   5.634   3.063
 3798SOL    HW112293   2.622   5.561   3.059
 3798SOL    HW212294   2.521   5.654   2.971
 3799SOL     OW12295   0.447   2.247   3.984
 3799SOL    HW112296   0.514   2.279   3.917
 3799SOL    HW212297   0.381   2.187   3.939
 3800SOL     OW12298   5.792   3.563   4.041
 3800SOL    HW112299   5.884   3.533   4.068
 3800SOL    HW212300   5.761   3.508   3.963
 3801SOL     OW12301   6.290   7.008   2.624
 3801SOL    HW112302   6.274   6.979   2.530
 3801SOL    HW212303   6.335   6.934   2.674
 3802SOL     OW12304   1.089   2.374   2.874
 3802SOL    HW112305   1.064   2.305   2.942
 3802SOL    HW212306   1.179   2.351   2.835
 3803SOL     OW12307   3.336   2.664   1.471
 3803SOL    HW112308   3.340   2.654   1.570
 3803SOL    HW212309   3.428   2.673   1.434
 3804SOL     OW12310   4.943   1.534   4.111
 3804SOL    HW112311   4.869   1.587   4.069
 3804SOL    HW212312   4.932   1.437   4.088
 3805SOL     OW12313   2.781   2.927   1.631
 3805SOL    HW112314   2.702   2.888   1.677
 3805SOL    HW212315   2.814   2.864   1.561
 3806SOL     OW12316   3.350   3.804   6.364
 3806SOL    HW112317   3.436   3.846   6.391
 3806SOL    HW212318   3.346   3.710   6.399
 3807SOL     OW12319   1.455   6.065   2.744
 3807SOL    HW112320   1.378   6.001   2.749
 3807SOL    HW212321   1.473   6.102   2.835
 3808SOL     OW12322   4.292   0.891   0.883
 3808SOL    HW112323   4.244   0.804   0.867
 3808SOL    HW212324   4.385   0.873   0.914
 3809SOL     OW12325   5.008   3.164   1.044
 3809SOL    HW112326   4.998   3.214   1.130
 3809SOL    HW212327   4.998   3.066   1.061
 3810SOL     OW12328   4.657   2.655   4.003
 3810SOL    HW112329   4.716   2.575   4.001
 3810SOL    HW212330   4.621   2.672   3.912
 3811SOL     OW12331   1.050   4.448   4.175
 3811SOL    HW112332   1.042   4.365   4.120
 3811SOL    HW212333   1.075   4.423   4.269
 3812SOL     OW12334   5.103   6.186   4.384
 3812SOL    HW112335   5.167   6.133   4.439
 3812SOL    HW212336   5.144   6.275   4.361
 3813SOL     OW12337   4.737   4.492   0.391
 3813SOL    HW112338   4.708   4.407   0.435
 3813SOL    HW212339   4.836   4.491   0.378
 3814SOL     OW12340   0.151   6.963   0.027
 3814SOL    HW112341   0.094   6.973   0.108
 3814SOL    HW212342   0.219   0.016   0.025
 3815SOL     OW12343   4.725   2.464   0.814
 3815SOL    HW112344   4.811   2.498   0.850
 3815SOL    HW212345   4.739   2.374   0.772
 3816SOL     OW12346   1.073   6.247   0.248
 3816SOL    HW112347   1.117   6.162   0.221
 3816SOL    HW212348   1.038   6.294   0.167
 3817SOL     OW12349   5.314   4.126   2.708
 3817SOL    HW112350   5.348   4.146   2.800
 3817SOL    HW212351   5.392   4.107   2.648
 3818SOL     OW12352   6.338   0.628   0.075
 3818SOL    HW112353   6.402   0.630   0.152
 3818SOL    HW212354   6.247   0.657   0.106
 3819SOL     OW12355   5.416   5.346   1.956
 3819SOL    HW112356   5.458   5.417   1.899
 3819SOL    HW212357   5.480   5.319   2.028
 3820SOL     OW12358   5.633   6.454   3.635
 3820SOL    HW112359   5.700   6.523   3.661
 3820SOL    HW212360   5.545   6.498   3.615
 3821SOL     OW12361   2.463   1.619   1.178
 3821SOL    HW112362   2.408   1.701   1.158
 3821SOL    HW212363   2.430   1.578   1.264
 3822SOL     OW12364   2.030   0.152   1.449
 3822SOL    HW112365   1.994   0.127   1.539
 3822SOL    HW212366   1.954   0.162   1.385
 3823SOL     OW12367   3.258   2.883   5.682
 3823SOL    HW112368   3.307   2.800   5.708
 3823SOL    HW212369   3.186   2.901   5.749
 3824SOL     OW12370   6.050   2.272   1.033
 3824SOL    HW112371   6.097   2.187   1.059
 3824SOL    HW212372   5.981   2.252   0.964
 3825SOL     OW12373   0.673   6.264   1.160
 3825SOL    HW112374   0.698   6.170   1.185
 3825SOL    HW212375   0.574   6.274   1.165
 3826SOL     OW12376   0.789   3.119   6.926
 3826SOL    HW112377   0.707   3.072   6.893
 3826SOL    HW212378   0.866   3.099   6.867
 3827SOL     OW12379   2.405   2.642   1.621
 3827SOL    HW112380   2.308   2.655   1.640
 3827SOL    HW212381   2.429   2.546   1.636
 3828SOL     OW12382   3.636   2.652   1.616
 3828SOL    HW112383   3.693   2.570   1.613
 3828SOL    HW212384   3.547   2.629   1.656
 3829SOL     OW12385   1.256   4.533   3.819
 3829SOL    HW112386   1.262   4.587   3.903
 3829SOL    HW212387   1.323   4.459   3.822
 3830SOL     OW12388   0.716   1.411   4.121
 3830SOL    HW112389   0.620   1.384   4.117
 3830SOL    HW212390   0.765   1.372   4.043
 3831SOL     OW12391   4.817   2.517   1.906
 3831SOL    HW112392   4.778   2.425   1.914
 3831SOL    HW212393   4.748   2.584   1.933
 3832SOL     OW12394   6.126   0.867   2.528
 3832SOL    HW112395   6.079   0.949   2.497
 3832SOL    HW212396   6.133   0.802   2.453
 3833SOL     OW12397   0.533   6.361   5.844
 3833SOL    HW112398   0.567   6.281   5.794
 3833SOL    HW212399   0.440   6.382   5.814
 3834SOL     OW12400   4.751   3.742   1.716
 3834SOL    HW112401   4.652   3.726   1.724
 3834SOL    HW212402   4.770   3.790   1.630
 3835SOL     OW12403   3.108   5.276   4.441
 3835SOL    HW112404   3.015   5.246   4.417
 3835SOL    HW212405   3.173   5.207   4.411
 3836SOL     OW12406   1.717   4.031   5.695
 3836SOL    HW112407   1.726   4.092   5.617
 3836SOL    HW212408   1.769   3.947   5.677
 3837SOL     OW12409   4.985   4.306   6.521
 3837SOL    HW112410   4.964   4.209   6.527
 3837SOL    HW212411   4.919   4.351   6.461
 3838SOL     OW12412   6.854   3.545   4.641
 3838SOL    HW112413   6.830   3.448   4.640
 3838SOL    HW212414   6.783   3.596   4.689
 3839SOL     OW12415   4.342   0.608   3.378
 3839SOL    HW112416   4.248   0.582   3.357
 3839SOL    HW212417   4.386   0.534   3.430
 3840SOL     OW12418   2.289   0.908   5.520
 3840SOL    HW112419   2.384   0.919   5.491
 3840SOL    HW212420   2.268   0.971   5.594
 3841SOL     OW12421   0.123   3.457   5.540
 3841SOL    HW112422   0.123   3.555   5.561
 3841SOL    HW212423   0.028   3.423   5.541
 3842SOL     OW12424   1.681   3.655   6.864
 3842SOL    HW112425   1.633   3.620   6.945
 3842SOL    HW212426   1.779   3.660   6.883
 3843SOL     OW12427   6.381   4.382   2.696
 3843SOL    HW112428   6.391   4.283   2.703
 3843SOL    HW212429   6.458   4.421   2.647
 3844SOL     OW12430   0.774   2.823   6.200
 3844SOL    HW112431   0.709   2.827   6.123
 3844SOL    HW212432   0.866   2.845   6.167
 3845SOL     OW12433   4.025   3.234   3.953
 3845SOL    HW112434   3.929   3.259   3.970
 3845SOL    HW212435   4.030   3.172   3.875
 3846SOL     OW12436   0.593   5.441   4.045
 3846SOL    HW112437   0.627   5.371   3.983
 3846SOL    HW212438   0.651   5.522   4.040
 3847SOL     OW12439   6.102   0.771   4.460
 3847SOL    HW112440   6.116   0.850   4.520
 3847SOL    HW212441   6.180   0.709   4.468
 3848SOL     OW12442   2.984   5.542   2.834
 3848SOL    HW112443   2.972   5.442   2.835
 3848SOL    HW212444   2.894   5.586   2.827
 3849SOL     OW12445   0.886   1.772   5.447
 3849SOL    HW112446   0.849   1.790   5.356
 3849SOL    HW212447   0.972   1.723   5.439
 3850SOL     OW12448   2.748   3.376   1.079
 3850SOL    HW112449   2.696   3.292   1.094
 3850SOL    HW212450   2.686   3.452   1.063
 3851SOL     OW12451   1.824   4.328   2.565
 3851SOL    HW112452   1.890   4.374   2.624
 3851SOL    HW212453   1.764   4.396   2.522
 3852SOL     OW12454   4.674   6.722   3.922
 3852SOL    HW112455   4.754   6.674   3.887
 3852SOL    HW212456   4.594   6.662   3.916
 3853SOL     OW12457   0.820   3.430   3.421
 3853SOL    HW112458   0.795   3.403   3.328
 3853SOL    HW212459   0.744   3.479   3.464
 3854SOL     OW12460   1.239   3.613   2.214
 3854SOL    HW112461   1.191   3.686   2.165
 3854SOL    HW212462   1.278   3.649   2.299
 3855SOL     OW12463   5.304   6.325   6.870
 3855SOL    HW112464   5.356   6.409   6.874
 3855SOL    HW212465   5.249   6.324   6.786
 3856SOL     OW12466   6.968   6.605   5.438
 3856SOL    HW112467   6.870   6.589   5.453
 3856SOL    HW212468   7.009   6.525   5.395
 3857SOL     OW12469   0.539   6.185   6.084
 3857SOL    HW112470   0.588   6.105   6.050
 3857SOL    HW212471   0.547   6.260   6.018
 3858SOL     OW12472   1.465   6.737   5.651
 3858SOL    HW112473   1.381   6.697   5.688
 3858SOL    HW212474   1.544   6.696   5.697
 3859SOL     OW12475   6.398   2.314   2.954
 3859SOL    HW112476   6.398   2.328   3.053
 3859SOL    HW212477   6.412   2.401   2.907
 3860SOL     OW12478   2.243   0.407   5.603
 3860SOL    HW112479   2.285   0.473   5.541
 3860SOL    HW212480   2.314   0.361   5.656
 3861SOL     OW12481   4.744   4.682   2.994
 3861SOL    HW112482   4.657   4.674   3.043
 3861SOL    HW212483   4.740   4.627   2.910
 3862SOL     OW12484   1.153   0.197   4.951
 3862SOL    HW112485   1.112   0.109   4.974
 3862SOL    HW212486   1.159   0.253   5.034
 3863SOL     OW12487   4.628   2.781   6.155
 3863SOL    HW112488   4.653   2.767   6.059
 3863SOL    HW212489   4.540   2.737   6.174
 3864SOL     OW12490   2.710   0.384   5.362
 3864SOL    HW112491   2.800   0.399   5.322
 3864SOL    HW212492   2.641   0.384   5.289
 3865SOL     OW12493   3.255   6.576   0.396
 3865SOL    HW112494   3.341   6.609   0.356
 3865SOL    HW212495   3.274   6.496   0.452
 3866SOL     OW12496   4.146   1.119   1.452
 3866SOL    HW112497   4.122   1.190   1.518
 3866SOL    HW212498   4.117   1.149   1.361
 3867SOL     OW12499   1.479   4.022   3.735
 3867SOL    HW112500   1.475   3.993   3.830
 3867SOL    HW212501   1.478   3.941   3.676
 3868SOL     OW12502   3.154   0.068   0.834
 3868SOL    HW112503   3.154   0.135   0.908
 3868SOL    HW212504   3.064   0.066   0.790
 3869SOL     OW12505   6.702   2.999   5.129
 3869SOL    HW112506   6.782   2.959   5.175
 3869SOL    HW212507   6.645   2.926   5.093
 3870SOL     OW12508   4.293   4.676   0.275
 3870SOL    HW112509   4.303   4.755   0.336
 3870SOL    HW212510   4.382   4.656   0.233
 3871SOL     OW12511   4.487   0.204   2.261
 3871SOL    HW112512   4.564   0.171   2.206
 3871SOL    HW212513   4.519   0.277   2.322
 3872SOL     OW12514   3.876   3.253   2.075
 3872SOL    HW112515   3.969   3.289   2.077
 3872SOL    HW212516   3.858   3.204   2.161
 3873SOL     OW12517   6.722   3.947   1.524
 3873SOL    HW112518   6.705   3.929   1.427
 3873SOL    HW212519   6.731   3.860   1.572
 3874SOL     OW12520   3.692   5.945   6.646
 3874SOL    HW112521   3.700   5.849   6.673
 3874SOL    HW212522   3.602   5.980   6.674
 3875SOL     OW12523   1.327   3.125   1.937
 3875SOL    HW112524   1.239   3.151   1.897
 3875SOL    HW212525   1.349   3.188   2.012
 3876SOL     OW12526   6.123   4.794   7.009
 3876SOL    HW112527   6.070   4.716   0.023
 3876SOL    HW212528   6.082   4.829   6.925
 3877SOL     OW12529   6.945   2.839   6.996
 3877SOL    HW112530   6.967   2.935   7.018
 3877SOL    HW212531   6.942   2.828   6.897
 3878SOL     OW12532   2.157   6.581   5.720
 3878SOL    HW112533   2.122   6.675   5.709
 3878SOL    HW212534   2.183   6.545   5.631
 3879SOL     OW12535   5.228   6.664   1.204
 3879SOL    HW112536   5.182   6.692   1.288
 3879SOL    HW212537   5.196   6.721   1.128
 3880SOL     OW12538   6.136   4.430   3.673
 3880SOL    HW112539   6.192   4.462   3.597
 3880SOL    HW212540   6.102   4.508   3.726
 3881SOL     OW12541   1.000   4.612   1.133
 3881SOL    HW112542   0.908   4.650   1.121
 3881SOL    HW212543   1.012   4.584   1.229
 3882SOL     OW12544   6.204   1.497   4.581
 3882SOL    HW112545   6.120   1.468   4.628
 3882SOL    HW212546   6.188   1.495   4.482
 3883SOL     OW12547   4.667   0.870   3.197
 3883SOL    HW112548   4.724   0.797   3.162
 3883SOL    HW212549   4.670   0.948   3.136
 3884SOL     OW12550   1.443   5.596   3.678
 3884SOL    HW112551   1.440   5.659   3.756
 3884SOL    HW212552   1.442   5.501   3.712
 3885SOL     OW12553   6.530   0.773   3.866
 3885SOL    HW112554   6.452   0.782   3.804
 3885SOL    HW212555   6.606   0.827   3.831
 3886SOL     OW12556   6.589   6.170   5.173
 3886SOL    HW112557   6.681   6.184   5.136
 3886SOL    HW212558   6.553   6.257   5.208
 3887SOL     OW12559   5.555   1.421   5.322
 3887SOL    HW112560   5.545   1.487   5.248
 3887SOL    HW212561   5.541   1.329   5.287
 3888SOL     OW12562   0.773   0.402   6.564
 3888SOL    HW112563   0.705   0.476   6.560
 3888SOL    HW212564   0.845   0.420   6.497
 3889SOL     OW12565   6.979   2.751   5.927
 3889SOL    HW112566   0.057   2.761   5.905
 3889SOL    HW212567   6.967   2.683   5.999
 3890SOL     OW12568   6.169   5.851   2.573
 3890SOL    HW112569   6.191   5.754   2.579
 3890SOL    HW212570   6.239   5.898   2.519
 3891SOL     OW12571   5.348   4.937   4.756
 3891SOL    HW112572   5.331   5.005   4.684
 3891SOL    HW212573   5.414   4.869   4.722
 3892SOL     OW12574   0.228   1.956   2.621
 3892SOL    HW112575   0.228   1.887   2.693
 3892SOL    HW212576   0.322   1.971   2.590
 3893SOL     OW12577   3.025   5.447   1.955
 3893SOL    HW112578   3.069   5.381   1.895
 3893SOL    HW212579   3.013   5.408   2.046
 3894SOL     OW12580   2.716   2.061   0.995
 3894SOL    HW112581   2.771   1.980   0.975
 3894SOL    HW212582   2.772   2.143   0.990
 3895SOL     OW12583   0.798   0.754   5.144
 3895SOL    HW112584   0.857   0.834   5.136
 3895SOL    HW212585   0.853   0.676   5.176
 3896SOL     OW12586   0.274   2.247   6.196
 3896SOL    HW112587   0.186   2.199   6.188
 3896SOL    HW212588   0.343   2.183   6.230
 3897SOL     OW12589   3.524   6.609   1.973
 3897SOL    HW112590   3.484   6.518   1.965
 3897SOL    HW212591   3.612   6.604   2.021
 3898SOL     OW12592   3.204   3.653   3.857
 3898SOL    HW112593   3.285   3.686   3.906
 3898SOL    HW212594   3.126   3.712   3.879
 3899SOL     OW12595   5.117   0.750   4.502
 3899SOL    HW112596   5.184   0.769   4.430
 3899SOL    HW212597   5.165   0.730   4.587
 3900SOL     OW12598   5.176   3.202   2.926
 3900SOL    HW112599   5.262   3.181   2.972
 3900SOL    HW212600   5.124   3.118   2.911
 3901SOL     OW12601   2.980   6.442   5.781
 3901SOL    HW112602   2.907   6.507   5.758
 3901SOL    HW212603   2.954   6.350   5.752
 3902SOL     OW12604   5.277   3.721   2.024
 3902SOL    HW112605   5.303   3.775   2.103
 3902SOL    HW212606   5.238   3.634   2.054
 3903SOL     OW12607   4.902   3.554   6.798
 3903SOL    HW112608   4.840   3.537   6.874
 3903SOL    HW212609   4.852   3.542   6.711
 3904SOL     OW12610   2.139   0.502   6.018
 3904SOL    HW112611   2.045   0.472   6.001
 3904SOL    HW212612   2.170   0.560   5.943
 3905SOL     OW12613   5.866   6.441   6.152
 3905SOL    HW112614   5.919   6.467   6.071
 3905SOL    HW212615   5.928   6.429   6.229
 3906SOL     OW12616   1.579   4.761   5.582
 3906SOL    HW112617   1.626   4.747   5.495
 3906SOL    HW212618   1.535   4.851   5.581
 3907SOL     OW12619   6.851   0.996   4.041
 3907SOL    HW112620   6.933   0.944   4.017
 3907SOL    HW212621   6.780   0.979   3.973
 3908SOL     OW12622   1.586   1.658   6.630
 3908SOL    HW112623   1.674   1.688   6.667
 3908SOL    HW212624   1.601   1.611   6.543
 3909SOL     OW12625   6.815   4.280   6.596
 3909SOL    HW112626   6.851   4.201   6.548
 3909SOL    HW212627   6.861   4.363   6.565
 3910SOL     OW12628   3.444   3.850   1.897
 3910SOL    HW112629   3.425   3.790   1.820
 3910SOL    HW212630   3.477   3.796   1.974
 3911SOL     OW12631   5.032   0.923   0.427
 3911SOL    HW112632   5.121   0.956   0.460
 3911SOL    HW212633   4.962   0.992   0.445
 3912SOL     OW12634   3.841   0.915   6.262
 3912SOL    HW112635   3.835   0.825   6.306
 3912SOL    HW212636   3.931   0.927   6.221
 3913SOL     OW12637   3.137   6.444   6.819
 3913SOL    HW112638   3.179   6.434   6.909
 3913SOL    HW212639   3.200   6.410   6.749
 3914SOL     OW12640   4.958   0.669   1.232
 3914SOL    HW112641   5.023   0.650   1.305
 3914SOL    HW212642   4.994   0.741   1.172
 3915SOL     OW12643   4.535   6.642   6.979
 3915SOL    HW112644   4.512   6.720   0.018
 3915SOL    HW212645   4.474   6.566   6.998
 3916SOL     OW12646   2.692   0.058   2.992
 3916SOL    HW112647   2.770   0.050   3.054
 3916SOL    HW212648   2.713   0.123   2.920
 3917SOL     OW12649   1.241   4.323   1.262
 3917SOL    HW112650   1.210   4.401   1.317
 3917SOL    HW212651   1.233   4.346   1.165
 3918SOL     OW12652   3.558   6.616   1.195
 3918SOL    HW112653   3.588   6.603   1.101
 3918SOL    HW212654   3.463   6.649   1.195
 3919SOL     OW12655   3.522   0.282   6.843
 3919SOL    HW112656   3.585   0.355   6.870
 3919SOL    HW212657   3.428   0.309   6.865
 3920SOL     OW12658   2.881   0.738   6.589
 3920SOL    HW112659   2.817   0.806   6.626
 3920SOL    HW212660   2.882   0.745   6.489
 3921SOL     OW12661   0.196   1.988   7.015
 3921SOL    HW112662   0.222   2.002   0.091
 3921SOL    HW212663   0.213   1.893   6.989
 3922SOL     OW12664   5.083   4.978   1.626
 3922SOL    HW112665   5.121   4.888   1.647
 3922SOL    HW212666   4.988   4.982   1.657
 3923SOL     OW12667   5.606   2.018   1.044
 3923SOL    HW112668   5.559   2.060   1.121
 3923SOL    HW212669   5.651   1.934   1.073
 3924SOL     OW12670   0.417   5.064   2.724
 3924SOL    HW112671   0.495   5.124   2.741
 3924SOL    HW212672   0.354   5.067   2.802
 3925SOL     OW12673   4.605   4.987   1.087
 3925SOL    HW112674   4.572   5.034   1.168
 3925SOL    HW212675   4.550   4.905   1.072
 3926SOL     OW12676   0.410   0.433   5.002
 3926SOL    HW112677   0.408   0.333   5.012
 3926SOL    HW212678   0.501   0.467   5.025
 3927SOL     OW12679   0.275   2.661   4.342
 3927SOL    HW112680   0.242   2.723   4.271
 3927SOL    HW212681   0.335   2.592   4.300
 3928SOL     OW12682   2.990   5.701   3.062
 3928SOL    HW112683   2.978   5.641   2.983
 3928SOL    HW212684   3.062   5.665   3.121
 3929SOL     OW12685   0.194   1.021   6.929
 3929SOL    HW112686   0.273   1.039   6.987
 3929SOL    HW212687   0.114   1.002   6.986
 3930SOL     OW12688   0.878   2.256   3.658
 3930SOL    HW112689   0.923   2.208   3.733
 3930SOL    HW212690   0.929   2.340   3.637
 3931SOL     OW12691   1.800   1.716   2.130
 3931SOL    HW112692   1.867   1.760   2.071
 3931SOL    HW212693   1.796   1.618   2.108
 3932SOL     OW12694   2.178   4.834   3.946
 3932SOL    HW112695   2.159   4.736   3.933
 3932SOL    HW212696   2.107   4.875   4.003
 3933SOL     OW12697   1.655   0.191   0.077
 3933SOL    HW112698   1.647   0.248   7.015
 3933SOL    HW212699   1.738   0.215   0.127
 3934SOL     OW12700   6.939   1.232   3.318
 3934SOL    HW112701   6.962   1.329   3.308
 3934SOL    HW212702   6.844   1.223   3.346
 3935SOL     OW12703   0.739   1.338   5.830
 3935SOL    HW112704   0.655   1.351   5.779
 3935SOL    HW212705   0.718   1.328   5.927
 3936SOL     OW12706   6.706   6.387   5.533
 3936SOL    HW112707   6.702   6.287   5.534
 3936SOL    HW212708   6.623   6.424   5.574
 3937SOL     OW12709   6.863   6.545   2.542
 3937SOL    HW112710   6.805   6.510   2.615
 3937SOL    HW212711   6.836   6.638   2.519
 3938SOL     OW12712   6.353   4.236   4.247
 3938SOL    HW112713   6.376   4.323   4.291
 3938SOL    HW212714   6.437   4.186   4.228
 3939SOL     OW12715   3.080   1.663   3.713
 3939SOL    HW112716   3.128   1.750   3.707
 3939SOL    HW212717   3.059   1.629   3.621
 3940SOL     OW12718   2.813   4.753   1.712
 3940SOL    HW112719   2.814   4.701   1.797
 3940SOL    HW212720   2.721   4.752   1.673
 3941SOL     OW12721   5.859   0.175   4.465
 3941SOL    HW112722   5.848   0.136   4.374
 3941SOL    HW212723   5.838   0.106   4.534
 3942SOL     OW12724   0.497   6.312   5.463
 3942SOL    HW112725   0.474   6.245   5.534
 3942SOL    HW212726   0.590   6.344   5.477
 3943SOL     OW12727   0.816   3.470   2.512
 3943SOL    HW112728   0.808   3.523   2.596
 3943SOL    HW212729   0.726   3.459   2.470
 3944SOL     OW12730   5.978   3.673   5.795
 3944SOL    HW112731   5.958   3.584   5.837
 3944SOL    HW212732   6.050   3.719   5.847
 3945SOL     OW12733   1.203   2.501   3.432
 3945SOL    HW112734   1.203   2.424   3.369
 3945SOL    HW212735   1.253   2.478   3.515
 3946SOL     OW12736   0.462   3.555   6.707
 3946SOL    HW112737   0.487   3.586   6.798
 3946SOL    HW212738   0.491   3.623   6.639
 3947SOL     OW12739   5.861   5.102   0.680
 3947SOL    HW112740   5.809   5.034   0.732
 3947SOL    HW212741   5.934   5.057   0.629
 3948SOL     OW12742   1.530   3.878   6.808
 3948SOL    HW112743   1.554   3.785   6.836
 3948SOL    HW212744   1.612   3.934   6.804
 3949SOL     OW12745   6.483   6.758   3.733
 3949SOL    HW112746   6.537   6.775   3.815
 3949SOL    HW212747   6.521   6.680   3.684
 3950SOL     OW12748   4.154   3.963   1.683
 3950SOL    HW112749   4.110   3.878   1.656
 3950SOL    HW212750   4.251   3.946   1.701
 3951SOL     OW12751   0.407   1.360   6.587
 3951SOL    HW112752   0.484   1.318   6.636
 3951SOL    HW212753   0.321   1.328   6.627
 3952SOL     OW12754   6.242   3.288   4.421
 3952SOL    HW112755   6.187   3.209   4.446
 3952SOL    HW212756   6.335   3.277   4.456
 3953SOL     OW12757   3.521   4.138   5.836
 3953SOL    HW112758   3.577   4.187   5.769
 3953SOL    HW212759   3.429   4.176   5.836
 3954SOL     OW12760   5.673   4.718   5.939
 3954SOL    HW112761   5.696   4.690   5.846
 3954SOL    HW212762   5.721   4.802   5.962
 3955SOL     OW12763   5.059   6.044   7.002
 3955SOL    HW112764   5.007   6.128   0.003
 3955SOL    HW212765   5.054   6.025   6.904
 3956SOL     OW12766   0.804   2.613   5.266
 3956SOL    HW112767   0.764   2.691   5.217
 3956SOL    HW212768   0.807   2.634   5.364
 3957SOL     OW12769   3.395   6.047   3.135
 3957SOL    HW112770   3.446   6.014   3.215
 3957SOL    HW212771   3.407   5.981   3.060
 3958SOL     OW12772   6.308   6.292   6.773
 3958SOL    HW112773   6.241   6.219   6.762
 3958SOL    HW212774   6.392   6.254   6.814
 3959SOL     OW12775   3.343   6.623   1.435
 3959SOL    HW112776   3.314   6.700   1.491
 3959SOL    HW212777   3.266   6.562   1.417
 3960SOL     OW12778   5.504   2.264   6.044
 3960SOL    HW112779   5.529   2.358   6.067
 3960SOL    HW212780   5.431   2.264   5.975
 3961SOL     OW12781   5.012   1.743   1.690
 3961SOL    HW112782   4.940   1.698   1.742
 3961SOL    HW212783   5.046   1.822   1.741
 3962SOL     OW12784   0.532   5.864   7.013
 3962SOL    HW112785   0.545   5.963   7.003
 3962SOL    HW212786   0.533   5.841   0.091
 3963SOL     OW12787   5.777   4.964   3.606
 3963SOL    HW112788   5.857   4.944   3.549
 3963SOL    HW212789   5.727   5.041   3.566
 3964SOL     OW12790   4.245   5.308   4.970
 3964SOL    HW112791   4.331   5.277   5.010
 3964SOL    HW212792   4.182   5.338   5.042
 3965SOL     OW12793   3.582   5.074   6.171
 3965SOL    HW112794   3.512   5.008   6.198
 3965SOL    HW212795   3.539   5.147   6.117
 3966SOL     OW12796   6.833   4.796   0.299
 3966SOL    HW112797   6.802   4.767   0.209
 3966SOL    HW212798   6.932   4.786   0.306
 3967SOL     OW12799   1.437   4.805   2.713
 3967SOL    HW112800   1.516   4.841   2.664
 3967SOL    HW212801   1.439   4.705   2.711
 3968SOL     OW12802   5.770   0.519   1.206
 3968SOL    HW112803   5.864   0.535   1.237
 3968SOL    HW212804   5.743   0.593   1.144
 3969SOL     OW12805   0.768   4.447   2.692
 3969SOL    HW112806   0.690   4.499   2.657
 3969SOL    HW212807   0.831   4.426   2.617
 3970SOL     OW12808   5.296   5.464   3.475
 3970SOL    HW112809   5.357   5.487   3.550
 3970SOL    HW212810   5.216   5.416   3.510
 3971SOL     OW12811   3.094   5.360   2.227
 3971SOL    HW112812   3.151   5.362   2.145
 3971SOL    HW212813   3.069   5.266   2.249
 3972SOL     OW12814   0.732   6.044   0.837
 3972SOL    HW112815   0.802   6.013   0.772
 3972SOL    HW212816   0.691   6.129   0.802
 3973SOL     OW12817   2.881   3.692   5.143
 3973SOL    HW112818   2.905   3.616   5.082
 3973SOL    HW212819   2.962   3.749   5.158
 3974SOL     OW12820   0.595   0.639   6.132
 3974SOL    HW112821   0.538   0.629   6.051
 3974SOL    HW212822   0.591   0.734   6.164
 3975SOL     OW12823   6.126   0.114   5.839
 3975SOL    HW112824   6.084   0.154   5.921
 3975SOL    HW212825   6.213   0.159   5.820
 3976SOL     OW12826   1.008   5.330   1.029
 3976SOL    HW112827   1.050   5.401   1.085
 3976SOL    HW212828   0.929   5.368   0.980
 3977SOL     OW12829   3.256   4.940   6.294
 3977SOL    HW112830   3.289   5.027   6.258
 3977SOL    HW212831   3.302   4.865   6.247
 3978SOL     OW12832   5.108   0.011   4.534
 3978SOL    HW112833   5.181   6.997   4.474
 3978SOL    HW212834   5.099   0.110   4.523
 3979SOL     OW12835   2.391   6.103   1.897
 3979SOL    HW112836   2.452   6.048   1.839
 3979SOL    HW212837   2.320   6.145   1.841
 3980SOL     OW12838   0.186   3.996   6.359
 3980SOL    HW112839   0.265   3.948   6.318
 3980SOL    HW212840   0.218   4.054   6.434
 3981SOL     OW12841   1.128   1.894   6.186
 3981SOL    HW112842   1.078   1.957   6.127
 3981SOL    HW212843   1.135   1.805   6.143
 3982SOL     OW12844   2.645   0.711   3.804
 3982SOL    HW112845   2.740   0.720   3.774
 3982SOL    HW212846   2.603   0.801   3.810
 3983SOL     OW12847   3.477   5.892   4.256
 3983SOL    HW112848   3.434   5.802   4.253
 3983SOL    HW212849   3.536   5.898   4.337
 3984SOL     OW12850   2.446   0.498   1.636
 3984SOL    HW112851   2.419   0.594   1.637
 3984SOL    HW212852   2.373   0.443   1.676
 3985SOL     OW12853   2.151   4.364   6.574
 3985SOL    HW112854   2.168   4.267   6.594
 3985SOL    HW212855   2.057   4.388   6.600
 3986SOL     OW12856   0.256   1.790   3.536
 3986SOL    HW112857   0.221   1.883   3.531
 3986SOL    HW212858   0.324   1.776   3.464
 3987SOL     OW12859   1.302   5.230   5.006
 3987SOL    HW112860   1.333   5.290   5.080
 3987SOL    HW212861   1.205   5.208   5.019
 3988SOL     OW12862   3.478   2.393   5.639
 3988SOL    HW112863   3.445   2.378   5.546
 3988SOL    HW212864   3.405   2.373   5.704
 3989SOL     OW12865   5.695   0.566   5.959
 3989SOL    HW112866   5.660   0.660   5.957
 3989SOL    HW212867   5.658   0.516   5.881
 3990SOL     OW12868   5.905   1.762   3.965
 3990SOL    HW112869   5.863   1.720   4.045
 3990SOL    HW212870   5.928   1.857   3.986
 3991SOL     OW12871   6.586   2.648   3.584
 3991SOL    HW112872   6.555   2.580   3.651
 3991SOL    HW212873   6.546   2.737   3.607
 3992SOL     OW12874   4.576   2.817   6.491
 3992SOL    HW112875   4.531   2.903   6.467
 3992SOL    HW212876   4.561   2.797   6.588
 3993SOL     OW12877   2.102   1.750   3.492
 3993SOL    HW112878   2.191   1.783   3.462
 3993SOL    HW212879   2.107   1.723   3.588
 3994SOL     OW12880   1.872   2.508   4.669
 3994SOL    HW112881   1.805   2.529   4.598
 3994SOL    HW212882   1.825   2.502   4.757
 3995SOL     OW12883   2.133   4.577   3.979
 3995SOL    HW112884   2.039   4.559   4.008
 3995SOL    HW212885   2.183   4.490   3.975
 3996SOL     OW12886   1.272   0.823   5.081
 3996SOL    HW112887   1.331   0.884   5.028
 3996SOL    HW212888   1.202   0.877   5.128
 3997SOL     OW12889   4.875   3.623   3.573
 3997SOL    HW112890   4.875   3.658   3.667
 3997SOL    HW212891   4.785   3.640   3.532
 3998SOL     OW12892   5.296   2.281   2.201
 3998SOL    HW112893   5.211   2.334   2.199
 3998SOL    HW212894   5.292   2.214   2.276
 3999SOL     OW12895   5.800   3.360   3.424
 3999SOL    HW112896   5.844   3.437   3.379
 3999SOL    HW212897   5.865   3.315   3.486
 4000SOL     OW12898   3.094   5.447   2.501
 4000SOL    HW112899   3.108   5.446   2.402
 4000SOL    HW212900   3.132   5.532   2.539
 4001SOL     OW12901   2.358   2.706   5.051
 4001SOL    HW112902   2.298   2.686   5.128
 4001SOL    HW212903   2.375   2.805   5.047
 4002SOL     OW12904   3.858   3.977   5.681
 4002SOL    HW112905   3.930   4.008   5.619
 4002SOL    HW212906   3.810   3.899   5.641
 4003SOL     OW12907   2.038   0.921   5.868
 4003SOL    HW112908   1.974   0.967   5.930
 4003SOL    HW212909   2.063   0.984   5.794
 4004SOL     OW12910   6.011   3.146   4.467
 4004SOL    HW112911   5.982   3.067   4.413
 4004SOL    HW212912   6.026   3.118   4.562
 4005SOL     OW12913   5.147   4.608   1.051
 4005SOL    HW112914   5.213   4.563   1.112
 4005SOL    HW212915   5.125   4.547   0.975
 4006SOL     OW12916   4.783   4.740   2.621
 4006SOL    HW112917   4.837   4.793   2.687
 4006SOL    HW212918   4.786   4.785   2.532
 4007SOL     OW12919   0.701   2.816   2.374
 4007SOL    HW112920   0.679   2.827   2.471
 4007SOL    HW212921   0.781   2.870   2.351
 4008SOL     OW12922   3.401   1.141   6.112
 4008SOL    HW112923   3.378   1.184   6.025
 4008SOL    HW212924   3.331   1.167   6.180
 4009SOL     OW12925   4.064   2.578   0.758
 4009SOL    HW112926   3.975   2.621   0.775
 4009SOL    HW212927   4.137   2.645   0.771
 4010SOL     OW12928   2.484   3.391   1.497
 4010SOL    HW112929   2.503   3.309   1.551
 4010SOL    HW212930   2.441   3.460   1.555
 4011SOL     OW12931   0.461   6.633   1.951
 4011SOL    HW112932   0.387   6.608   1.888
 4011SOL    HW212933   0.539   6.667   1.899
 4012SOL     OW12934   4.182   5.704   2.517
 4012SOL    HW112935   4.196   5.607   2.536
 4012SOL    HW212936   4.265   5.755   2.540
 4013SOL     OW12937   2.714   0.376   1.298
 4013SOL    HW112938   2.731   0.335   1.208
 4013SOL    HW212939   2.708   0.475   1.289
 4014SOL     OW12940   3.941   5.417   4.055
 4014SOL    HW112941   3.911   5.495   4.000
 4014SOL    HW212942   4.021   5.375   4.013
 4015SOL     OW12943   4.291   4.536   6.555
 4015SOL    HW112944   4.351   4.532   6.475
 4015SOL    HW212945   4.314   4.461   6.617
 4016SOL     OW12946   2.160   5.640   0.258
 4016SOL    HW112947   2.192   5.685   0.341
 4016SOL    HW212948   2.100   5.703   0.207
 4017SOL     OW12949   0.509   6.907   6.256
 4017SOL    HW112950   0.592   6.857   6.281
 4017SOL    HW212951   0.433   6.875   6.313
 4018SOL     OW12952   4.879   6.434   0.724
 4018SOL    HW112953   4.834   6.379   0.654
 4018SOL    HW212954   4.975   6.408   0.731
 4019SOL     OW12955   6.169   3.935   2.782
 4019SOL    HW112956   6.132   3.841   2.781
 4019SOL    HW212957   6.189   3.964   2.689
 4020SOL     OW12958   0.443   2.896   5.910
 4020SOL    HW112959   0.383   2.947   5.972
 4020SOL    HW212960   0.462   2.952   5.829
 4021SOL     OW12961   3.279   4.054   5.438
 4021SOL    HW112962   3.334   4.123   5.390
 4021SOL    HW212963   3.338   4.004   5.502
 4022SOL     OW12964   4.476   6.922   6.611
 4022SOL    HW112965   4.539   6.847   6.595
 4022SOL    HW212966   4.386   6.885   6.634
 4023SOL     OW12967   0.028   0.821   3.966
 4023SOL    HW112968   0.050   0.768   4.048
 4023SOL    HW212969   0.076   0.781   3.887
 4024SOL     OW12970   2.198   5.658   4.178
 4024SOL    HW112971   2.271   5.591   4.162
 4024SOL    HW212972   2.225   5.720   4.251
 4025SOL     OW12973   0.978   6.432   3.849
 4025SOL    HW112974   1.049   6.435   3.920
 4025SOL    HW212975   0.984   6.515   3.793
 4026SOL     OW12976   6.209   0.020   3.203
 4026SOL    HW112977   6.240   6.987   3.123
 4026SOL    HW212978   6.113   7.018   3.221
 4027SOL     OW12979   2.857   2.367   0.703
 4027SOL    HW112980   2.917   2.440   0.735
 4027SOL    HW212981   2.886   2.280   0.743
 4028SOL     OW12982   3.400   1.733   3.225
 4028SOL    HW112983   3.402   1.819   3.175
 4028SOL    HW212984   3.345   1.744   3.309
 4029SOL     OW12985   3.244   4.711   5.659
 4029SOL    HW112986   3.156   4.722   5.706
 4029SOL    HW212987   3.306   4.658   5.717
 4030SOL     OW12988   0.670   1.647   1.764
 4030SOL    HW112989   0.599   1.696   1.713
 4030SOL    HW212990   0.629   1.586   1.831
 4031SOL     OW12991   5.152   6.179   3.288
 4031SOL    HW112992   5.248   6.167   3.262
 4031SOL    HW212993   5.103   6.094   3.272
 4032SOL     OW12994   6.105   0.408   2.583
 4032SOL    HW112995   6.058   0.326   2.616
 4032SOL    HW212996   6.167   0.384   2.508
 4033SOL     OW12997   2.550   3.599   1.343
 4033SOL    HW112998   2.598   3.670   1.394
 4033SOL    HW212999   2.541   3.517   1.399
 4034SOL     OW13000   6.398   1.451   4.248
 4034SOL    HW113001   6.366   1.545   4.258
 4034SOL    HW213002   6.498   1.449   4.250
 4035SOL     OW13003   6.525   2.386   0.547
 4035SOL    HW113004   6.486   2.355   0.461
 4035SOL    HW213005   6.598   2.324   0.575
 4036SOL     OW13006   4.665   5.943   2.325
 4036SOL    HW113007   4.705   5.860   2.364
 4036SOL    HW213008   4.603   5.918   2.250
 4037SOL     OW13009   2.608   1.562   0.685
 4037SOL    HW113010   2.653   1.603   0.605
 4037SOL    HW213011   2.656   1.479   0.710
 4038SOL     OW13012   4.614   3.229   1.613
 4038SOL    HW113013   4.616   3.187   1.704
 4038SOL    HW213014   4.622   3.158   1.543
 4039SOL     OW13015   5.522   4.577   1.487
 4039SOL    HW113016   5.526   4.542   1.394
 4039SOL    HW213017   5.428   4.571   1.521
 4040SOL     OW13018   3.699   6.939   5.885
 4040SOL    HW113019   3.691   0.019   5.880
 4040SOL    HW213020   3.718   6.912   5.979
 4041SOL     OW13021   1.160   4.996   1.484
 4041SOL    HW113022   1.102   4.929   1.437
 4041SOL    HW213023   1.254   4.963   1.485
 4042SOL     OW13024   6.009   5.859   3.332
 4042SOL    HW113025   5.945   5.786   3.309
 4042SOL    HW213026   6.038   5.906   3.249
 4043SOL     OW13027   5.765   1.646   4.259
 4043SOL    HW113028   5.725   1.619   4.346
 4043SOL    HW213029   5.832   1.719   4.274
 4044SOL     OW13030   4.835   6.940   3.610
 4044SOL    HW113031   4.781   7.018   3.578
 4044SOL    HW213032   4.775   6.861   3.620
 4045SOL     OW13033   3.036   5.642   5.331
 4045SOL    HW113034   3.020   5.670   5.236
 4045SOL    HW213035   2.980   5.696   5.392
 4046SOL     OW13036   1.391   2.038   4.238
 4046SOL    HW113037   1.409   1.961   4.300
 4046SOL    HW213038   1.422   2.123   4.281
 4047SOL     OW13039   2.285   2.228   0.934
 4047SOL    HW113040   2.243   2.268   0.852
 4047SOL    HW213041   2.319   2.301   0.993
 4048SOL     OW13042   5.413   1.908   1.860
 4048SOL    HW113043   5.494   1.945   1.816
 4048SOL    HW213044   5.378   1.830   1.807
 4049SOL     OW13045   6.168   4.790   6.417
 4049SOL    HW113046   6.112   4.846   6.355
 4049SOL    HW213047   6.108   4.732   6.472
 4050SOL     OW13048   1.420   0.003   1.227
 4050SOL    HW113049   1.510   6.989   1.256
 4050SOL    HW213050   1.354   6.946   1.231
 4051SOL     OW13051   3.945   2.079   6.998
 4051SOL    HW113052   3.894   2.102   0.062
 4051SOL    HW213053   3.911   2.134   6.922
 4052SOL     OW13054   6.660   1.360   2.834
 4052SOL    HW113055   6.658   1.261   2.844
 4052SOL    HW213056   6.583   1.400   2.884
 4053SOL     OW13057   2.900   5.595   4.155
 4053SOL    HW113058   2.866   5.667   4.095
 4053SOL    HW213059   2.844   5.513   4.143
 4054SOL     OW13060   5.999   3.560   1.685
 4054SOL    HW113061   5.990   3.490   1.615
 4054SOL    HW213062   5.919   3.557   1.746
 4055SOL     OW13063   3.322   3.175   6.601
 4055SOL    HW113064   3.271   3.251   6.643
 4055SOL    HW213065   3.356   3.114   6.672
 4056SOL     OW13066   3.686   3.882   0.896
 4056SOL    HW113067   3.726   3.973   0.884
 4056SOL    HW213068   3.589   3.892   0.919
 4057SOL     OW13069   5.781   2.927   1.425
 4057SOL    HW113070   5.743   3.015   1.397
 4057SOL    HW213071   5.741   2.899   1.512
 4058SOL     OW13072   1.607   0.001   4.100
 4058SOL    HW113073   1.509   0.019   4.095
 4058SOL    HW213074   1.657   0.078   4.061
 4059SOL     OW13075   1.626   2.215   3.491
 4059SOL    HW113076   1.635   2.135   3.433
 4059SOL    HW213077   1.632   2.187   3.587
 4060SOL     OW13078   5.412   5.823   4.692
 4060SOL    HW113079   5.445   5.897   4.751
 4060SOL    HW213080   5.422   5.735   4.740
 4061SOL     OW13081   3.044   4.818   1.910
 4061SOL    HW113082   3.048   4.875   1.828
 4061SOL    HW213083   2.957   4.768   1.912
 4062SOL     OW13084   2.129   2.518   1.988
 4062SOL    HW113085   2.040   2.549   1.955
 4062SOL    HW213086   2.143   2.422   1.963
 4063SOL     OW13087   6.370   5.585   6.173
 4063SOL    HW113088   6.460   5.625   6.157
 4063SOL    HW213089   6.307   5.618   6.103
 4064SOL     OW13090   2.446   6.968   3.672
 4064SOL    HW113091   2.458   0.007   3.592
 4064SOL    HW213092   2.348   6.955   3.690
 4065SOL     OW13093   0.147   0.146   1.072
 4065SOL    HW113094   0.239   0.123   1.040
 4065SOL    HW213095   0.121   0.083   1.145
 4066SOL     OW13096   5.643   5.133   3.477
 4066SOL    HW113097   5.593   5.126   3.390
 4066SOL    HW213098   5.658   5.229   3.500
 4067SOL     OW13099   6.628   3.573   3.571
 4067SOL    HW113100   6.598   3.503   3.636
 4067SOL    HW213101   6.562   3.648   3.571
 4068SOL     OW13102   3.008   0.633   4.755
 4068SOL    HW113103   3.059   0.576   4.821
 4068SOL    HW213104   2.927   0.583   4.725
 4069SOL     OW13105   2.637   5.315   5.830
 4069SOL    HW113106   2.578   5.368   5.891
 4069SOL    HW213107   2.687   5.377   5.770
 4070SOL     OW13108   0.396   3.211   2.050
 4070SOL    HW113109   0.320   3.152   2.022
 4070SOL    HW213110   0.455   3.163   2.114
 4071SOL     OW13111   1.280   0.614   5.409
 4071SOL    HW113112   1.248   0.702   5.444
 4071SOL    HW213113   1.257   0.606   5.313
 4072SOL     OW13114   0.169   5.994   4.206
 4072SOL    HW113115   0.069   5.984   4.206
 4072SOL    HW213116   0.194   6.077   4.254
 4073SOL     OW13117   2.554   6.211   6.452
 4073SOL    HW113118   2.604   6.296   6.470
 4073SOL    HW213119   2.476   6.230   6.393
 4074SOL     OW13120   6.644   2.843   1.612
 4074SOL    HW113121   6.593   2.796   1.684
 4074SOL    HW213122   6.737   2.809   1.609
 4075SOL     OW13123   3.649   1.742   2.140
 4075SOL    HW113124   3.553   1.762   2.123
 4075SOL    HW213125   3.698   1.826   2.160
 4076SOL     OW13126   2.777   2.757   5.658
 4076SOL    HW113127   2.784   2.690   5.585
 4076SOL    HW213128   2.763   2.848   5.619
 4077SOL     OW13129   3.724   0.962   0.602
 4077SOL    HW113130   3.753   1.056   0.581
 4077SOL    HW213131   3.654   0.933   0.537
 4078SOL     OW13132   0.000   5.841   2.371
 4078SOL    HW113133   0.100   5.840   2.375
 4078SOL    HW213134   6.989   5.882   2.285
 4079SOL     OW13135   1.508   2.266   4.018
 4079SOL    HW113136   1.503   2.361   4.050
 4079SOL    HW213137   1.589   2.222   4.059
 4080SOL     OW13138   2.912   4.145   6.709
 4080SOL    HW113139   2.880   4.229   6.755
 4080SOL    HW213140   2.994   4.166   6.656
 4081SOL     OW13141   2.498   2.014   4.505
 4081SOL    HW113142   2.469   2.056   4.591
 4081SOL    HW213143   2.418   1.981   4.455
 4082SOL     OW13144   1.675   3.027   0.264
 4082SOL    HW113145   1.664   3.092   0.188
 4082SOL    HW213146   1.593   2.971   0.271
 4083SOL     OW13147   6.821   4.533   1.859
 4083SOL    HW113148   6.841   4.508   1.764
 4083SOL    HW213149   6.907   4.536   1.911
 4084SOL     OW13150   4.403   2.463   3.554
 4084SOL    HW113151   4.384   2.545   3.501
 4084SOL    HW213152   4.406   2.384   3.493
 4085SOL     OW13153   2.222   6.290   1.038
 4085SOL    HW113154   2.265   6.290   0.947
 4085SOL    HW213155   2.226   6.383   1.076
 4086SOL     OW13156   0.487   5.333   1.494
 4086SOL    HW113157   0.529   5.247   1.523
 4086SOL    HW213158   0.403   5.313   1.442
 4087SOL     OW13159   1.501   1.482   3.362
 4087SOL    HW113160   1.525   1.556   3.424
 4087SOL    HW213161   1.432   1.514   3.297
 4088SOL     OW13162   5.776   0.846   6.864
 4088SOL    HW113163   5.746   0.941   6.856
 4088SOL    HW213164   5.708   0.786   6.821
 4089SOL     OW13165   5.396   4.784   3.837
 4089SOL    HW113166   5.416   4.828   3.925
 4089SOL    HW213167   5.381   4.854   3.768
 4090SOL     OW13168   1.339   5.417   5.233
 4090SOL    HW113169   1.437   5.396   5.234
 4090SOL    HW213170   1.313   5.461   5.319
 4091SOL     OW13171   0.230   6.300   6.830
 4091SOL    HW113172   0.275   6.359   6.896
 4091SOL    HW213173   0.220   6.349   6.743
 4092SOL     OW13174   5.740   2.764   4.240
 4092SOL    HW113175   5.788   2.783   4.155
 4092SOL    HW213176   5.685   2.681   4.229
 4093SOL     OW13177   4.489   5.823   2.130
 4093SOL    HW113178   4.399   5.795   2.162
 4093SOL    HW213179   4.480   5.894   2.060
 4094SOL     OW13180   1.959   5.393   5.595
 4094SOL    HW113181   1.942   5.403   5.693
 4094SOL    HW213182   1.872   5.378   5.548
 4095SOL     OW13183   0.541   4.002   0.834
 4095SOL    HW113184   0.636   3.992   0.806
 4095SOL    HW213185   0.488   3.925   0.798
 4096SOL     OW13186   4.704   0.632   6.046
 4096SOL    HW113187   4.719   0.564   6.118
 4096SOL    HW213188   4.607   0.654   6.040
 4097SOL     OW13189   3.983   4.840   5.036
 4097SOL    HW113190   4.009   4.887   5.120
 4097SOL    HW213191   3.904   4.886   4.996
 4098SOL     OW13192   6.742   2.386   1.884
 4098SOL    HW113193   6.667   2.432   1.837
 4098SOL    HW213194   6.800   2.454   1.929
 4099SOL     OW13195   3.722   4.938   1.486
 4099SOL    HW113196   3.765   5.028   1.481
 4099SOL    HW213197   3.647   4.933   1.420
 4100SOL     OW13198   6.954   6.820   4.527
 4100SOL    HW113199   6.897   6.874   4.465
 4100SOL    HW213200   0.020   6.796   4.481
 4101SOL     OW13201   6.618   1.217   6.601
 4101SOL    HW113202   6.668   1.231   6.515
 4101SOL    HW213203   6.597   1.120   6.611
 4102SOL     OW13204   0.529   1.376   0.562
 4102SOL    HW113205   0.563   1.313   0.632
 4102SOL    HW213206   0.530   1.331   0.473
 4103SOL     OW13207   0.422   0.025   0.288
 4103SOL    HW113208   0.380   7.010   0.204
 4103SOL    HW213209   0.373   7.007   0.367
 4104SOL     OW13210   6.640   5.127   3.200
 4104SOL    HW113211   6.673   5.169   3.115
 4104SOL    HW213212   6.714   5.075   3.242
 4105SOL     OW13213   5.383   0.119   1.827
 4105SOL    HW113214   5.307   0.055   1.845
 4105SOL    HW213215   5.356   0.182   1.754
 4106SOL     OW13216   6.355   3.307   3.016
 4106SOL    HW113217   6.280   3.366   2.985
 4106SOL    HW213218   6.442   3.341   2.978
 4107SOL     OW13219   1.085   5.529   1.213
 4107SOL    HW113220   1.102   5.581   1.129
 4107SOL    HW213221   0.987   5.531   1.234
 4108SOL     OW13222   6.198   5.242   5.118
 4108SOL    HW113223   6.183   5.224   5.020
 4108SOL    HW213224   6.117   5.286   5.156
 4109SOL     OW13225   6.110   6.542   4.488
 4109SOL    HW113226   6.073   6.467   4.543
 4109SOL    HW213227   6.189   6.510   4.436
 4110SOL     OW13228   4.357   3.688   5.770
 4110SOL    HW113229   4.392   3.669   5.862
 4110SOL    HW213230   4.431   3.678   5.703
 4111SOL     OW13231   5.364   3.639   6.784
 4111SOL    HW113232   5.362   3.731   6.744
 4111SOL    HW213233   5.457   3.618   6.814
 4112SOL     OW13234   5.222   6.249   4.726
 4112SOL    HW113235   5.172   6.292   4.801
 4112SOL    HW213236   5.235   6.152   4.745
 4113SOL     OW13237   5.072   6.116   5.167
 4113SOL    HW113238   5.055   6.208   5.200
 4113SOL    HW213239   4.986   6.073   5.142
 4114SOL     OW13240   4.146   2.229   3.904
 4114SOL    HW113241   4.221   2.238   3.969
 4114SOL    HW213242   4.075   2.296   3.924
 4115SOL     OW13243   3.545   5.308   1.987
 4115SOL    HW113244   3.537   5.212   1.960
 4115SOL    HW213245   3.500   5.321   2.076
 4116SOL     OW13246   3.647   1.621   2.402
 4116SOL    HW113247   3.564   1.668   2.435
 4116SOL    HW213248   3.658   1.640   2.304
 4117SOL     OW13249   1.679   3.301   2.306
 4117SOL    HW113250   1.665   3.371   2.236
 4117SOL    HW213251   1.592   3.254   2.323
 4118SOL     OW13252   4.777   5.355   0.523
 4118SOL    HW113253   4.717   5.310   0.589
 4118SOL    HW213254   4.864   5.306   0.519
 4119SOL     OW13255   3.654   1.809   4.120
 4119SOL    HW113256   3.647   1.902   4.084
 4119SOL    HW213257   3.664   1.813   4.219
 4120SOL     OW13258   3.812   0.528   6.662
 4120SOL    HW113259   3.734   0.554   6.719
 4120SOL    HW213260   3.824   0.429   6.665
 4121SOL     OW13261   6.011   0.303   4.650
 4121SOL    HW113262   5.949   0.286   4.573
 4121SOL    HW213263   6.063   0.220   4.670
 4122SOL     OW13264   1.096   5.997   4.118
 4122SOL    HW113265   1.027   5.978   4.187
 4122SOL    HW213266   1.055   5.989   4.027
 4123SOL     OW13267   4.240   4.727   5.212
 4123SOL    HW113268   4.185   4.797   5.165
 4123SOL    HW213269   4.218   4.637   5.175
 4124SOL     OW13270   0.053   6.500   0.572
 4124SOL    HW113271   0.138   6.449   0.584
 4124SOL    HW213272   0.073   6.593   0.542
 4125SOL     OW13273   4.841   1.555   1.820
 4125SOL    HW113274   4.897   1.487   1.772
 4125SOL    HW213275   4.859   1.548   1.918
 4126SOL     OW13276   1.721   3.702   3.680
 4126SOL    HW113277   1.788   3.697   3.606
 4126SOL    HW213278   1.700   3.609   3.712
 4127SOL     OW13279   5.410   4.775   5.346
 4127SOL    HW113280   5.408   4.786   5.446
 4127SOL    HW213281   5.319   4.794   5.309
 4128SOL     OW13282   1.099   3.091   1.769
 4128SOL    HW113283   1.005   3.118   1.746
 4128SOL    HW213284   1.132   3.025   1.702
 4129SOL     OW13285   3.789   0.773   6.988
 4129SOL    HW113286   3.875   0.731   6.959
 4129SOL    HW213287   3.793   0.872   6.974
 4130SOL     OW13288   6.680   3.262   0.104
 4130SOL    HW113289   6.626   3.178   0.109
 4130SOL    HW213290   6.618   3.341   0.098
 4131SOL     OW13291   0.262   1.848   3.799
 4131SOL    HW113292   0.200   1.791   3.853
 4131SOL    HW213293   0.247   1.829   3.702
 4132SOL     OW13294   4.797   4.362   3.546
 4132SOL    HW113295   4.812   4.459   3.561
 4132SOL    HW213296   4.726   4.350   3.476
 4133SOL     OW13297   3.141   5.792   0.959
 4133SOL    HW113298   3.211   5.788   1.031
 4133SOL    HW213299   3.133   5.886   0.926
 4134SOL     OW13300   2.869   4.183   0.909
 4134SOL    HW113301   2.915   4.132   0.982
 4134SOL    HW213302   2.849   4.121   0.833
 4135SOL     OW13303   0.971   1.829   2.697
 4135SOL    HW113304   0.889   1.799   2.649
 4135SOL    HW213305   1.004   1.756   2.756
 4136SOL     OW13306   1.356   2.763   3.423
 4136SOL    HW113307   1.285   2.695   3.407
 4136SOL    HW213308   1.376   2.769   3.521
 4137SOL     OW13309   1.246   3.949   1.421
 4137SOL    HW113310   1.280   3.907   1.505
 4137SOL    HW213311   1.320   3.999   1.376
 4138SOL     OW13312   4.414   5.847   2.676
 4138SOL    HW113313   4.405   5.823   2.772
 4138SOL    HW213314   4.451   5.940   2.668
 4139SOL     OW13315   2.416   1.767   5.461
 4139SOL    HW113316   2.468   1.801   5.540
 4139SOL    HW213317   2.417   1.667   5.461
 4140SOL     OW13318   3.242   6.808   5.342
 4140SOL    HW113319   3.342   6.808   5.343
 4140SOL    HW213320   3.209   6.783   5.251
 4141SOL     OW13321   5.437   6.319   0.597
 4141SOL    HW113322   5.345   6.304   0.561
 4141SOL    HW213323   5.472   6.234   0.636
 4142SOL     OW13324   6.783   4.464   1.000
 4142SOL    HW113325   6.834   4.530   1.056
 4142SOL    HW213326   6.758   4.385   1.056
 4143SOL     OW13327   5.467   1.859   0.801
 4143SOL    HW113328   5.419   1.791   0.856
 4143SOL    HW213329   5.533   1.908   0.858
 4144SOL     OW13330   5.267   2.381   0.317
 4144SOL    HW113331   5.217   2.299   0.347
 4144SOL    HW213332   5.208   2.461   0.324
 4145SOL     OW13333   0.396   6.696   1.623
 4145SOL    HW113334   0.471   6.695   1.556
 4145SOL    HW213335   0.380   6.789   1.654
 4146SOL     OW13336   6.526   0.233   3.022
 4146SOL    HW113337   6.571   0.196   2.941
 4146SOL    HW213338   6.477   0.160   3.070
 4147SOL     OW13339   4.920   4.617   6.078
 4147SOL    HW113340   4.916   4.715   6.097
 4147SOL    HW213341   4.964   4.570   6.154
 4148SOL     OW13342   1.159   0.664   4.574
 4148SOL    HW113343   1.068   0.681   4.612
 4148SOL    HW213344   1.191   0.746   4.527
 4149SOL     OW13345   6.975   3.604   0.662
 4149SOL    HW113346   6.984   3.506   0.681
 4149SOL    HW213347   6.901   3.642   0.716
 4150SOL     OW13348   0.978   0.051   5.742
 4150SOL    HW113349   0.925   0.044   5.826
 4150SOL    HW213350   0.939   7.010   5.672
 4151SOL     OW13351   3.314   6.502   5.589
 4151SOL    HW113352   3.268   6.432   5.643
 4151SOL    HW213353   3.376   6.554   5.646
 4152SOL     OW13354   4.447   5.625   0.541
 4152SOL    HW113355   4.513   5.692   0.507
 4152SOL    HW213356   4.409   5.574   0.464
 4153SOL     OW13357   5.863   5.101   0.109
 4153SOL    HW113358   5.776   5.076   0.066
 4153SOL    HW213359   5.939   5.074   0.049
 4154SOL     OW13360   0.054   5.428   3.478
 4154SOL    HW113361   0.081   5.445   3.383
 4154SOL    HW213362   0.034   5.331   3.490
 4155SOL     OW13363   0.904   1.294   2.510
 4155SOL    HW113364   0.917   1.389   2.481
 4155SOL    HW213365   0.919   1.233   2.433
 4156SOL     OW13366   5.771   5.656   5.010
 4156SOL    HW113367   5.678   5.631   5.037
 4156SOL    HW213368   5.834   5.585   5.041
 4157SOL     OW13369   4.794   5.098   3.828
 4157SOL    HW113370   4.844   5.157   3.765
 4157SOL    HW213371   4.853   5.025   3.860
 4158SOL     OW13372   6.922   3.343   1.355
 4158SOL    HW113373   7.005   3.391   1.382
 4158SOL    HW213374   6.889   3.286   1.430
 4159SOL     OW13375   2.177   3.845   3.629
 4159SOL    HW113376   2.245   3.785   3.587
 4159SOL    HW213377   2.110   3.791   3.680
 4160SOL     OW13378   5.900   0.912   0.662
 4160SOL    HW113379   5.892   0.866   0.573
 4160SOL    HW213380   5.973   0.980   0.657
 4161SOL     OW13381   1.233   1.641   0.925
 4161SOL    HW113382   1.327   1.633   0.891
 4161SOL    HW213383   1.171   1.600   0.858
 4162SOL     OW13384   0.050   5.713   6.705
 4162SOL    HW113385   7.002   5.765   6.758
 4162SOL    HW213386   0.004   5.668   6.629
 4163SOL     OW13387   4.837   6.831   3.159
 4163SOL    HW113388   4.856   6.921   3.197
 4163SOL    HW213389   4.885   6.762   3.213
 4164SOL     OW13390   1.624   6.735   6.069
 4164SOL    HW113391   1.706   6.699   6.023
 4164SOL    HW213392   1.545   6.680   6.042
 4165SOL     OW13393   3.999   0.181   6.167
 4165SOL    HW113394   3.905   0.213   6.163
 4165SOL    HW213395   4.035   0.168   6.075
 4166SOL     OW13396   5.690   2.725   0.492
 4166SOL    HW113397   5.696   2.824   0.481
 4166SOL    HW213398   5.667   2.703   0.587
 4167SOL     OW13399   1.714   4.209   1.152
 4167SOL    HW113400   1.799   4.231   1.202
 4167SOL    HW213401   1.705   4.110   1.145
 4168SOL     OW13402   6.778   4.380   1.595
 4168SOL    HW113403   6.721   4.461   1.579
 4168SOL    HW213404   6.721   4.305   1.629
 4169SOL     OW13405   5.755   4.550   4.926
 4169SOL    HW113406   5.757   4.591   5.017
 4169SOL    HW213407   5.729   4.453   4.934
 4170SOL     OW13408   4.562   4.092   5.981
 4170SOL    HW113409   4.492   4.156   5.951
 4170SOL    HW213410   4.520   4.014   6.026
 4171SOL     OW13411   6.552   6.006   0.605
 4171SOL    HW113412   6.456   6.004   0.632
 4171SOL    HW213413   6.560   5.988   0.507
 4172SOL     OW13414   1.156   2.077   5.785
 4172SOL    HW113415   1.082   2.066   5.719
 4172SOL    HW213416   1.118   2.086   5.877
 4173SOL     OW13417   5.298   3.943   5.280
 4173SOL    HW113418   5.235   3.903   5.213
 4173SOL    HW213419   5.309   3.882   5.358
 4174SOL     OW13420   5.723   0.430   3.367
 4174SOL    HW113421   5.671   0.516   3.376
 4174SOL    HW213422   5.708   0.374   3.448
 4175SOL     OW13423   2.070   5.918   4.059
 4175SOL    HW113424   1.974   5.891   4.073
 4175SOL    HW213425   2.130   5.842   4.085
 4176SOL     OW13426   3.167   5.966   2.283
 4176SOL    HW113427   3.110   5.988   2.362
 4176SOL    HW213428   3.207   6.050   2.246
 4177SOL     OW13429   6.567   4.579   5.096
 4177SOL    HW113430   6.529   4.491   5.124
 4177SOL    HW213431   6.644   4.602   5.155
 4178SOL     OW13432   4.930   0.631   4.040
 4178SOL    HW113433   4.884   0.717   4.063
 4178SOL    HW213434   4.870   0.554   4.062
 4179SOL     OW13435   4.776   2.780   3.444
 4179SOL    HW113436   4.729   2.867   3.431
 4179SOL    HW213437   4.755   2.719   3.368
 4180SOL     OW13438   5.693   4.400   0.663
 4180SOL    HW113439   5.604   4.430   0.695
 4180SOL    HW213440   5.719   4.452   0.582
 4181SOL     OW13441   2.574   1.416   1.006
 4181SOL    HW113442   2.567   1.510   1.040
 4181SOL    HW213443   2.659   1.375   1.040
 4182SOL     OW13444   0.950   6.703   3.261
 4182SOL    HW113445   0.985   6.659   3.179
 4182SOL    HW213446   0.902   6.636   3.317
 4183SOL     OW13447   3.496   1.253   0.160
 4183SOL    HW113448   3.587   1.266   0.200
 4183SOL    HW213449   3.460   1.341   0.130
 4184SOL     OW13450   4.773   5.405   1.509
 4184SOL    HW113451   4.779   5.356   1.422
 4184SOL    HW213452   4.706   5.478   1.502
 4185SOL     OW13453   0.397   5.029   2.350
 4185SOL    HW113454   0.314   5.023   2.296
 4185SOL    HW213455   0.392   4.964   2.426
 4186SOL     OW13456   2.266   4.946   0.049
 4186SOL    HW113457   2.183   5.002   0.045
 4186SOL    HW213458   2.253   4.863   7.014
 4187SOL     OW13459   3.517   3.672   5.345
 4187SOL    HW113460   3.422   3.699   5.363
 4187SOL    HW213461   3.535   3.583   5.387
 4188SOL     OW13462   4.854   6.785   4.713
 4188SOL    HW113463   4.765   6.742   4.695
 4188SOL    HW213464   4.905   6.793   4.627
 4189SOL     OW13465   3.189   5.499   5.534
 4189SOL    HW113466   3.167   5.529   5.442
 4189SOL    HW213467   3.125   5.428   5.563
 4190SOL     OW13468   1.168   0.846   6.966
 4190SOL    HW113469   1.265   0.870   6.975
 4190SOL    HW213470   1.148   0.767   0.004
 4191SOL     OW13471   4.845   3.824   3.392
 4191SOL    HW113472   4.919   3.767   3.428
 4191SOL    HW213473   4.850   3.826   3.292
 4192SOL     OW13474   0.899   0.881   4.405
 4192SOL    HW113475   0.918   0.905   4.309
 4192SOL    HW213476   0.946   0.946   4.465
 4193SOL     OW13477   1.092   0.581   1.887
 4193SOL    HW113478   1.121   0.674   1.913
 4193SOL    HW213479   1.113   0.567   1.790
 4194SOL     OW13480   5.503   0.511   5.170
 4194SOL    HW113481   5.485   0.574   5.095
 4194SOL    HW213482   5.589   0.535   5.214
 4195SOL     OW13483   3.848   6.585   1.700
 4195SOL    HW113484   3.771   6.521   1.698
 4195SOL    HW213485   3.814   6.678   1.706
 4196SOL     OW13486   5.810   1.971   3.333
 4196SOL    HW113487   5.738   1.901   3.335
 4196SOL    HW213488   5.806   2.026   3.417
 4197SOL     OW13489   4.802   5.920   6.176
 4197SOL    HW113490   4.722   5.893   6.122
 4197SOL    HW213491   4.862   5.977   6.119
 4198SOL     OW13492   5.645   2.311   0.127
 4198SOL    HW113493   5.629   2.406   0.154
 4198SOL    HW213494   5.705   2.267   0.193
 4199SOL     OW13495   2.367   3.140   5.874
 4199SOL    HW113496   2.355   3.093   5.787
 4199SOL    HW213497   2.279   3.144   5.922
 4200SOL     OW13498   3.693   6.530   5.966
 4200SOL    HW113499   3.619   6.574   6.018
 4200SOL    HW213500   3.654   6.472   5.895
 4201SOL     OW13501   6.071   5.932   3.948
 4201SOL    HW113502   6.100   5.933   3.852
 4201SOL    HW213503   5.992   5.991   3.960
 4202SOL     OW13504   3.967   5.124   5.990
 4202SOL    HW113505   3.964   5.191   6.063
 4202SOL    HW213506   3.915   5.043   6.017
 4203SOL     OW13507   4.940   4.865   0.418
 4203SOL    HW113508   4.919   4.924   0.341
 4203SOL    HW213509   4.986   4.917   0.489
 4204SOL     OW13510   4.087   3.651   2.742
 4204SOL    HW113511   4.027   3.731   2.746
 4204SOL    HW213512   4.129   3.646   2.652
 4205SOL     OW13513   3.755   5.714   3.439
 4205SOL    HW113514   3.665   5.744   3.407
 4205SOL    HW213515   3.772   5.621   3.408
 4206SOL     OW13516   6.643   0.085   6.580
 4206SOL    HW113517   6.634   0.169   6.635
 4206SOL    HW213518   6.555   0.038   6.577
 4207SOL     OW13519   1.381   1.509   1.266
 4207SOL    HW113520   1.458   1.565   1.235
 4207SOL    HW213521   1.296   1.562   1.257
 4208SOL     OW13522   0.867   3.741   5.923
 4208SOL    HW113523   0.808   3.799   5.980
 4208SOL    HW213524   0.817   3.657   5.900
 4209SOL     OW13525   0.391   0.851   5.250
 4209SOL    HW113526   0.470   0.836   5.309
 4209SOL    HW213527   0.323   0.906   5.298
 4210SOL     OW13528   3.104   3.049   2.666
 4210SOL    HW113529   3.050   3.054   2.581
 4210SOL    HW213530   3.120   3.142   2.700
 4211SOL     OW13531   3.943   5.318   5.816
 4211SOL    HW113532   4.016   5.361   5.870
 4211SOL    HW213533   3.914   5.233   5.860
 4212SOL     OW13534   5.904   1.867   2.707
 4212SOL    HW113535   5.847   1.816   2.641
 4212SOL    HW213536   5.973   1.919   2.657
 4213SOL     OW13537   2.104   1.119   1.448
 4213SOL    HW113538   2.194   1.127   1.491
 4213SOL    HW213539   2.033   1.123   1.518
 4214SOL     OW13540   1.940   4.706   5.518
 4214SOL    HW113541   1.874   4.632   5.526
 4214SOL    HW213542   2.027   4.671   5.482
 4215SOL     OW13543   6.815   6.140   5.029
 4215SOL    HW113544   6.809   6.128   4.930
 4215SOL    HW213545   6.903   6.183   5.052
 4216SOL     OW13546   0.999   1.975   2.940
 4216SOL    HW113547   1.015   1.903   2.872
 4216SOL    HW213548   1.085   2.001   2.982
 4217SOL     OW13549   0.702   0.974   2.605
 4217SOL    HW113550   0.691   0.979   2.705
 4217SOL    HW213551   0.649   0.897   2.570
 4218SOL     OW13552   4.471   0.974   1.754
 4218SOL    HW113553   4.451   1.066   1.719
 4218SOL    HW213554   4.413   0.907   1.707
 4219SOL     OW13555   2.500   5.203   3.567
 4219SOL    HW113556   2.485   5.228   3.471
 4219SOL    HW213557   2.585   5.151   3.575
 4220SOL     OW13558   5.305   2.905   3.705
 4220SOL    HW113559   5.213   2.867   3.709
 4220SOL    HW213560   5.350   2.890   3.793
 4221SOL     OW13561   6.208   5.387   6.730
 4221SOL    HW113562   6.217   5.306   6.788
 4221SOL    HW213563   6.172   5.361   6.640
 4222SOL     OW13564   5.972   1.419   3.145
 4222SOL    HW113565   5.907   1.374   3.083
 4222SOL    HW213566   5.922   1.460   3.221
 4223SOL     OW13567   3.453   3.915   6.010
 4223SOL    HW113568   3.488   3.990   5.955
 4223SOL    HW213569   3.442   3.833   5.953
 4224SOL     OW13570   4.979   3.369   3.745
 4224SOL    HW113571   4.998   3.397   3.839
 4224SOL    HW213572   5.058   3.389   3.687
 4225SOL     OW13573   3.650   0.989   6.087
 4225SOL    HW113574   3.711   0.941   6.150
 4225SOL    HW213575   3.578   1.035   6.139
 4226SOL     OW13576   0.884   0.552   2.273
 4226SOL    HW113577   0.916   0.628   2.329
 4226SOL    HW213578   0.789   0.530   2.296
 4227SOL     OW13579   3.931   4.416   6.826
 4227SOL    HW113580   3.903   4.504   6.788
 4227SOL    HW213581   3.942   4.350   6.752
 4228SOL     OW13582   0.505   3.695   4.518
 4228SOL    HW113583   0.501   3.730   4.612
 4228SOL    HW213584   0.590   3.725   4.475
 4229SOL     OW13585   4.772   5.258   5.589
 4229SOL    HW113586   4.733   5.350   5.600
 4229SOL    HW213587   4.707   5.190   5.625
 4230SOL     OW13588   1.400   0.488   4.197
 4230SOL    HW113589   1.433   0.477   4.103
 4230SOL    HW213590   1.398   0.399   4.243
 4231SOL     OW13591   5.971   6.068   5.315
 4231SOL    HW113592   5.954   6.162   5.289
 4231SOL    HW213593   5.914   6.006   5.260
 4232SOL     OW13594   6.597   4.917   2.942
 4232SOL    HW113595   6.652   4.919   2.858
 4232SOL    HW213596   6.658   4.906   3.021
 4233SOL     OW13597   6.630   0.212   6.962
 4233SOL    HW113598   6.600   0.303   6.991
 4233SOL    HW213599   6.554   0.164   6.920
 4234SOL     OW13600   2.262   6.825   5.907
 4234SOL    HW113601   2.181   6.822   5.848
 4234SOL    HW213602   2.282   6.732   5.940
 4235SOL     OW13603   5.676   3.411   5.943
 4235SOL    HW113604   5.771   3.398   5.912
 4235SOL    HW213605   5.618   3.431   5.865
 4236SOL     OW13606   6.987   3.985   3.187
 4236SOL    HW113607   0.059   4.025   3.179
 4236SOL    HW213608   6.933   4.038   3.253
 4237SOL     OW13609   6.193   5.500   2.920
 4237SOL    HW113610   6.146   5.495   3.008
 4237SOL    HW213611   6.178   5.415   2.870
 4238SOL     OW13612   3.031   4.973   2.692
 4238SOL    HW113613   2.996   5.066   2.682
 4238SOL    HW213614   3.006   4.919   2.612
 4239SOL     OW13615   5.302   1.660   3.215
 4239SOL    HW113616   5.204   1.680   3.212
 4239SOL    HW213617   5.319   1.589   3.283
 4240SOL     OW13618   2.090   0.862   0.420
 4240SOL    HW113619   2.136   0.802   0.486
 4240SOL    HW213620   1.992   0.842   0.420
 4241SOL     OW13621   5.849   0.671   0.495
 4241SOL    HW113622   5.906   0.626   0.564
 4241SOL    HW213623   5.764   0.620   0.485
 4242SOL     OW13624   1.847   0.547   3.401
 4242SOL    HW113625   1.806   0.610   3.467
 4242SOL    HW213626   1.895   0.598   3.330
 4243SOL     OW13627   6.009   3.849   3.415
 4243SOL    HW113628   5.938   3.792   3.373
 4243SOL    HW213629   5.985   3.868   3.510
 4244SOL     OW13630   5.229   4.484   1.807
 4244SOL    HW113631   5.147   4.457   1.857
 4244SOL    HW213632   5.309   4.475   1.866
 4245SOL     OW13633   6.443   1.004   6.103
 4245SOL    HW113634   6.385   0.948   6.163
 4245SOL    HW213635   6.538   0.980   6.118
 4246SOL     OW13636   5.843   3.139   2.934
 4246SOL    HW113637   5.898   3.122   3.016
 4246SOL    HW213638   5.877   3.084   2.858
 4247SOL     OW13639   2.092   4.701   3.201
 4247SOL    HW113640   2.055   4.622   3.251
 4247SOL    HW213641   2.182   4.725   3.238
 4248SOL     OW13642   1.853   1.316   3.798
 4248SOL    HW113643   1.809   1.248   3.739
 4248SOL    HW213644   1.786   1.386   3.823
 4249SOL     OW13645   5.265   1.629   4.049
 4249SOL    HW113646   5.177   1.583   4.051
 4249SOL    HW213647   5.252   1.727   4.065
 4250SOL     OW13648   6.913   6.227   4.010
 4250SOL    HW113649   6.893   6.231   3.912
 4250SOL    HW213650   6.855   6.158   4.053
 4251SOL     OW13651   5.680   3.438   1.406
 4251SOL    HW113652   5.710   3.534   1.411
 4251SOL    HW213653   5.583   3.433   1.432
 4252SOL     OW13654   6.556   6.435   6.135
 4252SOL    HW113655   6.639   6.484   6.163
 4252SOL    HW213656   6.476   6.487   6.164
 4253SOL     OW13657   3.354   6.909   0.839
 4253SOL    HW113658   3.437   6.929   0.891
 4253SOL    HW213659   3.293   6.988   0.842
 4254SOL     OW13660   1.424   3.188   2.293
 4254SOL    HW113661   1.451   3.107   2.241
 4254SOL    HW213662   1.358   3.162   2.364
 4255SOL     OW13663   6.830   4.471   4.179
 4255SOL    HW113664   6.898   4.407   4.143
 4255SOL    HW213665   6.875   4.556   4.205
 4256SOL     OW13666   1.498   6.368   1.162
 4256SOL    HW113667   1.508   6.427   1.243
 4256SOL    HW213668   1.421   6.401   1.107
 4257SOL     OW13669   3.671   0.972   4.018
 4257SOL    HW113670   3.660   1.071   4.030
 4257SOL    HW213671   3.769   0.950   4.017
 4258SOL     OW13672   3.604   5.784   1.486
 4258SOL    HW113673   3.604   5.782   1.586
 4258SOL    HW213674   3.566   5.871   1.454
 4259SOL     OW13675   1.599   0.653   1.022
 4259SOL    HW113676   1.590   0.692   1.113
 4259SOL    HW213677   1.588   0.725   0.954
 4260SOL     OW13678   5.719   0.345   2.727
 4260SOL    HW113679   5.717   0.438   2.763
 4260SOL    HW213680   5.672   0.284   2.790
 4261SOL     OW13681   2.134   1.152   2.552
 4261SOL    HW113682   2.177   1.062   2.549
 4261SOL    HW213683   2.153   1.200   2.466
 4262SOL     OW13684   0.636   3.962   6.928
 4262SOL    HW113685   0.664   3.895   6.997
 4262SOL    HW213686   0.711   4.027   6.913
 4263SOL     OW13687   2.855   0.616   3.171
 4263SOL    HW113688   2.927   0.626   3.102
 4263SOL    HW213689   2.795   0.540   3.145
 4264SOL     OW13690   6.196   2.087   4.416
 4264SOL    HW113691   6.217   2.024   4.492
 4264SOL    HW213692   6.162   2.034   4.338
 4265SOL     OW13693   4.071   1.116   0.532
 4265SOL    HW113694   4.142   1.094   0.600
 4265SOL    HW213695   4.111   1.118   0.441
 4266SOL     OW13696   1.666   6.756   6.341
 4266SOL    HW113697   1.669   6.777   6.244
 4266SOL    HW213698   1.615   6.670   6.355
 4267SOL     OW13699   2.205   3.841   3.916
 4267SOL    HW113700   2.126   3.782   3.901
 4267SOL    HW213701   2.248   3.861   3.828
 4268SOL     OW13702   1.326   5.774   6.510
 4268SOL    HW113703   1.257   5.709   6.478
 4268SOL    HW213704   1.291   5.824   6.589
 4269SOL     OW13705   3.242   0.496   2.730
 4269SOL    HW113706   3.300   0.575   2.712
 4269SOL    HW213707   3.297   0.420   2.764
 4270SOL     OW13708   4.127   3.546   2.986
 4270SOL    HW113709   4.132   3.580   2.892
 4270SOL    HW213710   4.104   3.449   2.985
 4271SOL     OW13711   6.604   0.826   6.865
 4271SOL    HW113712   6.656   0.746   6.834
 4271SOL    HW213713   6.521   0.795   6.911
 4272SOL     OW13714   6.540   1.799   4.630
 4272SOL    HW113715   6.616   1.753   4.584
 4272SOL    HW213716   6.575   1.861   4.699
 4273SOL     OW13717   4.157   0.017   4.920
 4273SOL    HW113718   4.164   6.938   4.907
 4273SOL    HW213719   4.136   0.037   5.015
 4274SOL     OW13720   1.847   0.446   1.125
 4274SOL    HW113721   1.844   0.522   1.061
 4274SOL    HW213722   1.922   0.458   1.189
 4275SOL     OW13723   6.524   2.141   4.134
 4275SOL    HW113724   6.459   2.208   4.170
 4275SOL    HW213725   6.595   2.187   4.082
 4276SOL     OW13726   2.545   4.985   3.923
 4276SOL    HW113727   2.578   4.987   3.829
 4276SOL    HW213728   2.467   4.923   3.929
 4277SOL     OW13729   6.571   4.691   3.450
 4277SOL    HW113730   6.534   4.670   3.359
 4277SOL    HW213731   6.621   4.612   3.485
 4278SOL     OW13732   0.293   6.683   4.697
 4278SOL    HW113733   0.306   6.774   4.658
 4278SOL    HW213734   0.247   6.624   4.630
 4279SOL     OW13735   3.228   0.922   3.497
 4279SOL    HW113736   3.181   0.979   3.430
 4279SOL    HW213737   3.316   0.892   3.460
 4280SOL     OW13738   5.607   6.852   6.074
 4280SOL    HW113739   5.686   6.902   6.111
 4280SOL    HW213740   5.580   6.892   5.986
 4281SOL     OW13741   6.862   4.670   2.914
 4281SOL    HW113742   6.807   4.679   2.832
 4281SOL    HW213743   6.822   4.725   2.988
 4282SOL     OW13744   3.322   4.371   0.004
 4282SOL    HW113745   3.369   4.440   0.058
 4282SOL    HW213746   3.260   4.319   0.062
 4283SOL     OW13747   2.272   0.870   3.532
 4283SOL    HW113748   2.323   0.901   3.612
 4283SOL    HW213749   2.201   0.937   3.510
 4284SOL     OW13750   3.992   4.027   1.247
 4284SOL    HW113751   3.921   4.057   1.310
 4284SOL    HW213752   4.078   4.014   1.298
 4285SOL     OW13753   2.321   0.639   5.464
 4285SOL    HW113754   2.313   0.737   5.481
 4285SOL    HW213755   2.282   0.618   5.374
 4286SOL     OW13756   5.739   6.654   6.257
 4286SOL    HW113757   5.727   6.735   6.199
 4286SOL    HW213758   5.802   6.591   6.213
 4287SOL     OW13759   5.089   0.590   5.955
 4287SOL    HW113760   5.082   0.670   5.895
 4287SOL    HW213761   5.185   0.570   5.972
 4288SOL     OW13762   0.802   5.504   2.985
 4288SOL    HW113763   0.765   5.581   2.933
 4288SOL    HW213764   0.834   5.433   2.921
 4289SOL     OW13765   6.685   3.033   5.930
 4289SOL    HW113766   6.714   2.954   5.877
 4289SOL    HW213767   6.586   3.028   5.946
 4290SOL     OW13768   1.433   6.591   4.048
 4290SOL    HW113769   1.531   6.571   4.046
 4290SOL    HW213770   1.410   6.651   3.971
 4291SOL     OW13771   4.555   3.807   6.738
 4291SOL    HW113772   4.558   3.708   6.756
 4291SOL    HW213773   4.511   3.853   6.814
 4292SOL     OW13774   6.124   2.861   0.031
 4292SOL    HW113775   6.071   2.812   0.100
 4292SOL    HW213776   6.206   2.807   0.008
 4293SOL     OW13777   2.811   2.899   6.981
 4293SOL    HW113778   2.819   2.994   6.951
 4293SOL    HW213779   2.901   2.865   7.008
 4294SOL     OW13780   2.090   1.933   6.385
 4294SOL    HW113781   2.169   1.969   6.434
 4294SOL    HW213782   2.070   1.840   6.416
 4295SOL     OW13783   3.629   5.898   4.952
 4295SOL    HW113784   3.540   5.938   4.973
 4295SOL    HW213785   3.682   5.885   5.036
 4296SOL     OW13786   3.380   6.854   0.499
 4296SOL    HW113787   3.337   6.935   0.540
 4296SOL    HW213788   3.323   6.774   0.519
 4297SOL     OW13789   6.054   0.155   0.995
 4297SOL    HW113790   6.012   0.069   1.024
 4297SOL    HW213791   5.989   0.230   1.009
 4298SOL     OW13792   4.344   5.504   0.989
 4298SOL    HW113793   4.400   5.536   0.912
 4298SOL    HW213794   4.250   5.533   0.976
 4299SOL     OW13795   1.655   3.289   6.656
 4299SOL    HW113796   1.645   3.235   6.739
 4299SOL    HW213797   1.600   3.248   6.582
 4300SOL     OW13798   2.538   6.956   0.491
 4300SOL    HW113799   2.541   6.875   0.432
 4300SOL    HW213800   2.487   6.935   0.574
 4301SOL     OW13801   4.742   0.127   1.237
 4301SOL    HW113802   4.651   0.114   1.278
 4301SOL    HW213803   4.734   0.118   1.138
 4302SOL     OW13804   6.905   6.980   6.068
 4302SOL    HW113805   6.898   0.022   5.990
 4302SOL    HW213806   6.840   7.008   6.139
 4303SOL     OW13807   0.036   4.951   4.399
 4303SOL    HW113808   0.104   4.985   4.334
 4303SOL    HW213809   6.964   4.984   4.374
 4304SOL     OW13810   3.253   2.983   2.438
 4304SOL    HW113811   3.318   2.911   2.414
 4304SOL    HW213812   3.237   2.983   2.537
 4305SOL     OW13813   0.870   6.857   5.594
 4305SOL    HW113814   0.875   6.816   5.685
 4305SOL    HW213815   0.775   6.852   5.561
 4306SOL     OW13816   4.256   5.083   4.798
 4306SOL    HW113817   4.246   5.170   4.845
 4306SOL    HW213818   4.224   5.009   4.858
 4307SOL     OW13819   6.490   4.043   5.660
 4307SOL    HW113820   6.512   3.946   5.674
 4307SOL    HW213821   6.561   4.100   5.702
 4308SOL     OW13822   6.418   5.000   1.514
 4308SOL    HW113823   6.372   5.049   1.588
 4308SOL    HW213824   6.351   4.976   1.444
 4309SOL     OW13825   1.353   1.343   1.005
 4309SOL    HW113826   1.421   1.292   1.059
 4309SOL    HW213827   1.295   1.396   1.067
 4310SOL     OW13828   1.706   2.408   1.661
 4310SOL    HW113829   1.664   2.413   1.751
 4310SOL    HW213830   1.646   2.357   1.599
 4311SOL     OW13831   1.016   6.356   2.664
 4311SOL    HW113832   1.109   6.353   2.702
 4311SOL    HW213833   1.019   6.329   2.568
 4312SOL     OW13834   1.317   6.104   1.911
 4312SOL    HW113835   1.229   6.077   1.950
 4312SOL    HW213836   1.302   6.175   1.842
 4313SOL     OW13837   4.871   1.820   0.757
 4313SOL    HW113838   4.774   1.842   0.767
 4313SOL    HW213839   4.919   1.898   0.718
 4314SOL     OW13840   5.387   1.443   4.589
 4314SOL    HW113841   5.457   1.513   4.606
 4314SOL    HW213842   5.418   1.355   4.627
 4315SOL     OW13843   2.463   0.146   3.490
 4315SOL    HW113844   2.496   0.234   3.525
 4315SOL    HW213845   2.493   0.134   3.395
 4316SOL     OW13846   5.096   0.974   1.838
 4316SOL    HW113847   5.181   1.012   1.801
 4316SOL    HW213848   5.024   0.978   1.769
 4317SOL     OW13849   5.316   2.057   5.594
 4317SOL    HW113850   5.302   2.146   5.550
 4317SOL    HW213851   5.250   1.991   5.559
 4318SOL     OW13852   0.488   2.078   4.652
 4318SOL    HW113853   0.548   2.012   4.606
 4318SOL    HW213854   0.504   2.075   4.750
 4319SOL     OW13855   1.943   1.542   0.743
 4319SOL    HW113856   1.852   1.525   0.782
 4319SOL    HW213857   1.986   1.618   0.790
 4320SOL     OW13858   4.159   5.085   0.969
 4320SOL    HW113859   4.127   5.140   1.047
 4320SOL    HW213860   4.106   5.109   0.888
 4321SOL     OW13861   0.399   5.424   4.870
 4321SOL    HW113862   0.327   5.468   4.924
 4321SOL    HW213863   0.368   5.412   4.776
 4322SOL     OW13864   6.378   2.701   6.863
 4322SOL    HW113865   6.292   2.659   6.832
 4322SOL    HW213866   6.432   2.632   6.912
 4323SOL     OW13867   4.687   3.952   0.120
 4323SOL    HW113868   4.623   3.956   0.196
 4323SOL    HW213869   4.749   4.031   0.124
 4324SOL     OW13870   5.822   4.383   6.082
 4324SOL    HW113871   5.735   4.428   6.103
 4324SOL    HW213872   5.865   4.427   6.004
 4325SOL     OW13873   3.157   1.536   1.770
 4325SOL    HW113874   3.256   1.539   1.785
 4325SOL    HW213875   3.135   1.464   1.704
 4326SOL     OW13876   4.943   4.309   2.549
 4326SOL    HW113877   4.849   4.277   2.539
 4326SOL    HW213878   4.945   4.392   2.604
 4327SOL     OW13879   5.461   6.111   1.799
 4327SOL    HW113880   5.507   6.174   1.863
 4327SOL    HW213881   5.364   6.134   1.795
 4328SOL     OW13882   4.588   4.404   5.623
 4328SOL    HW113883   4.559   4.339   5.552
 4328SOL    HW213884   4.510   4.427   5.681
 4329SOL     OW13885   5.063   2.431   5.761
 4329SOL    HW113886   5.001   2.416   5.837
 4329SOL    HW213887   5.113   2.517   5.775
 4330SOL     OW13888   1.668   6.176   4.762
 4330SOL    HW113889   1.749   6.207   4.812
 4330SOL    HW213890   1.691   6.092   4.712
 4331SOL     OW13891   6.254   1.546   2.164
 4331SOL    HW113892   6.255   1.493   2.080
 4331SOL    HW213893   6.339   1.532   2.214
 4332SOL     OW13894   5.042   2.437   2.909
 4332SOL    HW113895   5.084   2.521   2.874
 4332SOL    HW213896   4.955   2.422   2.863
 4333SOL     OW13897   4.333   1.184   5.699
 4333SOL    HW113898   4.303   1.123   5.625
 4333SOL    HW213899   4.414   1.235   5.669
 4334SOL     OW13900   2.386   2.482   2.773
 4334SOL    HW113901   2.418   2.570   2.737
 4334SOL    HW213902   2.286   2.482   2.776
 4335SOL     OW13903   3.616   4.079   2.142
 4335SOL    HW113904   3.705   4.121   2.129
 4335SOL    HW213905   3.562   4.086   2.058
 4336SOL     OW13906   3.113   6.943   6.170
 4336SOL    HW113907   3.068   6.957   6.082
 4336SOL    HW213908   3.044   6.929   6.241
 4337SOL     OW13909   1.067   4.312   0.524
 4337SOL    HW113910   0.977   4.324   0.567
 4337SOL    HW213911   1.100   4.220   0.545
 4338SOL     OW13912   6.340   6.746   6.586
 4338SOL    HW113913   6.311   6.661   6.544
 4338SOL    HW213914   6.307   6.749   6.681
 4339SOL     OW13915   4.278   3.497   5.435
 4339SOL    HW113916   4.372   3.517   5.405
 4339SOL    HW213917   4.235   3.582   5.466
 4340SOL     OW13918   6.535   3.093   1.239
 4340SOL    HW113919   6.573   3.177   1.277
 4340SOL    HW213920   6.609   3.038   1.199
 4341SOL     OW13921   1.074   5.714   1.865
 4341SOL    HW113922   0.979   5.722   1.896
 4341SOL    HW213923   1.135   5.719   1.944
 4342SOL     OW13924   4.745   4.139   3.129
 4342SOL    HW113925   4.755   4.151   3.031
 4342SOL    HW213926   4.825   4.177   3.176
 4343SOL     OW13927   3.040   6.377   4.677
 4343SOL    HW113928   2.948   6.355   4.710
 4343SOL    HW213929   3.036   6.458   4.618
 4344SOL     OW13930   0.316   3.950   2.250
 4344SOL    HW113931   0.394   3.888   2.246
 4344SOL    HW213932   0.348   4.045   2.250
 4345SOL     OW13933   3.743   4.287   5.623
 4345SOL    HW113934   3.810   4.301   5.696
 4345SOL    HW213935   3.769   4.339   5.542
 4346SOL     OW13936   1.905   3.706   3.112
 4346SOL    HW113937   1.837   3.674   3.178
 4346SOL    HW213938   1.865   3.778   3.056
 4347SOL     OW13939   6.039   6.990   2.935
 4347SOL    HW113940   5.996   0.046   2.985
 4347SOL    HW213941   6.051   7.016   2.840
 4348SOL     OW13942   0.206   5.627   3.587
 4348SOL    HW113943   0.208   5.690   3.509
 4348SOL    HW213944   0.172   5.538   3.558
 4349SOL     OW13945   6.081   2.284   3.240
 4349SOL    HW113946   6.092   2.379   3.210
 4349SOL    HW213947   6.030   2.233   3.171
 4350SOL     OW13948   3.538   1.497   3.809
 4350SOL    HW113949   3.535   1.397   3.813
 4350SOL    HW213950   3.460   1.534   3.859
 4351SOL     OW13951   1.463   6.154   1.303
 4351SOL    HW113952   1.373   6.110   1.309
 4351SOL    HW213953   1.459   6.229   1.238
 4352SOL     OW13954   6.532   3.911   2.239
 4352SOL    HW113955   6.590   3.935   2.317
 4352SOL    HW213956   6.588   3.876   2.164
 4353SOL     OW13957   3.962   2.464   6.516
 4353SOL    HW113958   4.005   2.534   6.459
 4353SOL    HW213959   3.867   2.490   6.535
 4354SOL     OW13960   1.752   1.052   6.320
 4354SOL    HW113961   1.793   1.038   6.230
 4354SOL    HW213962   1.743   1.150   6.338
 4355SOL     OW13963   2.665   0.036   2.562
 4355SOL    HW113964   2.580   7.018   2.599
 4355SOL    HW213965   2.669   0.134   2.578
 4356SOL     OW13966   5.165   3.436   6.791
 4356SOL    HW113967   5.070   3.467   6.797
 4356SOL    HW213968   5.226   3.514   6.789
 4357SOL     OW13969   6.425   0.807   1.587
 4357SOL    HW113970   6.431   0.902   1.557
 4357SOL    HW213971   6.493   0.790   1.658
 4358SOL     OW13972   6.791   0.902   1.089
 4358SOL    HW113973   6.706   0.854   1.113
 4358SOL    HW213974   6.869   0.848   1.120
 4359SOL     OW13975   1.142   1.239   6.265
 4359SOL    HW113976   1.127   1.142   6.243
 4359SOL    HW213977   1.220   1.248   6.328
 4360SOL     OW13978   0.949   3.799   4.102
 4360SOL    HW113979   0.978   3.851   4.022
 4360SOL    HW213980   0.886   3.726   4.074
 4361SOL     OW13981   2.144   3.733   1.892
 4361SOL    HW113982   2.174   3.655   1.947
 4361SOL    HW213983   2.203   3.741   1.812
 4362SOL     OW13984   6.791   5.293   3.578
 4362SOL    HW113985   6.784   5.280   3.677
 4362SOL    HW213986   6.734   5.370   3.550
 4363SOL     OW13987   5.233   2.230   0.965
 4363SOL    HW113988   5.284   2.144   0.970
 4363SOL    HW213989   5.138   2.214   0.994
 4364SOL     OW13990   3.091   3.946   3.485
 4364SOL    HW113991   3.099   4.013   3.559
 4364SOL    HW213992   3.161   3.876   3.496
 4365SOL     OW13993   3.015   0.835   1.925
 4365SOL    HW113994   3.037   0.824   2.022
 4365SOL    HW213995   2.930   0.887   1.916
 4366SOL     OW13996   6.610   6.795   6.482
 4366SOL    HW113997   6.519   6.816   6.517
 4366SOL    HW213998   6.679   6.835   6.543
 4367SOL     OW13999   2.661   4.629   3.927
 4367SOL    HW114000   2.752   4.651   3.962
 4367SOL    HW214001   2.592   4.682   3.975
 4368SOL     OW14002   3.957   5.943   1.640
 4368SOL    HW114003   3.920   5.881   1.709
 4368SOL    HW214004   4.007   5.890   1.571
 4369SOL     OW14005   4.571   5.193   2.815
 4369SOL    HW114006   4.617   5.117   2.860
 4369SOL    HW214007   4.608   5.280   2.848
 4370SOL     OW14008   3.799   4.557   1.675
 4370SOL    HW114009   3.770   4.579   1.582
 4370SOL    HW214010   3.742   4.607   1.740
 4371SOL     OW14011   1.916   2.330   2.302
 4371SOL    HW114012   1.895   2.280   2.386
 4371SOL    HW214013   1.887   2.276   2.223
 4372SOL     OW14014   2.779   1.905   4.368
 4372SOL    HW114015   2.874   1.936   4.362
 4372SOL    HW214016   2.728   1.964   4.430
 4373SOL     OW14017   5.199   1.372   6.795
 4373SOL    HW114018   5.296   1.359   6.815
 4373SOL    HW214019   5.189   1.436   6.718
 4374SOL     OW14020   1.119   1.732   1.495
 4374SOL    HW114021   1.147   1.662   1.561
 4374SOL    HW214022   1.138   1.700   1.402
 4375SOL     OW14023   4.115   6.656   3.328
 4375SOL    HW114024   4.068   6.654   3.416
 4375SOL    HW214025   4.050   6.681   3.256
 4376SOL     OW14026   6.498   0.346   2.713
 4376SOL    HW114027   6.506   0.248   2.693
 4376SOL    HW214028   6.586   0.390   2.700
 4377SOL     OW14029   5.649   5.703   6.791
 4377SOL    HW114030   5.607   5.653   6.867
 4377SOL    HW214031   5.746   5.717   6.811
 4378SOL     OW14032   1.574   2.960   2.954
 4378SOL    HW114033   1.659   2.984   2.907
 4378SOL    HW214034   1.593   2.891   3.024
 4379SOL     OW14035   2.678   2.080   2.478
 4379SOL    HW114036   2.724   2.169   2.481
 4379SOL    HW214037   2.634   2.062   2.566
 4380SOL     OW14038   1.405   6.679   3.275
 4380SOL    HW114039   1.433   6.758   3.329
 4380SOL    HW214040   1.398   6.598   3.333
 4381SOL     OW14041   2.224   3.981   5.412
 4381SOL    HW114042   2.280   3.990   5.329
 4381SOL    HW214043   2.172   3.896   5.408
 4382SOL     OW14044   6.190   3.410   6.435
 4382SOL    HW114045   6.164   3.378   6.526
 4382SOL    HW214046   6.138   3.360   6.365
 4383SOL     OW14047   0.672   2.413   5.942
 4383SOL    HW114048   0.710   2.354   5.872
 4383SOL    HW214049   0.678   2.508   5.913
 4384SOL     OW14050   5.481   1.543   6.255
 4384SOL    HW114051   5.420   1.473   6.216
 4384SOL    HW214052   5.554   1.562   6.190
 4385SOL     OW14053   6.379   2.674   5.260
 4385SOL    HW114054   6.325   2.758   5.255
 4385SOL    HW214055   6.445   2.682   5.335
 4386SOL     OW14056   2.443   3.308   6.968
 4386SOL    HW114057   2.496   3.313   0.034
 4386SOL    HW214058   2.391   3.223   6.966
 4387SOL     OW14059   0.158   0.848   1.957
 4387SOL    HW114060   0.095   0.925   1.956
 4387SOL    HW214061   0.106   0.763   1.966
 4388SOL     OW14062   5.282   1.718   6.377
 4388SOL    HW114063   5.328   1.802   6.405
 4388SOL    HW214064   5.350   1.650   6.351
 4389SOL     OW14065   6.703   3.517   1.050
 4389SOL    HW114066   6.772   3.470   0.995
 4389SOL    HW214067   6.612   3.487   1.022
 4390SOL     OW14068   3.615   1.312   2.089
 4390SOL    HW114069   3.585   1.234   2.033
 4390SOL    HW214070   3.543   1.381   2.090
 4391SOL     OW14071   1.488   5.670   6.701
 4391SOL    HW114072   1.436   5.715   6.628
 4391SOL    HW214073   1.570   5.627   6.662
 4392SOL     OW14074   6.838   3.409   5.938
 4392SOL    HW114075   6.919   3.360   5.971
 4392SOL    HW214076   6.860   3.506   5.929
 4393SOL     OW14077   5.956   6.938   2.433
 4393SOL    HW114078   5.876   6.882   2.415
 4393SOL    HW214079   5.927   0.007   2.470
 4394SOL     OW14080   5.726   5.841   2.506
 4394SOL    HW114081   5.670   5.764   2.535
 4394SOL    HW214082   5.710   5.859   2.409
 4395SOL     OW14083   3.554   0.455   1.924
 4395SOL    HW114084   3.532   0.357   1.929
 4395SOL    HW214085   3.618   0.471   1.849
 4396SOL     OW14086   2.467   2.222   4.075
 4396SOL    HW114087   2.367   2.222   4.087
 4396SOL    HW214088   2.493   2.149   4.012
 4397SOL     OW14089   0.148   1.198   4.563
 4397SOL    HW114090   0.096   1.126   4.517
 4397SOL    HW214091   0.243   1.168   4.576
 4398SOL     OW14092   0.731   4.723   4.939
 4398SOL    HW114093   0.719   4.696   4.844
 4398SOL    HW214094   0.780   4.650   4.988
 4399SOL     OW14095   1.887   1.198   1.620
 4399SOL    HW114096   1.850   1.249   1.697
 4399SOL    HW214097   1.898   1.259   1.541
 4400SOL     OW14098   3.229   6.813   5.789
 4400SOL    HW114099   3.185   6.771   5.710
 4400SOL    HW214100   3.260   6.741   5.852
 4401SOL     OW14101   5.110   6.896   6.744
 4401SOL    HW114102   5.052   6.948   6.681
 4401SOL    HW214103   5.197   6.874   6.698
 4402SOL     OW14104   2.645   0.036   1.068
 4402SOL    HW114105   2.580   6.981   1.050
 4402SOL    HW214106   2.682   0.026   1.161
 4403SOL     OW14107   0.831   0.333   3.765
 4403SOL    HW114108   0.764   0.362   3.833
 4403SOL    HW214109   0.826   0.234   3.753
 4404SOL     OW14110   0.350   4.085   5.779
 4404SOL    HW114111   0.364   4.110   5.875
 4404SOL    HW214112   0.417   4.016   5.753
 4405SOL     OW14113   1.687   4.674   1.201
 4405SOL    HW114114   1.785   4.691   1.201
 4405SOL    HW214115   1.664   4.610   1.128
 4406SOL     OW14116   6.997   3.755   0.456
 4406SOL    HW114117   7.008   3.687   0.528
 4406SOL    HW214118   6.919   3.813   0.476
 4407SOL     OW14119   0.107   4.818   1.108
 4407SOL    HW114120   0.202   4.806   1.134
 4407SOL    HW214121   0.095   4.907   1.064
 4408SOL     OW14122   3.098   1.320   1.622
 4408SOL    HW114123   3.052   1.234   1.643
 4408SOL    HW214124   3.197   1.305   1.614
 4409SOL     OW14125   4.694   0.172   1.806
 4409SOL    HW114126   4.769   0.207   1.749
 4409SOL    HW214127   4.693   0.220   1.893
 4410SOL     OW14128   1.235   5.925   6.718
 4410SOL    HW114129   1.207   6.021   6.726
 4410SOL    HW214130   1.184   5.870   6.784
 4411SOL     OW14131   3.195   4.050   3.754
 4411SOL    HW114132   3.239   4.085   3.837
 4411SOL    HW214133   3.143   3.967   3.776
 4412SOL     OW14134   4.120   6.746   4.938
 4412SOL    HW114135   4.154   6.660   4.975
 4412SOL    HW214136   4.020   6.743   4.933
 4413SOL     OW14137   5.488   5.909   5.139
 4413SOL    HW114138   5.485   5.945   5.233
 4413SOL    HW214139   5.482   5.809   5.141
 4414SOL     OW14140   3.620   4.559   1.203
 4414SOL    HW114141   3.641   4.527   1.111
 4414SOL    HW214142   3.521   4.571   1.213
 4415SOL     OW14143   3.499   3.310   0.003
 4415SOL    HW114144   3.464   3.217   0.000
 4415SOL    HW214145   3.447   3.364   0.070
 4416SOL     OW14146   2.096   0.419   4.126
 4416SOL    HW114147   2.183   0.469   4.122
 4416SOL    HW214148   2.085   0.364   4.043
 4417SOL     OW14149   6.040   4.339   3.345
 4417SOL    HW114150   5.951   4.375   3.373
 4417SOL    HW214151   6.071   4.273   3.414
 4418SOL     OW14152   5.821   1.348   2.452
 4418SOL    HW114153   5.807   1.386   2.361
 4418SOL    HW214154   5.849   1.421   2.515
 4419SOL     OW14155   5.744   5.670   0.350
 4419SOL    HW114156   5.795   5.605   0.296
 4419SOL    HW214157   5.704   5.740   0.290
 4420SOL     OW14158   4.948   1.342   1.687
 4420SOL    HW114159   4.974   1.246   1.696
 4420SOL    HW214160   4.891   1.354   1.605
 4421SOL     OW14161   1.728   0.700   5.146
 4421SOL    HW114162   1.669   0.621   5.158
 4421SOL    HW214163   1.728   0.727   5.050
 4422SOL     OW14164   3.174   4.451   6.156
 4422SOL    HW114165   3.097   4.485   6.102
 4422SOL    HW214166   3.253   4.437   6.096
 4423SOL     OW14167   1.653   2.932   5.756
 4423SOL    HW114168   1.606   2.843   5.756
 4423SOL    HW214169   1.711   2.939   5.675
 4424SOL     OW14170   5.295   0.729   4.298
 4424SOL    HW114171   5.386   0.768   4.284
 4424SOL    HW214172   5.257   0.701   4.209
 4425SOL     OW14173   3.704   5.158   0.225
 4425SOL    HW114174   3.610   5.193   0.232
 4425SOL    HW214175   3.732   5.160   0.129
 4426SOL     OW14176   0.222   1.148   4.978
 4426SOL    HW114177   0.205   1.216   4.907
 4426SOL    HW214178   0.310   1.166   5.022
 4427SOL     OW14179   0.408   6.126   2.518
 4427SOL    HW114180   0.309   6.114   2.507
 4427SOL    HW214181   0.447   6.043   2.557
 4428SOL     OW14182   2.762   6.534   1.750
 4428SOL    HW114183   2.710   6.579   1.823
 4428SOL    HW214184   2.851   6.578   1.741
 4429SOL     OW14185   3.426   0.307   2.788
 4429SOL    HW114186   3.522   0.282   2.798
 4429SOL    HW214187   3.372   0.259   2.858
 4430SOL     OW14188   4.928   3.715   4.744
 4430SOL    HW114189   5.023   3.692   4.725
 4430SOL    HW214190   4.900   3.674   4.831
 4431SOL     OW14191   2.367   1.023   2.149
 4431SOL    HW114192   2.282   1.075   2.155
 4431SOL    HW214193   2.351   0.930   2.181
 4432SOL     OW14194   3.783   4.088   4.946
 4432SOL    HW114195   3.728   4.136   4.878
 4432SOL    HW214196   3.874   4.070   4.909
 4433SOL     OW14197   4.846   0.939   4.723
 4433SOL    HW114198   4.774   1.002   4.751
 4433SOL    HW214199   4.935   0.983   4.734
 4434SOL     OW14200   4.433   1.684   4.414
 4434SOL    HW114201   4.385   1.633   4.485
 4434SOL    HW214202   4.519   1.720   4.450
 4435SOL     OW14203   4.332   3.133   1.407
 4435SOL    HW114204   4.425   3.109   1.436
 4435SOL    HW214205   4.284   3.175   1.484
 4436SOL     OW14206   4.107   1.009   1.141
 4436SOL    HW114207   4.153   0.942   1.082
 4436SOL    HW214208   4.154   1.097   1.134
 4437SOL     OW14209   5.900   1.124   3.344
 4437SOL    HW114210   5.960   1.107   3.265
 4437SOL    HW214211   5.929   1.209   3.389
 4438SOL     OW14212   5.144   0.212   0.340
 4438SOL    HW114213   5.070   0.226   0.406
 4438SOL    HW214214   5.125   0.265   0.257
 4439SOL     OW14215   0.293   5.662   1.820
 4439SOL    HW114216   0.349   5.716   1.883
 4439SOL    HW214217   0.209   5.712   1.799
 4440SOL     OW14218   2.106   5.698   0.765
 4440SOL    HW114219   2.053   5.633   0.711
 4440SOL    HW214220   2.044   5.765   0.807
 4441SOL     OW14221   6.720   2.151   2.920
 4441SOL    HW114222   6.681   2.190   3.003
 4441SOL    HW214223   6.693   2.056   2.911
 4442SOL     OW14224   2.602   5.726   4.546
 4442SOL    HW114225   2.539   5.694   4.616
 4442SOL    HW214226   2.554   5.790   4.485
 4443SOL     OW14227   0.221   2.776   0.516
 4443SOL    HW114228   0.143   2.738   0.566
 4443SOL    HW214229   0.269   2.842   0.574
 4444SOL     OW14230   3.107   5.017   6.527
 4444SOL    HW114231   3.162   5.018   6.443
 4444SOL    HW214232   3.167   5.005   6.606
 4445SOL     OW14233   0.448   0.723   1.023
 4445SOL    HW114234   0.349   0.728   1.021
 4445SOL    HW214235   0.484   0.743   0.931
 4446SOL     OW14236   6.019   1.141   2.084
 4446SOL    HW114237   6.086   1.086   2.132
 4446SOL    HW214238   5.940   1.085   2.061
 4447SOL     OW14239   5.379   3.860   6.515
 4447SOL    HW114240   5.391   3.762   6.498
 4447SOL    HW214241   5.419   3.912   6.440
 4448SOL     OW14242   3.190   4.051   1.045
 4448SOL    HW114243   3.200   4.118   1.118
 4448SOL    HW214244   3.095   4.022   1.038
 4449SOL     OW14245   5.205   0.451   5.705
 4449SOL    HW114246   5.172   0.546   5.704
 4449SOL    HW214247   5.225   0.422   5.612
 4450SOL     OW14248   3.771   2.925   4.040
 4450SOL    HW114249   3.861   2.911   3.998
 4450SOL    HW214250   3.777   2.904   4.138
 4451SOL     OW14251   5.645   4.195   4.073
 4451SOL    HW114252   5.639   4.233   4.165
 4451SOL    HW214253   5.688   4.105   4.077
 4452SOL     OW14254   5.371   6.292   4.254
 4452SOL    HW114255   5.347   6.326   4.345
 4452SOL    HW214256   5.358   6.193   4.250
 4453SOL     OW14257   0.523   2.660   1.906
 4453SOL    HW114258   0.615   2.677   1.940
 4453SOL    HW214259   0.485   2.580   1.951
 4454SOL     OW14260   0.541   1.835   6.585
 4454SOL    HW114261   0.612   1.856   6.653
 4454SOL    HW214262   0.543   1.737   6.565
 4455SOL     OW14263   4.055   6.161   6.316
 4455SOL    HW114264   4.007   6.114   6.390
 4455SOL    HW214265   4.144   6.118   6.301
 4456SOL     OW14266   3.715   5.381   1.684
 4456SOL    HW114267   3.617   5.395   1.701
 4456SOL    HW214268   3.740   5.287   1.705
 4457SOL     OW14269   4.738   1.898   1.089
 4457SOL    HW114270   4.727   1.992   1.121
 4457SOL    HW214271   4.739   1.836   1.168
 4458SOL     OW14272   1.557   3.149   6.432
 4458SOL    HW114273   1.498   3.211   6.381
 4458SOL    HW214274   1.648   3.149   6.391
 4459SOL     OW14275   4.582   0.320   4.419
 4459SOL    HW114276   4.543   0.331   4.511
 4459SOL    HW214277   4.508   0.320   4.352
 4460SOL     OW14278   3.066   2.795   5.268
 4460SOL    HW114279   3.032   2.709   5.306
 4460SOL    HW214280   3.163   2.805   5.289
 4461SOL     OW14281   1.588   1.349   1.694
 4461SOL    HW114282   1.671   1.346   1.750
 4461SOL    HW214283   1.518   1.292   1.735
 4462SOL     OW14284   5.977   4.711   2.254
 4462SOL    HW114285   6.001   4.799   2.214
 4462SOL    HW214286   5.938   4.725   2.345
 4463SOL     OW14287   5.306   1.902   6.091
 4463SOL    HW114288   5.223   1.936   6.136
 4463SOL    HW214289   5.324   1.808   6.121
 4464SOL     OW14290   6.722   4.844   1.158
 4464SOL    HW114291   6.656   4.846   1.233
 4464SOL    HW214292   6.743   4.937   1.130
 4465SOL     OW14293   2.630   5.307   1.654
 4465SOL    HW114294   2.716   5.276   1.695
 4465SOL    HW214295   2.578   5.361   1.720
 4466SOL     OW14296   2.171   2.026   3.196
 4466SOL    HW114297   2.265   2.053   3.215
 4466SOL    HW214298   2.108   2.086   3.246
 4467SOL     OW14299   2.158   6.836   2.502
 4467SOL    HW114300   2.077   6.778   2.505
 4467SOL    HW214301   2.235   6.788   2.544
 4468SOL     OW14302   2.185   3.139   1.194
 4468SOL    HW114303   2.244   3.062   1.216
 4468SOL    HW214304   2.100   3.132   1.246
 4469SOL     OW14305   4.410   0.748   1.579
 4469SOL    HW114306   4.496   0.703   1.553
 4469SOL    HW214307   4.351   0.755   1.498
 4470SOL     OW14308   5.733   2.007   2.426
 4470SOL    HW114309   5.737   2.077   2.497
 4470SOL    HW214310   5.755   1.918   2.467
 4471SOL     OW14311   0.301   1.716   7.006
 4471SOL    HW114312   0.394   1.713   0.023
 4471SOL    HW214313   0.289   1.643   6.939
 4472SOL     OW14314   1.428   2.790   3.669
 4472SOL    HW114315   1.487   2.770   3.747
 4472SOL    HW214316   1.333   2.793   3.699
 4473SOL     OW14317   6.634   2.416   4.468
 4473SOL    HW114318   6.582   2.338   4.504
 4473SOL    HW214319   6.695   2.385   4.396
 4474SOL     OW14320   3.008   1.071   1.673
 4474SOL    HW114321   2.920   1.056   1.627
 4474SOL    HW214322   3.072   1.000   1.646
 4475SOL     OW14323   1.700   3.860   3.005
 4475SOL    HW114324   1.709   3.918   3.087
 4475SOL    HW214325   1.641   3.905   2.939
 4476SOL     OW14326   4.065   6.981   3.912
 4476SOL    HW114327   4.133   6.995   3.840
 4476SOL    HW214328   4.063   0.043   3.971
 4477SOL     OW14329   1.870   0.080   5.430
 4477SOL    HW114330   1.799   0.117   5.489
 4477SOL    HW214331   1.842   7.009   5.397
 4478SOL     OW14332   3.809   6.684   2.344
 4478SOL    HW114333   3.719   6.726   2.334
 4478SOL    HW214334   3.865   6.740   2.406
 4479SOL     OW14335   1.472   1.001   1.361
 4479SOL    HW114336   1.546   1.002   1.428
 4479SOL    HW214337   1.476   0.916   1.308
 4480SOL     OW14338   2.325   3.650   5.851
 4480SOL    HW114339   2.312   3.551   5.845
 4480SOL    HW214340   2.360   3.684   5.764
 4481SOL     OW14341   2.367   6.055   5.541
 4481SOL    HW114342   2.377   6.132   5.478
 4481SOL    HW214343   2.457   6.017   5.563
 4482SOL     OW14344   0.932   4.596   4.418
 4482SOL    HW114345   1.014   4.550   4.381
 4482SOL    HW214346   0.853   4.572   4.363
 4483SOL     OW14347   4.933   3.361   1.859
 4483SOL    HW114348   4.925   3.458   1.837
 4483SOL    HW214349   4.936   3.349   1.958
 4484SOL     OW14350   3.107   2.932   5.956
 4484SOL    HW114351   3.022   2.883   5.936
 4484SOL    HW214352   3.142   2.903   6.045
 4485SOL     OW14353   4.909   1.675   5.122
 4485SOL    HW114354   4.929   1.577   5.130
 4485SOL    HW214355   4.810   1.689   5.121
 4486SOL     OW14356   5.042   4.942   4.625
 4486SOL    HW114357   5.068   4.860   4.676
 4486SOL    HW214358   4.997   5.007   4.687
 4487SOL     OW14359   2.181   2.925   6.286
 4487SOL    HW114360   2.177   2.975   6.200
 4487SOL    HW214361   2.265   2.871   6.290
 4488SOL     OW14362   6.653   2.790   6.487
 4488SOL    HW114363   6.592   2.814   6.411
 4488SOL    HW214364   6.716   2.865   6.504
 4489SOL     OW14365   6.198   5.480   3.924
 4489SOL    HW114366   6.167   5.514   3.836
 4489SOL    HW214367   6.118   5.454   3.979
 4490SOL     OW14368   6.340   2.821   3.036
 4490SOL    HW114369   6.277   2.759   3.083
 4490SOL    HW214370   6.290   2.902   3.005
 4491SOL     OW14371   6.842   2.154   4.619
 4491SOL    HW114372   6.743   2.143   4.616
 4491SOL    HW214373   6.877   2.169   4.527
 4492SOL     OW14374   5.701   4.043   2.009
 4492SOL    HW114375   5.770   4.114   1.995
 4492SOL    HW214376   5.731   3.958   1.966
 4493SOL     OW14377   4.294   5.969   5.434
 4493SOL    HW114378   4.349   6.036   5.484
 4493SOL    HW214379   4.296   5.990   5.337
 4494SOL     OW14380   6.590   0.970   5.632
 4494SOL    HW114381   6.633   0.905   5.695
 4494SOL    HW214382   6.527   0.921   5.572
 4495SOL     OW14383   4.116   6.571   4.189
 4495SOL    HW114384   4.106   6.577   4.289
 4495SOL    HW214385   4.082   6.656   4.148
 4496SOL     OW14386   5.669   5.272   1.076
 4496SOL    HW114387   5.631   5.241   1.163
 4496SOL    HW214388   5.663   5.372   1.070
 4497SOL     OW14389   4.861   1.067   6.679
 4497SOL    HW114390   4.833   0.999   6.612
 4497SOL    HW214391   4.957   1.090   6.665
 4498SOL     OW14392   6.795   3.292   6.869
 4498SOL    HW114393   6.808   3.221   6.801
 4498SOL    HW214394   6.752   3.253   6.950
 4499SOL     OW14395   6.407   3.516   4.648
 4499SOL    HW114396   6.424   3.428   4.604
 4499SOL    HW214397   6.422   3.590   4.583
 4500SOL     OW14398   2.967   3.238   3.917
 4500SOL    HW114399   2.876   3.197   3.918
 4500SOL    HW214400   2.989   3.274   4.007
 4501SOL     OW14401   0.437   3.507   4.292
 4501SOL    HW114402   0.492   3.424   4.286
 4501SOL    HW214403   0.437   3.541   4.387
 4502SOL     OW14404   0.993   2.828   6.543
 4502SOL    HW114405   1.032   2.737   6.558
 4502SOL    HW214406   0.903   2.819   6.500
 4503SOL     OW14407   3.222   6.870   1.542
 4503SOL    HW114408   3.227   6.884   1.641
 4503SOL    HW214409   3.209   6.958   1.496
 4504SOL     OW14410   6.449   1.145   4.603
 4504SOL    HW114411   6.484   1.065   4.554
 4504SOL    HW214412   6.513   1.221   4.592
 4505SOL     OW14413   5.735   5.138   1.832
 4505SOL    HW114414   5.809   5.076   1.808
 4505SOL    HW214415   5.751   5.227   1.789
 4506SOL     OW14416   4.354   2.409   4.044
 4506SOL    HW114417   4.400   2.486   4.087
 4506SOL    HW214418   4.407   2.326   4.057
 4507SOL     OW14419   5.475   5.074   1.928
 4507SOL    HW114420   5.525   5.129   1.861
 4507SOL    HW214421   5.441   5.133   2.001
 4508SOL     OW14422   0.956   4.853   6.441
 4508SOL    HW114423   1.033   4.811   6.394
 4508SOL    HW214424   0.872   4.839   6.388
 4509SOL     OW14425   5.025   2.112   2.539
 4509SOL    HW114426   5.006   2.168   2.458
 4509SOL    HW214427   4.943   2.061   2.565
 4510SOL     OW14428   4.648   1.137   4.332
 4510SOL    HW114429   4.748   1.141   4.334
 4510SOL    HW214430   4.618   1.050   4.369
 4511SOL     OW14431   0.174   3.124   6.767
 4511SOL    HW114432   0.237   3.201   6.764
 4511SOL    HW214433   0.226   3.038   6.762
 4512SOL     OW14434   2.986   0.224   5.225
 4512SOL    HW114435   2.911   0.270   5.177
 4512SOL    HW214436   3.055   0.291   5.252
 4513SOL     OW14437   6.302   4.723   0.523
 4513SOL    HW114438   6.266   4.655   0.459
 4513SOL    HW214439   6.355   4.677   0.594
 4514SOL     OW14440   4.631   1.237   6.320
 4514SOL    HW114441   4.594   1.167   6.381
 4514SOL    HW214442   4.582   1.323   6.335
 4515SOL     OW14443   6.991   2.128   5.936
 4515SOL    HW114444   0.043   2.188   5.900
 4515SOL    HW214445   0.002   2.090   6.024
 4516SOL     OW14446   1.556   0.528   6.956
 4516SOL    HW114447   1.496   0.522   0.017
 4516SOL    HW214448   1.511   0.485   6.878
 4517SOL     OW14449   3.595   0.788   6.529
 4517SOL    HW114450   3.636   0.697   6.517
 4517SOL    HW214451   3.658   0.857   6.493
 4518SOL     OW14452   0.202   0.222   2.687
 4518SOL    HW114453   0.189   0.270   2.773
 4518SOL    HW214454   0.234   0.129   2.704
 4519SOL     OW14455   6.118   0.840   1.252
 4519SOL    HW114456   6.119   0.848   1.153
 4519SOL    HW214457   6.098   0.745   1.278
 4520SOL     OW14458   4.603   6.621   4.689
 4520SOL    HW114459   4.544   6.686   4.737
 4520SOL    HW214460   4.547   6.554   4.641
 4521SOL     OW14461   6.126   1.973   4.197
 4521SOL    HW114462   6.212   1.960   4.146
 4521SOL    HW214463   6.058   2.016   4.137
 4522SOL     OW14464   6.318   6.673   3.303
 4522SOL    HW114465   6.328   6.670   3.204
 4522SOL    HW214466   6.231   6.716   3.326
 4523SOL     OW14467   0.980   4.084   0.282
 4523SOL    HW114468   1.077   4.058   0.276
 4523SOL    HW214469   0.942   4.047   0.367
 4524SOL     OW14470   5.830   2.290   3.597
 4524SOL    HW114471   5.882   2.298   3.682
 4524SOL    HW214472   5.849   2.369   3.539
 4525SOL     OW14473   4.915   1.205   4.324
 4525SOL    HW114474   4.914   1.216   4.225
 4525SOL    HW214475   4.950   1.288   4.367
 4526SOL     OW14476   6.465   0.294   1.491
 4526SOL    HW114477   6.484   0.339   1.579
 4526SOL    HW214478   6.381   0.332   1.452
 4527SOL     OW14479   5.182   1.168   3.487
 4527SOL    HW114480   5.093   1.133   3.457
 4527SOL    HW214481   5.252   1.139   3.422
 4528SOL     OW14482   4.650   0.308   0.064
 4528SOL    HW114483   4.678   0.321   0.159
 4528SOL    HW214484   4.581   0.236   0.059
 4529SOL     OW14485   3.287   0.992   5.390
 4529SOL    HW114486   3.322   1.038   5.472
 4529SOL    HW214487   3.229   1.056   5.339
 4530SOL     OW14488   1.796   3.923   6.343
 4530SOL    HW114489   1.728   3.868   6.391
 4530SOL    HW214490   1.841   3.868   6.273
 4531SOL     OW14491   0.346   3.644   4.938
 4531SOL    HW114492   0.342   3.700   5.020
 4531SOL    HW214493   0.416   3.680   4.876
 4532SOL     OW14494   6.087   1.965   3.313
 4532SOL    HW114495   5.997   1.986   3.274
 4532SOL    HW214496   6.118   2.042   3.368
 4533SOL     OW14497   1.553   1.394   2.065
 4533SOL    HW114498   1.497   1.430   2.139
 4533SOL    HW214499   1.518   1.426   1.977
 4534SOL     OW14500   4.827   4.089   4.616
 4534SOL    HW114501   4.835   3.998   4.578
 4534SOL    HW214502   4.841   4.157   4.544
 4535SOL     OW14503   4.886   1.198   2.457
 4535SOL    HW114504   4.830   1.128   2.413
 4535SOL    HW214505   4.982   1.178   2.442
 4536SOL     OW14506   4.296   1.141   3.732
 4536SOL    HW114507   4.339   1.229   3.709
 4536SOL    HW214508   4.270   1.141   3.828
 4537SOL     OW14509   3.868   3.226   6.100
 4537SOL    HW114510   3.905   3.134   6.087
 4537SOL    HW214511   3.821   3.255   6.016
 4538SOL     OW14512   1.910   7.012   4.168
 4538SOL    HW114513   1.915   7.006   4.068
 4538SOL    HW214514   1.821   0.031   4.195
 4539SOL     OW14515   2.189   0.336   5.142
 4539SOL    HW114516   2.165   0.279   5.063
 4539SOL    HW214517   2.140   0.304   5.223
 4540SOL     OW14518   3.205   2.531   5.568
 4540SOL    HW114519   3.129   2.539   5.503
 4540SOL    HW214520   3.206   2.438   5.605
 4541SOL     OW14521   6.076   1.681   1.076
 4541SOL    HW114522   6.176   1.683   1.071
 4541SOL    HW214523   6.045   1.735   1.155
 4542SOL     OW14524   6.892   1.426   2.742
 4542SOL    HW114525   6.800   1.420   2.781
 4542SOL    HW214526   6.917   1.522   2.730
 4543SOL     OW14527   4.714   1.972   1.578
 4543SOL    HW114528   4.673   1.880   1.581
 4543SOL    HW214529   4.724   2.007   1.671
 4544SOL     OW14530   2.795   6.341   6.166
 4544SOL    HW114531   2.830   6.276   6.233
 4544SOL    HW214532   2.868   6.404   6.140
 4545SOL     OW14533   5.160   3.566   4.742
 4545SOL    HW114534   5.200   3.573   4.651
 4545SOL    HW214535   5.211   3.623   4.806
 4546SOL     OW14536   1.785   1.309   5.939
 4546SOL    HW114537   1.782   1.289   5.841
 4546SOL    HW214538   1.710   1.261   5.985
 4547SOL     OW14539   5.785   2.306   3.204
 4547SOL    HW114540   5.798   2.352   3.292
 4547SOL    HW214541   5.843   2.224   3.200
 4548SOL     OW14542   1.105   4.371   4.432
 4548SOL    HW114543   1.048   4.325   4.501
 4548SOL    HW214544   1.194   4.325   4.426
 4549SOL     OW14545   6.355   4.180   1.692
 4549SOL    HW114546   6.316   4.270   1.673
 4549SOL    HW214547   6.314   4.144   1.776
 4550SOL     OW14548   1.500   5.525   3.421
 4550SOL    HW114549   1.489   5.555   3.516
 4550SOL    HW214550   1.459   5.592   3.360
 4551SOL     OW14551   6.857   1.970   5.605
 4551SOL    HW114552   6.904   1.886   5.579
 4551SOL    HW214553   6.802   1.953   5.687
 4552SOL     OW14554   6.056   2.794   0.496
 4552SOL    HW114555   6.124   2.765   0.429
 4552SOL    HW214556   6.071   2.745   0.582
 4553SOL     OW14557   3.848   4.669   6.772
 4553SOL    HW114558   3.910   4.738   6.734
 4553SOL    HW214559   3.816   4.698   6.862
 4554SOL     OW14560   5.545   0.696   1.443
 4554SOL    HW114561   5.576   0.639   1.367
 4554SOL    HW214562   5.590   0.666   1.527
 4555SOL     OW14563   3.085   1.564   5.848
 4555SOL    HW114564   3.091   1.595   5.944
 4555SOL    HW214565   3.173   1.581   5.803
 4556SOL     OW14566   5.095   2.509   4.039
 4556SOL    HW114567   5.133   2.593   4.079
 4556SOL    HW214568   5.111   2.433   4.102
 4557SOL     OW14569   4.589   6.404   5.179
 4557SOL    HW114570   4.653   6.458   5.125
 4557SOL    HW214571   4.621   6.309   5.182
 4558SOL     OW14572   0.761   4.008   4.941
 4558SOL    HW114573   0.710   4.081   4.896
 4558SOL    HW214574   0.858   4.033   4.945
 4559SOL     OW14575   6.860   3.769   2.126
 4559SOL    HW114576   6.773   3.813   2.103
 4559SOL    HW214577   6.883   3.702   2.056
 4560SOL     OW14578   5.235   4.958   2.223
 4560SOL    HW114579   5.255   5.041   2.171
 4560SOL    HW214580   5.274   4.967   2.315
 4561SOL     OW14581   2.565   1.392   1.989
 4561SOL    HW114582   2.515   1.471   1.952
 4561SOL    HW214583   2.663   1.406   1.976
 4562SOL     OW14584   3.142   6.003   4.928
 4562SOL    HW114585   3.090   6.071   4.979
 4562SOL    HW214586   3.212   5.963   4.987
 4563SOL     OW14587   0.222   3.363   1.073
 4563SOL    HW114588   0.280   3.312   1.010
 4563SOL    HW214589   0.278   3.403   1.145
 4564SOL     OW14590   6.720   6.632   0.933
 4564SOL    HW114591   6.795   6.688   0.900
 4564SOL    HW214592   6.734   6.537   0.906
 4565SOL     OW14593   0.303   1.471   5.492
 4565SOL    HW114594   0.355   1.510   5.416
 4565SOL    HW214595   0.253   1.391   5.461
 4566SOL     OW14596   6.838   2.335   0.954
 4566SOL    HW114597   6.827   2.334   1.053
 4566SOL    HW214598   6.755   2.372   0.912
 4567SOL     OW14599   6.575   0.495   0.002
 4567SOL    HW114600   6.483   0.521   0.030
 4567SOL    HW214601   6.583   0.506   6.922
 4568SOL     OW14602   2.084   3.920   5.746
 4568SOL    HW114603   2.095   4.009   5.703
 4568SOL    HW214604   2.156   3.858   5.716
 4569SOL     OW14605   1.756   1.442   3.275
 4569SOL    HW114606   1.664   1.476   3.295
 4569SOL    HW214607   1.749   1.353   3.229
 4570SOL     OW14608   0.495   6.669   3.533
 4570SOL    HW114609   0.463   6.577   3.513
 4570SOL    HW214610   0.432   6.713   3.598
 4571SOL     OW14611   4.125   3.812   5.886
 4571SOL    HW114612   4.046   3.760   5.917
 4571SOL    HW214613   4.192   3.751   5.845
 4572SOL     OW14614   1.439   6.824   6.572
 4572SOL    HW114615   1.348   6.787   6.554
 4572SOL    HW214616   1.508   6.754   6.555
 4573SOL     OW14617   6.022   6.510   0.590
 4573SOL    HW114618   6.097   6.467   0.539
 4573SOL    HW214619   5.937   6.461   0.573
 4574SOL     OW14620   6.421   3.533   0.976
 4574SOL    HW114621   6.389   3.497   1.063
 4574SOL    HW214622   6.440   3.631   0.985
 4575SOL     OW14623   6.180   1.735   6.507
 4575SOL    HW114624   6.149   1.715   6.414
 4575SOL    HW214625   6.100   1.754   6.565
 4576SOL     OW14626   2.250   6.400   5.921
 4576SOL    HW114627   2.218   6.472   5.859
 4576SOL    HW214628   2.305   6.441   5.993
 4577SOL     OW14629   0.889   2.200   4.463
 4577SOL    HW114630   0.900   2.212   4.562
 4577SOL    HW214631   0.970   2.156   4.426
 4578SOL     OW14632   0.930   3.480   4.962
 4578SOL    HW114633   0.841   3.504   4.924
 4578SOL    HW214634   0.937   3.381   4.971
 4579SOL     OW14635   5.057   1.787   3.216
 4579SOL    HW114636   5.029   1.717   3.150
 4579SOL    HW214637   5.037   1.755   3.309
 4580SOL     OW14638   5.168   4.727   0.250
 4580SOL    HW114639   5.118   4.779   0.319
 4580SOL    HW214640   5.169   4.778   0.164
 4581SOL     OW14641   2.557   4.840   2.743
 4581SOL    HW114642   2.489   4.778   2.781
 4581SOL    HW214643   2.511   4.920   2.703
 4582SOL     OW14644   5.826   6.550   4.773
 4582SOL    HW114645   5.893   6.561   4.847
 4582SOL    HW214646   5.854   6.604   4.694
 4583SOL     OW14647   2.307   2.092   5.647
 4583SOL    HW114648   2.389   2.036   5.639
 4583SOL    HW214649   2.262   2.097   5.558
 4584SOL     OW14650   0.351   5.398   5.992
 4584SOL    HW114651   0.278   5.448   6.039
 4584SOL    HW214652   0.438   5.446   6.005
 4585SOL     OW14653   2.741   6.797   2.927
 4585SOL    HW114654   2.670   6.863   2.951
 4585SOL    HW214655   2.784   6.825   2.840
 4586SOL     OW14656   3.146   5.260   0.664
 4586SOL    HW114657   3.233   5.268   0.616
 4586SOL    HW214658   3.160   5.276   0.761
 4587SOL     OW14659   3.720   3.825   2.446
 4587SOL    HW114660   3.717   3.747   2.509
 4587SOL    HW214661   3.628   3.840   2.408
 4588SOL     OW14662   3.619   4.049   5.498
 4588SOL    HW114663   3.701   4.061   5.554
 4588SOL    HW214664   3.596   4.136   5.454
 4589SOL     OW14665   6.161   0.712   2.301
 4589SOL    HW114666   6.259   0.688   2.300
 4589SOL    HW214667   6.109   0.641   2.254
 4590SOL     OW14668   5.073   5.517   0.492
 4590SOL    HW114669   5.063   5.466   0.407
 4590SOL    HW214670   4.988   5.564   0.513
 4591SOL     OW14671   0.240   6.248   4.313
 4591SOL    HW114672   0.336   6.276   4.322
 4591SOL    HW214673   0.181   6.317   4.355
 4592SOL     OW14674   3.427   1.793   1.633
 4592SOL    HW114675   3.455   1.848   1.712
 4592SOL    HW214676   3.332   1.816   1.608
 4593SOL     OW14677   4.663   5.316   3.930
 4593SOL    HW114678   4.694   5.378   3.857
 4593SOL    HW214679   4.686   5.222   3.906
 4594SOL     OW14680   2.921   1.258   2.484
 4594SOL    HW114681   2.902   1.236   2.388
 4594SOL    HW214682   2.995   1.199   2.517
 4595SOL     OW14683   4.024   2.672   6.307
 4595SOL    HW114684   3.925   2.684   6.300
 4595SOL    HW214685   4.049   2.584   6.265
 4596SOL     OW14686   6.199   6.856   1.925
 4596SOL    HW114687   6.248   6.769   1.919
 4596SOL    HW214688   6.166   6.869   2.019
 4597SOL     OW14689   4.274   4.854   6.190
 4597SOL    HW114690   4.237   4.783   6.130
 4597SOL    HW214691   4.253   4.832   6.285
 4598SOL     OW14692   2.331   6.363   6.714
 4598SOL    HW114693   2.277   6.330   6.637
 4598SOL    HW214694   2.289   6.446   6.751
 4599SOL     OW14695   0.579   5.690   0.502
 4599SOL    HW114696   0.583   5.789   0.520
 4599SOL    HW214697   0.538   5.645   0.581
 4600SOL     OW14698   1.458   4.604   5.320
 4600SOL    HW114699   1.496   4.690   5.287
 4600SOL    HW214700   1.493   4.584   5.411
 4601SOL     OW14701   1.844   0.348   5.188
 4601SOL    HW114702   1.932   0.355   5.234
 4601SOL    HW214703   1.840   0.263   5.136
 4602SOL     OW14704   1.490   5.764   0.873
 4602SOL    HW114705   1.489   5.833   0.945
 4602SOL    HW214706   1.426   5.790   0.801
 4603SOL     OW14707   3.248   6.225   0.702
 4603SOL    HW114708   3.313   6.173   0.646
 4603SOL    HW214709   3.296   6.299   0.749
 4604SOL     OW14710   4.615   0.219   0.995
 4604SOL    HW114711   4.585   0.128   0.968
 4604SOL    HW214712   4.682   0.253   0.928
 4605SOL     OW14713   3.304   0.273   3.550
 4605SOL    HW114714   3.352   0.233   3.628
 4605SOL    HW214715   3.326   0.221   3.467
 4606SOL     OW14716   1.312   0.129   2.028
 4606SOL    HW114717   1.301   0.196   1.955
 4606SOL    HW214718   1.231   0.071   2.033
 4607SOL     OW14719   2.173   2.439   1.490
 4607SOL    HW114720   2.248   2.392   1.443
 4607SOL    HW214721   2.087   2.419   1.443
 4608SOL     OW14722   0.721   5.868   3.548
 4608SOL    HW114723   0.741   5.833   3.457
 4608SOL    HW214724   0.735   5.967   3.550
 4609SOL     OW14725   4.295   5.165   6.598
 4609SOL    HW114726   4.252   5.230   6.536
 4609SOL    HW214727   4.241   5.157   6.681
 4610SOL     OW14728   5.218   3.148   0.609
 4610SOL    HW114729   5.126   3.181   0.587
 4610SOL    HW214730   5.241   3.174   0.703
 4611SOL     OW14731   0.119   6.131   5.676
 4611SOL    HW114732   0.059   6.108   5.753
 4611SOL    HW214733   0.131   6.230   5.672
 4612SOL     OW14734   1.220   6.044   0.175
 4612SOL    HW114735   1.278   6.122   0.152
 4612SOL    HW214736   1.257   5.996   0.255
 4613SOL     OW14737   2.573   6.203   2.293
 4613SOL    HW114738   2.526   6.117   2.310
 4613SOL    HW214739   2.547   6.239   2.204
 4614SOL     OW14740   6.743   3.234   4.993
 4614SOL    HW114741   6.686   3.316   4.989
 4614SOL    HW214742   6.712   3.176   5.069
 4615SOL     OW14743   1.915   0.238   0.188
 4615SOL    HW114744   1.926   0.318   0.130
 4615SOL    HW214745   1.998   0.181   0.183
 4616SOL     OW14746   6.714   0.495   5.220
 4616SOL    HW114747   6.807   0.509   5.255
 4616SOL    HW214748   6.667   0.428   5.276
 4617SOL     OW14749   0.727   2.785   2.034
 4617SOL    HW114750   0.798   2.715   2.043
 4617SOL    HW214751   0.729   2.846   2.113
 4618SOL     OW14752   2.194   3.085   4.893
 4618SOL    HW114753   2.274   3.067   4.951
 4618SOL    HW214754   2.179   3.184   4.887
 4619SOL     OW14755   3.571   6.448   3.557
 4619SOL    HW114756   3.621   6.391   3.491
 4619SOL    HW214757   3.602   6.426   3.650
 4620SOL     OW14758   2.243   4.811   0.389
 4620SOL    HW114759   2.240   4.855   0.300
 4620SOL    HW214760   2.325   4.840   0.438
 4621SOL     OW14761   5.563   1.253   2.233
 4621SOL    HW114762   5.660   1.231   2.223
 4621SOL    HW214763   5.542   1.336   2.181
 4622SOL     OW14764   2.327   4.688   0.836
 4622SOL    HW114765   2.262   4.738   0.892
 4622SOL    HW214766   2.346   4.740   0.752
 4623SOL     OW14767   5.991   6.984   0.432
 4623SOL    HW114768   5.925   0.026   0.477
 4623SOL    HW214769   5.945   6.900   0.405
 4624SOL     OW14770   5.285   6.561   3.333
 4624SOL    HW114771   5.201   6.522   3.294
 4624SOL    HW214772   5.267   6.587   3.428
 4625SOL     OW14773   1.654   3.926   1.069
 4625SOL    HW114774   1.556   3.910   1.054
 4625SOL    HW214775   1.705   3.902   0.987
 4626SOL     OW14776   5.023   5.160   2.355
 4626SOL    HW114777   5.064   5.129   2.440
 4626SOL    HW214778   5.095   5.174   2.286
 4627SOL     OW14779   2.658   4.688   4.234
 4627SOL    HW114780   2.694   4.703   4.327
 4627SOL    HW214781   2.612   4.599   4.231
 4628SOL     OW14782   6.097   4.631   4.056
 4628SOL    HW114783   6.184   4.674   4.032
 4628SOL    HW214784   6.108   4.581   4.142
 4629SOL     OW14785   2.093   5.041   5.551
 4629SOL    HW114786   2.172   5.097   5.576
 4629SOL    HW214787   2.105   5.007   5.458
 4630SOL     OW14788   3.545   5.463   2.395
 4630SOL    HW114789   3.628   5.513   2.368
 4630SOL    HW214790   3.480   5.527   2.436
 4631SOL     OW14791   2.232   6.184   2.709
 4631SOL    HW114792   2.299   6.257   2.703
 4631SOL    HW214793   2.242   6.137   2.797
 4632SOL     OW14794   3.899   5.099   2.876
 4632SOL    HW114795   3.820   5.092   2.937
 4632SOL    HW214796   3.884   5.175   2.812
 4633SOL     OW14797   5.519   0.847   4.527
 4633SOL    HW114798   5.447   0.780   4.545
 4633SOL    HW214799   5.548   0.840   4.431
 4634SOL     OW14800   2.767   5.000   6.211
 4634SOL    HW114801   2.795   5.081   6.160
 4634SOL    HW214802   2.692   4.955   6.162
 4635SOL     OW14803   5.170   4.066   1.205
 4635SOL    HW114804   5.188   3.980   1.255
 4635SOL    HW214805   5.090   4.110   1.245
 4636SOL     OW14806   1.665   4.771   0.347
 4636SOL    HW114807   1.574   4.806   0.328
 4636SOL    HW214808   1.692   4.795   0.440
 4637SOL     OW14809   1.210   6.913   0.678
 4637SOL    HW114810   1.112   6.901   0.664
 4637SOL    HW214811   1.259   6.871   0.602
 4638SOL     OW14812   5.058   3.789   6.742
 4638SOL    HW114813   5.052   3.801   6.643
 4638SOL    HW214814   5.011   3.704   6.768
 4639SOL     OW14815   3.036   4.674   5.853
 4639SOL    HW114816   2.984   4.729   5.918
 4639SOL    HW214817   3.004   4.579   5.856
 4640SOL     OW14818   4.773   4.090   3.409
 4640SOL    HW114819   4.817   4.000   3.410
 4640SOL    HW214820   4.725   4.102   3.322
 4641SOL     OW14821   2.142   0.000   5.536
 4641SOL    HW114822   2.223   0.046   5.501
 4641SOL    HW214823   2.064   0.020   5.477
 4642SOL     OW14824   0.025   5.666   3.815
 4642SOL    HW114825   0.082   5.717   3.879
 4642SOL    HW214826   0.077   5.647   3.732
 4643SOL     OW14827   5.681   3.165   1.312
 4643SOL    HW114828   5.681   3.253   1.359
 4643SOL    HW214829   5.594   3.119   1.327
 4644SOL     OW14830   0.180   5.041   4.807
 4644SOL    HW114831   0.256   4.986   4.774
 4644SOL    HW214832   0.122   4.985   4.867
 4645SOL     OW14833   0.789   0.356   4.271
 4645SOL    HW114834   0.799   0.345   4.370
 4645SOL    HW214835   0.751   0.272   4.231
 4646SOL     OW14836   1.810   5.774   3.348
 4646SOL    HW114837   1.868   5.854   3.335
 4646SOL    HW214838   1.788   5.764   3.445
 4647SOL     OW14839   1.603   1.198   3.513
 4647SOL    HW114840   1.661   1.126   3.548
 4647SOL    HW214841   1.633   1.224   3.422
 4648SOL     OW14842   3.917   0.962   2.375
 4648SOL    HW114843   3.981   0.993   2.304
 4648SOL    HW214844   3.843   1.029   2.384
 4649SOL     OW14845   5.273   0.315   6.672
 4649SOL    HW114846   5.278   0.350   6.765
 4649SOL    HW214847   5.317   0.379   6.609
 4650SOL     OW14848   4.969   5.603   2.988
 4650SOL    HW114849   5.045   5.603   3.053
 4650SOL    HW214850   4.894   5.659   3.023
 4651SOL     OW14851   6.969   2.656   0.604
 4651SOL    HW114852   6.929   2.725   0.665
 4651SOL    HW214853   6.956   2.683   0.509
 4652SOL     OW14854   6.838   0.178   4.548
 4652SOL    HW114855   6.788   0.252   4.503
 4652SOL    HW214856   6.824   0.093   4.498
 4653SOL     OW14857   6.003   4.757   0.510
 4653SOL    HW114858   6.047   4.689   0.451
 4653SOL    HW214859   6.044   4.847   0.493
 4654SOL     OW14860   1.443   6.606   6.975
 4654SOL    HW114861   1.515   6.540   6.954
 4654SOL    HW214862   1.470   6.661   0.035
 4655SOL     OW14863   5.492   4.345   1.767
 4655SOL    HW114864   5.465   4.427   1.819
 4655SOL    HW214865   5.479   4.264   1.825
 4656SOL     OW14866   1.092   0.526   3.499
 4656SOL    HW114867   1.024   0.541   3.571
 4656SOL    HW214868   1.148   0.446   3.522
 4657SOL     OW14869   4.937   5.867   1.514
 4657SOL    HW114870   4.933   5.843   1.417
 4657SOL    HW214871   4.852   5.912   1.541
 4658SOL     OW14872   4.240   1.090   2.844
 4658SOL    HW114873   4.167   1.081   2.912
 4658SOL    HW214874   4.203   1.131   2.761
 4659SOL     OW14875   3.050   4.731   5.232
 4659SOL    HW114876   2.993   4.796   5.283
 4659SOL    HW214877   2.994   4.682   5.166
 4660SOL     OW14878   1.199   4.360   6.170
 4660SOL    HW114879   1.284   4.402   6.201
 4660SOL    HW214880   1.131   4.364   6.244
 4661SOL     OW14881   2.986   4.408   5.924
 4661SOL    HW114882   2.886   4.410   5.924
 4661SOL    HW214883   3.018   4.326   5.972
 4662SOL     OW14884   3.523   0.079   5.379
 4662SOL    HW114885   3.531   0.009   5.308
 4662SOL    HW214886   3.482   0.039   5.461
 4663SOL     OW14887   0.210   2.173   2.418
 4663SOL    HW114888   0.207   2.097   2.484
 4663SOL    HW214889   0.232   2.258   2.467
 4664SOL     OW14890   1.541   1.657   0.872
 4664SOL    HW114891   1.562   1.573   0.823
 4664SOL    HW214892   1.593   1.660   0.957
 4665SOL     OW14893   3.408   6.741   6.959
 4665SOL    HW114894   3.384   6.785   6.872
 4665SOL    HW214895   3.390   6.804   0.015
 4666SOL     OW14896   1.573   2.167   0.842
 4666SOL    HW114897   1.581   2.072   0.813
 4666SOL    HW214898   1.593   2.173   0.940
 4667SOL     OW14899   5.967   3.613   2.523
 4667SOL    HW114900   6.014   3.593   2.437
 4667SOL    HW214901   5.963   3.712   2.536
 4668SOL     OW14902   4.674   1.678   2.466
 4668SOL    HW114903   4.652   1.673   2.564
 4668SOL    HW214904   4.589   1.687   2.414
 4669SOL     OW14905   4.992   5.983   6.749
 4669SOL    HW114906   4.997   6.029   6.661
 4669SOL    HW214907   4.896   5.967   6.773
 4670SOL     OW14908   3.090   2.202   5.393
 4670SOL    HW114909   3.113   2.282   5.337
 4670SOL    HW214910   3.096   2.119   5.338
 4671SOL     OW14911   6.878   2.894   1.884
 4671SOL    HW114912   6.932   2.905   1.801
 4671SOL    HW214913   6.866   2.983   1.928
 4672SOL     OW14914   3.048   4.770   6.394
 4672SOL    HW114915   3.080   4.862   6.371
 4672SOL    HW214916   2.969   4.748   6.337
 4673SOL     OW14917   5.311   0.008   1.136
 4673SOL    HW114918   5.406   6.997   1.147
 4673SOL    HW214919   5.271   0.023   1.227
 4674SOL     OW14920   5.226   0.407   6.310
 4674SOL    HW114921   5.256   0.342   6.240
 4674SOL    HW214922   5.132   0.386   6.337
 4675SOL     OW14923   1.178   1.668   5.994
 4675SOL    HW114924   1.250   1.603   6.021
 4675SOL    HW214925   1.215   1.731   5.926
 4676SOL     OW14926   0.401   6.415   3.455
 4676SOL    HW114927   0.436   6.326   3.427
 4676SOL    HW214928   0.312   6.431   3.411
 4677SOL     OW14929   2.669   1.260   6.499
 4677SOL    HW114930   2.753   1.205   6.499
 4677SOL    HW214931   2.589   1.199   6.497
 4678SOL     OW14932   1.729   4.903   3.052
 4678SOL    HW114933   1.760   4.957   3.130
 4678SOL    HW214934   1.630   4.890   3.058
 4679SOL     OW14935   3.780   0.252   0.368
 4679SOL    HW114936   3.873   0.278   0.394
 4679SOL    HW214937   3.769   0.153   0.377
 4680SOL     OW14938   2.900   1.595   0.011
 4680SOL    HW114939   2.825   1.661   0.013
 4680SOL    HW214940   2.898   1.541   0.095
 4681SOL     OW14941   5.279   5.460   6.677
 4681SOL    HW114942   5.280   5.388   6.607
 4681SOL    HW214943   5.208   5.527   6.654
 4682SOL     OW14944   4.801   4.200   5.482
 4682SOL    HW114945   4.738   4.148   5.424
 4682SOL    HW214946   4.833   4.280   5.432
 4683SOL     OW14947   4.775   4.703   2.232
 4683SOL    HW114948   4.678   4.680   2.242
 4683SOL    HW214949   4.794   4.789   2.280
 4684SOL     OW14950   5.699   0.651   5.306
 4684SOL    HW114951   5.754   0.610   5.379
 4684SOL    HW214952   5.667   0.741   5.336
 4685SOL     OW14953   0.935   5.645   5.695
 4685SOL    HW114954   0.995   5.662   5.772
 4685SOL    HW214955   0.843   5.624   5.728
 4686SOL     OW14956   4.342   4.540   0.584
 4686SOL    HW114957   4.317   4.558   0.489
 4686SOL    HW214958   4.259   4.532   0.639
 4687SOL     OW14959   5.869   3.522   4.401
 4687SOL    HW114960   5.939   3.524   4.472
 4687SOL    HW214961   5.811   3.441   4.412
 4688SOL     OW14962   5.937   4.145   4.926
 4688SOL    HW114963   5.907   4.102   5.012
 4688SOL    HW214964   6.016   4.095   4.891
 4689SOL     OW14965   4.535   1.039   0.090
 4689SOL    HW114966   4.528   1.138   0.100
 4689SOL    HW214967   4.601   1.017   0.019
 4690SOL     OW14968   1.085   0.568   7.010
 4690SOL    HW114969   1.174   0.536   6.978
 4690SOL    HW214970   1.020   0.565   6.934
 4691SOL     OW14971   2.461   5.035   1.294
 4691SOL    HW114972   2.550   4.989   1.298
 4691SOL    HW214973   2.389   4.970   1.315
 4692SOL     OW14974   5.459   5.825   1.539
 4692SOL    HW114975   5.362   5.800   1.540
 4692SOL    HW214976   5.515   5.742   1.542
 4693SOL     OW14977   1.263   2.207   3.668
 4693SOL    HW114978   1.299   2.131   3.612
 4693SOL    HW214979   1.254   2.176   3.762
 4694SOL     OW14980   2.014   1.119   0.116
 4694SOL    HW114981   2.101   1.164   0.096
 4694SOL    HW214982   1.970   1.163   0.194
 4695SOL     OW14983   0.856   3.728   2.242
 4695SOL    HW114984   0.763   3.759   2.221
 4695SOL    HW214985   0.873   3.739   2.340
 4696SOL     OW14986   0.140   4.277   0.133
 4696SOL    HW114987   0.202   4.198   0.132
 4696SOL    HW214988   0.167   4.339   0.206
 4697SOL     OW14989   1.879   3.380   0.901
 4697SOL    HW114990   1.784   3.384   0.869
 4697SOL    HW214991   1.904   3.468   0.941
 4698SOL     OW14992   4.585   5.007   2.308
 4698SOL    HW114993   4.529   4.954   2.371
 4698SOL    HW214994   4.602   5.098   2.347
 4699SOL     OW14995   1.409   6.557   2.143
 4699SOL    HW114996   1.347   6.633   2.162
 4699SOL    HW214997   1.377   6.508   2.062
 4700SOL     OW14998   0.025   1.094   3.109
 4700SOL    HW114999   7.012   1.159   3.178
 4700SOL    HW215000   7.013   1.123   3.018
 4701SOL     OW15001   2.597   2.382   0.915
 4701SOL    HW115002   2.682   2.328   0.919
 4701SOL    HW215003   2.544   2.365   0.998
 4702SOL     OW15004   5.002   5.031   0.027
 4702SOL    HW115005   4.972   5.001   0.118
 4702SOL    HW215006   5.081   4.977   7.018
 4703SOL     OW15007   0.399   1.761   2.132
 4703SOL    HW115008   0.491   1.722   2.138
 4703SOL    HW215009   0.334   1.688   2.111
 4704SOL     OW15010   0.658   6.207   0.048
 4704SOL    HW115011   0.569   6.174   0.018
 4704SOL    HW215012   0.656   6.307   0.053
 4705SOL     OW15013   3.788   2.416   1.654
 4705SOL    HW115014   3.750   2.375   1.737
 4705SOL    HW215015   3.870   2.366   1.627
 4706SOL     OW15016   2.752   0.110   0.431
 4706SOL    HW115017   2.697   0.029   0.452
 4706SOL    HW215018   2.781   0.107   0.336
 4707SOL     OW15019   1.537   6.606   0.788
 4707SOL    HW115020   1.504   6.584   0.696
 4707SOL    HW215021   1.573   6.700   0.789
 4708SOL     OW15022   1.131   2.166   6.447
 4708SOL    HW115023   1.082   2.079   6.438
 4708SOL    HW215024   1.214   2.164   6.392
 4709SOL     OW15025   4.540   5.602   5.354
 4709SOL    HW115026   4.457   5.629   5.403
 4709SOL    HW215027   4.613   5.667   5.372
 4710SOL     OW15028   4.732   6.902   5.964
 4710SOL    HW115029   4.663   6.970   5.939
 4710SOL    HW215030   4.800   6.894   5.890
 4711SOL     OW15031   6.021   1.388   1.769
 4711SOL    HW115032   6.009   1.306   1.714
 4711SOL    HW215033   5.961   1.384   1.849
 4712SOL     OW15034   3.158   4.726   0.036
 4712SOL    HW115035   3.200   4.808   7.017
 4712SOL    HW215036   3.226   4.653   0.042
 4713SOL     OW15037   3.755   4.154   1.040
 4713SOL    HW115038   3.682   4.099   1.081
 4713SOL    HW215039   3.843   4.107   1.051
 4714SOL     OW15040   0.719   1.970   6.322
 4714SOL    HW115041   0.713   2.022   6.237
 4714SOL    HW215042   0.695   1.875   6.305
 4715SOL     OW15043   6.100   2.619   2.435
 4715SOL    HW115044   6.140   2.710   2.433
 4715SOL    HW215045   6.169   2.551   2.409
 4716SOL     OW15046   4.150   6.409   6.535
 4716SOL    HW115047   4.065   6.398   6.483
 4716SOL    HW215048   4.159   6.334   6.601
 4717SOL     OW15049   6.849   0.115   3.775
 4717SOL    HW115050   6.863   0.029   3.725
 4717SOL    HW215051   6.758   0.151   3.756
 4718SOL     OW15052   5.459   2.143   1.244
 4718SOL    HW115053   5.394   2.130   1.319
 4718SOL    HW215054   5.541   2.188   1.279
 4719SOL     OW15055   4.878   3.293   1.607
 4719SOL    HW115056   4.778   3.301   1.599
 4719SOL    HW215057   4.905   3.312   1.701
 4720SOL     OW15058   2.162   5.669   6.008
 4720SOL    HW115059   2.078   5.716   5.980
 4720SOL    HW215060   2.241   5.714   5.965
 4721SOL     OW15061   6.470   2.292   2.107
 4721SOL    HW115062   6.458   2.193   2.103
 4721SOL    HW215063   6.428   2.334   2.026
 4722SOL     OW15064   1.009   6.259   6.587
 4722SOL    HW115065   0.916   6.289   6.606
 4722SOL    HW215066   1.007   6.170   6.542
 4723SOL     OW15067   2.757   3.334   6.165
 4723SOL    HW115068   2.824   3.261   6.153
 4723SOL    HW215069   2.703   3.317   6.247
 4724SOL     OW15070   5.886   6.727   3.207
 4724SOL    HW115071   5.863   6.639   3.249
 4724SOL    HW215072   5.877   6.720   3.108
 4725SOL     OW15073   6.655   5.161   1.416
 4725SOL    HW115074   6.752   5.141   1.423
 4725SOL    HW215075   6.603   5.095   1.471
 4726SOL     OW15076   1.254   3.332   6.110
 4726SOL    HW115077   1.231   3.429   6.110
 4726SOL    HW215078   1.225   3.291   6.024
 4727SOL     OW15079   1.207   6.370   1.373
 4727SOL    HW115080   1.207   6.290   1.433
 4727SOL    HW215081   1.174   6.343   1.283
 4728SOL     OW15082   5.981   0.712   1.837
 4728SOL    HW115083   5.934   0.793   1.872
 4728SOL    HW215084   5.975   0.709   1.738
 4729SOL     OW15085   3.938   1.563   0.351
 4729SOL    HW115086   3.928   1.492   0.282
 4729SOL    HW215087   3.966   1.522   0.438
 4730SOL     OW15088   3.536   5.835   5.630
 4730SOL    HW115089   3.468   5.782   5.681
 4730SOL    HW215090   3.489   5.900   5.570
 4731SOL     OW15091   3.551   0.626   0.401
 4731SOL    HW115092   3.641   0.669   0.405
 4731SOL    HW215093   3.486   0.690   0.361
 4732SOL     OW15094   1.237   4.072   5.510
 4732SOL    HW115095   1.291   4.002   5.556
 4732SOL    HW215096   1.169   4.028   5.451
 4733SOL     OW15097   1.293   4.167   4.138
 4733SOL    HW115098   1.243   4.143   4.221
 4733SOL    HW215099   1.369   4.102   4.124
 4734SOL     OW15100   3.895   2.892   6.692
 4734SOL    HW115101   3.938   2.807   6.721
 4734SOL    HW215102   3.953   2.938   6.625
 4735SOL     OW15103   6.480   5.229   4.208
 4735SOL    HW115104   6.520   5.313   4.245
 4735SOL    HW215105   6.466   5.239   4.110
 4736SOL     OW15106   5.926   1.655   5.522
 4736SOL    HW115107   5.965   1.629   5.434
 4736SOL    HW215108   5.864   1.583   5.554
 4737SOL     OW15109   2.552   4.537   1.821
 4737SOL    HW115110   2.541   4.573   1.728
 4737SOL    HW215111   2.646   4.553   1.852
 4738SOL     OW15112   0.856   6.213   2.979
 4738SOL    HW115113   0.813   6.217   3.069
 4738SOL    HW215114   0.864   6.306   2.942
 4739SOL     OW15115   4.311   1.318   2.600
 4739SOL    HW115116   4.364   1.248   2.554
 4739SOL    HW215117   4.215   1.290   2.603
 4740SOL     OW15118   0.656   1.537   1.444
 4740SOL    HW115119   0.683   1.463   1.383
 4740SOL    HW215120   0.609   1.499   1.524
 4741SOL     OW15121   5.174   3.687   0.373
 4741SOL    HW115122   5.228   3.731   0.302
 4741SOL    HW215123   5.186   3.588   0.367
 4742SOL     OW15124   2.947   6.900   6.360
 4742SOL    HW115125   2.987   6.814   6.391
 4742SOL    HW215126   2.892   6.939   6.434
 4743SOL     OW15127   1.856   3.508   4.362
 4743SOL    HW115128   1.771   3.546   4.399
 4743SOL    HW215129   1.918   3.486   4.436
 4744SOL     OW15130   2.270   4.136   0.061
 4744SOL    HW115131   2.281   4.200   7.004
 4744SOL    HW215132   2.355   4.084   0.074
 4745SOL     OW15133   3.335   5.322   6.705
 4745SOL    HW115134   3.328   5.223   6.692
 4745SOL    HW215135   3.418   5.343   6.756
 4746SOL     OW15136   4.702   5.970   1.880
 4746SOL    HW115137   4.714   5.877   1.914
 4746SOL    HW215138   4.762   6.032   1.931
 4747SOL     OW15139   2.135   4.100   6.739
 4747SOL    HW115140   2.199   4.164   6.783
 4747SOL    HW215141   2.099   4.036   6.807
 4748SOL     OW15142   1.146   5.179   0.850
 4748SOL    HW115143   1.199   5.249   0.801
 4748SOL    HW215144   1.098   5.222   0.927
 4749SOL     OW15145   2.637   6.035   5.638
 4749SOL    HW115146   2.690   5.996   5.563
 4749SOL    HW215147   2.623   5.966   5.709
 4750SOL     OW15148   0.333   4.145   3.912
 4750SOL    HW115149   0.264   4.098   3.856
 4750SOL    HW215150   0.328   4.110   4.005
 4751SOL     OW15151   3.925   1.575   1.420
 4751SOL    HW115152   3.953   1.671   1.433
 4751SOL    HW215153   3.873   1.545   1.500
 4752SOL     OW15154   3.592   0.527   6.407
 4752SOL    HW115155   3.689   0.528   6.383
 4752SOL    HW215156   3.540   0.486   6.332
 4753SOL     OW15157   5.587   0.193   4.200
 4753SOL    HW115158   5.529   0.274   4.207
 4753SOL    HW215159   5.534   0.117   4.163
 4754SOL     OW15160   5.678   6.649   5.147
 4754SOL    HW115161   5.634   6.680   5.062
 4754SOL    HW215162   5.672   6.550   5.153
 4755SOL     OW15163   1.893   0.818   1.299
 4755SOL    HW115164   1.850   0.907   1.286
 4755SOL    HW215165   1.983   0.818   1.255
 4756SOL     OW15166   5.402   2.503   0.586
 4756SOL    HW115167   5.432   2.454   0.504
 4756SOL    HW215168   5.328   2.452   0.630
 4757SOL     OW15169   2.297   1.860   1.137
 4757SOL    HW115170   2.378   1.920   1.139
 4757SOL    HW215171   2.235   1.891   1.065
 4758SOL     OW15172   2.256   6.486   4.225
 4758SOL    HW115173   2.201   6.536   4.292
 4758SOL    HW215174   2.296   6.405   4.268
 4759SOL     OW15175   5.974   4.846   5.463
 4759SOL    HW115176   5.884   4.802   5.465
 4759SOL    HW215177   5.983   4.898   5.378
 4760SOL     OW15178   2.057   2.029   0.935
 4760SOL    HW115179   2.135   2.089   0.955
 4760SOL    HW215180   2.000   2.071   0.865
 4761SOL     OW15181   0.651   6.467   0.100
 4761SOL    HW115182   0.644   6.461   0.200
 4761SOL    HW215183   0.704   6.547   0.075
 4762SOL     OW15184   0.818   5.982   2.367
 4762SOL    HW115185   0.796   6.001   2.463
 4762SOL    HW215186   0.825   5.883   2.354
 4763SOL     OW15187   6.358   6.631   3.034
 4763SOL    HW115188   6.301   6.598   2.959
 4763SOL    HW215189   6.447   6.658   2.998
 4764SOL     OW15190   4.826   3.824   4.487
 4764SOL    HW115191   4.731   3.816   4.460
 4764SOL    HW215192   4.837   3.799   4.583
 4765SOL     OW15193   4.699   1.047   3.975
 4765SOL    HW115194   4.759   1.022   4.051
 4765SOL    HW215195   4.754   1.066   3.894
 4766SOL     OW15196   5.044   5.959   3.892
 4766SOL    HW115197   4.958   5.993   3.855
 4766SOL    HW215198   5.058   5.997   3.984
 4767SOL     OW15199   3.355   5.382   5.882
 4767SOL    HW115200   3.321   5.436   5.805
 4767SOL    HW215201   3.399   5.299   5.847
 4768SOL     OW15202   4.162   2.115   6.169
 4768SOL    HW115203   4.095   2.185   6.192
 4768SOL    HW215204   4.235   2.115   6.237
 4769SOL     OW15205   5.190   4.350   6.699
 4769SOL    HW115206   5.165   4.262   6.740
 4769SOL    HW215207   5.120   4.377   6.633
 4770SOL     OW15208   0.891   0.624   4.475
 4770SOL    HW115209   0.976   0.583   4.443
 4770SOL    HW215210   0.890   0.721   4.451
 4771SOL     OW15211   2.824   5.964   5.151
 4771SOL    HW115212   2.894   6.035   5.144
 4771SOL    HW215213   2.859   5.878   5.115
 4772SOL     OW15214   3.986   4.754   1.536
 4772SOL    HW115215   3.892   4.719   1.531
 4772SOL    HW215216   3.984   4.854   1.538
 4773SOL     OW15217   0.162   5.423   3.235
 4773SOL    HW115218   0.205   5.333   3.234
 4773SOL    HW215219   0.230   5.494   3.219
 4774SOL     OW15220   1.378   3.411   1.618
 4774SOL    HW115221   1.373   3.439   1.714
 4774SOL    HW215222   1.469   3.374   1.599
 4775SOL     OW15223   4.908   6.412   2.268
 4775SOL    HW115224   4.935   6.448   2.357
 4775SOL    HW215225   4.885   6.315   2.277
 4776SOL     OW15226   1.369   6.291   5.473
 4776SOL    HW115227   1.274   6.309   5.502
 4776SOL    HW215228   1.418   6.378   5.466
 4777SOL     OW15229   2.161   5.221   0.772
 4777SOL    HW115230   2.156   5.134   0.821
 4777SOL    HW215231   2.243   5.223   0.715
 4778SOL     OW15232   6.356   2.570   3.422
 4778SOL    HW115233   6.438   2.579   3.478
 4778SOL    HW215234   6.366   2.492   3.361
 4779SOL     OW15235   6.339   6.263   2.524
 4779SOL    HW115236   6.245   6.278   2.554
 4779SOL    HW215237   6.373   6.345   2.479
 4780SOL     OW15238   5.934   1.188   0.375
 4780SOL    HW115239   6.013   1.249   0.368
 4780SOL    HW215240   5.888   1.203   0.463
 4781SOL     OW15241   2.418   5.681   2.394
 4781SOL    HW115242   2.517   5.670   2.386
 4781SOL    HW215243   2.378   5.695   2.303
 4782SOL     OW15244   5.047   5.321   0.296
 4782SOL    HW115245   4.955   5.340   0.261
 4782SOL    HW215246   5.108   5.300   0.220
 4783SOL     OW15247   4.246   3.663   0.079
 4783SOL    HW115248   4.257   3.569   0.044
 4783SOL    HW215249   4.277   3.728   0.009
 4784SOL     OW15250   6.559   3.892   6.699
 4784SOL    HW115251   6.504   3.950   6.639
 4784SOL    HW215252   6.547   3.921   6.794
 4785SOL     OW15253   1.012   6.575   2.328
 4785SOL    HW115254   1.054   6.652   2.377
 4785SOL    HW215255   1.054   6.490   2.357
 4786SOL     OW15256   2.749   1.155   0.310
 4786SOL    HW115257   2.817   1.100   0.261
 4786SOL    HW215258   2.693   1.095   0.367
 4787SOL     OW15259   4.144   1.391   2.022
 4787SOL    HW115260   4.147   1.292   2.040
 4787SOL    HW215261   4.129   1.440   2.108
 4788SOL     OW15262   0.283   5.841   5.964
 4788SOL    HW115263   0.288   5.930   5.918
 4788SOL    HW215264   0.369   5.824   6.011
 4789SOL     OW15265   5.042   1.896   0.952
 4789SOL    HW115266   5.000   1.857   0.870
 4789SOL    HW215267   4.981   1.964   0.991
 4790SOL     OW15268   5.938   1.897   5.090
 4790SOL    HW115269   5.881   1.924   5.013
 4790SOL    HW215270   5.923   1.960   5.167
 4791SOL     OW15271   6.960   2.525   1.678
 4791SOL    HW115272   6.982   2.588   1.604
 4791SOL    HW215273   0.012   2.454   1.684
 4792SOL     OW15274   1.757   4.035   3.565
 4792SOL    HW115275   1.738   3.953   3.617
 4792SOL    HW215276   1.853   4.035   3.537
 4793SOL     OW15277   2.005   2.912   5.066
 4793SOL    HW115278   2.069   2.924   5.142
 4793SOL    HW215279   2.049   2.940   4.981
 4794SOL     OW15280   5.105   0.233   4.231
 4794SOL    HW115281   5.008   0.214   4.240
 4794SOL    HW215282   5.132   0.306   4.295
 4795SOL     OW15283   5.964   2.051   3.994
 4795SOL    HW115284   5.879   2.100   3.974
 4795SOL    HW215285   6.016   2.039   3.910
 4796SOL     OW15286   4.631   1.705   5.158
 4796SOL    HW115287   4.612   1.794   5.199
 4796SOL    HW215288   4.557   1.641   5.179
 4797SOL     OW15289   0.781   6.421   5.468
 4797SOL    HW115290   0.830   6.502   5.436
 4797SOL    HW215291   0.844   6.343   5.469
 4798SOL     OW15292   0.498   3.949   5.090
 4798SOL    HW115293   0.401   3.971   5.074
 4798SOL    HW215294   0.554   4.000   5.025
 4799SOL     OW15295   4.601   1.885   0.110
 4799SOL    HW115296   4.504   1.911   0.099
 4799SOL    HW215297   4.657   1.940   0.047
 4800SOL     OW15298   3.255   2.910   6.193
 4800SOL    HW115299   3.217   2.940   6.280
 4800SOL    HW215300   3.323   2.838   6.209
 4801SOL     OW15301   2.953   2.353   6.442
 4801SOL    HW115302   2.886   2.334   6.370
 4801SOL    HW215303   2.909   2.400   6.518
 4802SOL     OW15304   1.243   6.769   2.186
 4802SOL    HW115305   1.296   6.807   2.111
 4802SOL    HW215306   1.211   6.843   2.245
 4803SOL     OW15307   0.604   5.620   0.885
 4803SOL    HW115308   0.558   5.689   0.940
 4803SOL    HW215309   0.536   5.570   0.831
 4804SOL     OW15310   5.587   5.791   1.201
 4804SOL    HW115311   5.520   5.858   1.234
 4804SOL    HW215312   5.679   5.831   1.206
 4805SOL     OW15313   6.071   2.015   2.542
 4805SOL    HW115314   6.081   2.110   2.513
 4805SOL    HW215315   6.116   1.955   2.476
 4806SOL     OW15316   1.573   4.314   2.834
 4806SOL    HW115317   1.560   4.312   2.933
 4806SOL    HW215318   1.494   4.272   2.789
 4807SOL     OW15319   0.779   5.227   0.568
 4807SOL    HW115320   0.827   5.311   0.592
 4807SOL    HW215321   0.839   5.149   0.587
 4808SOL     OW15322   5.509   4.446   0.099
 4808SOL    HW115323   5.423   4.396   0.097
 4808SOL    HW215324   5.576   4.399   0.041
 4809SOL     OW15325   4.016   4.416   0.045
 4809SOL    HW115326   3.987   4.415   6.969
 4809SOL    HW215327   3.937   4.435   0.104
 4810SOL     OW15328   1.758   5.158   2.460
 4810SOL    HW115329   1.711   5.230   2.511
 4810SOL    HW215330   1.754   5.177   2.362
 4811SOL     OW15331   2.652   4.109   1.693
 4811SOL    HW115332   2.630   4.092   1.597
 4811SOL    HW215333   2.725   4.047   1.722
 4812SOL     OW15334   0.016   5.365   2.774
 4812SOL    HW115335   6.958   5.408   2.821
 4812SOL    HW215336   7.016   5.362   2.675
 4813SOL     OW15337   5.704   2.351   0.446
 4813SOL    HW115338   5.663   2.419   0.385
 4813SOL    HW215339   5.800   2.338   0.422
 4814SOL     OW15340   7.004   3.204   1.111
 4814SOL    HW115341   6.943   3.266   1.161
 4814SOL    HW215342   0.074   3.248   1.099
 4815SOL     OW15343   5.545   4.059   2.526
 4815SOL    HW115344   5.562   4.057   2.427
 4815SOL    HW215345   5.593   3.984   2.570
 4816SOL     OW15346   1.873   4.750   0.866
 4816SOL    HW115347   1.884   4.687   0.789
 4816SOL    HW215348   1.776   4.772   0.878
 4817SOL     OW15349   1.037   1.837   6.861
 4817SOL    HW115350   1.086   1.921   6.841
 4817SOL    HW215351   1.102   1.761   6.868
 4818SOL     OW15352   0.789   6.460   4.219
 4818SOL    HW115353   0.869   6.425   4.268
 4818SOL    HW215354   0.795   6.560   4.213
 4819SOL     OW15355   1.489   1.694   0.526
 4819SOL    HW115356   1.563   1.665   0.587
 4819SOL    HW215357   1.520   1.771   0.471
 4820SOL     OW15358   6.151   2.534   2.138
 4820SOL    HW115359   6.164   2.454   2.197
 4820SOL    HW215360   6.206   2.610   2.171
 4821SOL     OW15361   1.076   6.291   2.405
 4821SOL    HW115362   1.000   6.264   2.346
 4821SOL    HW215363   1.123   6.209   2.438
 4822SOL     OW15364   1.877   3.045   4.433
 4822SOL    HW115365   1.849   3.103   4.510
 4822SOL    HW215366   1.976   3.036   4.432
 4823SOL     OW15367   1.827   0.280   4.487
 4823SOL    HW115368   1.867   0.354   4.433
 4823SOL    HW215369   1.789   0.318   4.572
 4824SOL     OW15370   5.333   1.878   4.669
 4824SOL    HW115371   5.308   1.948   4.602
 4824SOL    HW215372   5.270   1.883   4.747
 4825SOL     OW15373   1.890   3.163   4.089
 4825SOL    HW115374   1.965   3.161   4.155
 4825SOL    HW215375   1.923   3.132   4.000
 4826SOL     OW15376   5.747   1.167   6.815
 4826SOL    HW115377   5.701   1.201   6.733
 4826SOL    HW215378   5.741   1.236   6.888
 4827SOL     OW15379   6.547   1.688   0.757
 4827SOL    HW115380   6.455   1.699   0.719
 4827SOL    HW215381   6.545   1.705   0.855
 4828SOL     OW15382   5.458   2.703   0.769
 4828SOL    HW115383   5.414   2.791   0.749
 4828SOL    HW215384   5.440   2.639   0.694
 4829SOL     OW15385   3.933   6.712   6.005
 4829SOL    HW115386   3.950   6.702   6.103
 4829SOL    HW215387   3.850   6.662   5.980
 4830SOL     OW15388   4.239   6.344   3.972
 4830SOL    HW115389   4.195   6.399   4.043
 4830SOL    HW215390   4.250   6.399   3.890
 4831SOL     OW15391   0.552   4.475   6.169
 4831SOL    HW115392   0.498   4.392   6.177
 4831SOL    HW215393   0.564   4.516   6.260
 4832SOL     OW15394   3.782   3.321   3.955
 4832SOL    HW115395   3.717   3.258   3.914
 4832SOL    HW215396   3.768   3.413   3.918
 4833SOL     OW15397   4.823   2.387   2.722
 4833SOL    HW115398   4.776   2.300   2.708
 4833SOL    HW215399   4.904   2.391   2.665
 4834SOL     OW15400   3.497   6.428   0.667
 4834SOL    HW115401   3.546   6.393   0.748
 4834SOL    HW215402   3.457   6.517   0.688
 4835SOL     OW15403   6.063   1.355   7.006
 4835SOL    HW115404   6.153   1.389   6.980
 4835SOL    HW215405   5.994   1.391   6.943
 4836SOL     OW15406   5.421   2.775   4.744
 4836SOL    HW115407   5.347   2.817   4.692
 4836SOL    HW215408   5.388   2.751   4.836
 4837SOL     OW15409   6.591   4.222   3.025
 4837SOL    HW115410   6.591   4.237   3.124
 4837SOL    HW215411   6.532   4.290   2.981
 4838SOL     OW15412   1.051   5.532   0.385
 4838SOL    HW115413   1.010   5.487   0.307
 4838SOL    HW215414   1.143   5.494   0.401
 4839SOL     OW15415   1.850   3.309   0.117
 4839SOL    HW115416   1.767   3.289   0.066
 4839SOL    HW215417   1.830   3.376   0.188
 4840SOL     OW15418   6.450   4.069   6.527
 4840SOL    HW115419   6.500   4.146   6.567
 4840SOL    HW215420   6.358   4.099   6.500
 4841SOL     OW15421   2.696   5.318   2.191
 4841SOL    HW115422   2.692   5.400   2.134
 4841SOL    HW215423   2.731   5.241   2.137
 4842SOL     OW15424   3.398   5.688   2.471
 4842SOL    HW115425   3.342   5.689   2.553
 4842SOL    HW215426   3.438   5.779   2.456
 4843SOL     OW15427   6.845   3.171   1.554
 4843SOL    HW115428   6.752   3.189   1.588
 4843SOL    HW215429   6.909   3.169   1.631
 4844SOL     OW15430   1.041   3.576   6.423
 4844SOL    HW115431   1.098   3.594   6.343
 4844SOL    HW215432   1.050   3.479   6.449
 4845SOL     OW15433   5.384   5.380   6.915
 4845SOL    HW115434   5.370   5.395   6.817
 4845SOL    HW215435   5.405   5.467   6.959
 4846SOL     OW15436   6.698   3.098   3.517
 4846SOL    HW115437   6.628   3.028   3.503
 4846SOL    HW215438   6.693   3.166   3.444
 4847SOL     OW15439   2.285   0.684   6.516
 4847SOL    HW115440   2.190   0.713   6.523
 4847SOL    HW215441   2.291   0.597   6.467
 4848SOL     OW15442   1.475   0.974   4.659
 4848SOL    HW115443   1.558   0.960   4.605
 4848SOL    HW215444   1.395   0.974   4.599
 4849SOL     OW15445   0.802   6.170   6.842
 4849SOL    HW115446   0.884   6.117   6.861
 4849SOL    HW215447   0.742   6.167   6.922
 4850SOL     OW15448   3.797   1.355   1.885
 4850SOL    HW115449   3.793   1.266   1.839
 4850SOL    HW215450   3.740   1.353   1.967
 4851SOL     OW15451   3.924   6.880   5.721
 4851SOL    HW115452   3.935   6.788   5.759
 4851SOL    HW215453   3.855   6.930   5.774
 4852SOL     OW15454   1.270   5.867   4.756
 4852SOL    HW115455   1.330   5.941   4.725
 4852SOL    HW215456   1.262   5.798   4.684
 4853SOL     OW15457   3.454   0.822   3.310
 4853SOL    HW115458   3.520   0.757   3.347
 4853SOL    HW215459   3.502   0.902   3.275
 4854SOL     OW15460   4.127   6.324   1.608
 4854SOL    HW115461   4.163   6.275   1.529
 4854SOL    HW215462   4.080   6.407   1.578
 4855SOL     OW15463   6.122   2.606   4.422
 4855SOL    HW115464   6.143   2.623   4.326
 4855SOL    HW215465   6.146   2.511   4.445
 4856SOL     OW15466   1.228   2.679   2.988
 4856SOL    HW115467   1.171   2.661   3.067
 4856SOL    HW215468   1.308   2.619   2.989
 4857SOL     OW15469   3.590   2.163   3.917
 4857SOL    HW115470   3.507   2.128   3.962
 4857SOL    HW215471   3.658   2.187   3.986
 4858SOL     OW15472   0.646   0.229   4.577
 4858SOL    HW115473   0.727   0.269   4.620
 4858SOL    HW215474   0.605   0.161   4.638
 4859SOL     OW15475   0.922   6.120   3.856
 4859SOL    HW115476   0.824   6.102   3.864
 4859SOL    HW215477   0.938   6.219   3.854
 4860SOL     OW15478   4.803   4.405   1.208
 4860SOL    HW115479   4.885   4.431   1.259
 4860SOL    HW215480   4.798   4.457   1.123
 4861SOL     OW15481   6.157   5.358   0.404
 4861SOL    HW115482   6.209   5.324   0.482
 4861SOL    HW215483   6.090   5.426   0.436
 4862SOL     OW15484   2.464   4.422   5.122
 4862SOL    HW115485   2.437   4.416   5.026
 4862SOL    HW215486   2.421   4.348   5.174
 4863SOL     OW15487   4.743   4.170   1.112
 4863SOL    HW115488   4.768   4.267   1.123
 4863SOL    HW215489   4.811   4.113   1.159
 4864SOL     OW15490   4.055   1.561   2.245
 4864SOL    HW115491   3.985   1.562   2.173
 4864SOL    HW215492   4.047   1.644   2.300
 4865SOL     OW15493   2.552   6.816   4.429
 4865SOL    HW115494   2.646   6.845   4.411
 4865SOL    HW215495   2.545   6.782   4.522
 4866SOL     OW15496   6.935   4.262   1.418
 4866SOL    HW115497   6.876   4.280   1.496
 4866SOL    HW215498   6.958   4.164   1.416
 4867SOL     OW15499   4.921   5.422   2.283
 4867SOL    HW115500   4.830   5.448   2.251
 4867SOL    HW215501   4.924   5.323   2.297
 4868SOL     OW15502   6.733   5.046   2.440
 4868SOL    HW115503   6.719   5.045   2.341
 4868SOL    HW215504   6.828   5.025   2.461
 4869SOL     OW15505   0.410   1.367   1.313
 4869SOL    HW115506   0.475   1.425   1.265
 4869SOL    HW215507   0.461   1.302   1.370
 4870SOL     OW15508   6.956   6.197   1.779
 4870SOL    HW115509   6.888   6.136   1.821
 4870SOL    HW215510   0.024   6.189   1.828
 4871SOL     OW15511   0.648   1.580   4.888
 4871SOL    HW115512   0.661   1.623   4.799
 4871SOL    HW215513   0.556   1.540   4.893
 4872SOL     OW15514   6.444   5.556   4.055
 4872SOL    HW115515   6.370   5.497   4.023
 4872SOL    HW215516   6.490   5.514   4.133
 4873SOL     OW15517   6.468   4.791   3.689
 4873SOL    HW115518   6.542   4.827   3.746
 4873SOL    HW215519   6.507   4.752   3.605
 4874SOL     OW15520   6.097   3.292   3.314
 4874SOL    HW115521   6.134   3.381   3.291
 4874SOL    HW215522   6.079   3.288   3.413
 4875SOL     OW15523   5.815   3.229   1.869
 4875SOL    HW115524   5.869   3.193   1.945
 4875SOL    HW215525   5.848   3.190   1.783
 4876SOL     OW15526   5.337   1.223   4.316
 4876SOL    HW115527   5.364   1.317   4.293
 4876SOL    HW215528   5.315   1.218   4.414
 4877SOL     OW15529   0.850   1.911   0.382
 4877SOL    HW115530   0.845   1.818   0.346
 4877SOL    HW215531   0.789   1.971   0.330
 4878SOL     OW15532   6.429   0.432   3.183
 4878SOL    HW115533   6.480   0.373   3.122
 4878SOL    HW215534   6.367   0.377   3.239
 4879SOL     OW15535   4.090   4.994   3.649
 4879SOL    HW115536   4.161   4.937   3.608
 4879SOL    HW215537   4.008   4.939   3.664
 4880SOL     OW15538   6.136   3.116   6.940
 4880SOL    HW115539   6.105   3.023   6.961
 4880SOL    HW215540   6.199   3.147   7.011
 4881SOL     OW15541   1.979   0.649   6.621
 4881SOL    HW115542   1.901   0.702   6.587
 4881SOL    HW215543   1.986   0.564   6.570
 4882SOL     OW15544   5.182   1.669   4.438
 4882SOL    HW115545   5.262   1.647   4.383
 4882SOL    HW215546   5.211   1.707   4.526
 4883SOL     OW15547   5.304   4.760   2.052
 4883SOL    HW115548   5.209   4.739   2.032
 4883SOL    HW215549   5.309   4.820   2.133
 4884SOL     OW15550   3.726   0.516   1.715
 4884SOL    HW115551   3.718   0.576   1.635
 4884SOL    HW215552   3.822   0.496   1.732
 4885SOL     OW15553   1.744   5.495   2.296
 4885SOL    HW115554   1.758   5.546   2.381
 4885SOL    HW215555   1.745   5.559   2.218
 4886SOL     OW15556   0.369   6.293   1.131
 4886SOL    HW115557   0.323   6.255   1.051
 4886SOL    HW215558   0.343   6.240   1.212
 4887SOL     OW15559   0.926   0.430   3.060
 4887SOL    HW115560   0.900   0.335   3.049
 4887SOL    HW215561   0.859   0.477   3.118
 4888SOL     OW15562   2.181   6.602   4.673
 4888SOL    HW115563   2.241   6.522   4.678
 4888SOL    HW215564   2.089   6.573   4.648
 4889SOL     OW15565   6.149   1.023   6.418
 4889SOL    HW115566   6.059   1.050   6.383
 4889SOL    HW215567   6.182   1.093   6.481
 4890SOL     OW15568   0.921   1.782   5.920
 4890SOL    HW115569   1.004   1.755   5.969
 4890SOL    HW215570   0.893   1.707   5.859
 4891SOL     OW15571   1.431   4.917   0.303
 4891SOL    HW115572   1.487   4.976   0.245
 4891SOL    HW215573   1.338   4.914   0.267
 4892SOL     OW15574   3.244   5.759   1.753
 4892SOL    HW115575   3.181   5.742   1.677
 4892SOL    HW215576   3.217   5.702   1.831
 4893SOL     OW15577   0.366   4.010   1.728
 4893SOL    HW115578   0.355   3.963   1.815
 4893SOL    HW215579   0.325   3.956   1.655
 4894SOL     OW15580   2.383   1.956   2.441
 4894SOL    HW115581   2.380   1.907   2.354
 4894SOL    HW215582   2.478   1.977   2.464
 4895SOL     OW15583   1.270   5.537   2.903
 4895SOL    HW115584   1.294   5.452   2.949
 4895SOL    HW215585   1.354   5.589   2.884
 4896SOL     OW15586   2.193   5.545   1.677
 4896SOL    HW115587   2.096   5.526   1.663
 4896SOL    HW215588   2.214   5.639   1.647
 4897SOL     OW15589   2.395   4.704   6.101
 4897SOL    HW115590   2.366   4.609   6.107
 4897SOL    HW215591   2.385   4.748   6.190
 4898SOL     OW15592   3.817   1.574   3.728
 4898SOL    HW115593   3.728   1.544   3.762
 4898SOL    HW215594   3.857   1.638   3.794
 4899SOL     OW15595   6.211   5.664   3.388
 4899SOL    HW115596   6.284   5.695   3.326
 4899SOL    HW215597   6.131   5.723   3.377
 4900SOL     OW15598   2.188   5.513   4.844
 4900SOL    HW115599   2.252   5.466   4.906
 4900SOL    HW215600   2.121   5.447   4.810
 4901SOL     OW15601   3.267   6.638   6.126
 4901SOL    HW115602   3.248   6.722   6.176
 4901SOL    HW215603   3.341   6.588   6.172
 4902SOL     OW15604   2.628   1.806   4.678
 4902SOL    HW115605   2.660   1.857   4.758
 4902SOL    HW215606   2.595   1.870   4.608
 4903SOL     OW15607   3.065   5.795   0.178
 4903SOL    HW115608   3.044   5.882   0.134
 4903SOL    HW215609   3.137   5.749   0.127
 4904SOL     OW15610   1.101   0.593   4.304
 4904SOL    HW115611   1.186   0.548   4.332
 4904SOL    HW215612   1.068   0.553   4.219
 4905SOL     OW15613   4.534   0.810   2.140
 4905SOL    HW115614   4.518   0.793   2.237
 4905SOL    HW215615   4.489   0.739   2.086
 4906SOL     OW15616   4.433   2.143   6.241
 4906SOL    HW115617   4.427   2.234   6.282
 4906SOL    HW215618   4.447   2.151   6.143
 4907SOL     OW15619   4.570   5.622   1.147
 4907SOL    HW115620   4.493   5.560   1.131
 4907SOL    HW215621   4.626   5.627   1.065
 4908SOL     OW15622   5.022   4.834   6.225
 4908SOL    HW115623   5.016   4.931   6.203
 4908SOL    HW215624   5.117   4.805   6.222
 4909SOL     OW15625   6.172   0.057   4.849
 4909SOL    HW115626   6.147   0.044   4.753
 4909SOL    HW215627   6.178   0.155   4.868
 4910SOL     OW15628   5.294   6.363   4.491
 4910SOL    HW115629   5.294   6.327   4.585
 4910SOL    HW215630   5.280   6.462   4.493
 4911SOL     OW15631   0.638   3.534   4.791
 4911SOL    HW115632   0.634   3.601   4.716
 4911SOL    HW215633   0.643   3.583   4.878
 4912SOL     OW15634   5.314   2.135   0.479
 4912SOL    HW115635   5.392   2.169   0.531
 4912SOL    HW215636   5.286   2.046   0.515
 4913SOL     OW15637   3.748   3.534   4.629
 4913SOL    HW115638   3.787   3.597   4.562
 4913SOL    HW215639   3.789   3.551   4.719
 4914SOL     OW15640   3.550   6.773   5.451
 4914SOL    HW115641   3.646   6.768   5.480
 4914SOL    HW215642   3.491   6.746   5.526
 4915SOL     OW15643   4.373   0.409   4.218
 4915SOL    HW115644   4.427   0.405   4.134
 4915SOL    HW215645   4.334   0.501   4.228
 4916SOL     OW15646   1.592   1.128   4.067
 4916SOL    HW115647   1.504   1.082   4.063
 4916SOL    HW215648   1.665   1.059   4.067
 4917SOL     OW15649   1.584   4.824   0.925
 4917SOL    HW115650   1.517   4.897   0.937
 4917SOL    HW215651   1.619   4.797   1.015
 4918SOL     OW15652   3.443   6.994   2.506
 4918SOL    HW115653   3.470   7.009   2.411
 4918SOL    HW215654   3.399   6.904   2.515
 4919SOL     OW15655   2.585   2.231   6.816
 4919SOL    HW115656   2.503   2.212   6.870
 4919SOL    HW215657   2.618   2.146   6.773
 4920SOL     OW15658   5.356   0.117   5.479
 4920SOL    HW115659   5.354   0.214   5.458
 4920SOL    HW215660   5.302   0.067   5.410
 4921SOL     OW15661   1.921   4.545   0.660
 4921SOL    HW115662   1.879   4.473   0.605
 4921SOL    HW215663   1.965   4.612   0.600
 4922SOL     OW15664   1.829   2.697   4.930
 4922SOL    HW115665   1.855   2.714   4.835
 4922SOL    HW215666   1.888   2.750   4.991
 4923SOL     OW15667   3.643   1.437   0.421
 4923SOL    HW115668   3.704   1.416   0.345
 4923SOL    HW215669   3.594   1.523   0.403
 4924SOL     OW15670   2.179   1.765   5.230
 4924SOL    HW115671   2.213   1.826   5.159
 4924SOL    HW215672   2.236   1.773   5.312
 4925SOL     OW15673   5.328   6.821   2.005
 4925SOL    HW115674   5.332   6.808   2.104
 4925SOL    HW215675   5.290   6.911   1.985
 4926SOL     OW15676   5.017   2.050   0.609
 4926SOL    HW115677   5.025   2.102   0.525
 4926SOL    HW215678   5.107   2.014   0.635
 4927SOL     OW15679   4.148   3.485   3.969
 4927SOL    HW115680   4.138   3.498   4.068
 4927SOL    HW215681   4.103   3.400   3.943
 4928SOL     OW15682   0.648   0.178   6.652
 4928SOL    HW115683   0.573   0.221   6.703
 4928SOL    HW215684   0.700   0.249   6.604
 4929SOL     OW15685   1.396   4.781   4.781
 4929SOL    HW115686   1.297   4.777   4.766
 4929SOL    HW215687   1.416   4.844   4.855
 4930SOL     OW15688   4.650   0.875   2.525
 4930SOL    HW115689   4.641   0.914   2.616
 4930SOL    HW215690   4.660   0.776   2.532
 4931SOL     OW15691   6.422   0.097   0.844
 4931SOL    HW115692   6.515   0.135   0.839
 4931SOL    HW215693   6.405   0.063   0.937
 4932SOL     OW15694   2.214   3.320   1.699
 4932SOL    HW115695   2.138   3.363   1.650
 4932SOL    HW215696   2.269   3.391   1.744
 4933SOL     OW15697   1.781   0.211   3.612
 4933SOL    HW115698   1.878   0.229   3.628
 4933SOL    HW215699   1.765   0.198   3.514
 4934SOL     OW15700   2.166   5.167   2.690
 4934SOL    HW115701   2.153   5.253   2.640
 4934SOL    HW215702   2.154   5.183   2.788
 4935SOL     OW15703   1.055   1.357   6.781
 4935SOL    HW115704   1.106   1.289   6.834
 4935SOL    HW215705   1.002   1.310   6.710
 4936SOL     OW15706   1.567   4.524   0.809
 4936SOL    HW115707   1.622   4.516   0.726
 4936SOL    HW215708   1.628   4.521   0.889
 4937SOL     OW15709   6.924   2.922   6.280
 4937SOL    HW115710   0.001   2.905   6.256
 4937SOL    HW215711   6.921   2.974   6.365
 4938SOL     OW15712   2.525   5.946   6.460
 4938SOL    HW115713   2.609   5.898   6.486
 4938SOL    HW215714   2.539   6.045   6.469
 4939SOL     OW15715   0.049   1.557   4.188
 4939SOL    HW115716   0.053   1.630   4.256
 4939SOL    HW215717   0.100   1.478   4.221
 4940SOL     OW15718   0.679   1.640   5.166
 4940SOL    HW115719   0.675   1.608   5.071
 4940SOL    HW215720   0.734   1.577   5.220
 4941SOL     OW15721   4.664   2.580   5.350
 4941SOL    HW115722   4.632   2.605   5.258
 4941SOL    HW215723   4.741   2.516   5.342
 4942SOL     OW15724   5.755   2.648   6.100
 4942SOL    HW115725   5.761   2.607   6.191
 4942SOL    HW215726   5.767   2.747   6.107
 4943SOL     OW15727   4.558   4.325   6.256
 4943SOL    HW115728   4.488   4.258   6.278
 4943SOL    HW215729   4.616   4.290   6.183
 4944SOL     OW15730   2.445   4.280   1.787
 4944SOL    HW115731   2.484   4.367   1.819
 4944SOL    HW215732   2.518   4.215   1.768
 4945SOL     OW15733   1.120   0.183   4.209
 4945SOL    HW115734   1.083   0.196   4.300
 4945SOL    HW215735   1.056   0.129   4.154
 4946SOL     OW15736   1.005   5.321   6.795
 4946SOL    HW115737   0.914   5.278   6.800
 4946SOL    HW215738   1.074   5.256   6.827
 4947SOL     OW15739   2.204   0.760   0.695
 4947SOL    HW115740   2.216   0.839   0.755
 4947SOL    HW215741   2.293   0.722   0.672
 4948SOL     OW15742   2.188   2.801   2.817
 4948SOL    HW115743   2.222   2.811   2.724
 4948SOL    HW215744   2.161   2.891   2.853
 4949SOL     OW15745   6.059   4.352   5.571
 4949SOL    HW115746   6.018   4.287   5.635
 4949SOL    HW215747   6.103   4.426   5.623
 4950SOL     OW15748   2.222   4.629   4.793
 4950SOL    HW115749   2.252   4.719   4.825
 4950SOL    HW215750   2.123   4.622   4.804
 4951SOL     OW15751   5.765   1.068   4.442
 4951SOL    HW115752   5.684   1.093   4.389
 4951SOL    HW215753   5.837   1.135   4.426
 4952SOL     OW15754   6.593   0.329   5.916
 4952SOL    HW115755   6.633   0.250   5.963
 4952SOL    HW215756   6.628   0.331   5.822
 4953SOL     OW15757   1.680   6.800   3.380
 4953SOL    HW115758   1.677   6.900   3.377
 4953SOL    HW215759   1.730   6.766   3.300
 4954SOL     OW15760   2.810   3.237   0.228
 4954SOL    HW115761   2.812   3.164   0.296
 4954SOL    HW215762   2.852   3.319   0.267
 4955SOL     OW15763   3.269   6.516   0.039
 4955SOL    HW115764   3.309   6.487   0.126
 4955SOL    HW215765   3.318   6.597   0.006
 4956SOL     OW15766   2.654   6.659   5.236
 4956SOL    HW115767   2.554   6.652   5.228
 4956SOL    HW215768   2.677   6.715   5.316
 4957SOL     OW15769   5.636   2.570   1.837
 4957SOL    HW115770   5.619   2.573   1.738
 4957SOL    HW215771   5.707   2.503   1.856
 4958SOL     OW15772   0.431   5.557   5.635
 4958SOL    HW115773   0.380   5.642   5.648
 4958SOL    HW215774   0.447   5.542   5.537
 4959SOL     OW15775   6.222   1.683   0.601
 4959SOL    HW115776   6.267   1.767   0.632
 4959SOL    HW215777   6.178   1.699   0.513
 4960SOL     OW15778   3.620   4.849   3.478
 4960SOL    HW115779   3.545   4.908   3.508
 4960SOL    HW215780   3.598   4.810   3.388
 4961SOL     OW15781   3.841   1.320   5.942
 4961SOL    HW115782   3.885   1.309   6.031
 4961SOL    HW215783   3.774   1.246   5.929
 4962SOL     OW15784   5.367   2.279   0.087
 4962SOL    HW115785   5.466   2.290   0.087
 4962SOL    HW215786   5.327   2.329   0.164
 4963SOL     OW15787   0.184   6.233   0.927
 4963SOL    HW115788   0.160   6.159   0.865
 4963SOL    HW215789   0.138   6.317   0.898
 4964SOL     OW15790   2.834   0.713   4.163
 4964SOL    HW115791   2.895   0.706   4.085
 4964SOL    HW215792   2.864   0.788   4.222
 4965SOL     OW15793   0.367   1.082   2.247
 4965SOL    HW115794   0.317   1.001   2.277
 4965SOL    HW215795   0.422   1.117   2.322
 4966SOL     OW15796   2.635   6.390   5.385
 4966SOL    HW115797   2.718   6.335   5.380
 4966SOL    HW215798   2.660   6.487   5.376
 4967SOL     OW15799   3.793   4.946   4.876
 4967SOL    HW115800   3.851   5.010   4.825
 4967SOL    HW215801   3.704   4.940   4.832
 4968SOL     OW15802   6.845   1.975   3.930
 4968SOL    HW115803   6.766   1.916   3.912
 4968SOL    HW215804   6.875   2.018   3.845
 4969SOL     OW15805   2.316   5.512   3.167
 4969SOL    HW115806   2.406   5.552   3.152
 4969SOL    HW215807   2.314   5.419   3.129
 4970SOL     OW15808   2.613   2.402   2.519
 4970SOL    HW115809   2.578   2.365   2.605
 4970SOL    HW215810   2.710   2.378   2.509
 4971SOL     OW15811   5.754   6.017   3.215
 4971SOL    HW115812   5.673   5.998   3.270
 4971SOL    HW215813   5.828   5.955   3.243
 4972SOL     OW15814   0.708   3.641   0.800
 4972SOL    HW115815   0.731   3.690   0.884
 4972SOL    HW215816   0.732   3.544   0.811
 4973SOL     OW15817   1.264   6.989   2.380
 4973SOL    HW115818   1.181   0.025   2.391
 4973SOL    HW215819   1.344   0.027   2.394
 4974SOL     OW15820   6.741   4.278   1.192
 4974SOL    HW115821   6.648   4.286   1.228
 4974SOL    HW215822   6.806   4.280   1.269
 4975SOL     OW15823   6.499   4.060   6.251
 4975SOL    HW115824   6.511   4.039   6.348
 4975SOL    HW215825   6.473   4.156   6.241
 4976SOL     OW15826   2.316   1.249   3.777
 4976SOL    HW115827   2.367   1.335   3.771
 4976SOL    HW215828   2.233   1.256   3.722
 4977SOL     OW15829   3.858   4.226   6.649
 4977SOL    HW115830   3.802   4.302   6.614
 4977SOL    HW215831   3.866   4.156   6.578
 4978SOL     OW15832   6.766   4.549   5.306
 4978SOL    HW115833   6.836   4.605   5.263
 4978SOL    HW215834   6.730   4.596   5.386
 4979SOL     OW15835   6.959   6.571   6.442
 4979SOL    HW115836   6.948   6.511   6.521
 4979SOL    HW215837   6.985   6.663   6.473
 4980SOL     OW15838   5.282   6.457   2.848
 4980SOL    HW115839   5.360   6.395   2.862
 4980SOL    HW215840   5.281   6.487   2.753
 4981SOL     OW15841   4.347   5.105   0.268
 4981SOL    HW115842   4.259   5.094   0.221
 4981SOL    HW215843   4.342   5.063   0.358
 4982SOL     OW15844   3.058   0.809   5.294
 4982SOL    HW115845   3.124   0.865   5.343
 4982SOL    HW215846   3.026   0.857   5.213
 4983SOL     OW15847   5.766   3.731   5.400
 4983SOL    HW115848   5.719   3.784   5.330
 4983SOL    HW215849   5.864   3.746   5.392
 4984SOL     OW15850   5.163   4.368   3.494
 4984SOL    HW115851   5.166   4.430   3.415
 4984SOL    HW215852   5.168   4.273   3.462
 4985SOL     OW15853   5.520   6.863   3.646
 4985SOL    HW115854   5.453   6.859   3.572
 4985SOL    HW215855   5.601   6.810   3.621
 4986SOL     OW15856   0.127   4.165   1.641
 4986SOL    HW115857   0.214   4.119   1.659
 4986SOL    HW215858   0.054   4.119   1.693
 4987SOL     OW15859   1.427   0.463   2.040
 4987SOL    HW115860   1.412   0.406   2.121
 4987SOL    HW215861   1.461   0.552   2.068
 4988SOL     OW15862   5.363   1.238   2.422
 4988SOL    HW115863   5.440   1.246   2.358
 4988SOL    HW215864   5.388   1.175   2.495
 4989SOL     OW15865   5.246   0.045   1.395
 4989SOL    HW115866   5.273   6.986   1.451
 4989SOL    HW215867   5.146   0.053   1.395
 4990SOL     OW15868   2.701   2.078   5.204
 4990SOL    HW115869   2.768   2.140   5.163
 4990SOL    HW215870   2.616   2.082   5.152
 4991SOL     OW15871   6.010   5.339   3.567
 4991SOL    HW115872   6.029   5.296   3.478
 4991SOL    HW215873   5.912   5.352   3.577
 4992SOL     OW15874   4.800   0.723   2.858
 4992SOL    HW115875   4.799   0.688   2.952
 4992SOL    HW215876   4.880   0.688   2.810
 4993SOL     OW15877   3.185   5.936   4.459
 4993SOL    HW115878   3.205   5.856   4.402
 4993SOL    HW215879   3.181   5.908   4.555
 4994SOL     OW15880   2.034   0.920   3.974
 4994SOL    HW115881   2.047   1.007   3.926
 4994SOL    HW215882   2.063   0.930   4.069
 4995SOL     OW15883   0.157   2.807   5.594
 4995SOL    HW115884   0.170   2.725   5.537
 4995SOL    HW215885   0.217   2.880   5.561
 4996SOL     OW15886   0.920   1.280   2.971
 4996SOL    HW115887   0.981   1.259   2.895
 4996SOL    HW215888   0.949   1.229   3.052
 4997SOL     OW15889   5.171   2.674   2.797
 4997SOL    HW115890   5.235   2.667   2.874
 4997SOL    HW215891   5.214   2.638   2.714
 4998SOL     OW15892   2.243   4.185   4.804
 4998SOL    HW115893   2.250   4.132   4.888
 4998SOL    HW215894   2.147   4.198   4.779
 4999SOL     OW15895   6.509   3.707   0.319
 4999SOL    HW115896   6.598   3.710   0.366
 4999SOL    HW215897   6.445   3.655   0.375
 5000SOL     OW15898   3.611   6.533   3.268
 5000SOL    HW115899   3.630   6.631   3.269
 5000SOL    HW215900   3.512   6.519   3.278
 5001SOL     OW15901   6.817   3.672   1.592
 5001SOL    HW115902   6.841   3.581   1.626
 5001SOL    HW215903   6.899   3.730   1.591
 5002SOL     OW15904   0.300   3.193   2.761
 5002SOL    HW115905   0.396   3.180   2.789
 5002SOL    HW215906   0.298   3.230   2.669
 5003SOL     OW15907   2.767   5.950   2.402
 5003SOL    HW115908   2.723   5.929   2.315
 5003SOL    HW215909   2.776   6.049   2.412
 5004SOL     OW15910   3.026   5.404   5.875
 5004SOL    HW115911   3.009   5.306   5.875
 5004SOL    HW215912   3.092   5.426   5.948
 5005SOL     OW15913   3.006   2.595   0.770
 5005SOL    HW115914   2.949   2.655   0.827
 5005SOL    HW215915   3.088   2.645   0.741
 5006SOL     OW15916   4.799   0.381   0.304
 5006SOL    HW115917   4.857   0.434   0.242
 5006SOL    HW215918   4.850   0.357   0.386
 5007SOL     OW15919   0.920   6.929   0.709
 5007SOL    HW115920   0.893   6.999   0.775
 5007SOL    HW215921   0.877   6.947   0.621
 5008SOL     OW15922   5.781   6.964   1.782
 5008SOL    HW115923   5.778   0.043   1.796
 5008SOL    HW215924   5.726   6.919   1.853
 5009SOL     OW15925   1.142   0.584   1.152
 5009SOL    HW115926   1.209   0.655   1.170
 5009SOL    HW215927   1.056   0.625   1.123
 5010SOL     OW15928   4.119   3.577   2.487
 5010SOL    HW115929   4.069   3.647   2.435
 5010SOL    HW215930   4.063   3.494   2.494
 5011SOL     OW15931   1.841   3.947   2.192
 5011SOL    HW115932   1.858   4.020   2.258
 5011SOL    HW215933   1.925   3.928   2.140
 5012SOL     OW15934   6.187   3.856   6.401
 5012SOL    HW115935   6.198   3.795   6.480
 5012SOL    HW215936   6.175   3.949   6.434
 5013SOL     OW15937   4.834   1.474   6.935
 5013SOL    HW115938   4.761   1.532   6.972
 5013SOL    HW215939   4.821   1.464   6.836
 5014SOL     OW15940   6.640   4.911   0.810
 5014SOL    HW115941   6.671   4.907   0.715
 5014SOL    HW215942   6.631   4.819   0.847
 5015SOL     OW15943   4.504   2.105   4.522
 5015SOL    HW115944   4.534   2.011   4.536
 5015SOL    HW215945   4.582   2.166   4.531
 5016SOL     OW15946   1.571   2.664   0.376
 5016SOL    HW115947   1.642   2.699   0.438
 5016SOL    HW215948   1.557   2.566   0.394
 5017SOL     OW15949   1.661   2.911   0.555
 5017SOL    HW115950   1.632   2.976   0.486
 5017SOL    HW215951   1.740   2.947   0.605
 5018SOL     OW15952   0.375   3.706   2.490
 5018SOL    HW115953   0.345   3.720   2.395
 5018SOL    HW215954   0.437   3.780   2.516
 5019SOL     OW15955   1.102   4.671   6.283
 5019SOL    HW115956   1.198   4.667   6.313
 5019SOL    HW215957   1.050   4.599   6.329
 5020SOL     OW15958   5.112   0.651   6.262
 5020SOL    HW115959   5.048   0.664   6.187
 5020SOL    HW215960   5.156   0.562   6.253
 5021SOL     OW15961   0.843   0.992   6.463
 5021SOL    HW115962   0.783   0.914   6.444
 5021SOL    HW215963   0.937   0.969   6.436
 5022SOL     OW15964   0.829   1.437   6.541
 5022SOL    HW115965   0.897   1.493   6.588
 5022SOL    HW215966   0.853   1.430   6.444
 5023SOL     OW15967   6.703   2.627   1.094
 5023SOL    HW115968   6.672   2.590   1.006
 5023SOL    HW215969   6.799   2.605   1.108
 5024SOL     OW15970   6.242   5.117   1.689
 5024SOL    HW115971   6.185   5.177   1.633
 5024SOL    HW215972   6.237   5.146   1.784
 5025SOL     OW15973   3.186   1.623   2.249
 5025SOL    HW115974   3.120   1.649   2.319
 5025SOL    HW215975   3.193   1.524   2.244
 5026SOL     OW15976   6.331   5.896   6.029
 5026SOL    HW115977   6.344   5.972   5.965
 5026SOL    HW215978   6.407   5.894   6.094
 5027SOL     OW15979   6.951   6.692   1.993
 5027SOL    HW115980   7.004   6.750   1.931
 5027SOL    HW215981   7.009   6.663   2.069
 5028SOL     OW15982   0.106   1.608   2.589
 5028SOL    HW115983   0.097   1.620   2.491
 5028SOL    HW215984   0.027   1.648   2.636
 5029SOL     OW15985   6.410   2.596   2.353
 5029SOL    HW115986   6.409   2.691   2.320
 5029SOL    HW215987   6.475   2.543   2.300
 5030SOL     OW15988   6.726   6.953   0.322
 5030SOL    HW115989   6.710   0.031   0.340
 5030SOL    HW215990   6.770   6.911   0.401
 5031SOL     OW15991   5.439   6.826   5.242
 5031SOL    HW115992   5.437   6.774   5.157
 5031SOL    HW215993   5.479   6.769   5.315
 5032SOL     OW15994   2.054   2.501   1.045
 5032SOL    HW115995   2.062   2.440   1.124
 5032SOL    HW215996   2.083   2.593   1.071
 5033SOL     OW15997   2.460   6.788   5.638
 5033SOL    HW115998   2.405   6.764   5.558
 5033SOL    HW215999   2.460   6.711   5.703
 5034SOL     OW16000   5.402   0.519   3.150
 5034SOL    HW116001   5.446   0.451   3.209
 5034SOL    HW216002   5.327   0.475   3.100
 5035SOL     OW16003   0.760   4.201   6.943
 5035SOL    HW116004   0.819   4.253   7.004
 5035SOL    HW216005   0.690   4.261   6.904
 5036SOL     OW16006   0.518   4.947   7.016
 5036SOL    HW116007   0.514   4.999   6.930
 5036SOL    HW216008   0.478   4.856   7.002
 5037SOL     OW16009   4.998   3.357   3.095
 5037SOL    HW116010   4.984   3.328   3.190
 5037SOL    HW216011   5.067   3.299   3.052
 5038SOL     OW16012   2.823   4.010   6.035
 5038SOL    HW116013   2.731   3.980   6.009
 5038SOL    HW216014   2.823   4.033   6.133
 5039SOL     OW16015   3.289   4.657   5.359
 5039SOL    HW116016   3.203   4.688   5.319
 5039SOL    HW216017   3.286   4.668   5.458
 5040SOL     OW16018   1.515   6.045   5.808
 5040SOL    HW116019   1.568   6.120   5.847
 5040SOL    HW216020   1.473   5.993   5.882
 5041SOL     OW16021   1.710   1.714   2.627
 5041SOL    HW116022   1.775   1.698   2.554
 5041SOL    HW216023   1.734   1.657   2.706
 5042SOL     OW16024   6.517   2.548   0.155
 5042SOL    HW116025   6.577   2.505   0.223
 5042SOL    HW216026   6.532   2.504   0.066
 5043SOL     OW16027   3.499   0.394   6.176
 5043SOL    HW116028   3.558   0.447   6.114
 5043SOL    HW216029   3.451   0.324   6.124
 5044SOL     OW16030   0.928   6.652   0.145
 5044SOL    HW116031   0.963   6.656   0.238
 5044SOL    HW216032   0.871   6.732   0.127
 5045SOL     OW16033   5.315   1.211   6.497
 5045SOL    HW116034   5.395   1.179   6.547
 5045SOL    HW216035   5.319   1.178   6.403
 5046SOL     OW16036   3.567   4.163   2.831
 5046SOL    HW116037   3.592   4.216   2.912
 5046SOL    HW216038   3.555   4.067   2.856
 5047SOL     OW16039   7.011   3.732   2.364
 5047SOL    HW116040   6.952   3.745   2.284
 5047SOL    HW216041   6.966   3.772   2.444
 5048SOL     OW16042   0.259   1.511   2.071
 5048SOL    HW116043   0.190   1.480   2.006
 5048SOL    HW216044   0.315   1.433   2.099
 5049SOL     OW16045   5.867   1.952   5.956
 5049SOL    HW116046   5.806   1.907   5.890
 5049SOL    HW216047   5.832   2.043   5.976
 5050SOL     OW16048   1.772   1.053   1.306
 5050SOL    HW116049   1.802   1.147   1.291
 5050SOL    HW216050   1.759   1.036   1.404
 5051SOL     OW16051   4.871   4.818   1.027
 5051SOL    HW116052   4.862   4.720   1.008
 5051SOL    HW216053   4.780   4.858   1.040
 5052SOL     OW16054   2.272   0.464   6.250
 5052SOL    HW116055   2.260   0.500   6.157
 5052SOL    HW216056   2.355   0.408   6.253
 5053SOL     OW16057   2.313   4.200   2.961
 5053SOL    HW116058   2.280   4.230   3.050
 5053SOL    HW216059   2.298   4.101   2.952
 5054SOL     OW16060   3.395   6.073   4.694
 5054SOL    HW116061   3.437   6.131   4.764
 5054SOL    HW216062   3.301   6.051   4.721
 5055SOL     OW16063   1.754   1.301   5.658
 5055SOL    HW116064   1.679   1.366   5.662
 5055SOL    HW216065   1.836   1.346   5.622
 5056SOL     OW16066   6.850   4.682   0.664
 5056SOL    HW116067   6.802   4.627   0.732
 5056SOL    HW216068   6.902   4.754   0.709
 5057SOL     OW16069   0.255   6.030   4.780
 5057SOL    HW116070   0.333   6.079   4.818
 5057SOL    HW216071   0.191   6.096   4.740
 5058SOL     OW16072   3.087   3.324   5.148
 5058SOL    HW116073   3.149   3.319   5.227
 5058SOL    HW216074   3.044   3.235   5.134
 5059SOL     OW16075   5.937   1.429   3.681
 5059SOL    HW116076   5.841   1.404   3.692
 5059SOL    HW216077   5.964   1.419   3.585
 5060SOL     OW16078   1.255   1.918   5.440
 5060SOL    HW116079   1.170   1.970   5.432
 5060SOL    HW216080   1.245   1.831   5.392
 5061SOL     OW16081   4.128   3.364   2.032
 5061SOL    HW116082   4.206   3.371   2.094
 5061SOL    HW216083   4.154   3.398   1.941
 5062SOL     OW16084   5.485   0.777   3.671
 5062SOL    HW116085   5.459   0.856   3.726
 5062SOL    HW216086   5.402   0.730   3.638
 5063SOL     OW16087   1.443   6.757   2.502
 5063SOL    HW116088   1.537   6.770   2.472
 5063SOL    HW216089   1.381   6.803   2.438
 5064SOL     OW16090   5.055   4.101   1.919
 5064SOL    HW116091   4.965   4.060   1.907
 5064SOL    HW216092   5.122   4.053   1.862
 5065SOL     OW16093   1.563   1.689   3.579
 5065SOL    HW116094   1.581   1.769   3.523
 5065SOL    HW216095   1.465   1.680   3.594
 5066SOL     OW16096   4.219   4.957   1.379
 5066SOL    HW116097   4.193   4.891   1.307
 5066SOL    HW216098   4.137   5.002   1.413
 5067SOL     OW16099   3.740   0.868   2.111
 5067SOL    HW116100   3.693   0.915   2.186
 5067SOL    HW216101   3.760   0.774   2.139
 5068SOL     OW16102   2.122   4.907   6.525
 5068SOL    HW116103   2.064   4.988   6.521
 5068SOL    HW216104   2.070   4.827   6.496
 5069SOL     OW16105   2.381   3.085   5.605
 5069SOL    HW116106   2.409   3.113   5.513
 5069SOL    HW216107   2.378   2.985   5.610
 5070SOL     OW16108   4.337   4.699   3.948
 5070SOL    HW116109   4.259   4.752   3.981
 5070SOL    HW216110   4.321   4.671   3.854
 5071SOL     OW16111   4.112   1.617   3.086
 5071SOL    HW116112   4.104   1.530   3.036
 5071SOL    HW216113   4.101   1.600   3.184
 5072SOL     OW16114   1.233   0.732   1.647
 5072SOL    HW116115   1.223   0.634   1.631
 5072SOL    HW216116   1.331   0.754   1.657
 5073SOL     OW16117   0.500   5.790   1.948
 5073SOL    HW116118   0.488   5.811   2.045
 5073SOL    HW216119   0.541   5.869   1.902
 5074SOL     OW16120   3.175   2.908   1.491
 5074SOL    HW116121   3.218   2.827   1.452
 5074SOL    HW216122   3.241   2.959   1.546
 5075SOL     OW16123   0.778   2.766   6.811
 5075SOL    HW116124   0.875   2.789   6.820
 5075SOL    HW216125   0.730   2.842   6.767
 5076SOL     OW16126   4.554   0.468   0.359
 5076SOL    HW116127   4.546   0.456   0.458
 5076SOL    HW216128   4.647   0.444   0.330
 5077SOL     OW16129   2.103   4.165   5.608
 5077SOL    HW116130   2.172   4.123   5.549
 5077SOL    HW216131   2.134   4.256   5.635
 5078SOL     OW16132   0.179   1.391   3.784
 5078SOL    HW116133   0.211   1.414   3.692
 5078SOL    HW216134   0.135   1.301   3.783
 5079SOL     OW16135   2.125   3.368   5.408
 5079SOL    HW116136   2.181   3.299   5.362
 5079SOL    HW216137   2.183   3.443   5.440
 5080SOL     OW16138   6.021   6.533   6.598
 5080SOL    HW116139   5.949   6.598   6.572
 5080SOL    HW216140   6.053   6.555   6.690
 5081SOL     OW16141   3.453   3.265   4.980
 5081SOL    HW116142   3.382   3.197   4.958
 5081SOL    HW216143   3.500   3.291   4.896
 5082SOL     OW16144   5.232   5.751   0.892
 5082SOL    HW116145   5.137   5.721   0.897
 5082SOL    HW216146   5.293   5.674   0.910
 5083SOL     OW16147   2.545   6.554   2.307
 5083SOL    HW116148   2.461   6.589   2.266
 5083SOL    HW216149   2.623   6.578   2.250
 5084SOL     OW16150   0.266   4.432   4.072
 5084SOL    HW116151   0.301   4.423   4.165
 5084SOL    HW216152   0.340   4.464   4.012
 5085SOL     OW16153   5.847   2.493   6.650
 5085SOL    HW116154   5.864   2.397   6.674
 5085SOL    HW216155   5.774   2.529   6.708
 5086SOL     OW16156   1.114   5.581   3.130
 5086SOL    HW116157   1.140   5.525   3.208
 5086SOL    HW216158   1.170   5.557   3.051
 5087SOL     OW16159   1.775   5.631   2.533
 5087SOL    HW116160   1.806   5.569   2.605
 5087SOL    HW216161   1.781   5.725   2.566
 5088SOL     OW16162   6.283   0.587   4.534
 5088SOL    HW116163   6.296   0.492   4.562
 5088SOL    HW216164   6.332   0.648   4.597
 5089SOL     OW16165   5.103   3.986   4.093
 5089SOL    HW116166   5.129   4.014   4.186
 5089SOL    HW216167   5.185   3.982   4.036
 5090SOL     OW16168   1.954   4.138   2.395
 5090SOL    HW116169   1.993   4.072   2.459
 5090SOL    HW216170   1.895   4.202   2.445
 5091SOL     OW16171   0.684   0.965   1.951
 5091SOL    HW116172   0.723   0.969   1.860
 5091SOL    HW216173   0.584   0.972   1.945
 5092SOL     OW16174   3.590   3.672   2.636
 5092SOL    HW116175   3.517   3.605   2.623
 5092SOL    HW216176   3.551   3.757   2.672
 5093SOL     OW16177   2.825   1.323   1.124
 5093SOL    HW116178   2.906   1.283   1.080
 5093SOL    HW216179   2.830   1.306   1.223
 5094SOL     OW16180   2.438   5.468   5.975
 5094SOL    HW116181   2.374   5.449   5.901
 5094SOL    HW216182   2.387   5.477   6.061
 5095SOL     OW16183   6.356   2.223   3.691
 5095SOL    HW116184   6.294   2.153   3.656
 5095SOL    HW216185   6.303   2.293   3.738
 5096SOL     OW16186   3.874   4.529   0.435
 5096SOL    HW116187   3.783   4.561   0.459
 5096SOL    HW216188   3.867   4.461   0.361
 5097SOL     OW16189   1.452   0.602   6.520
 5097SOL    HW116190   1.457   0.701   6.504
 5097SOL    HW216191   1.358   0.577   6.542
 5098SOL     OW16192   2.510   0.189   2.083
 5098SOL    HW116193   2.604   0.222   2.077
 5098SOL    HW216194   2.469   0.187   1.991
 5099SOL     OW16195   1.155   6.818   0.042
 5099SOL    HW116196   1.188   6.767   6.981
 5099SOL    HW216197   1.083   6.765   0.088
 5100SOL     OW16198   3.225   5.598   4.908
 5100SOL    HW116199   3.172   5.569   4.828
 5100SOL    HW216200   3.322   5.604   4.884
 5101SOL     OW16201   5.331   0.033   0.206
 5101SOL    HW116202   5.379   0.055   0.291
 5101SOL    HW216203   5.260   0.101   0.189
 5102SOL     OW16204   5.624   6.339   4.375
 5102SOL    HW116205   5.701   6.288   4.337
 5102SOL    HW216206   5.538   6.298   4.343
 5103SOL     OW16207   0.111   0.740   3.691
 5103SOL    HW116208   0.048   0.790   3.632
 5103SOL    HW216209   0.061   0.669   3.741
 5104SOL     OW16210   1.857   6.597   2.637
 5104SOL    HW116211   1.919   6.563   2.567
 5104SOL    HW216212   1.880   6.556   2.725
 5105SOL     OW16213   3.129   3.367   0.646
 5105SOL    HW116214   3.107   3.423   0.726
 5105SOL    HW216215   3.209   3.405   0.599
 5106SOL     OW16216   4.389   1.679   0.310
 5106SOL    HW116217   4.454   1.670   0.234
 5106SOL    HW216218   4.373   1.589   0.351
 5107SOL     OW16219   3.271   1.406   0.347
 5107SOL    HW116220   3.340   1.376   0.413
 5107SOL    HW216221   3.218   1.481   0.387
 5108SOL     OW16222   3.380   3.531   5.092
 5108SOL    HW116223   3.373   3.436   5.061
 5108SOL    HW216224   3.476   3.558   5.095
 5109SOL     OW16225   1.582   1.427   0.720
 5109SOL    HW116226   1.620   1.334   0.720
 5109SOL    HW216227   1.485   1.423   0.697
 5110SOL     OW16228   6.916   0.427   5.766
 5110SOL    HW116229   6.904   0.331   5.741
 5110SOL    HW216230   6.859   0.484   5.706
 5111SOL     OW16231   1.829   1.301   5.020
 5111SOL    HW116232   1.826   1.397   4.992
 5111SOL    HW216233   1.920   1.278   5.052
 5112SOL     OW16234   2.033   0.735   2.764
 5112SOL    HW116235   1.942   0.737   2.807
 5112SOL    HW216236   2.039   0.807   2.695
 5113SOL     OW16237   2.073   0.257   1.153
 5113SOL    HW116238   2.171   0.244   1.167
 5113SOL    HW216239   2.031   0.170   1.128
 5114SOL     OW16240   3.023   1.265   6.831
 5114SOL    HW116241   2.979   1.186   6.873
 5114SOL    HW216242   3.029   1.250   6.732
 5115SOL     OW16243   1.832   5.018   4.368
 5115SOL    HW116244   1.794   4.929   4.395
 5115SOL    HW216245   1.932   5.014   4.372
 5116SOL     OW16246   6.646   0.308   5.638
 5116SOL    HW116247   6.604   0.293   5.548
 5116SOL    HW216248   6.732   0.258   5.643
 5117SOL     OW16249   2.341   4.348   4.410
 5117SOL    HW116250   2.345   4.259   4.454
 5117SOL    HW216251   2.245   4.372   4.391
 5118SOL     OW16252   5.116   0.273   0.040
 5118SOL    HW116253   5.098   0.186   7.013
 5118SOL    HW216254   5.186   0.324   7.008
 5119SOL     OW16255   4.953   0.794   2.187
 5119SOL    HW116256   5.051   0.798   2.166
 5119SOL    HW216257   4.915   0.886   2.188
 5120SOL     OW16258   3.416   0.927   3.896
 5120SOL    HW116259   3.342   0.990   3.920
 5120SOL    HW216260   3.501   0.956   3.942
 5121SOL     OW16261   2.530   2.200   6.385
 5121SOL    HW116262   2.434   2.176   6.400
 5121SOL    HW216263   2.588   2.134   6.433
 5122SOL     OW16264   3.794   6.494   2.917
 5122SOL    HW116265   3.738   6.577   2.916
 5122SOL    HW216266   3.886   6.516   2.883
 5123SOL     OW16267   4.454   2.135   4.963
 5123SOL    HW116268   4.415   2.191   4.891
 5123SOL    HW216269   4.442   2.181   5.051
 5124SOL     OW16270   2.547   5.363   5.162
 5124SOL    HW116271   2.589   5.429   5.098
 5124SOL    HW216272   2.513   5.285   5.110
 5125SOL     OW16273   6.106   3.506   4.543
 5125SOL    HW116274   6.126   3.440   4.470
 5125SOL    HW216275   6.134   3.467   4.631
 5126SOL     OW16276   6.564   4.853   5.143
 5126SOL    HW116277   6.474   4.895   5.135
 5126SOL    HW216278   6.563   4.762   5.100
 5127SOL     OW16279   1.023   3.665   7.018
 5127SOL    HW116280   1.089   3.712   6.959
 5127SOL    HW216281   1.072   3.608   0.065
 5128SOL     OW16282   6.585   0.500   6.309
 5128SOL    HW116283   6.530   0.534   6.232
 5128SOL    HW216284   6.527   0.489   6.389
 5129SOL     OW16285   5.598   0.178   2.939
 5129SOL    HW116286   5.541   0.101   2.910
 5129SOL    HW216287   5.573   0.206   3.031
 5130SOL     OW16288   1.153   5.612   3.531
 5130SOL    HW116289   1.246   5.595   3.564
 5130SOL    HW216290   1.089   5.599   3.606
 5131SOL     OW16291   2.665   4.994   3.676
 5131SOL    HW116292   2.663   4.907   3.628
 5131SOL    HW216293   2.760   5.024   3.689
 5132SOL     OW16294   3.387   2.648   5.742
 5132SOL    HW116295   3.323   2.598   5.684
 5132SOL    HW216296   3.480   2.618   5.722
 5133SOL     OW16297   1.404   5.775   6.945
 5133SOL    HW116298   1.447   5.688   6.968
 5133SOL    HW216299   1.400   5.784   6.845
 5134SOL     OW16300   6.482   1.619   2.361
 5134SOL    HW116301   6.444   1.534   2.398
 5134SOL    HW216302   6.581   1.621   2.376
 5135SOL     OW16303   5.455   3.457   4.301
 5135SOL    HW116304   5.500   3.443   4.389
 5135SOL    HW216305   5.452   3.554   4.280
 5136SOL     OW16306   5.526   1.071   6.564
 5136SOL    HW116307   5.452   1.034   6.507
 5136SOL    HW216308   5.527   1.024   6.652
 5137SOL     OW16309   4.640   3.691   5.656
 5137SOL    HW116310   4.612   3.769   5.601
 5137SOL    HW216311   4.624   3.606   5.604
 5138SOL     OW16312   3.805   3.114   5.351
 5138SOL    HW116313   3.740   3.161   5.291
 5138SOL    HW216314   3.896   3.115   5.309
 5139SOL     OW16315   1.271   0.740   3.542
 5139SOL    HW116316   1.273   0.727   3.642
 5139SOL    HW216317   1.229   0.661   3.499
 5140SOL     OW16318   3.959   2.215   5.758
 5140SOL    HW116319   3.933   2.161   5.679
 5140SOL    HW216320   3.969   2.156   5.838
 5141SOL     OW16321   6.056   3.636   0.672
 5141SOL    HW116322   6.119   3.578   0.723
 5141SOL    HW216323   6.052   3.726   0.716
 5142SOL     OW16324   5.906   6.364   2.753
 5142SOL    HW116325   5.967   6.310   2.697
 5142SOL    HW216326   5.918   6.340   2.849
 5143SOL     OW16327   6.693   4.349   4.393
 5143SOL    HW116328   6.750   4.394   4.325
 5143SOL    HW216329   6.673   4.255   4.363
 5144SOL     OW16330   0.941   4.877   5.421
 5144SOL    HW116331   0.989   4.882   5.508
 5144SOL    HW216332   0.857   4.931   5.425
 5145SOL     OW16333   4.001   5.842   6.795
 5145SOL    HW116334   4.000   5.858   6.696
 5145SOL    HW216335   3.918   5.794   6.822
 5146SOL     OW16336   2.949   3.767   5.451
 5146SOL    HW116337   2.991   3.828   5.518
 5146SOL    HW216338   2.892   3.820   5.389
 5147SOL     OW16339   6.387   5.804   3.252
 5147SOL    HW116340   6.402   5.716   3.207
 5147SOL    HW216341   6.388   5.877   3.184
 5148SOL     OW16342   6.731   1.016   1.718
 5148SOL    HW116343   6.792   0.988   1.792
 5148SOL    HW216344   6.636   1.017   1.751
 5149SOL     OW16345   6.674   6.003   3.561
 5149SOL    HW116346   6.641   6.057   3.638
 5149SOL    HW216347   6.697   6.064   3.485
 5150SOL     OW16348   2.421   5.517   3.429
 5150SOL    HW116349   2.464   5.567   3.504
 5150SOL    HW216350   2.322   5.531   3.433
 5151SOL     OW16351   6.866   3.820   2.589
 5151SOL    HW116352   6.809   3.899   2.565
 5151SOL    HW216353   6.808   3.741   2.607
 5152SOL     OW16354   1.575   5.304   0.343
 5152SOL    HW116355   1.652   5.360   0.313
 5152SOL    HW216356   1.573   5.219   0.290
 5153SOL     OW16357   1.532   1.505   0.324
 5153SOL    HW116358   1.520   1.566   0.402
 5153SOL    HW216359   1.473   1.534   0.249
 5154SOL     OW16360   1.301   2.919   5.954
 5154SOL    HW116361   1.382   2.941   6.008
 5154SOL    HW216362   1.279   2.996   5.894
 5155SOL     OW16363   4.416   6.709   1.954
 5155SOL    HW116364   4.474   6.777   1.999
 5155SOL    HW216365   4.329   6.751   1.930
 5156SOL     OW16366   5.436   4.077   5.814
 5156SOL    HW116367   5.510   4.135   5.782
 5156SOL    HW216368   5.427   3.997   5.754
 5157SOL     OW16369   3.828   1.822   3.373
 5157SOL    HW116370   3.779   1.759   3.313
 5157SOL    HW216371   3.793   1.915   3.360
 5158SOL     OW16372   4.153   2.137   1.226
 5158SOL    HW116373   4.181   2.122   1.321
 5158SOL    HW216374   4.058   2.169   1.225
 5159SOL     OW16375   5.904   3.447   5.407
 5159SOL    HW116376   5.823   3.403   5.370
 5159SOL    HW216377   5.885   3.544   5.422
 5160SOL     OW16378   0.689   5.041   3.165
 5160SOL    HW116379   0.741   5.012   3.084
 5160SOL    HW216380   0.627   5.115   3.140
 5161SOL     OW16381   1.787   3.964   6.697
 5161SOL    HW116382   1.838   4.050   6.687
 5161SOL    HW216383   1.831   3.893   6.642
 5162SOL     OW16384   1.073   5.662   2.710
 5162SOL    HW116385   1.105   5.599   2.781
 5162SOL    HW216386   1.113   5.636   2.622
 5163SOL     OW16387   2.527   6.768   0.266
 5163SOL    HW116388   2.559   6.765   0.171
 5163SOL    HW216389   2.427   6.766   0.268
 5164SOL     OW16390   4.168   2.196   6.475
 5164SOL    HW116391   4.152   2.215   6.572
 5164SOL    HW216392   4.189   2.099   6.463
 5165SOL     OW16393   0.183   4.381   5.813
 5165SOL    HW116394   0.110   4.382   5.744
 5165SOL    HW216395   0.261   4.329   5.778
 5166SOL     OW16396   0.812   5.847   2.618
 5166SOL    HW116397   0.893   5.798   2.585
 5166SOL    HW216398   0.839   5.937   2.653
 5167SOL     OW16399   6.475   5.046   5.921
 5167SOL    HW116400   6.395   5.019   5.974
 5167SOL    HW216401   6.464   5.016   5.826
 5168SOL     OW16402   5.013   3.503   1.485
 5168SOL    HW116403   4.953   3.434   1.528
 5168SOL    HW216404   5.084   3.456   1.433
 5169SOL     OW16405   4.028   1.935   4.229
 5169SOL    HW116406   3.972   1.967   4.153
 5169SOL    HW216407   4.011   1.837   4.244
 5170SOL     OW16408   1.329   3.969   5.022
 5170SOL    HW116409   1.366   4.020   4.944
 5170SOL    HW216410   1.378   3.996   5.105
 5171SOL     OW16411   0.838   4.162   5.214
 5171SOL    HW116412   0.816   4.070   5.181
 5171SOL    HW216413   0.917   4.198   5.164
 5172SOL     OW16414   1.676   3.312   2.592
 5172SOL    HW116415   1.694   3.214   2.605
 5172SOL    HW216416   1.680   3.334   2.495
 5173SOL     OW16417   4.936   5.119   4.904
 5173SOL    HW116418   4.961   5.215   4.903
 5173SOL    HW216419   4.864   5.102   4.836
 5174SOL     OW16420   2.334   4.983   3.518
 5174SOL    HW116421   2.277   5.044   3.464
 5174SOL    HW216422   2.405   5.036   3.565
 5175SOL     OW16423   2.494   3.947   6.690
 5175SOL    HW116424   2.409   3.911   6.728
 5175SOL    HW216425   2.545   3.874   6.645
 5176SOL     OW16426   5.301   3.131   0.012
 5176SOL    HW116427   5.356   3.049   0.031
 5176SOL    HW216428   5.337   3.176   6.949
 5177SOL     OW16429   5.502   0.145   0.413
 5177SOL    HW116430   5.482   0.154   0.510
 5177SOL    HW216431   5.477   0.230   0.366
 5178SOL     OW16432   0.805   3.675   2.728
 5178SOL    HW116433   0.852   3.605   2.782
 5178SOL    HW216434   0.710   3.683   2.758
 5179SOL     OW16435   4.547   4.895   4.342
 5179SOL    HW116436   4.449   4.874   4.333
 5179SOL    HW216437   4.579   4.870   4.433
 5180SOL     OW16438   2.861   2.280   0.977
 5180SOL    HW116439   2.952   2.269   0.937
 5180SOL    HW216440   2.870   2.314   1.071
 5181SOL     OW16441   5.251   0.791   3.008
 5181SOL    HW116442   5.301   0.704   3.002
 5181SOL    HW216443   5.170   0.787   2.950
 5182SOL     OW16444   4.137   4.231   1.635
 5182SOL    HW116445   4.218   4.281   1.666
 5182SOL    HW216446   4.159   4.134   1.625
 5183SOL     OW16447   4.048   1.849   2.605
 5183SOL    HW116448   4.121   1.782   2.621
 5183SOL    HW216449   4.078   1.939   2.637
 5184SOL     OW16450   0.480   1.830   3.967
 5184SOL    HW116451   0.499   1.742   4.011
 5184SOL    HW216452   0.443   1.815   3.876
 5185SOL     OW16453   5.409   0.690   2.794
 5185SOL    HW116454   5.384   0.785   2.777
 5185SOL    HW216455   5.327   0.633   2.798
 5186SOL     OW16456   6.922   2.569   0.025
 5186SOL    HW116457   6.837   2.543   6.999
 5186SOL    HW216458   6.937   2.667   0.014
 5187SOL     OW16459   1.391   5.977   4.412
 5187SOL    HW116460   1.454   6.021   4.348
 5187SOL    HW216461   1.410   6.011   4.505
 5188SOL     OW16462   6.794   6.230   1.260
 5188SOL    HW116463   6.801   6.237   1.360
 5188SOL    HW216464   6.737   6.305   1.226
 5189SOL     OW16465   4.030   5.236   0.756
 5189SOL    HW116466   3.938   5.264   0.783
 5189SOL    HW216467   4.047   5.263   0.661
 5190SOL     OW16468   0.275   2.223   4.550
 5190SOL    HW116469   0.267   2.316   4.585
 5190SOL    HW216470   0.359   2.182   4.583
 5191SOL     OW16471   4.061   0.098   2.020
 5191SOL    HW116472   4.011   0.099   1.934
 5191SOL    HW216473   4.158   0.081   2.002
 5192SOL     OW16474   2.199   5.763   1.488
 5192SOL    HW116475   2.190   5.700   1.410
 5192SOL    HW216476   2.271   5.829   1.468
 5193SOL     OW16477   5.202   5.013   4.974
 5193SOL    HW116478   5.270   4.997   4.903
 5193SOL    HW216479   5.123   5.061   4.934
 5194SOL     OW16480   4.210   1.932   6.505
 5194SOL    HW116481   4.244   1.912   6.597
 5194SOL    HW216482   4.276   1.902   6.437
 5195SOL     OW16483   6.708   6.892   4.423
 5195SOL    HW116484   6.697   6.812   4.364
 5195SOL    HW216485   6.654   6.880   4.506
 5196SOL     OW16486   3.588   6.360   0.937
 5196SOL    HW116487   3.622   6.273   0.973
 5196SOL    HW216488   3.641   6.435   0.976
 5197SOL     OW16489   2.530   4.234   6.090
 5197SOL    HW116490   2.474   4.224   6.172
 5197SOL    HW216491   2.520   4.152   6.033
 5198SOL     OW16492   4.664   5.954   3.004
 5198SOL    HW116493   4.606   6.021   3.052
 5198SOL    HW216494   4.692   5.883   3.069
 5199SOL     OW16495   1.255   6.373   0.393
 5199SOL    HW116496   1.173   6.356   0.338
 5199SOL    HW216497   1.235   6.357   0.489
 5200SOL     OW16498   0.686   3.649   5.674
 5200SOL    HW116499   0.766   3.619   5.622
 5200SOL    HW216500   0.628   3.707   5.616
 5201SOL     OW16501   0.436   0.139   2.985
 5201SOL    HW116502   0.466   0.109   2.895
 5201SOL    HW216503   0.473   0.230   3.004
 5202SOL     OW16504   6.108   3.187   6.245
 5202SOL    HW116505   6.183   3.122   6.233
 5202SOL    HW216506   6.045   3.152   6.314
 5203SOL     OW16507   2.238   2.585   0.502
 5203SOL    HW116508   2.321   2.635   0.527
 5203SOL    HW216509   2.256   2.487   0.504
 5204SOL     OW16510   4.037   4.885   6.666
 5204SOL    HW116511   4.096   4.859   6.590
 5204SOL    HW216512   4.090   4.936   6.734
 5205SOL     OW16513   0.643   6.278   0.774
 5205SOL    HW116514   0.637   6.255   0.676
 5205SOL    HW216515   0.562   6.332   0.800
 5206SOL     OW16516   0.822   4.668   5.737
 5206SOL    HW116517   0.919   4.688   5.742
 5206SOL    HW216518   0.801   4.625   5.650
 5207SOL     OW16519   1.325   6.009   3.788
 5207SOL    HW116520   1.233   5.981   3.813
 5207SOL    HW216521   1.321   6.079   3.717
 5208SOL     OW16522   4.346   2.659   6.165
 5208SOL    HW116523   4.293   2.735   6.128
 5208SOL    HW216524   4.335   2.579   6.107
 5209SOL     OW16525   6.032   6.282   2.999
 5209SOL    HW116526   5.952   6.243   3.044
 5209SOL    HW216527   6.100   6.308   3.068
 5210SOL     OW16528   4.387   3.042   6.361
 5210SOL    HW116529   4.346   3.121   6.406
 5210SOL    HW216530   4.336   2.959   6.384
 5211SOL     OW16531   3.375   2.870   5.194
 5211SOL    HW116532   3.356   2.922   5.277
 5211SOL    HW216533   3.383   2.772   5.217
 5212SOL     OW16534   7.018   2.549   0.898
 5212SOL    HW116535   6.947   2.591   0.841
 5212SOL    HW216536   6.986   2.461   0.932
 5213SOL     OW16537   4.857   3.468   6.553
 5213SOL    HW116538   4.937   3.428   6.508
 5213SOL    HW216539   4.826   3.548   6.501
 5214SOL     OW16540   4.858   1.666   5.719
 5214SOL    HW116541   4.858   1.701   5.625
 5214SOL    HW216542   4.765   1.662   5.753
 5215SOL     OW16543   6.757   4.808   4.315
 5215SOL    HW116544   6.847   4.771   4.334
 5215SOL    HW216545   6.765   4.886   4.254
 5216SOL     OW16546   5.406   5.024   1.542
 5216SOL    HW116547   5.413   4.958   1.616
 5216SOL    HW216548   5.422   4.978   1.454
 5217SOL     OW16549   4.033   5.428   4.802
 5217SOL    HW116550   4.116   5.485   4.802
 5217SOL    HW216551   4.023   5.383   4.891
 5218SOL     OW16552   0.738   0.951   3.712
 5218SOL    HW116553   0.751   0.938   3.810
 5218SOL    HW216554   0.813   1.007   3.676
 5219SOL     OW16555   4.504   0.977   5.516
 5219SOL    HW116556   4.405   0.984   5.510
 5219SOL    HW216557   4.541   1.062   5.554
 5220SOL     OW16558   1.174   5.837   3.069
 5220SOL    HW116559   1.120   5.753   3.084
 5220SOL    HW216560   1.116   5.906   3.025
 5221SOL     OW16561   5.989   2.338   3.831
 5221SOL    HW116562   5.957   2.398   3.905
 5221SOL    HW216563   6.060   2.277   3.866
 5222SOL     OW16564   3.922   5.873   2.936
 5222SOL    HW116565   3.837   5.838   2.974
 5222SOL    HW216566   3.999   5.826   2.978
 5223SOL     OW16567   6.327   2.870   1.178
 5223SOL    HW116568   6.403   2.912   1.227
 5223SOL    HW216569   6.254   2.846   1.242
 5224SOL     OW16570   6.944   2.505   4.512
 5224SOL    HW116571   0.001   2.451   4.478
 5224SOL    HW216572   6.862   2.488   4.456
 5225SOL     OW16573   0.915   0.132   3.026
 5225SOL    HW116574   1.001   0.095   3.061
 5225SOL    HW216575   0.839   0.097   3.082
 5226SOL     OW16576   0.230   5.774   4.869
 5226SOL    HW116577   0.261   5.867   4.850
 5226SOL    HW216578   0.147   5.755   4.816
 5227SOL     OW16579   0.512   3.326   4.601
 5227SOL    HW116580   0.537   3.383   4.679
 5227SOL    HW216581   0.590   3.320   4.538
 5228SOL     OW16582   5.875   2.844   1.159
 5228SOL    HW116583   5.795   2.820   1.104
 5228SOL    HW216584   5.846   2.870   1.251
 5229SOL     OW16585   1.983   5.556   6.951
 5229SOL    HW116586   2.066   5.551   7.008
 5229SOL    HW216587   1.906   5.584   7.008
 5230SOL     OW16588   0.381   6.311   1.759
 5230SOL    HW116589   0.349   6.226   1.719
 5230SOL    HW216590   0.481   6.312   1.760
 5231SOL     OW16591   4.711   2.893   5.226
 5231SOL    HW116592   4.657   2.924   5.305
 5231SOL    HW216593   4.804   2.928   5.234
 5232SOL     OW16594   3.366   2.696   6.006
 5232SOL    HW116595   3.465   2.690   6.019
 5232SOL    HW216596   3.346   2.692   5.908
 5233SOL     OW16597   5.221   0.849   2.562
 5233SOL    HW116598   5.218   0.922   2.494
 5233SOL    HW216599   5.214   0.888   2.654
 5234SOL     OW16600   2.336   1.519   6.481
 5234SOL    HW116601   2.353   1.534   6.384
 5234SOL    HW216602   2.424   1.509   6.529
 5235SOL     OW16603   1.951   2.814   0.790
 5235SOL    HW116604   1.939   2.900   0.740
 5235SOL    HW216605   1.915   2.738   0.735
 5236SOL     OW16606   5.543   4.330   2.788
 5236SOL    HW116607   5.500   4.340   2.698
 5236SOL    HW216608   5.558   4.420   2.828
 5237SOL     OW16609   1.844   1.002   5.141
 5237SOL    HW116610   1.756   1.043   5.117
 5237SOL    HW216611   1.872   0.938   5.069
 5238SOL     OW16612   0.655   4.501   0.411
 5238SOL    HW116613   0.599   4.449   0.476
 5238SOL    HW216614   0.684   4.441   0.337
 5239SOL     OW16615   3.647   3.099   3.854
 5239SOL    HW116616   3.555   3.064   3.839
 5239SOL    HW216617   3.698   3.035   3.912
 5240SOL     OW16618   2.778   1.423   5.893
 5240SOL    HW116619   2.779   1.506   5.837
 5240SOL    HW216620   2.695   1.422   5.948
 5241SOL     OW16621   1.232   5.194   5.405
 5241SOL    HW116622   1.242   5.207   5.504
 5241SOL    HW216623   1.248   5.281   5.359
 5242SOL     OW16624   0.463   6.517   6.309
 5242SOL    HW116625   0.372   6.553   6.329
 5242SOL    HW216626   0.508   6.488   6.394
 5243SOL     OW16627   0.835   5.317   1.557
 5243SOL    HW116628   0.850   5.281   1.464
 5243SOL    HW216629   0.766   5.262   1.603
 5244SOL     OW16630   4.157   5.081   0.097
 5244SOL    HW116631   4.095   5.159   0.094
 5244SOL    HW216632   4.104   4.996   0.091
 5245SOL     OW16633   4.401   3.953   0.402
 5245SOL    HW116634   4.399   3.996   0.311
 5245SOL    HW216635   4.347   3.868   0.400
 5246SOL     OW16636   6.055   3.858   2.219
 5246SOL    HW116637   6.001   3.802   2.156
 5246SOL    HW216638   6.151   3.829   2.215
 5247SOL     OW16639   0.892   0.574   0.177
 5247SOL    HW116640   0.934   0.609   0.261
 5247SOL    HW216641   0.963   0.562   0.107
 5248SOL     OW16642   5.832   0.715   4.169
 5248SOL    HW116643   5.892   0.755   4.099
 5248SOL    HW216644   5.887   0.693   4.250
 5249SOL     OW16645   6.931   4.794   5.406
 5249SOL    HW116646   6.843   4.768   5.446
 5249SOL    HW216647   6.996   4.815   5.479
 5250SOL     OW16648   1.459   6.557   5.377
 5250SOL    HW116649   1.363   6.550   5.352
 5250SOL    HW216650   1.469   6.619   5.455
 5251SOL     OW16651   0.266   3.376   0.645
 5251SOL    HW116652   0.322   3.398   0.725
 5251SOL    HW216653   0.178   3.340   0.676
 5252SOL     OW16654   2.297   6.236   0.302
 5252SOL    HW116655   2.343   6.179   0.233
 5252SOL    HW216656   2.240   6.304   0.256
 5253SOL     OW16657   5.456   4.774   4.352
 5253SOL    HW116658   5.470   4.814   4.262
 5253SOL    HW216659   5.442   4.675   4.343
 5254SOL     OW16660   4.776   1.237   3.326
 5254SOL    HW116661   4.684   1.240   3.364
 5254SOL    HW216662   4.791   1.317   3.268
 5255SOL     OW16663   5.055   1.252   6.209
 5255SOL    HW116664   5.011   1.247   6.299
 5255SOL    HW216665   5.142   1.204   6.211
 5256SOL     OW16666   4.471   0.994   2.900
 5256SOL    HW116667   4.389   1.045   2.874
 5256SOL    HW216668   4.457   0.897   2.880
 5257SOL     OW16669   4.886   6.297   1.861
 5257SOL    HW116670   4.835   6.241   1.927
 5257SOL    HW216671   4.926   6.375   1.908
 5258SOL     OW16672   5.836   3.852   1.880
 5258SOL    HW116673   5.828   3.848   1.780
 5258SOL    HW216674   5.932   3.864   1.905
 5259SOL     OW16675   5.102   6.005   0.256
 5259SOL    HW116676   5.019   5.951   0.271
 5259SOL    HW216677   5.106   6.034   0.160
 5260SOL     OW16678   5.193   3.825   0.897
 5260SOL    HW116679   5.130   3.899   0.919
 5260SOL    HW216680   5.207   3.768   0.978
 5261SOL     OW16681   0.896   3.832   0.158
 5261SOL    HW116682   0.931   3.777   0.082
 5261SOL    HW216683   0.953   3.913   0.170
 5262SOL     OW16684   2.674   0.312   2.858
 5262SOL    HW116685   2.584   0.351   2.838
 5262SOL    HW216686   2.695   0.324   2.955
 5263SOL     OW16687   1.878   1.583   4.673
 5263SOL    HW116688   1.964   1.616   4.712
 5263SOL    HW216689   1.826   1.661   4.639
 5264SOL     OW16690   5.745   1.741   2.516
 5264SOL    HW116691   5.777   1.672   2.580
 5264SOL    HW216692   5.662   1.708   2.470
 5265SOL     OW16693   5.797   4.027   4.635
 5265SOL    HW116694   5.796   3.940   4.685
 5265SOL    HW216695   5.740   4.019   4.554
 5266SOL     OW16696   2.427   6.344   1.366
 5266SOL    HW116697   2.397   6.414   1.301
 5266SOL    HW216698   2.494   6.384   1.429
 5267SOL     OW16699   4.840   3.910   4.994
 5267SOL    HW116700   4.870   3.947   4.906
 5267SOL    HW216701   4.835   3.810   4.989
 5268SOL     OW16702   5.821   0.287   6.564
 5268SOL    HW116703   5.722   0.294   6.561
 5268SOL    HW216704   5.851   0.274   6.659
 5269SOL     OW16705   1.523   6.724   3.586
 5269SOL    HW116706   1.584   6.754   3.513
 5269SOL    HW216707   1.442   6.783   3.588
 5270SOL     OW16708   5.603   1.249   1.600
 5270SOL    HW116709   5.638   1.312   1.669
 5270SOL    HW216710   5.507   1.229   1.619
 5271SOL     OW16711   5.852   5.756   4.757
 5271SOL    HW116712   5.840   5.728   4.853
 5271SOL    HW216713   5.799   5.696   4.698
 5272SOL     OW16714   2.865   5.170   1.777
 5272SOL    HW116715   2.798   5.150   1.848
 5272SOL    HW216716   2.894   5.085   1.733
 5273SOL     OW16717   6.639   3.201   3.265
 5273SOL    HW116718   6.645   3.102   3.253
 5273SOL    HW216719   6.546   3.226   3.291
 5274SOL     OW16720   6.441   6.704   1.911
 5274SOL    HW116721   6.440   6.800   1.938
 5274SOL    HW216722   6.513   6.690   1.843
 5275SOL     OW16723   3.469   2.011   6.829
 5275SOL    HW116724   3.380   2.041   6.794
 5275SOL    HW216725   3.542   2.051   6.773
 5276SOL     OW16726   1.390   0.541   0.733
 5276SOL    HW116727   1.459   0.489   0.683
 5276SOL    HW216728   1.386   0.509   0.828
 5277SOL     OW16729   1.574   1.871   3.053
 5277SOL    HW116730   1.616   1.961   3.050
 5277SOL    HW216731   1.487   1.876   3.101
 5278SOL     OW16732   5.225   0.156   3.628
 5278SOL    HW116733   5.250   0.244   3.668
 5278SOL    HW216734   5.268   0.082   3.681
 5279SOL     OW16735   1.441   5.191   6.943
 5279SOL    HW116736   1.475   5.207   6.850
 5279SOL    HW216737   1.516   5.162   7.002
 5280SOL     OW16738   3.666   6.414   5.217
 5280SOL    HW116739   3.585   6.462   5.185
 5280SOL    HW216740   3.742   6.479   5.225
 5281SOL     OW16741   0.877   1.989   2.390
 5281SOL    HW116742   0.871   2.085   2.418
 5281SOL    HW216743   0.807   1.936   2.439
 5282SOL     OW16744   2.620   1.545   3.429
 5282SOL    HW116745   2.680   1.475   3.390
 5282SOL    HW216746   2.554   1.575   3.359
 5283SOL     OW16747   4.356   6.364   1.273
 5283SOL    HW116748   4.390   6.321   1.189
 5283SOL    HW216749   4.371   6.463   1.268
 5284SOL     OW16750   5.192   3.754   3.596
 5284SOL    HW116751   5.228   3.669   3.632
 5284SOL    HW216752   5.094   3.744   3.579
 5285SOL     OW16753   1.928   4.520   3.629
 5285SOL    HW116754   1.936   4.571   3.715
 5285SOL    HW216755   1.843   4.468   3.630
 5286SOL     OW16756   1.619   3.330   1.473
 5286SOL    HW116757   1.534   3.357   1.427
 5286SOL    HW216758   1.637   3.233   1.456
 5287SOL     OW16759   1.774   6.448   1.265
 5287SOL    HW116760   1.748   6.451   1.169
 5287SOL    HW216761   1.698   6.484   1.320
 5288SOL     OW16762   3.927   0.079   1.777
 5288SOL    HW116763   3.912   7.011   1.823
 5288SOL    HW216764   3.876   0.082   1.691
 5289SOL     OW16765   1.743   5.158   5.989
 5289SOL    HW116766   1.833   5.191   6.017
 5289SOL    HW216767   1.749   5.113   5.900
 5290SOL     OW16768   1.731   4.817   5.323
 5290SOL    HW116769   1.812   4.758   5.328
 5290SOL    HW216770   1.750   4.904   5.367
 5291SOL     OW16771   2.527   5.640   5.385
 5291SOL    HW116772   2.554   5.585   5.306
 5291SOL    HW216773   2.503   5.733   5.355
 5292SOL     OW16774   6.849   3.637   0.237
 5292SOL    HW116775   6.887   3.548   0.210
 5292SOL    HW216776   6.907   3.678   0.308
 5293SOL     OW16777   1.019   0.769   4.108
 5293SOL    HW116778   1.059   0.757   4.198
 5293SOL    HW216779   0.931   0.721   4.103
 5294SOL     OW16780   4.908   3.279   5.470
 5294SOL    HW116781   4.962   3.360   5.493
 5294SOL    HW216782   4.832   3.306   5.410
 5295SOL     OW16783   4.879   0.113   2.410
 5295SOL    HW116784   4.861   0.060   2.493
 5295SOL    HW216785   4.977   0.133   2.405
 5296SOL     OW16786   1.749   5.539   0.563
 5296SOL    HW116787   1.705   5.571   0.647
 5296SOL    HW216788   1.831   5.486   0.586
 5297SOL     OW16789   3.513   1.904   1.008
 5297SOL    HW116790   3.534   1.994   0.970
 5297SOL    HW216791   3.428   1.910   1.061
 5298SOL     OW16792   1.135   5.893   6.181
 5298SOL    HW116793   1.185   5.809   6.159
 5298SOL    HW216794   1.132   5.952   6.101
 5299SOL     OW16795   2.847   2.447   1.216
 5299SOL    HW116796   2.921   2.512   1.198
 5299SOL    HW216797   2.759   2.494   1.208
 5300SOL     OW16798   0.147   6.315   1.959
 5300SOL    HW116799   0.141   6.393   1.897
 5300SOL    HW216800   0.209   6.246   1.920
 5301SOL     OW16801   4.267   2.750   0.767
 5301SOL    HW116802   4.271   2.825   0.701
 5301SOL    HW216803   4.338   2.761   0.835
 5302SOL     OW16804   6.398   4.755   2.846
 5302SOL    HW116805   6.420   4.721   2.754
 5302SOL    HW216806   6.478   4.802   2.884
 5303SOL     OW16807   6.914   5.800   2.817
 5303SOL    HW116808   6.932   5.760   2.906
 5303SOL    HW216809   6.924   5.900   2.822
 5304SOL     OW16810   6.052   1.123   6.798
 5304SOL    HW116811   5.955   1.141   6.783
 5304SOL    HW216812   6.065   1.028   6.828
 5305SOL     OW16813   1.172   5.662   4.308
 5305SOL    HW116814   1.123   5.575   4.316
 5305SOL    HW216815   1.124   5.731   4.362
 5306SOL     OW16816   0.585   5.237   4.951
 5306SOL    HW116817   0.494   5.264   4.919
 5306SOL    HW216818   0.653   5.302   4.915
 5307SOL     OW16819   4.280   0.120   6.896
 5307SOL    HW116820   4.211   0.113   6.824
 5307SOL    HW216821   4.237   0.146   6.982
 5308SOL     OW16822   1.076   5.923   3.778
 5308SOL    HW116823   0.990   5.974   3.779
 5308SOL    HW216824   1.058   5.829   3.749
 5309SOL     OW16825   3.874   4.295   1.703
 5309SOL    HW116826   3.848   4.389   1.680
 5309SOL    HW216827   3.972   4.282   1.687
 5310SOL     OW16828   6.064   3.079   1.389
 5310SOL    HW116829   6.014   3.006   1.343
 5310SOL    HW216830   6.131   3.119   1.327
 5311SOL     OW16831   6.847   6.417   1.026
 5311SOL    HW116832   6.858   6.499   1.082
 5311SOL    HW216833   6.925   6.407   0.965
 5312SOL     OW16834   0.614   3.867   1.969
 5312SOL    HW116835   0.667   3.788   1.936
 5312SOL    HW216836   0.570   3.844   2.055
 5313SOL     OW16837   0.897   3.901   6.425
 5313SOL    HW116838   0.816   3.846   6.445
 5313SOL    HW216839   0.868   3.993   6.396
 5314SOL     OW16840   3.496   6.629   0.264
 5314SOL    HW116841   3.511   6.546   0.211
 5314SOL    HW216842   3.558   6.631   0.342
 5315SOL     OW16843   3.632   3.656   1.593
 5315SOL    HW116844   3.696   3.581   1.582
 5315SOL    HW216845   3.539   3.623   1.581
 5316SOL     OW16846   7.019   4.296   4.844
 5316SOL    HW116847   6.999   4.272   4.749
 5316SOL    HW216848   6.998   4.392   4.860
 5317SOL     OW16849   0.167   0.417   4.661
 5317SOL    HW116850   0.197   0.361   4.584
 5317SOL    HW216851   0.244   0.470   4.696
 5318SOL     OW16852   0.325   1.913   5.798
 5318SOL    HW116853   0.379   1.975   5.855
 5318SOL    HW216854   0.228   1.926   5.817
 5319SOL     OW16855   4.641   6.674   6.520
 5319SOL    HW116856   4.689   6.622   6.449
 5319SOL    HW216857   4.694   6.671   6.605
 5320SOL     OW16858   5.840   4.740   6.774
 5320SOL    HW116859   5.764   4.737   6.708
 5320SOL    HW216860   5.813   4.692   6.857
 5321SOL     OW16861   0.775   4.138   2.793
 5321SOL    HW116862   0.679   4.134   2.766
 5321SOL    HW216863   0.814   4.225   2.764
 5322SOL     OW16864   3.562   6.078   6.070
 5322SOL    HW116865   3.489   6.010   6.076
 5322SOL    HW216866   3.649   6.035   6.093
 5323SOL     OW16867   3.939   3.173   6.948
 5323SOL    HW116868   3.957   3.096   6.887
 5323SOL    HW216869   4.010   3.176   0.000
 5324SOL     OW16870   3.922   2.134   1.845
 5324SOL    HW116871   3.846   2.191   1.874
 5324SOL    HW216872   4.003   2.155   1.901
 5325SOL     OW16873   5.572   0.055   3.825
 5325SOL    HW116874   5.663   0.054   3.867
 5325SOL    HW216875   5.570   7.010   3.749
 5326SOL     OW16876   0.042   5.851   3.448
 5326SOL    HW116877   0.001   5.912   3.516
 5326SOL    HW216878   7.017   5.762   3.453
 5327SOL     OW16879   5.817   4.859   5.012
 5327SOL    HW116880   5.797   4.849   4.915
 5327SOL    HW216881   5.732   4.876   5.062
 5328SOL     OW16882   4.561   2.817   5.829
 5328SOL    HW116883   4.625   2.770   5.768
 5328SOL    HW216884   4.594   2.910   5.848
 5329SOL     OW16885   0.151   3.816   0.748
 5329SOL    HW116886   0.248   3.792   0.749
 5329SOL    HW216887   0.098   3.740   0.712
 5330SOL     OW16888   3.622   3.966   6.412
 5330SOL    HW116889   3.689   4.014   6.469
 5330SOL    HW216890   3.670   3.918   6.339
 5331SOL     OW16891   5.676   0.500   1.621
 5331SOL    HW116892   5.712   0.527   1.710
 5331SOL    HW216893   5.714   0.411   1.595
 5332SOL     OW16894   0.360   4.297   0.461
 5332SOL    HW116895   0.427   4.333   0.525
 5332SOL    HW216896   0.305   4.226   0.507
 5333SOL     OW16897   0.870   0.601   3.681
 5333SOL    HW116898   0.808   0.586   3.604
 5333SOL    HW216899   0.872   0.519   3.738
 5334SOL     OW16900   3.491   6.099   5.223
 5334SOL    HW116901   3.502   6.068   5.317
 5334SOL    HW216902   3.580   6.114   5.182
 5335SOL     OW16903   0.093   5.001   2.170
 5335SOL    HW116904   0.100   5.063   2.092
 5335SOL    HW216905   0.019   4.936   2.154
 5336SOL     OW16906   2.414   1.507   3.705
 5336SOL    HW116907   2.321   1.525   3.736
 5336SOL    HW216908   2.474   1.580   3.737
 5337SOL     OW16909   5.204   5.187   1.761
 5337SOL    HW116910   5.297   5.208   1.791
 5337SOL    HW216911   5.207   5.120   1.687
 5338SOL     OW16912   5.881   0.785   5.804
 5338SOL    HW116913   5.847   0.691   5.807
 5338SOL    HW216914   5.883   0.816   5.708
 5339SOL     OW16915   5.780   1.229   3.048
 5339SOL    HW116916   5.691   1.253   3.011
 5339SOL    HW216917   5.774   1.218   3.147
 5340SOL     OW16918   5.717   3.726   1.346
 5340SOL    HW116919   5.635   3.773   1.379
 5340SOL    HW216920   5.794   3.788   1.347
 5341SOL     OW16921   3.176   5.438   5.196
 5341SOL    HW116922   3.144   5.507   5.260
 5341SOL    HW216923   3.245   5.478   5.136
 5342SOL     OW16924   4.977   6.390   5.204
 5342SOL    HW116925   5.022   6.391   5.115
 5342SOL    HW216926   4.974   6.482   5.242
 5343SOL     OW16927   4.271   3.546   5.125
 5343SOL    HW116928   4.329   3.485   5.180
 5343SOL    HW216929   4.321   3.631   5.106
 5344SOL     OW16930   1.745   2.049   1.485
 5344SOL    HW116931   1.688   1.970   1.510
 5344SOL    HW216932   1.777   2.038   1.391
 5345SOL     OW16933   5.162   6.546   0.188
 5345SOL    HW116934   5.212   6.460   0.177
 5345SOL    HW216935   5.068   6.533   0.156
 5346SOL     OW16936   2.544   5.670   3.631
 5346SOL    HW116937   2.515   5.764   3.611
 5346SOL    HW216938   2.530   5.652   3.729
 5347SOL     OW16939   0.611   3.154   2.685
 5347SOL    HW116940   0.611   3.063   2.643
 5347SOL    HW216941   0.603   3.224   2.613
 5348SOL     OW16942   6.889   1.238   0.043
 5348SOL    HW116943   6.794   1.211   0.058
 5348SOL    HW216944   6.914   1.219   6.967
 5349SOL     OW16945   2.147   3.620   0.122
 5349SOL    HW116946   2.186   3.537   0.161
 5349SOL    HW216947   2.072   3.595   0.060
 5350SOL     OW16948   2.028   6.975   4.691
 5350SOL    HW116949   2.005   6.877   4.699
 5350SOL    HW216950   2.027   7.002   4.595
 5351SOL     OW16951   6.969   5.617   2.141
 5351SOL    HW116952   0.006   5.675   2.199
 5351SOL    HW216953   6.965   5.655   2.048
 5352SOL     OW16954   2.335   4.707   2.851
 5352SOL    HW116955   2.360   4.681   2.944
 5352SOL    HW216956   2.250   4.760   2.852
 5353SOL     OW16957   3.895   5.352   4.357
 5353SOL    HW116958   3.925   5.346   4.262
 5353SOL    HW216959   3.945   5.425   4.403
 5354SOL     OW16960   2.084   4.503   1.439
 5354SOL    HW116961   2.023   4.581   1.429
 5354SOL    HW216962   2.131   4.486   1.352
 5355SOL     OW16963   5.744   4.831   4.105
 5355SOL    HW116964   5.781   4.835   4.012
 5355SOL    HW216965   5.738   4.924   4.142
 5356SOL     OW16966   6.437   3.589   2.828
 5356SOL    HW116967   6.434   3.684   2.797
 5356SOL    HW216968   6.523   3.547   2.801
 5357SOL     OW16969   2.940   5.758   0.583
 5357SOL    HW116970   2.921   5.736   0.679
 5357SOL    HW216971   2.937   5.857   0.570
 5358SOL     OW16972   4.568   2.170   0.552
 5358SOL    HW116973   4.487   2.220   0.519
 5358SOL    HW216974   4.586   2.093   0.491
 5359SOL     OW16975   2.641   1.497   6.375
 5359SOL    HW116976   2.626   1.411   6.424
 5359SOL    HW216977   2.686   1.479   6.288
 5360SOL     OW16978   3.872   6.164   3.556
 5360SOL    HW116979   3.815   6.232   3.511
 5360SOL    HW216980   3.822   6.122   3.632
 5361SOL     OW16981   2.443   0.072   4.914
 5361SOL    HW116982   2.454   0.052   4.817
 5361SOL    HW216983   2.348   0.094   4.934
 5362SOL     OW16984   6.653   6.446   2.262
 5362SOL    HW116985   6.628   6.382   2.189
 5362SOL    HW216986   6.750   6.437   2.282
 5363SOL     OW16987   6.322   6.153   5.741
 5363SOL    HW116988   6.381   6.143   5.661
 5363SOL    HW216989   6.350   6.233   5.794
 5364SOL     OW16990   6.118   0.223   1.402
 5364SOL    HW116991   6.109   0.297   1.469
 5364SOL    HW216992   6.069   0.142   1.435
 5365SOL     OW16993   3.707   3.166   1.861
 5365SOL    HW116994   3.755   3.153   1.948
 5365SOL    HW216995   3.609   3.151   1.874
 5366SOL     OW16996   5.900   6.415   1.042
 5366SOL    HW116997   5.832   6.388   0.974
 5366SOL    HW216998   5.920   6.338   1.102
 5367SOL     OW16999   0.305   6.970   1.700
 5367SOL    HW117000   0.269   0.011   1.628
 5367SOL    HW217001   0.390   7.008   1.735
 5368SOL     OW17002   5.880   0.142   2.591
 5368SOL    HW117003   5.817   0.215   2.619
 5368SOL    HW217004   5.967   0.152   2.640
 5369SOL     OW17005   2.449   6.662   0.850
 5369SOL    HW117006   2.458   6.567   0.879
 5369SOL    HW217007   2.360   6.675   0.805
 5370SOL     OW17008   4.581   3.517   0.750
 5370SOL    HW117009   4.671   3.550   0.722
 5370SOL    HW217010   4.583   3.418   0.760
 5371SOL     OW17011   1.101   4.674   5.750
 5371SOL    HW117012   1.198   4.698   5.739
 5371SOL    HW217013   1.095   4.581   5.789
 5372SOL     OW17014   1.077   6.046   2.943
 5372SOL    HW117015   0.983   6.062   2.915
 5372SOL    HW217016   1.107   6.121   3.002
 5373SOL     OW17017   4.044   5.912   5.213
 5373SOL    HW117018   4.036   5.860   5.298
 5373SOL    HW217019   4.071   6.006   5.233
 5374SOL     OW17020   2.044   4.994   0.901
 5374SOL    HW117021   2.087   4.985   0.991
 5374SOL    HW217022   1.985   4.914   0.884
 5375SOL     OW17023   0.335   5.782   5.139
 5375SOL    HW117024   0.310   5.786   5.042
 5375SOL    HW217025   0.419   5.729   5.149
 5376SOL     OW17026   1.347   2.482   1.650
 5376SOL    HW117027   1.299   2.545   1.711
 5376SOL    HW217028   1.347   2.519   1.557
 5377SOL     OW17029   0.636   0.466   2.373
 5377SOL    HW117030   0.538   0.483   2.360
 5377SOL    HW217031   0.649   0.400   2.447
 5378SOL     OW17032   6.802   6.840   2.744
 5378SOL    HW117033   6.895   6.841   2.781
 5378SOL    HW217034   6.750   6.916   2.782
 5379SOL     OW17035   1.050   3.670   4.821
 5379SOL    HW117036   1.004   3.595   4.869
 5379SOL    HW217037   1.080   3.639   4.731
 5380SOL     OW17038   3.257   6.928   1.811
 5380SOL    HW117039   3.297   6.853   1.864
 5380SOL    HW217040   3.180   6.967   1.862
 5381SOL     OW17041   6.531   5.980   1.998
 5381SOL    HW117042   6.532   6.069   2.043
 5381SOL    HW217043   6.572   5.988   1.907
 5382SOL     OW17044   3.063   1.968   2.126
 5382SOL    HW117045   3.147   1.962   2.180
 5382SOL    HW217046   2.988   1.928   2.179
 5383SOL     OW17047   1.872   3.198   4.665
 5383SOL    HW117048   1.850   3.133   4.738
 5383SOL    HW217049   1.962   3.239   4.681
 5384SOL     OW17050   5.188   0.012   5.025
 5384SOL    HW117051   5.203   6.986   4.936
 5384SOL    HW217052   5.202   6.965   5.098
 5385SOL     OW17053   4.060   3.400   5.304
 5385SOL    HW117054   3.996   3.467   5.341
 5385SOL    HW217055   4.144   3.447   5.276
 5386SOL     OW17056   4.847   1.656   3.734
 5386SOL    HW117057   4.829   1.697   3.823
 5386SOL    HW217058   4.786   1.697   3.666
 5387SOL     OW17059   2.300   6.642   2.637
 5387SOL    HW117060   2.254   6.641   2.726
 5387SOL    HW217061   2.335   6.550   2.617
 5388SOL     OW17062   0.737   0.860   3.307
 5388SOL    HW117063   0.655   0.863   3.364
 5388SOL    HW217064   0.816   0.836   3.364
 5389SOL     OW17065   4.153   1.229   3.488
 5389SOL    HW117066   4.106   1.174   3.419
 5389SOL    HW217067   4.184   1.170   3.562
 5390SOL     OW17068   5.539   3.770   3.476
 5390SOL    HW117069   5.543   3.675   3.506
 5390SOL    HW217070   5.506   3.774   3.381
 5391SOL     OW17071   2.178   1.640   0.564
 5391SOL    HW117072   2.255   1.695   0.533
 5391SOL    HW217073   2.159   1.660   0.660
 5392SOL     OW17074   5.890   3.677   1.084
 5392SOL    HW117075   5.840   3.723   1.158
 5392SOL    HW217076   5.840   3.596   1.056
 5393SOL     OW17077   4.351   0.710   5.103
 5393SOL    HW117078   4.373   0.638   5.169
 5393SOL    HW217079   4.280   0.769   5.141
 5394SOL     OW17080   0.270   5.922   1.502
 5394SOL    HW117081   0.339   5.852   1.483
 5394SOL    HW217082   0.180   5.878   1.512
 5395SOL     OW17083   4.949   0.239   1.065
 5395SOL    HW117084   4.931   0.236   1.164
 5395SOL    HW217085   4.924   0.328   1.029
 5396SOL     OW17086   5.543   4.894   1.191
 5396SOL    HW117087   5.536   4.816   1.128
 5396SOL    HW217088   5.492   4.972   1.154
 5397SOL     OW17089   0.478   2.175   1.129
 5397SOL    HW117090   0.411   2.108   1.096
 5397SOL    HW217091   0.552   2.127   1.176
 5398SOL     OW17092   3.288   2.009   3.971
 5398SOL    HW117093   3.276   1.939   4.042
 5398SOL    HW217094   3.202   2.058   3.957
 5399SOL     OW17095   2.735   6.432   6.473
 5399SOL    HW117096   2.740   6.504   6.543
 5399SOL    HW217097   2.793   6.457   6.395
 5400SOL     OW17098   2.724   3.456   6.604
 5400SOL    HW117099   2.791   3.505   6.548
 5400SOL    HW217100   2.692   3.516   6.677
 5401SOL     OW17101   5.860   4.319   2.263
 5401SOL    HW117102   5.931   4.262   2.221
 5401SOL    HW217103   5.891   4.350   2.353
 5402SOL     OW17104   3.036   6.057   1.197
 5402SOL    HW117105   3.093   6.037   1.117
 5402SOL    HW217106   2.954   6.001   1.195
 5403SOL     OW17107   4.905   3.169   6.128
 5403SOL    HW117108   4.929   3.249   6.073
 5403SOL    HW217109   4.806   3.167   6.143
 5404SOL     OW17110   0.905   0.944   2.132
 5404SOL    HW117111   0.822   0.932   2.079
 5404SOL    HW217112   0.891   0.909   2.225
 5405SOL     OW17113   5.740   4.794   0.212
 5405SOL    HW117114   5.717   4.790   0.309
 5405SOL    HW217115   5.827   4.843   0.200
 5406SOL     OW17116   1.580   0.432   5.154
 5406SOL    HW117117   1.672   0.404   5.182
 5406SOL    HW217118   1.577   0.442   5.054
 5407SOL     OW17119   3.333   2.057   1.372
 5407SOL    HW117120   3.261   2.006   1.325
 5407SOL    HW217121   3.311   2.155   1.370
 5408SOL     OW17122   4.003   0.262   4.848
 5408SOL    HW117123   4.061   0.332   4.807
 5408SOL    HW217124   4.053   0.175   4.852
 5409SOL     OW17125   6.851   1.857   3.099
 5409SOL    HW117126   6.780   1.807   3.050
 5409SOL    HW217127   6.938   1.847   3.051
 5410SOL     OW17128   0.785   2.535   6.311
 5410SOL    HW117129   0.793   2.634   6.318
 5410SOL    HW217130   0.862   2.491   6.357
 5411SOL     OW17131   5.337   5.324   6.023
 5411SOL    HW117132   5.399   5.283   6.090
 5411SOL    HW217133   5.298   5.408   6.060
 5412SOL     OW17134   3.503   1.586   6.941
 5412SOL    HW117135   3.450   1.567   0.005
 5412SOL    HW217136   3.474   1.524   6.868
 5413SOL     OW17137   0.092   0.347   6.718
 5413SOL    HW117138   0.008   0.298   6.742
 5413SOL    HW217139   0.119   0.326   6.625
 5414SOL     OW17140   6.061   4.372   5.074
 5414SOL    HW117141   6.022   4.290   5.031
 5414SOL    HW217142   6.012   4.391   5.159
 5415SOL     OW17143   2.013   6.824   1.450
 5415SOL    HW117144   2.105   6.857   1.468
 5415SOL    HW217145   2.017   6.747   1.386
 5416SOL     OW17146   2.801   4.976   5.174
 5416SOL    HW117147   2.777   4.932   5.087
 5416SOL    HW217148   2.798   4.908   5.247
 5417SOL     OW17149   4.348   6.728   4.761
 5417SOL    HW117150   4.351   6.792   4.684
 5417SOL    HW217151   4.271   6.751   4.820
 5418SOL     OW17152   5.566   6.761   4.925
 5418SOL    HW117153   5.556   6.673   4.879
 5418SOL    HW217154   5.626   6.820   4.871
 5419SOL     OW17155   3.302   5.688   0.711
 5419SOL    HW117156   3.256   5.720   0.794
 5419SOL    HW217157   3.240   5.631   0.658
 5420SOL     OW17158   2.123   2.687   1.611
 5420SOL    HW117159   2.153   2.605   1.563
 5420SOL    HW217160   2.023   2.686   1.619
 5421SOL     OW17161   3.078   5.285   2.942
 5421SOL    HW117162   3.020   5.205   2.958
 5421SOL    HW217163   3.159   5.258   2.890
 5422SOL     OW17164   0.433   5.115   4.013
 5422SOL    HW117165   0.430   5.017   3.996
 5422SOL    HW217166   0.509   5.156   3.963
 5423SOL     OW17167   5.716   4.766   0.489
 5423SOL    HW117168   5.812   4.758   0.518
 5423SOL    HW217169   5.675   4.675   0.485
 5424SOL     OW17170   5.786   4.279   4.576
 5424SOL    HW117171   5.800   4.250   4.481
 5424SOL    HW217172   5.795   4.199   4.637
 5425SOL     OW17173   5.260   2.202   4.925
 5425SOL    HW117174   5.229   2.297   4.930
 5425SOL    HW217175   5.347   2.197   4.875
 5426SOL     OW17176   6.078   6.003   2.800
 5426SOL    HW117177   6.124   5.945   2.732
 5426SOL    HW217178   5.979   5.996   2.788
 5427SOL     OW17179   5.298   3.818   0.129
 5427SOL    HW117180   5.227   3.871   0.083
 5427SOL    HW217181   5.382   3.872   0.135
 5428SOL     OW17182   5.543   6.964   2.229
 5428SOL    HW117183   5.559   6.998   2.321
 5428SOL    HW217184   5.580   0.011   2.163
 5429SOL     OW17185   2.548   0.728   6.302
 5429SOL    HW117186   2.501   0.663   6.361
 5429SOL    HW217187   2.614   0.680   6.245
 5430SOL     OW17188   2.070   2.729   5.718
 5430SOL    HW117189   2.078   2.821   5.681
 5430SOL    HW217190   2.159   2.683   5.712
 5431SOL     OW17191   3.125   4.210   6.530
 5431SOL    HW117192   3.123   4.135   6.464
 5431SOL    HW217193   3.119   4.297   6.482
 5432SOL     OW17194   3.946   5.107   6.544
 5432SOL    HW117195   3.852   5.106   6.513
 5432SOL    HW217196   3.972   5.016   6.575
 5433SOL     OW17197   1.046   1.203   2.733
 5433SOL    HW117198   1.069   1.106   2.726
 5433SOL    HW217199   0.989   1.229   2.655
 5434SOL     OW17200   4.034   0.572   4.214
 5434SOL    HW117201   3.999   0.558   4.121
 5434SOL    HW217202   4.124   0.614   4.209
 5435SOL     OW17203   6.303   2.327   0.696
 5435SOL    HW117204   6.340   2.282   0.777
 5435SOL    HW217205   6.375   2.340   0.628
 5436SOL     OW17206   5.802   4.390   3.476
 5436SOL    HW117207   5.843   4.470   3.519
 5436SOL    HW217208   5.715   4.414   3.434
 5437SOL     OW17209   2.640   5.528   4.947
 5437SOL    HW117210   2.730   5.565   4.927
 5437SOL    HW217211   2.580   5.601   4.981
 5438SOL     OW17212   5.802   2.984   2.167
 5438SOL    HW117213   5.743   2.941   2.098
 5438SOL    HW217214   5.771   2.958   2.258
 5439SOL     OW17215   0.497   2.269   0.269
 5439SOL    HW117216   0.496   2.366   0.295
 5439SOL    HW217217   0.441   2.257   0.187
 5440SOL     OW17218   6.610   6.581   3.560
 5440SOL    HW117219   6.677   6.567   3.487
 5440SOL    HW217220   6.639   6.531   3.642
 5441SOL     OW17221   4.836   3.188   3.600
 5441SOL    HW117222   4.742   3.198   3.632
 5441SOL    HW217223   4.895   3.254   3.647
 5442SOL     OW17224   3.852   6.948   2.748
 5442SOL    HW117225   3.799   6.984   2.671
 5442SOL    HW217226   3.929   6.895   2.713
 5443SOL     OW17227   3.730   5.311   3.661
 5443SOL    HW117228   3.689   5.395   3.696
 5443SOL    HW217229   3.672   5.271   3.590
 5444SOL     OW17230   0.377   1.067   3.189
 5444SOL    HW117231   0.454   1.005   3.174
 5444SOL    HW217232   0.337   1.048   3.279
 5445SOL     OW17233   6.433   4.170   3.916
 5445SOL    HW117234   6.526   4.170   3.952
 5445SOL    HW217235   6.403   4.264   3.900
 5446SOL     OW17236   5.795   5.314   4.623
 5446SOL    HW117237   5.760   5.226   4.653
 5446SOL    HW217238   5.880   5.335   4.672
 5447SOL     OW17239   1.826   1.483   0.399
 5447SOL    HW117240   1.832   1.567   0.453
 5447SOL    HW217241   1.732   1.470   0.367
 5448SOL     OW17242   4.751   4.754   4.036
 5448SOL    HW117243   4.822   4.820   4.011
 5448SOL    HW217244   4.668   4.803   4.065
 5449SOL     OW17245   2.135   1.765   0.838
 5449SOL    HW117246   2.100   1.855   0.864
 5449SOL    HW217247   2.232   1.772   0.814
 5450SOL     OW17248   3.390   0.444   1.177
 5450SOL    HW117249   3.411   0.443   1.079
 5450SOL    HW217250   3.474   0.442   1.230
 5451SOL     OW17251   2.506   6.357   3.560
 5451SOL    HW117252   2.543   6.449   3.550
 5451SOL    HW217253   2.490   6.339   3.657
 5452SOL     OW17254   2.429   4.016   0.778
 5452SOL    HW117255   2.345   3.976   0.814
 5452SOL    HW217256   2.446   3.983   0.685
 5453SOL     OW17257   5.475   4.467   2.561
 5453SOL    HW117258   5.380   4.475   2.591
 5453SOL    HW217259   5.480   4.486   2.463
 5454SOL     OW17260   4.999   5.684   0.145
 5454SOL    HW117261   5.091   5.718   0.162
 5454SOL    HW217262   4.997   5.633   0.059
 5455SOL     OW17263   0.070   2.704   3.414
 5455SOL    HW117264   0.133   2.780   3.403
 5455SOL    HW217265   0.117   2.628   3.459
 5456SOL     OW17266   3.312   0.692   6.917
 5456SOL    HW117267   3.222   0.678   6.877
 5456SOL    HW217268   3.311   0.662   7.013
 5457SOL     OW17269   6.447   1.844   1.409
 5457SOL    HW117270   6.377   1.891   1.355
 5457SOL    HW217271   6.404   1.800   1.488
 5458SOL     OW17272   0.244   5.387   0.061
 5458SOL    HW117273   0.185   5.462   0.032
 5458SOL    HW217274   0.293   5.351   7.000
 5459SOL     OW17275   2.469   3.984   5.984
 5459SOL    HW117276   2.476   3.988   5.884
 5459SOL    HW217277   2.372   3.984   6.010
 5460SOL     OW17278   3.671   0.167   2.831
 5460SOL    HW117279   3.733   0.090   2.823
 5460SOL    HW217280   3.704   0.244   2.776
 5461SOL     OW17281   0.311   0.111   4.951
 5461SOL    HW117282   0.291   0.014   4.944
 5461SOL    HW217283   0.297   0.142   5.045
 5462SOL     OW17284   5.676   6.481   6.885
 5462SOL    HW117285   5.744   6.414   6.854
 5462SOL    HW217286   5.676   6.559   6.822
 5463SOL     OW17287   0.412   1.956   0.214
 5463SOL    HW117288   0.483   2.020   0.245
 5463SOL    HW217289   0.452   1.866   0.200
 5464SOL     OW17290   5.955   6.713   4.966
 5464SOL    HW117291   5.947   6.747   5.060
 5464SOL    HW217292   6.039   6.660   4.956
 5465SOL     OW17293   5.418   0.277   3.823
 5465SOL    HW117294   5.461   0.192   3.852
 5465SOL    HW217295   5.380   0.325   3.902
 5466SOL     OW17296   5.197   2.670   5.798
 5466SOL    HW117297   5.229   2.762   5.780
 5466SOL    HW217298   5.183   2.657   5.896
 5467SOL     OW17299   5.753   3.894   3.546
 5467SOL    HW117300   5.666   3.848   3.530
 5467SOL    HW217301   5.751   3.985   3.504
 5468SOL     OW17302   5.990   2.246   4.916
 5468SOL    HW117303   5.949   2.305   4.847
 5468SOL    HW217304   5.921   2.181   4.949
 5469SOL     OW17305   3.445   6.050   5.486
 5469SOL    HW117306   3.496   6.132   5.511
 5469SOL    HW217307   3.347   6.067   5.499
 5470SOL     OW17308   3.465   5.544   3.545
 5470SOL    HW117309   3.476   5.496   3.632
 5470SOL    HW217310   3.409   5.489   3.483
 5471SOL     OW17311   6.344   0.594   3.635
 5471SOL    HW117312   6.311   0.663   3.699
 5471SOL    HW217313   6.368   0.510   3.686
 5472SOL     OW17314   2.763   3.753   6.312
 5472SOL    HW117315   2.731   3.679   6.253
 5472SOL    HW217316   2.830   3.717   6.377
 5473SOL     OW17317   1.876   3.364   1.219
 5473SOL    HW117318   1.972   3.387   1.235
 5473SOL    HW217319   1.870   3.295   1.147
 5474SOL     OW17320   1.118   4.674   4.726
 5474SOL    HW117321   1.097   4.627   4.812
 5474SOL    HW217322   1.033   4.702   4.682
 5475SOL     OW17323   1.642   2.531   1.213
 5475SOL    HW117324   1.547   2.507   1.233
 5475SOL    HW217325   1.700   2.503   1.289
 5476SOL     OW17326   2.389   4.422   4.831
 5476SOL    HW117327   2.327   4.344   4.820
 5476SOL    HW217328   2.342   4.505   4.801
 5477SOL     OW17329   2.255   4.047   2.539
 5477SOL    HW117330   2.177   3.997   2.575
 5477SOL    HW217331   2.286   4.114   2.607
 5478SOL     OW17332   3.787   6.590   5.373
 5478SOL    HW117333   3.842   6.670   5.351
 5478SOL    HW217334   3.796   6.569   5.470
 5479SOL     OW17335   5.569   1.997   5.601
 5479SOL    HW117336   5.603   2.064   5.666
 5479SOL    HW217337   5.471   2.013   5.584
 5480SOL     OW17338   5.832   5.566   4.084
 5480SOL    HW117339   5.834   5.605   3.992
 5480SOL    HW217340   5.749   5.595   4.131
 5481SOL     OW17341   4.522   0.905   4.443
 5481SOL    HW117342   4.509   0.889   4.541
 5481SOL    HW217343   4.546   0.819   4.398
 5482SOL     OW17344   3.813   3.913   1.528
 5482SOL    HW117345   3.851   3.952   1.612
 5482SOL    HW217346   3.763   3.829   1.551
 5483SOL     OW17347   0.192   2.644   5.354
 5483SOL    HW117348   0.227   2.715   5.293
 5483SOL    HW217349   0.235   2.557   5.332
 5484SOL     OW17350   4.877   0.722   3.399
 5484SOL    HW117351   4.860   0.647   3.463
 5484SOL    HW217352   4.797   0.782   3.395
 5485SOL     OW17353   3.809   0.061   5.240
 5485SOL    HW117354   3.767   0.021   5.322
 5485SOL    HW217355   3.739   0.075   5.170
 5486SOL     OW17356   1.707   5.402   5.453
 5486SOL    HW117357   1.729   5.493   5.418
 5486SOL    HW217358   1.683   5.342   5.377
 5487SOL     OW17359   5.361   3.230   6.475
 5487SOL    HW117360   5.336   3.304   6.538
 5487SOL    HW217361   5.345   3.142   6.518
 5488SOL     OW17362   6.213   0.885   0.979
 5488SOL    HW117363   6.271   0.809   0.949
 5488SOL    HW217364   6.124   0.878   0.934
 5489SOL     OW17365   0.882   4.269   0.925
 5489SOL    HW117366   0.814   4.280   0.998
 5489SOL    HW217367   0.973   4.277   0.964
 5490SOL     OW17368   2.942   0.082   0.657
 5490SOL    HW117369   2.929   0.129   0.569
 5490SOL    HW217370   2.853   0.061   0.697
 5491SOL     OW17371   2.046   4.149   0.861
 5491SOL    HW117372   2.019   4.245   0.863
 5491SOL    HW217373   2.020   4.110   0.772
 5492SOL     OW17374   0.389   2.455   5.957
 5492SOL    HW117375   0.366   2.505   5.874
 5492SOL    HW217376   0.487   2.435   5.958
 5493SOL     OW17377   3.791   3.889   4.006
 5493SOL    HW117378   3.870   3.833   3.982
 5493SOL    HW217379   3.814   3.949   4.083
 5494SOL     OW17380   6.488   2.413   6.005
 5494SOL    HW117381   6.541   2.429   6.088
 5494SOL    HW217382   6.436   2.328   6.015
 5495SOL     OW17383   3.573   1.828   0.750
 5495SOL    HW117384   3.645   1.825   0.681
 5495SOL    HW217385   3.593   1.901   0.816
 5496SOL     OW17386   3.482   0.155   3.362
 5496SOL    HW117387   3.502   0.121   3.454
 5496SOL    HW217388   3.564   0.154   3.306
 5497SOL     OW17389   0.482   1.774   4.319
 5497SOL    HW117390   0.428   1.841   4.267
 5497SOL    HW217391   0.549   1.731   4.258
 5498SOL     OW17392   5.951   6.198   0.694
 5498SOL    HW117393   6.003   6.187   0.609
 5498SOL    HW217394   5.881   6.268   0.681
 5499SOL     OW17395   0.449   0.587   4.700
 5499SOL    HW117396   0.526   0.576   4.637
 5499SOL    HW217397   0.458   0.522   4.776
 5500SOL     OW17398   0.978   0.765   0.370
 5500SOL    HW117399   1.071   0.747   0.340
 5500SOL    HW217400   0.976   0.848   0.425
 5501SOL     OW17401   3.872   6.580   0.211
 5501SOL    HW117402   3.904   6.569   0.305
 5501SOL    HW217403   3.887   6.674   0.182
 5502SOL     OW17404   5.555   3.466   0.427
 5502SOL    HW117405   5.465   3.424   0.424
 5502SOL    HW217406   5.573   3.513   0.341
 5503SOL     OW17407   0.910   4.918   2.605
 5503SOL    HW117408   0.859   4.870   2.677
 5503SOL    HW217409   0.998   4.949   2.642
 5504SOL     OW17410   3.597   1.009   5.460
 5504SOL    HW117411   3.528   1.052   5.518
 5504SOL    HW217412   3.667   0.967   5.517
 5505SOL     OW17413   1.451   5.236   4.340
 5505SOL    HW117414   1.454   5.236   4.240
 5505SOL    HW217415   1.392   5.309   4.372
 5506SOL     OW17416   1.010   2.441   6.446
 5506SOL    HW117417   1.108   2.460   6.448
 5506SOL    HW217418   0.994   2.348   6.480
 5507SOL     OW17419   3.228   0.470   3.937
 5507SOL    HW117420   3.247   0.383   3.893
 5507SOL    HW217421   3.301   0.535   3.917
 5508SOL     OW17422   1.357   0.856   6.094
 5508SOL    HW117423   1.322   0.925   6.031
 5508SOL    HW217424   1.382   0.899   6.180
 5509SOL     OW17425   0.342   6.464   7.018
 5509SOL    HW117426   0.338   6.440   0.097
 5509SOL    HW217427   0.431   6.504   6.998
 5510SOL     OW17428   5.454   5.451   0.757
 5510SOL    HW117429   5.415   5.466   0.848
 5510SOL    HW217430   5.507   5.367   0.756
 5511SOL     OW17431   1.686   1.400   4.076
 5511SOL    HW117432   1.650   1.308   4.061
 5511SOL    HW217433   1.771   1.394   4.130
 5512SOL     OW17434   5.659   1.921   1.437
 5512SOL    HW117435   5.675   1.822   1.445
 5512SOL    HW217436   5.562   1.940   1.450
 5513SOL     OW17437   4.433   4.766   6.910
 5513SOL    HW117438   4.353   4.710   6.888
 5513SOL    HW217439   4.506   4.707   6.945
 5514SOL     OW17440   4.322   6.660   4.017
 5514SOL    HW117441   4.291   6.690   3.927
 5514SOL    HW217442   4.247   6.615   4.065
 5515SOL     OW17443   0.457   5.446   1.745
 5515SOL    HW117444   0.459   5.429   1.647
 5515SOL    HW217445   0.393   5.519   1.766
 5516SOL     OW17446   1.859   4.412   6.492
 5516SOL    HW117447   1.881   4.497   6.444
 5516SOL    HW217448   1.870   4.335   6.429
 5517SOL     OW17449   1.975   3.253   2.342
 5517SOL    HW117450   2.014   3.330   2.293
 5517SOL    HW217451   1.876   3.256   2.337
 5518SOL     OW17452   5.939   5.982   6.236
 5518SOL    HW117453   5.958   5.890   6.202
 5518SOL    HW217454   6.007   6.006   6.306
 5519SOL     OW17455   5.934   3.655   3.169
 5519SOL    HW117456   5.898   3.564   3.151
 5519SOL    HW217457   5.905   3.717   3.095
 5520SOL     OW17458   5.705   5.855   1.743
 5520SOL    HW117459   5.615   5.863   1.701
 5520SOL    HW217460   5.763   5.931   1.715
 5521SOL     OW17461   5.337   6.823   1.468
 5521SOL    HW117462   5.400   6.780   1.404
 5521SOL    HW217463   5.326   6.765   1.549
 5522SOL     OW17464   0.331   5.383   0.320
 5522SOL    HW117465   0.296   5.402   0.228
 5522SOL    HW217466   0.335   5.285   0.335
 5523SOL     OW17467   3.595   0.596   2.194
 5523SOL    HW117468   3.694   0.598   2.209
 5523SOL    HW217469   3.574   0.534   2.118
 5524SOL     OW17470   5.318   6.521   5.315
 5524SOL    HW117471   5.382   6.581   5.363
 5524SOL    HW217472   5.318   6.431   5.358
 5525SOL     OW17473   0.711   2.189   0.929
 5525SOL    HW117474   0.726   2.159   1.023
 5525SOL    HW217475   0.642   2.131   0.886
 5526SOL     OW17476   4.969   5.297   3.539
 5526SOL    HW117477   4.896   5.240   3.502
 5526SOL    HW217478   5.058   5.256   3.516
 5527SOL     OW17479   5.396   3.977   4.062
 5527SOL    HW117480   5.436   4.040   3.995
 5527SOL    HW217481   5.465   3.910   4.090
 5528SOL     OW17482   1.424   1.145   6.308
 5528SOL    HW117483   1.394   1.177   6.398
 5528SOL    HW217484   1.470   1.056   6.318
 5529SOL     OW17485   3.045   0.090   3.409
 5529SOL    HW117486   3.125   0.075   3.351
 5529SOL    HW217487   3.063   0.164   3.473
 5530SOL     OW17488   5.765   2.277   1.901
 5530SOL    HW117489   5.828   2.346   1.937
 5530SOL    HW217490   5.690   2.264   1.965
 5531SOL     OW17491   3.038   3.149   2.364
 5531SOL    HW117492   2.995   3.115   2.280
 5531SOL    HW217493   3.112   3.087   2.391
 5532SOL     OW17494   1.192   2.932   0.389
 5532SOL    HW117495   1.243   2.856   0.428
 5532SOL    HW217496   1.215   2.942   0.292
 5533SOL     OW17497   3.861   1.347   3.130
 5533SOL    HW117498   3.916   1.381   3.054
 5533SOL    HW217499   3.882   1.398   3.213
 5534SOL     OW17500   0.726   1.402   6.100
 5534SOL    HW117501   0.820   1.420   6.125
 5534SOL    HW217502   0.675   1.370   6.181
 5535SOL     OW17503   6.828   2.972   3.046
 5535SOL    HW117504   6.730   2.965   3.030
 5535SOL    HW217505   6.858   2.895   3.101
 5536SOL     OW17506   3.191   0.902   4.225
 5536SOL    HW117507   3.129   0.971   4.261
 5536SOL    HW217508   3.282   0.915   4.264
 5537SOL     OW17509   2.890   0.596   2.138
 5537SOL    HW117510   2.961   0.630   2.199
 5537SOL    HW217511   2.921   0.513   2.092
 5538SOL     OW17512   2.002   6.274   5.980
 5538SOL    HW117513   2.010   6.180   5.947
 5538SOL    HW217514   2.089   6.322   5.967
 5539SOL     OW17515   1.725   3.095   1.339
 5539SOL    HW117516   1.655   3.110   1.269
 5539SOL    HW217517   1.813   3.076   1.295
 5540SOL     OW17518   5.218   4.011   3.704
 5540SOL    HW117519   5.296   4.071   3.686
 5540SOL    HW217520   5.243   3.916   3.685
 5541SOL     OW17521   6.160   0.082   6.373
 5541SOL    HW117522   6.086   0.148   6.382
 5541SOL    HW217523   6.188   0.076   6.277
 5542SOL     OW17524   5.498   3.471   5.716
 5542SOL    HW117525   5.518   3.492   5.620
 5542SOL    HW217526   5.426   3.402   5.720
 5543SOL     OW17527   3.866   4.962   5.466
 5543SOL    HW117528   3.944   4.952   5.527
 5543SOL    HW217529   3.808   5.037   5.499
 5544SOL     OW17530   5.447   6.168   6.558
 5544SOL    HW117531   5.521   6.231   6.533
 5544SOL    HW217532   5.464   6.132   6.650
 5545SOL     OW17533   3.779   1.453   1.606
 5545SOL    HW117534   3.789   1.429   1.703
 5545SOL    HW217535   3.701   1.403   1.568
 5546SOL     OW17536   1.089   4.955   4.810
 5546SOL    HW117537   1.061   4.861   4.828
 5546SOL    HW217538   1.053   4.984   4.721
 5547SOL     OW17539   2.375   0.356   4.727
 5547SOL    HW117540   2.404   0.306   4.808
 5547SOL    HW217541   2.332   0.293   4.662
 5548SOL     OW17542   5.267   3.078   5.393
 5548SOL    HW117543   5.232   3.116   5.307
 5548SOL    HW217544   5.191   3.040   5.446
 5549SOL     OW17545   3.959   3.627   6.433
 5549SOL    HW117546   3.871   3.650   6.391
 5549SOL    HW217547   3.966   3.671   6.523
 5550SOL     OW17548   2.294   4.271   2.023
 5550SOL    HW117549   2.242   4.185   2.022
 5550SOL    HW217550   2.330   4.289   1.932
 5551SOL     OW17551   2.178   0.167   3.460
 5551SOL    HW117552   2.146   0.102   3.390
 5551SOL    HW217553   2.275   0.152   3.476
 5552SOL     OW17554   6.716   0.588   6.771
 5552SOL    HW117555   6.759   0.605   6.682
 5552SOL    HW217556   6.787   0.576   6.840
 5553SOL     OW17557   4.890   6.490   0.060
 5553SOL    HW117558   4.903   6.567   7.017
 5553SOL    HW217559   4.864   6.409   0.007
 5554SOL     OW17560   3.869   2.052   5.568
 5554SOL    HW117561   3.796   2.105   5.526
 5554SOL    HW217562   3.832   1.999   5.645
 5555SOL     OW17563   1.961   4.577   4.435
 5555SOL    HW117564   2.035   4.643   4.423
 5555SOL    HW217565   1.919   4.591   4.525
 5556SOL     OW17566   6.628   2.048   3.735
 5556SOL    HW117567   6.543   2.100   3.741
 5556SOL    HW217568   6.609   1.951   3.750
 5557SOL     OW17569   3.702   6.370   2.681
 5557SOL    HW117570   3.736   6.407   2.768
 5557SOL    HW217571   3.656   6.283   2.699
 5558SOL     OW17572   4.655   3.244   6.337
 5558SOL    HW117573   4.726   3.218   6.403
 5558SOL    HW217574   4.681   3.329   6.292
 5559SOL     OW17575   3.018   0.348   2.058
 5559SOL    HW117576   3.114   0.335   2.086
 5559SOL    HW217577   2.991   0.274   1.997
 5560SOL     OW17578   1.038   6.729   3.723
 5560SOL    HW117579   0.977   6.723   3.643
 5560SOL    HW217580   1.021   6.815   3.772
 5561SOL     OW17581   1.747   2.497   4.218
 5561SOL    HW117582   1.658   2.520   4.177
 5561SOL    HW217583   1.770   2.402   4.195
 5562SOL     OW17584   2.896   2.087   6.736
 5562SOL    HW117585   2.849   2.030   6.803
 5562SOL    HW217586   2.913   2.177   6.774
 5563SOL     OW17587   4.293   5.455   2.637
 5563SOL    HW117588   4.389   5.461   2.610
 5563SOL    HW217589   4.286   5.414   2.728
 5564SOL     OW17590   4.759   0.981   2.061
 5564SOL    HW117591   4.748   1.036   1.978
 5564SOL    HW217592   4.699   0.901   2.055
 5565SOL     OW17593   4.792   2.045   6.969
 5565SOL    HW117594   4.833   2.055   6.878
 5565SOL    HW217595   4.761   2.134   7.001
 5566SOL     OW17596   2.010   5.865   0.108
 5566SOL    HW117597   2.037   5.922   0.185
 5566SOL    HW217598   2.015   5.918   0.023
 5567SOL     OW17599   0.105   4.394   2.030
 5567SOL    HW117600   0.092   4.302   2.068
 5567SOL    HW217601   0.111   4.389   1.931
 5568SOL     OW17602   4.177   2.272   3.161
 5568SOL    HW117603   4.140   2.365   3.158
 5568SOL    HW217604   4.103   2.207   3.181
 5569SOL     OW17605   2.650   1.649   2.722
 5569SOL    HW117606   2.620   1.590   2.647
 5569SOL    HW217607   2.576   1.710   2.748
 5570SOL     OW17608   6.020   4.965   5.202
 5570SOL    HW117609   6.001   5.063   5.199
 5570SOL    HW217610   5.959   4.917   5.139
 5571SOL     OW17611   0.378   6.376   0.834
 5571SOL    HW117612   0.331   6.461   0.858
 5571SOL    HW217613   0.324   6.298   0.864
 5572SOL     OW17614   1.238   2.545   4.633
 5572SOL    HW117615   1.144   2.564   4.605
 5572SOL    HW217616   1.259   2.598   4.715
 5573SOL     OW17617   2.035   3.332   6.908
 5573SOL    HW117618   2.072   3.247   6.869
 5573SOL    HW217619   2.002   3.314   7.000
 5574SOL     OW17620   6.357   1.916   3.635
 5574SOL    HW117621   6.341   1.823   3.671
 5574SOL    HW217622   6.282   1.940   3.573
 5575SOL     OW17623   6.984   1.530   1.332
 5575SOL    HW117624   6.982   1.599   1.404
 5575SOL    HW217625   0.059   1.513   1.304
 5576SOL     OW17626   0.874   6.387   2.019
 5576SOL    HW117627   0.863   6.389   1.919
 5576SOL    HW217628   0.943   6.455   2.045
 5577SOL     OW17629   2.888   2.776   5.904
 5577SOL    HW117630   2.826   2.720   5.959
 5577SOL    HW217631   2.854   2.782   5.811
 5578SOL     OW17632   4.025   4.207   0.487
 5578SOL    HW117633   4.092   4.231   0.417
 5578SOL    HW217634   3.948   4.159   0.444
 5579SOL     OW17635   6.859   3.783   6.312
 5579SOL    HW117636   6.897   3.768   6.403
 5579SOL    HW217637   6.764   3.750   6.310
 5580SOL     OW17638   4.123   2.586   5.832
 5580SOL    HW117639   4.025   2.590   5.815
 5580SOL    HW217640   4.161   2.679   5.834
 5581SOL     OW17641   2.402   6.542   1.926
 5581SOL    HW117642   2.319   6.592   1.903
 5581SOL    HW217643   2.481   6.601   1.912
 5582SOL     OW17644   3.814   3.421   3.565
 5582SOL    HW117645   3.824   3.447   3.469
 5582SOL    HW217646   3.883   3.468   3.620
 5583SOL     OW17647   4.543   0.009   2.587
 5583SOL    HW117648   4.494   6.942   2.603
 5583SOL    HW217649   4.479   0.079   2.555
 5584SOL     OW17650   5.448   4.312   4.466
 5584SOL    HW117651   5.419   4.244   4.398
 5584SOL    HW217652   5.493   4.388   4.420
 5585SOL     OW17653   4.473   6.500   4.215
 5585SOL    HW117654   4.417   6.420   4.238
 5585SOL    HW217655   4.417   6.566   4.165
 5586SOL     OW17656   0.800   2.262   6.709
 5586SOL    HW117657   0.768   2.215   6.791
 5586SOL    HW217658   0.767   2.213   6.628
 5587SOL     OW17659   4.260   6.186   2.568
 5587SOL    HW117660   4.333   6.204   2.502
 5587SOL    HW217661   4.204   6.110   2.536
 5588SOL     OW17662   1.672   0.064   3.286
 5588SOL    HW117663   1.580   0.097   3.308
 5588SOL    HW217664   1.734   0.142   3.278
 5589SOL     OW17665   5.967   2.598   6.902
 5589SOL    HW117666   6.001   2.551   6.821
 5589SOL    HW217667   6.011   2.560   6.984
 5590SOL     OW17668   6.790   5.821   3.141
 5590SOL    HW117669   6.725   5.831   3.066
 5590SOL    HW217670   6.788   5.726   3.175
 5591SOL     OW17671   5.900   1.159   6.404
 5591SOL    HW117672   5.950   1.208   6.333
 5591SOL    HW217673   5.852   1.224   6.463
 5592SOL     OW17674   1.242   3.988   2.953
 5592SOL    HW117675   1.225   3.948   2.863
 5592SOL    HW217676   1.287   3.922   3.012
 5593SOL     OW17677   6.376   2.158   5.638
 5593SOL    HW117678   6.282   2.173   5.666
 5593SOL    HW217679   6.435   2.227   5.679
 5594SOL     OW17680   2.397   1.157   6.534
 5594SOL    HW117681   2.419   1.212   6.615
 5594SOL    HW217682   2.378   1.063   6.562
 5595SOL     OW17683   6.472   0.838   5.053
 5595SOL    HW117684   6.523   0.907   5.004
 5595SOL    HW217685   6.527   0.755   5.061
 5596SOL     OW17686   5.191   0.489   2.419
 5596SOL    HW117687   5.269   0.529   2.466
 5596SOL    HW217688   5.109   0.544   2.436
 5597SOL     OW17689   5.531   1.776   5.281
 5597SOL    HW117690   5.520   1.733   5.192
 5597SOL    HW217691   5.587   1.858   5.272
 5598SOL     OW17692   5.514   2.348   3.889
 5598SOL    HW117693   5.431   2.325   3.838
 5598SOL    HW217694   5.532   2.446   3.882
 5599SOL     OW17695   6.611   3.062   2.063
 5599SOL    HW117696   6.563   3.064   1.975
 5599SOL    HW217697   6.651   2.971   2.077
 5600SOL     OW17698   1.940   0.459   2.104
 5600SOL    HW117699   1.844   0.453   2.079
 5600SOL    HW217700   1.950   0.517   2.185
 5601SOL     OW17701   3.705   1.472   6.550
 5601SOL    HW117702   3.676   1.546   6.490
 5601SOL    HW217703   3.785   1.501   6.602
 5602SOL     OW17704   0.729   0.753   2.906
 5602SOL    HW117705   0.674   0.721   2.983
 5602SOL    HW217706   0.728   0.853   2.902
 5603SOL     OW17707   5.277   2.292   5.879
 5603SOL    HW117708   5.202   2.345   5.839
 5603SOL    HW217709   5.240   2.213   5.927
 5604SOL     OW17710   0.193   2.311   4.828
 5604SOL    HW117711   0.120   2.261   4.781
 5604SOL    HW217712   0.177   2.409   4.820
 5605SOL     OW17713   1.631   6.592   4.499
 5605SOL    HW117714   1.651   6.537   4.580
 5605SOL    HW217715   1.661   6.686   4.515
 5606SOL     OW17716   4.584   0.828   0.519
 5606SOL    HW117717   4.632   0.910   0.489
 5606SOL    HW217718   4.599   0.754   0.453
 5607SOL     OW17719   5.383   1.812   3.559
 5607SOL    HW117720   5.372   1.910   3.544
 5607SOL    HW217721   5.385   1.794   3.657
 5608SOL     OW17722   5.867   1.466   3.391
 5608SOL    HW117723   5.767   1.468   3.397
 5608SOL    HW217724   5.904   1.553   3.422
 5609SOL     OW17725   4.701   5.786   0.931
 5609SOL    HW117726   4.793   5.748   0.937
 5609SOL    HW217727   4.706   5.883   0.906
 5610SOL     OW17728   5.783   3.902   1.625
 5610SOL    HW117729   5.791   3.933   1.530
 5610SOL    HW217730   5.688   3.913   1.655
 5611SOL     OW17731   0.648   5.098   2.255
 5611SOL    HW117732   0.626   5.181   2.204
 5611SOL    HW217733   0.569   5.073   2.311
 5612SOL     OW17734   3.411   2.841   0.512
 5612SOL    HW117735   3.457   2.923   0.543
 5612SOL    HW217736   3.315   2.862   0.492
 5613SOL     OW17737   6.494   4.878   5.415
 5613SOL    HW117738   6.509   4.911   5.322
 5613SOL    HW217739   6.576   4.830   5.447
 5614SOL     OW17740   5.816   3.172   4.888
 5614SOL    HW117741   5.852   3.217   4.970
 5614SOL    HW217742   5.891   3.154   4.824
 5615SOL     OW17743   0.011   1.492   3.282
 5615SOL    HW117744   0.015   1.581   3.328
 5615SOL    HW217745   0.039   1.502   3.187
 5616SOL     OW17746   2.220   2.821   4.820
 5616SOL    HW117747   2.202   2.914   4.852
 5616SOL    HW217748   2.264   2.768   4.893
 5617SOL     OW17749   1.586   3.676   5.029
 5617SOL    HW117750   1.653   3.717   5.091
 5617SOL    HW217751   1.523   3.746   4.997
 5618SOL     OW17752   6.878   4.601   3.556
 5618SOL    HW117753   6.816   4.523   3.557
 5618SOL    HW217754   6.878   4.644   3.646
 5619SOL     OW17755   3.238   3.739   3.280
 5619SOL    HW117756   3.176   3.662   3.294
 5619SOL    HW217757   3.279   3.765   3.367
 5620SOL     OW17758   4.790   3.724   6.402
 5620SOL    HW117759   4.885   3.753   6.412
 5620SOL    HW217760   4.729   3.799   6.428
 5621SOL     OW17761   1.473   3.341   6.269
 5621SOL    HW117762   1.408   3.325   6.195
 5621SOL    HW217763   1.443   3.420   6.323
 5622SOL     OW17764   4.856   6.571   5.984
 5622SOL    HW117765   4.872   6.474   5.967
 5622SOL    HW217766   4.911   6.625   5.919
 5623SOL     OW17767   4.584   6.333   4.805
 5623SOL    HW117768   4.567   6.377   4.717
 5623SOL    HW217769   4.635   6.248   4.791
 5624SOL     OW17770   0.405   5.051   3.599
 5624SOL    HW117771   0.470   5.002   3.542
 5624SOL    HW217772   0.453   5.094   3.676
 5625SOL     OW17773   0.108   4.926   5.582
 5625SOL    HW117774   0.139   4.942   5.489
 5625SOL    HW217775   0.020   4.972   5.597
 5626SOL     OW17776   2.505   5.645   3.914
 5626SOL    HW117777   2.539   5.608   4.000
 5626SOL    HW217778   2.538   5.739   3.902
 5627SOL     OW17779   0.268   5.109   6.022
 5627SOL    HW117780   0.302   5.201   6.003
 5627SOL    HW217781   0.282   5.051   5.941
 5628SOL     OW17782   2.397   2.314   1.376
 5628SOL    HW117783   2.438   2.236   1.328
 5628SOL    HW217784   2.437   2.322   1.467
 5629SOL     OW17785   5.201   2.811   1.961
 5629SOL    HW117786   5.132   2.773   1.899
 5629SOL    HW217787   5.160   2.887   2.013
 5630SOL     OW17788   1.842   4.222   6.690
 5630SOL    HW117789   1.840   4.285   6.767
 5630SOL    HW217790   1.815   4.271   6.607
 5631SOL     OW17791   5.540   1.246   0.741
 5631SOL    HW117792   5.608   1.218   0.809
 5631SOL    HW217793   5.462   1.184   0.745
 5632SOL     OW17794   4.028   1.870   5.321
 5632SOL    HW117795   3.966   1.881   5.398
 5632SOL    HW217796   3.976   1.850   5.238
 5633SOL     OW17797   5.970   4.648   4.760
 5633SOL    HW117798   5.913   4.602   4.827
 5633SOL    HW217799   5.951   4.611   4.669
 5634SOL     OW17800   2.146   4.967   3.703
 5634SOL    HW117801   2.165   4.914   3.786
 5634SOL    HW217802   2.224   4.959   3.641
 5635SOL     OW17803   2.186   6.356   6.482
 5635SOL    HW117804   2.221   6.272   6.441
 5635SOL    HW217805   2.107   6.389   6.430
 5636SOL     OW17806   6.114   0.686   5.323
 5636SOL    HW117807   6.124   0.591   5.293
 5636SOL    HW217808   6.093   0.743   5.243
 5637SOL     OW17809   3.449   6.891   3.749
 5637SOL    HW117810   3.381   6.830   3.708
 5637SOL    HW217811   3.528   6.838   3.779
 5638SOL     OW17812   6.228   4.670   1.132
 5638SOL    HW117813   6.138   4.630   1.148
 5638SOL    HW217814   6.256   4.653   1.038
 5639SOL     OW17815   2.706   0.481   1.771
 5639SOL    HW117816   2.763   0.542   1.715
 5639SOL    HW217817   2.616   0.472   1.729
 5640SOL     OW17818   2.808   0.468   2.661
 5640SOL    HW117819   2.803   0.560   2.699
 5640SOL    HW217820   2.804   0.401   2.736
 5641SOL     OW17821   0.148   4.733   6.124
 5641SOL    HW117822   0.184   4.644   6.097
 5641SOL    HW217823   0.204   4.805   6.083
 5642SOL     OW17824   0.971   5.319   5.243
 5642SOL    HW117825   1.000   5.387   5.311
 5642SOL    HW217826   1.006   5.345   5.153
 5643SOL     OW17827   3.434   0.903   4.324
 5643SOL    HW117828   3.448   0.811   4.362
 5643SOL    HW217829   3.515   0.959   4.342
 5644SOL     OW17830   3.664   0.479   4.023
 5644SOL    HW117831   3.591   0.546   4.008
 5644SOL    HW217832   3.654   0.437   4.113
 5645SOL     OW17833   6.178   4.484   3.102
 5645SOL    HW117834   6.137   4.420   3.038
 5645SOL    HW217835   6.145   4.465   3.194
 5646SOL     OW17836   1.336   6.045   3.155
 5646SOL    HW117837   1.408   6.070   3.090
 5646SOL    HW217838   1.284   5.967   3.119
 5647SOL     OW17839   5.923   6.687   0.386
 5647SOL    HW117840   5.836   6.637   0.388
 5647SOL    HW217841   5.977   6.663   0.466
 5648SOL     OW17842   2.119   1.360   3.157
 5648SOL    HW117843   2.131   1.268   3.194
 5648SOL    HW217844   2.066   1.415   3.222
 5649SOL     OW17845   6.557   6.964   5.406
 5649SOL    HW117846   6.597   6.997   5.320
 5649SOL    HW217847   6.465   6.928   5.388
 5650SOL     OW17848   0.693   5.994   1.220
 5650SOL    HW117849   0.775   5.936   1.222
 5650SOL    HW217850   0.648   5.991   1.309
 5651SOL     OW17851   0.385   1.057   1.694
 5651SOL    HW117852   0.297   1.095   1.723
 5651SOL    HW217853   0.414   0.986   1.759
 5652SOL     OW17854   6.019   6.567   1.733
 5652SOL    HW117855   5.960   6.586   1.811
 5652SOL    HW217856   6.056   6.654   1.697
 5653SOL     OW17857   0.698   6.019   6.473
 5653SOL    HW117858   0.658   6.039   6.563
 5653SOL    HW217859   0.625   5.997   6.409
 5654SOL     OW17860   6.267   6.592   5.683
 5654SOL    HW117861   6.295   6.505   5.724
 5654SOL    HW217862   6.290   6.667   5.744
 5655SOL     OW17863   1.440   3.207   4.932
 5655SOL    HW117864   1.529   3.235   4.895
 5655SOL    HW217865   1.406   3.279   4.992
 5656SOL     OW17866   0.695   3.017   0.706
 5656SOL    HW117867   0.783   3.049   0.670
 5656SOL    HW217868   0.623   3.079   0.676
 5657SOL     OW17869   5.634   0.519   0.490
 5657SOL    HW117870   5.609   0.440   0.434
 5657SOL    HW217871   5.575   0.596   0.468
 5658SOL     OW17872   3.349   5.503   6.127
 5658SOL    HW117873   3.431   5.561   6.124
 5658SOL    HW217874   3.350   5.441   6.048
 5659SOL     OW17875   4.032   3.594   3.506
 5659SOL    HW117876   4.082   3.607   3.421
 5659SOL    HW217877   4.047   3.673   3.566
 5660SOL     OW17878   5.652   0.073   5.237
 5660SOL    HW117879   5.625   0.047   5.145
 5660SOL    HW217880   5.583   0.042   5.303
 5661SOL     OW17881   1.074   4.264   5.122
 5661SOL    HW117882   1.066   4.320   5.205
 5661SOL    HW217883   1.104   4.322   5.046
 5662SOL     OW17884   2.832   5.558   3.555
 5662SOL    HW117885   2.756   5.570   3.619
 5662SOL    HW217886   2.918   5.552   3.606
 5663SOL     OW17887   2.125   2.902   6.559
 5663SOL    HW117888   2.155   2.943   6.473
 5663SOL    HW217889   2.174   2.943   6.635
 5664SOL     OW17890   6.978   4.099   5.052
 5664SOL    HW117891   6.916   4.115   5.129
 5664SOL    HW217892   6.977   4.179   4.991
 5665SOL     OW17893   1.527   2.329   6.666
 5665SOL    HW117894   1.431   2.298   6.665
 5665SOL    HW217895   1.573   2.296   6.583
 5666SOL     OW17896   5.848   5.820   1.363
 5666SOL    HW117897   5.798   5.904   1.342
 5666SOL    HW217898   5.810   5.777   1.445
 5667SOL     OW17899   0.876   4.384   3.448
 5667SOL    HW117900   0.864   4.483   3.449
 5667SOL    HW217901   0.973   4.362   3.438
 5668SOL     OW17902   4.627   1.945   5.303
 5668SOL    HW117903   4.665   2.011   5.237
 5668SOL    HW217904   4.688   1.939   5.382
 5669SOL     OW17905   0.591   2.734   0.032
 5669SOL    HW117906   0.669   2.738   6.988
 5669SOL    HW217907   0.522   2.671   7.014
 5670SOL     OW17908   6.480   3.050   3.895
 5670SOL    HW117909   6.491   3.145   3.926
 5670SOL    HW217910   6.408   3.006   3.949
 5671SOL     OW17911   0.729   5.658   6.886
 5671SOL    HW117912   0.735   5.558   6.892
 5671SOL    HW217913   0.644   5.689   6.928
 5672SOL     OW17914   4.232   4.790   6.450
 5672SOL    HW117915   4.294   4.795   6.529
 5672SOL    HW217916   4.198   4.697   6.441
 5673SOL     OW17917   1.086   6.564   2.049
 5673SOL    HW117918   1.088   6.589   2.146
 5673SOL    HW217919   1.086   6.647   1.993
 5674SOL     OW17920   6.796   4.624   4.819
 5674SOL    HW117921   6.700   4.616   4.847
 5674SOL    HW217922   6.800   4.637   4.720
 5675SOL     OW17923   4.640   2.100   5.599
 5675SOL    HW117924   4.607   2.186   5.561
 5675SOL    HW217925   4.716   2.118   5.661
 5676SOL     OW17926   2.530   2.474   2.254
 5676SOL    HW117927   2.463   2.548   2.249
 5676SOL    HW217928   2.589   2.489   2.334
 5677SOL     OW17929   0.696   1.380   3.109
 5677SOL    HW117930   0.720   1.458   3.167
 5677SOL    HW217931   0.774   1.357   3.051
 5678SOL     OW17932   3.334   6.267   2.974
 5678SOL    HW117933   3.389   6.206   3.031
 5678SOL    HW217934   3.363   6.362   2.987
 5679SOL     OW17935   1.030   1.112   4.197
 5679SOL    HW117936   1.129   1.096   4.196
 5679SOL    HW217937   1.009   1.194   4.144
 5680SOL     OW17938   1.488   5.631   0.442
 5680SOL    HW117939   1.578   5.592   0.465
 5680SOL    HW217940   1.433   5.563   0.395
 5681SOL     OW17941   0.349   4.254   6.819
 5681SOL    HW117942   0.302   4.339   6.843
 5681SOL    HW217943   0.292   4.176   6.845
 5682SOL     OW17944   2.288   4.480   6.206
 5682SOL    HW117945   2.301   4.394   6.255
 5682SOL    HW217946   2.191   4.505   6.206
 5683SOL     OW17947   3.836   0.706   0.497
 5683SOL    HW117948   3.855   0.794   0.540
 5683SOL    HW217949   3.920   0.653   0.488
 5684SOL     OW17950   3.564   2.885   4.623
 5684SOL    HW117951   3.475   2.931   4.630
 5684SOL    HW217952   3.588   2.845   4.711
 5685SOL     OW17953   1.880   2.943   2.797
 5685SOL    HW117954   1.893   2.867   2.860
 5685SOL    HW217955   1.969   2.982   2.773
 5686SOL     OW17956   2.846   7.006   6.096
 5686SOL    HW117957   2.749   7.018   6.073
 5686SOL    HW217958   2.854   6.948   6.176
 5687SOL     OW17959   0.802   4.432   6.073
 5687SOL    HW117960   0.845   4.345   6.048
 5687SOL    HW217961   0.705   4.417   6.092
 5688SOL     OW17962   0.147   1.927   0.299
 5688SOL    HW117963   0.239   1.944   0.263
 5688SOL    HW217964   0.153   1.896   0.394
 5689SOL     OW17965   4.516   0.668   0.730
 5689SOL    HW117966   4.419   0.676   0.754
 5689SOL    HW217967   4.534   0.723   0.648
 5690SOL     OW17968   2.342   6.269   0.788
 5690SOL    HW117969   2.354   6.170   0.798
 5690SOL    HW217970   2.373   6.297   0.697
 5691SOL     OW17971   2.609   6.735   1.915
 5691SOL    HW117972   2.684   6.711   1.977
 5691SOL    HW217973   2.552   6.805   1.958
 5692SOL     OW17974   6.873   2.929   6.572
 5692SOL    HW117975   6.941   2.997   6.545
 5692SOL    HW217976   6.919   2.853   6.619
 5693SOL     OW17977   5.767   2.111   2.808
 5693SOL    HW117978   5.715   2.065   2.880
 5693SOL    HW217979   5.847   2.056   2.786
 5694SOL     OW17980   0.980   2.163   3.878
 5694SOL    HW117981   0.948   2.153   3.973
 5694SOL    HW217982   1.077   2.185   3.878
 5695SOL     OW17983   1.102   2.650   3.227
 5695SOL    HW117984   1.042   2.726   3.252
 5695SOL    HW217985   1.137   2.607   3.311
 5696SOL     OW17986   1.632   0.758   3.138
 5696SOL    HW117987   1.638   0.858   3.144
 5696SOL    HW217988   1.607   0.721   3.228
 5697SOL     OW17989   6.035   2.742   1.542
 5697SOL    HW117990   5.952   2.780   1.582
 5697SOL    HW217991   6.022   2.732   1.443
 5698SOL     OW17992   0.474   3.475   3.030
 5698SOL    HW117993   0.450   3.442   3.122
 5698SOL    HW217994   0.482   3.575   3.032
 5699SOL     OW17995   6.423   2.471   2.600
 5699SOL    HW117996   6.450   2.519   2.517
 5699SOL    HW217997   6.505   2.445   2.651
 5700SOL     OW17998   6.611   6.543   4.469
 5700SOL    HW117999   6.580   6.623   4.519
 5700SOL    HW218000   6.650   6.477   4.533
 5701SOL     OW18001   1.664   6.968   3.028
 5701SOL    HW118002   1.672   6.990   3.125
 5701SOL    HW218003   1.571   6.990   2.997
 5702SOL     OW18004   2.522   6.534   5.737
 5702SOL    HW118005   2.621   6.547   5.729
 5702SOL    HW218006   2.498   6.523   5.833
 5703SOL     OW18007   5.992   4.550   1.785
 5703SOL    HW118008   6.037   4.637   1.803
 5703SOL    HW218009   5.921   4.534   1.854
 5704SOL     OW18010   3.952   5.244   2.376
 5704SOL    HW118011   3.902   5.200   2.301
 5704SOL    HW218012   3.891   5.254   2.454
 5705SOL     OW18013   4.760   0.848   1.432
 5705SOL    HW118014   4.749   0.830   1.334
 5705SOL    HW218015   4.680   0.898   1.466
 5706SOL     OW18016   7.003   3.104   6.962
 5706SOL    HW118017   0.062   3.086   6.902
 5706SOL    HW218018   0.004   3.183   0.001
 5707SOL     OW18019   6.782   6.823   0.589
 5707SOL    HW118020   6.762   6.864   0.678
 5707SOL    HW218021   6.789   6.724   0.599
 5708SOL     OW18022   4.929   5.966   0.956
 5708SOL    HW118023   4.888   6.048   0.996
 5708SOL    HW218024   5.016   5.990   0.914
 5709SOL     OW18025   1.836   0.283   3.268
 5709SOL    HW118026   1.882   0.284   3.180
 5709SOL    HW218027   1.867   0.360   3.324
 5710SOL     OW18028   2.319   3.307   6.595
 5710SOL    HW118029   2.332   3.386   6.654
 5710SOL    HW218030   2.288   3.229   6.649
 5711SOL     OW18031   4.998   1.324   2.904
 5711SOL    HW118032   5.095   1.303   2.905
 5711SOL    HW218033   4.965   1.330   2.809
 5712SOL     OW18034   0.849   5.916   6.092
 5712SOL    HW118035   0.869   5.853   6.167
 5712SOL    HW218036   0.928   5.922   6.031
 5713SOL     OW18037   2.561   3.129   1.604
 5713SOL    HW118038   2.465   3.100   1.599
 5713SOL    HW218039   2.615   3.059   1.651
 5714SOL     OW18040   0.871   5.680   6.472
 5714SOL    HW118041   0.772   5.695   6.474
 5714SOL    HW218042   0.914   5.726   6.550
 5715SOL     OW18043   1.031   6.560   3.054
 5715SOL    HW118044   1.001   6.516   2.969
 5715SOL    HW218045   1.127   6.586   3.046
 5716SOL     OW18046   1.615   4.059   0.006
 5716SOL    HW118047   1.701   4.011   0.020
 5716SOL    HW218048   1.539   3.994   0.014
 5717SOL     OW18049   1.712   6.206   1.071
 5717SOL    HW118050   1.652   6.273   1.115
 5717SOL    HW218051   1.805   6.219   1.105
 5718SOL     OW18052   1.076   3.367   5.566
 5718SOL    HW118053   1.034   3.295   5.622
 5718SOL    HW218054   1.106   3.328   5.479
 5719SOL     OW18055   2.824   1.240   6.120
 5719SOL    HW118056   2.738   1.189   6.125
 5719SOL    HW218057   2.835   1.278   6.028
 5720SOL     OW18058   1.204   5.353   4.135
 5720SOL    HW118059   1.231   5.372   4.230
 5720SOL    HW218060   1.126   5.290   4.135
 5721SOL     OW18061   0.197   4.141   0.979
 5721SOL    HW118062   0.201   4.172   1.074
 5721SOL    HW218063   0.120   4.079   0.968
 5722SOL     OW18064   6.053   1.591   5.281
 5722SOL    HW118065   6.074   1.502   5.323
 5722SOL    HW218066   6.136   1.626   5.236
 5723SOL     OW18067   4.533   3.528   6.773
 5723SOL    HW118068   4.573   3.454   6.719
 5723SOL    HW218069   4.434   3.514   6.780
 5724SOL     OW18070   4.328   2.695   5.283
 5724SOL    HW118071   4.357   2.680   5.377
 5724SOL    HW218072   4.248   2.637   5.264
 5725SOL     OW18073   5.935   5.674   3.835
 5725SOL    HW118074   5.919   5.727   3.752
 5725SOL    HW218075   5.998   5.722   3.895
 5726SOL     OW18076   0.043   4.612   4.870
 5726SOL    HW118077   6.965   4.626   4.852
 5726SOL    HW218078   0.095   4.634   4.787
 5727SOL     OW18079   0.502   2.582   3.747
 5727SOL    HW118080   0.531   2.487   3.735
 5727SOL    HW218081   0.481   2.622   3.658
 5728SOL     OW18082   4.489   1.481   6.368
 5728SOL    HW118083   4.465   1.558   6.308
 5728SOL    HW218084   4.405   1.443   6.407
 5729SOL     OW18085   1.016   1.730   0.194
 5729SOL    HW118086   1.047   1.821   0.166
 5729SOL    HW218087   1.093   1.666   0.191
 5730SOL     OW18088   4.460   5.140   5.876
 5730SOL    HW118089   4.535   5.084   5.912
 5730SOL    HW218090   4.373   5.108   5.915
 5731SOL     OW18091   1.226   6.525   3.638
 5731SOL    HW118092   1.174   6.571   3.710
 5731SOL    HW218093   1.311   6.490   3.676
 5732SOL     OW18094   6.865   4.818   5.150
 5732SOL    HW118095   6.884   4.810   5.248
 5732SOL    HW218096   6.773   4.854   5.136
 5733SOL     OW18097   3.496   0.365   5.230
 5733SOL    HW118098   3.443   0.299   5.176
 5733SOL    HW218099   3.551   0.421   5.170
 5734SOL     OW18100   0.911   6.176   6.160
 5734SOL    HW118101   0.827   6.205   6.206
 5734SOL    HW218102   0.915   6.076   6.158
 5735SOL     OW18103   4.000   1.847   2.313
 5735SOL    HW118104   3.948   1.910   2.256
 5735SOL    HW218105   4.018   1.889   2.402
 5736SOL     OW18106   6.046   3.951   0.664
 5736SOL    HW118107   5.987   3.913   0.735
 5736SOL    HW218108   6.137   3.967   0.701
 5737SOL     OW18109   4.635   5.353   6.905
 5737SOL    HW118110   4.591   5.343   6.816
 5737SOL    HW218111   4.673   5.266   6.935
 5738SOL     OW18112   2.788   2.686   6.321
 5738SOL    HW118113   2.826   2.775   6.342
 5738SOL    HW218114   2.828   2.617   6.382
 5739SOL     OW18115   0.954   6.714   5.178
 5739SOL    HW118116   0.970   6.789   5.242
 5739SOL    HW218117   0.886   6.742   5.111
 5740SOL     OW18118   4.310   3.419   0.710
 5740SOL    HW118119   4.257   3.437   0.793
 5740SOL    HW218120   4.400   3.463   0.718
 5741SOL     OW18121   6.320   4.251   4.742
 5741SOL    HW118122   6.280   4.331   4.785
 5741SOL    HW218123   6.248   4.195   4.700
 5742SOL     OW18124   4.696   6.806   2.445
 5742SOL    HW118125   4.655   6.887   2.486
 5742SOL    HW218126   4.624   6.752   2.401
 5743SOL     OW18127   2.459   6.211   4.914
 5743SOL    HW118128   2.383   6.181   4.856
 5743SOL    HW218129   2.464   6.311   4.913
 5744SOL     OW18130   4.765   1.102   0.867
 5744SOL    HW118131   4.774   1.115   0.966
 5744SOL    HW218132   4.857   1.097   0.826
 5745SOL     OW18133   1.849   1.431   4.294
 5745SOL    HW118134   1.873   1.338   4.324
 5745SOL    HW218135   1.924   1.469   4.240
 5746SOL     OW18136   5.598   6.923   1.180
 5746SOL    HW118137   5.667   6.873   1.127
 5746SOL    HW218138   5.616   0.002   1.173
 5747SOL     OW18139   1.007   4.750   2.331
 5747SOL    HW118140   1.086   4.793   2.287
 5747SOL    HW218141   0.995   4.789   2.422
 5748SOL     OW18142   1.601   0.048   0.519
 5748SOL    HW118143   1.681   0.101   0.491
 5748SOL    HW218144   1.543   0.031   0.440
 5749SOL     OW18145   1.740   6.018   4.333
 5749SOL    HW118146   1.822   6.047   4.284
 5749SOL    HW218147   1.660   6.059   4.291
 5750SOL     OW18148   6.604   5.945   4.728
 5750SOL    HW118149   6.546   5.982   4.801
 5750SOL    HW218150   6.674   5.885   4.767
 5751SOL     OW18151   2.235   2.797   4.546
 5751SOL    HW118152   2.190   2.715   4.513
 5751SOL    HW218153   2.227   2.803   4.645
 5752SOL     OW18154   6.460   0.636   0.314
 5752SOL    HW118155   6.382   0.584   0.347
 5752SOL    HW218156   6.517   0.664   0.391
 5753SOL     OW18157   3.622   3.364   4.186
 5753SOL    HW118158   3.679   3.356   4.104
 5753SOL    HW218159   3.680   3.361   4.267
 5754SOL     OW18160   6.952   4.815   2.017
 5754SOL    HW118161   6.941   4.838   1.921
 5754SOL    HW218162   6.865   4.783   2.055
 5755SOL     OW18163   2.399   2.770   6.341
 5755SOL    HW118164   2.462   2.721   6.281
 5755SOL    HW218165   2.366   2.707   6.412
 5756SOL     OW18166   6.226   0.065   3.502
 5756SOL    HW118167   6.231   0.006   3.421
 5756SOL    HW218168   6.137   0.110   3.505
 5757SOL     OW18169   0.140   6.690   3.264
 5757SOL    HW118170   0.118   6.785   3.287
 5757SOL    HW218171   0.239   6.679   3.259
 5758SOL     OW18172   2.460   0.599   4.676
 5758SOL    HW118173   2.558   0.617   4.681
 5758SOL    HW218174   2.442   0.506   4.707
 5759SOL     OW18175   4.965   2.000   0.204
 5759SOL    HW118176   5.018   1.915   0.202
 5759SOL    HW218177   4.928   2.020   0.113
 5760SOL     OW18178   6.793   3.739   0.864
 5760SOL    HW118179   6.784   3.692   0.952
 5760SOL    HW218180   6.703   3.757   0.826
 5761SOL     OW18181   5.925   5.606   6.511
 5761SOL    HW118182   5.940   5.632   6.416
 5761SOL    HW218183   5.939   5.685   6.571
 5762SOL     OW18184   4.804   4.159   0.409
 5762SOL    HW118185   4.852   4.163   0.497
 5762SOL    HW218186   4.730   4.091   0.415
 5763SOL     OW18187   6.716   6.554   0.341
 5763SOL    HW118188   6.731   6.526   0.436
 5763SOL    HW218189   6.803   6.578   0.299
 5764SOL     OW18190   5.099   4.996   5.576
 5764SOL    HW118191   5.079   5.081   5.624
 5764SOL    HW218192   5.039   4.988   5.497
 5765SOL     OW18193   5.969   2.295   0.417
 5765SOL    HW118194   6.041   2.364   0.417
 5765SOL    HW218195   6.009   2.205   0.431
 5766SOL     OW18196   2.132   2.056   6.845
 5766SOL    HW118197   2.113   2.154   6.857
 5766SOL    HW218198   2.048   2.010   6.816
 5767SOL     OW18199   1.565   1.217   0.276
 5767SOL    HW118200   1.561   1.310   0.312
 5767SOL    HW218201   1.550   1.219   0.177
 5768SOL     OW18202   1.577   6.317   3.726
 5768SOL    HW118203   1.588   6.315   3.627
 5768SOL    HW218204   1.601   6.408   3.761
 5769SOL     OW18205   2.420   6.163   4.567
 5769SOL    HW118206   2.379   6.073   4.579
 5769SOL    HW218207   2.519   6.156   4.576
 5770SOL     OW18208   6.316   6.256   0.122
 5770SOL    HW118209   6.226   6.239   0.163
 5770SOL    HW218210   6.331   6.355   0.115
 5771SOL     OW18211   1.508   0.089   3.752
 5771SOL    HW118212   1.512   0.114   3.655
 5771SOL    HW218213   1.443   0.149   3.799
 5772SOL     OW18214   5.967   1.924   1.521
 5772SOL    HW118215   5.873   1.908   1.490
 5772SOL    HW218216   5.982   1.876   1.607
 5773SOL     OW18217   4.596   0.391   3.179
 5773SOL    HW118218   4.606   0.297   3.144
 5773SOL    HW218219   4.556   0.387   3.271
 5774SOL     OW18220   2.428   6.140   3.400
 5774SOL    HW118221   2.473   6.192   3.473
 5774SOL    HW218222   2.436   6.042   3.420
 5775SOL     OW18223   1.374   1.139   2.335
 5775SOL    HW118224   1.284   1.096   2.345
 5775SOL    HW218225   1.372   1.204   2.259
 5776SOL     OW18226   6.908   0.804   4.665
 5776SOL    HW118227   6.950   0.800   4.755
 5776SOL    HW218228   6.932   0.722   4.613
 5777SOL     OW18229   6.479   0.032   5.648
 5777SOL    HW118230   6.407   0.098   5.624
 5777SOL    HW218231   6.523   7.019   5.564
 5778SOL     OW18232   1.808   0.771   1.603
 5778SOL    HW118233   1.855   0.793   1.517
 5778SOL    HW218234   1.717   0.736   1.584
 5779SOL     OW18235   4.519   2.607   0.978
 5779SOL    HW118236   4.587   2.542   0.945
 5779SOL    HW218237   4.563   2.677   1.034
 5780SOL     OW18238   6.202   5.542   3.649
 5780SOL    HW118239   6.132   5.474   3.627
 5780SOL    HW218240   6.239   5.580   3.565
 5781SOL     OW18241   7.002   4.638   4.300
 5781SOL    HW118242   0.036   4.654   4.384
 5781SOL    HW218243   0.025   4.688   4.225
 5782SOL     OW18244   1.096   1.561   0.682
 5782SOL    HW118245   1.119   1.640   0.625
 5782SOL    HW218246   0.999   1.563   0.705
 5783SOL     OW18247   1.814   0.410   1.772
 5783SOL    HW118248   1.853   0.497   1.802
 5783SOL    HW218249   1.777   0.362   1.852
 5784SOL     OW18250   0.256   5.832   0.360
 5784SOL    HW118251   0.341   5.840   0.309
 5784SOL    HW218252   0.222   5.923   0.384
 5785SOL     OW18253   1.907   2.126   0.731
 5785SOL    HW118254   1.839   2.140   0.802
 5785SOL    HW218255   1.898   2.198   0.662
 5786SOL     OW18256   0.549   4.527   0.950
 5786SOL    HW118257   0.564   4.564   0.859
 5786SOL    HW218258   0.451   4.518   0.968
 5787SOL     OW18259   3.948   1.777   5.053
 5787SOL    HW118260   3.867   1.736   5.012
 5787SOL    HW218261   4.029   1.748   5.003
 5788SOL     OW18262   3.753   1.861   1.118
 5788SOL    HW118263   3.664   1.884   1.079
 5788SOL    HW218264   3.767   1.762   1.114
 5789SOL     OW18265   3.224   4.692   0.631
 5789SOL    HW118266   3.293   4.621   0.644
 5789SOL    HW218267   3.134   4.649   0.622
 5790SOL     OW18268   0.437   4.660   4.934
 5790SOL    HW118269   0.511   4.699   4.989
 5790SOL    HW218270   0.371   4.617   4.995
 5791SOL     OW18271   3.333   1.568   2.587
 5791SOL    HW118272   3.419   1.587   2.634
 5791SOL    HW218273   3.257   1.599   2.644
 5792SOL     OW18274   5.886   2.895   2.431
 5792SOL    HW118275   5.830   2.814   2.445
 5792SOL    HW218276   5.970   2.870   2.383
 5793SOL     OW18277   5.248   0.647   4.047
 5793SOL    HW118278   5.269   0.552   4.025
 5793SOL    HW218279   5.149   0.659   4.053
 5794SOL     OW18280   2.248   1.141   6.836
 5794SOL    HW118281   2.277   1.158   6.931
 5794SOL    HW218282   2.202   1.223   6.800
 5795SOL     OW18283   6.955   6.536   6.920
 5795SOL    HW118284   6.985   6.518   6.827
 5795SOL    HW218285   0.001   6.600   6.963
 5796SOL     OW18286   4.718   0.545   5.586
 5796SOL    HW118287   4.762   0.546   5.676
 5796SOL    HW218288   4.748   0.623   5.532
 5797SOL     OW18289   4.633   2.564   0.141
 5797SOL    HW118290   4.567   2.565   0.215
 5797SOL    HW218291   4.602   2.625   0.067
 5798SOL     OW18292   6.567   5.475   4.293
 5798SOL    HW118293   6.642   5.541   4.301
 5798SOL    HW218294   6.528   5.458   4.384
 5799SOL     OW18295   0.297   1.004   3.777
 5799SOL    HW118296   0.377   1.049   3.736
 5799SOL    HW218297   0.274   0.923   3.724
 5800SOL     OW18298   6.372   6.740   1.523
 5800SOL    HW118299   6.389   6.839   1.521
 5800SOL    HW218300   6.314   6.715   1.445
 5801SOL     OW18301   1.602   2.742   3.304
 5801SOL    HW118302   1.505   2.743   3.329
 5801SOL    HW218303   1.643   2.655   3.333
 5802SOL     OW18304   6.918   3.360   2.234
 5802SOL    HW118305   6.974   3.361   2.317
 5802SOL    HW218306   6.822   3.371   2.258
 5803SOL     OW18307   2.037   5.423   2.242
 5803SOL    HW118308   2.040   5.491   2.169
 5803SOL    HW218309   1.946   5.424   2.284
 5804SOL     OW18310   0.258   5.027   2.970
 5804SOL    HW118311   0.211   5.110   3.002
 5804SOL    HW218312   0.248   4.955   3.039
 5805SOL     OW18313   1.954   3.591   0.674
 5805SOL    HW118314   1.937   3.633   0.585
 5805SOL    HW218315   1.878   3.610   0.735
 5806SOL     OW18316   6.328   5.123   4.555
 5806SOL    HW118317   6.407   5.180   4.576
 5806SOL    HW218318   6.352   5.060   4.480
 5807SOL     OW18319   0.938   4.645   0.869
 5807SOL    HW118320   0.986   4.631   0.955
 5807SOL    HW218321   0.942   4.561   0.814
 5808SOL     OW18322   6.427   5.230   3.938
 5808SOL    HW118323   6.362   5.155   3.925
 5808SOL    HW218324   6.416   5.296   3.864
 5809SOL     OW18325   6.450   2.066   5.074
 5809SOL    HW118326   6.359   2.031   5.099
 5809SOL    HW218327   6.500   2.088   5.157
 5810SOL     OW18328   4.402   1.584   5.233
 5810SOL    HW118329   4.445   1.598   5.322
 5810SOL    HW218330   4.324   1.522   5.244
 5811SOL     OW18331   3.144   0.464   4.917
 5811SOL    HW118332   3.232   0.427   4.888
 5811SOL    HW218333   3.157   0.517   5.001
 5812SOL     OW18334   5.604   3.332   4.822
 5812SOL    HW118335   5.696   3.298   4.839
 5812SOL    HW218336   5.587   3.414   4.877
 5813SOL     OW18337   1.624   1.806   1.559
 5813SOL    HW118338   1.540   1.842   1.520
 5813SOL    HW218339   1.627   1.706   1.546
 5814SOL     OW18340   6.302   3.770   2.126
 5814SOL    HW118341   6.322   3.676   2.098
 5814SOL    HW218342   6.381   3.807   2.174
 5815SOL     OW18343   3.798   1.558   4.136
 5815SOL    HW118344   3.712   1.512   4.113
 5815SOL    HW218345   3.801   1.647   4.092
 5816SOL     OW18346   5.194   4.573   0.698
 5816SOL    HW118347   5.234   4.517   0.626
 5816SOL    HW218348   5.100   4.596   0.675
 5817SOL     OW18349   5.867   4.019   5.843
 5817SOL    HW118350   5.949   4.028   5.786
 5817SOL    HW218351   5.817   3.936   5.819
 5818SOL     OW18352   6.692   5.104   5.147
 5818SOL    HW118353   6.789   5.085   5.163
 5818SOL    HW218354   6.639   5.020   5.161
 5819SOL     OW18355   3.538   0.331   0.233
 5819SOL    HW118356   3.578   0.385   0.159
 5819SOL    HW218357   3.611   0.295   0.290
 5820SOL     OW18358   4.458   4.510   3.413
 5820SOL    HW118359   4.544   4.469   3.386
 5820SOL    HW218360   4.458   4.526   3.512
 5821SOL     OW18361   0.303   0.606   2.189
 5821SOL    HW118362   0.212   0.614   2.147
 5821SOL    HW218363   0.294   0.606   2.288
 5822SOL     OW18364   1.406   2.675   1.422
 5822SOL    HW118365   1.364   2.749   1.368
 5822SOL    HW218366   1.403   2.590   1.370
 5823SOL     OW18367   2.808   0.086   4.510
 5823SOL    HW118368   2.773   0.141   4.586
 5823SOL    HW218369   2.810   0.142   4.427
 5824SOL     OW18370   0.003   5.666   2.593
 5824SOL    HW118371   0.002   5.737   2.523
 5824SOL    HW218372   6.994   5.705   2.681
 5825SOL     OW18373   0.035   0.202   5.027
 5825SOL    HW118374   0.094   0.280   5.049
 5825SOL    HW218375   0.044   0.182   4.929
 5826SOL     OW18376   0.763   5.007   6.010
 5826SOL    HW118377   0.759   5.010   5.910
 5826SOL    HW218378   0.751   4.913   6.041
 5827SOL     OW18379   1.751   3.836   5.229
 5827SOL    HW118380   1.664   3.822   5.276
 5827SOL    HW218381   1.791   3.923   5.258
 5828SOL     OW18382   5.926   2.065   1.967
 5828SOL    HW118383   5.860   2.134   1.934
 5828SOL    HW218384   5.988   2.108   2.033
 5829SOL     OW18385   1.479   0.405   3.927
 5829SOL    HW118386   1.418   0.327   3.940
 5829SOL    HW218387   1.572   0.372   3.909
 5830SOL     OW18388   5.545   6.590   5.901
 5830SOL    HW118389   5.565   6.494   5.919
 5830SOL    HW218390   5.464   6.617   5.953
 5831SOL     OW18391   1.198   0.845   5.545
 5831SOL    HW118392   1.210   0.802   5.635
 5831SOL    HW218393   1.102   0.871   5.534
 5832SOL     OW18394   3.561   5.390   0.028
 5832SOL    HW118395   3.583   5.306   6.999
 5832SOL    HW218396   3.646   5.433   0.060
 5833SOL     OW18397   3.478   4.457   5.294
 5833SOL    HW118398   3.415   4.533   5.285
 5833SOL    HW218399   3.433   4.372   5.268
 5834SOL     OW18400   6.994   3.084   0.350
 5834SOL    HW118401   6.993   3.175   0.309
 5834SOL    HW218402   0.054   3.076   0.411
 5835SOL     OW18403   5.600   2.859   3.490
 5835SOL    HW118404   5.526   2.798   3.463
 5835SOL    HW218405   5.562   2.940   3.535
 5836SOL     OW18406   3.125   0.501   1.783
 5836SOL    HW118407   3.125   0.410   1.824
 5836SOL    HW218408   3.200   0.555   1.821
 5837SOL     OW18409   2.902   4.231   0.099
 5837SOL    HW118410   2.990   4.229   0.147
 5837SOL    HW218411   2.911   4.185   0.011
 5838SOL     OW18412   3.215   2.118   1.092
 5838SOL    HW118413   3.306   2.150   1.117
 5838SOL    HW218414   3.181   2.169   1.013
 5839SOL     OW18415   0.977   2.244   2.203
 5839SOL    HW118416   1.059   2.291   2.170
 5839SOL    HW218417   0.939   2.188   2.130
 5840SOL     OW18418   1.159   5.147   6.447
 5840SOL    HW118419   1.086   5.132   6.381
 5840SOL    HW218420   1.247   5.128   6.403
 5841SOL     OW18421   4.983   1.522   2.473
 5841SOL    HW118422   4.907   1.487   2.418
 5841SOL    HW218423   4.962   1.615   2.504
 5842SOL     OW18424   4.810   2.806   1.349
 5842SOL    HW118425   4.900   2.851   1.351
 5842SOL    HW218426   4.813   2.723   1.404
 5843SOL     OW18427   1.628   4.102   2.553
 5843SOL    HW118428   1.695   4.172   2.576
 5843SOL    HW218429   1.669   4.011   2.566
 5844SOL     OW18430   1.689   5.831   5.769
 5844SOL    HW118431   1.722   5.830   5.863
 5844SOL    HW218432   1.645   5.919   5.750
 5845SOL     OW18433   0.343   0.623   2.466
 5845SOL    HW118434   0.434   0.663   2.477
 5845SOL    HW218435   0.333   0.544   2.527
 5846SOL     OW18436   6.106   3.320   6.022
 5846SOL    HW118437   6.193   3.366   6.040
 5846SOL    HW218438   6.090   3.250   6.092
 5847SOL     OW18439   2.944   2.206   2.266
 5847SOL    HW118440   2.922   2.263   2.186
 5847SOL    HW218441   2.909   2.114   2.252
 5848SOL     OW18442   1.636   5.741   3.136
 5848SOL    HW118443   1.538   5.732   3.155
 5848SOL    HW218444   1.686   5.753   3.222
 5849SOL     OW18445   0.963   0.426   5.396
 5849SOL    HW118446   1.016   0.413   5.313
 5849SOL    HW218447   0.929   0.520   5.399
 5850SOL     OW18448   6.582   3.267   1.594
 5850SOL    HW118449   6.593   3.331   1.670
 5850SOL    HW218450   6.582   3.317   1.508
 5851SOL     OW18451   5.148   3.408   2.716
 5851SOL    HW118452   5.137   3.332   2.780
 5851SOL    HW218453   5.140   3.376   2.622
 5852SOL     OW18454   5.756   6.264   3.363
 5852SOL    HW118455   5.854   6.275   3.382
 5852SOL    HW218456   5.745   6.200   3.286
 5853SOL     OW18457   3.419   5.349   4.809
 5853SOL    HW118458   3.455   5.295   4.732
 5853SOL    HW218459   3.324   5.374   4.789
 5854SOL     OW18460   4.280   4.045   6.686
 5854SOL    HW118461   4.302   3.961   6.636
 5854SOL    HW218462   4.186   4.041   6.719
 5855SOL     OW18463   0.864   1.291   4.928
 5855SOL    HW118464   0.784   1.331   4.971
 5855SOL    HW218465   0.840   1.257   4.837
 5856SOL     OW18466   1.955   6.051   3.318
 5856SOL    HW118467   1.933   6.115   3.392
 5856SOL    HW218468   2.026   6.091   3.260
 5857SOL     OW18469   6.101   1.776   5.765
 5857SOL    HW118470   6.015   1.756   5.811
 5857SOL    HW218471   6.086   1.845   5.694
 5858SOL     OW18472   2.538   2.078   2.705
 5858SOL    HW118473   2.458   2.041   2.753
 5858SOL    HW218474   2.574   2.156   2.756
 5859SOL     OW18475   5.800   6.110   1.745
 5859SOL    HW118476   5.815   6.195   1.695
 5859SOL    HW218477   5.852   6.113   1.831
 5860SOL     OW18478   0.283   3.267   2.490
 5860SOL    HW118479   0.332   3.225   2.414
 5860SOL    HW218480   0.229   3.344   2.456
 5861SOL     OW18481   4.623   1.825   4.629
 5861SOL    HW118482   4.587   1.745   4.677
 5861SOL    HW218483   4.722   1.831   4.643
 5862SOL     OW18484   5.936   5.445   1.184
 5862SOL    HW118485   5.883   5.457   1.268
 5862SOL    HW218486   5.883   5.479   1.106
 5863SOL     OW18487   3.344   2.103   5.174
 5863SOL    HW118488   3.283   2.166   5.125
 5863SOL    HW218489   3.296   2.018   5.192
 5864SOL     OW18490   3.984   3.984   2.388
 5864SOL    HW118491   4.082   3.997   2.398
 5864SOL    HW218492   3.936   4.025   2.465
 5865SOL     OW18493   5.917   0.166   5.062
 5865SOL    HW118494   5.865   0.191   5.144
 5865SOL    HW218495   6.014   0.181   5.079
 5866SOL     OW18496   3.613   4.370   0.396
 5866SOL    HW118497   3.659   4.328   0.474
 5866SOL    HW218498   3.538   4.311   0.366
 5867SOL     OW18499   2.339   3.519   1.094
 5867SOL    HW118500   2.424   3.563   1.067
 5867SOL    HW218501   2.266   3.545   1.030
 5868SOL     OW18502   1.133   1.146   5.368
 5868SOL    HW118503   1.072   1.213   5.410
 5868SOL    HW218504   1.212   1.132   5.426
 5869SOL     OW18505   2.312   6.571   3.204
 5869SOL    HW118506   2.387   6.584   3.138
 5869SOL    HW218507   2.240   6.638   3.185
 5870SOL     OW18508   4.233   6.510   4.918
 5870SOL    HW118509   4.269   6.450   4.989
 5870SOL    HW218510   4.307   6.564   4.878
 5871SOL     OW18511   3.231   3.372   1.485
 5871SOL    HW118512   3.203   3.374   1.581
 5871SOL    HW218513   3.233   3.278   1.452
 5872SOL     OW18514   4.722   6.127   1.218
 5872SOL    HW118515   4.695   6.162   1.308
 5872SOL    HW218516   4.699   6.030   1.213
 5873SOL     OW18517   3.868   1.570   2.049
 5873SOL    HW118518   3.782   1.607   2.083
 5873SOL    HW218519   3.849   1.493   1.988
 5874SOL     OW18520   2.958   4.778   6.642
 5874SOL    HW118521   3.026   4.746   6.576
 5874SOL    HW218522   2.886   4.829   6.594
 5875SOL     OW18523   4.234   1.248   0.058
 5875SOL    HW118524   4.286   1.210   7.001
 5875SOL    HW218525   4.254   1.346   0.066
 5876SOL     OW18526   3.566   3.052   0.272
 5876SOL    HW118527   3.587   3.049   0.369
 5876SOL    HW218528   3.570   3.147   0.240
 5877SOL     OW18529   0.763   0.052   1.661
 5877SOL    HW118530   0.697   0.087   1.728
 5877SOL    HW218531   0.748   0.098   1.573
 5878SOL     OW18532   6.226   5.186   3.710
 5878SOL    HW118533   6.299   5.148   3.653
 5878SOL    HW218534   6.169   5.247   3.656
 5879SOL     OW18535   1.522   4.287   6.889
 5879SOL    HW118536   1.568   4.205   6.925
 5879SOL    HW218537   1.568   4.369   6.925
 5880SOL     OW18538   4.730   4.463   5.985
 5880SOL    HW118539   4.741   4.367   6.009
 5880SOL    HW218540   4.803   4.517   6.026
 5881SOL     OW18541   0.453   0.144   2.407
 5881SOL    HW118542   0.404   0.060   2.386
 5881SOL    HW218543   0.540   0.146   2.356
 5882SOL     OW18544   0.019   5.279   0.651
 5882SOL    HW118545   0.016   5.180   0.639
 5882SOL    HW218546   6.951   5.319   0.623
 5883SOL     OW18547   0.946   1.446   6.241
 5883SOL    HW118548   0.996   1.360   6.253
 5883SOL    HW218549   0.996   1.519   6.287
 5884SOL     OW18550   4.315   0.995   4.237
 5884SOL    HW118551   4.372   1.014   4.317
 5884SOL    HW218552   4.366   0.939   4.171
 5885SOL     OW18553   0.494   6.599   2.427
 5885SOL    HW118554   0.550   6.526   2.388
 5885SOL    HW218555   0.428   6.630   2.359
 5886SOL     OW18556   0.029   2.467   4.103
 5886SOL    HW118557   0.121   2.431   4.122
 5886SOL    HW218558   0.021   2.489   4.006
 5887SOL     OW18559   2.791   1.752   2.092
 5887SOL    HW118560   2.886   1.733   2.067
 5887SOL    HW218561   2.731   1.738   2.013
 5888SOL     OW18562   3.032   0.672   1.262
 5888SOL    HW118563   2.977   0.630   1.334
 5888SOL    HW218564   3.128   0.673   1.291
 5889SOL     OW18565   0.468   0.677   0.536
 5889SOL    HW118566   0.537   0.718   0.477
 5889SOL    HW218567   0.412   0.613   0.482
 5890SOL     OW18568   2.212   1.068   3.248
 5890SOL    HW118569   2.296   1.055   3.302
 5890SOL    HW218570   2.235   1.078   3.152
 5891SOL     OW18571   3.124   3.250   6.945
 5891SOL    HW118572   3.024   3.250   6.953
 5891SOL    HW218573   3.164   3.248   0.017
 5892SOL     OW18574   1.082   5.778   2.378
 5892SOL    HW118575   1.012   5.764   2.309
 5892SOL    HW218576   1.169   5.742   2.345
 5893SOL     OW18577   2.158   4.364   3.738
 5893SOL    HW118578   2.079   4.422   3.718
 5893SOL    HW218579   2.210   4.348   3.654
 5894SOL     OW18580   6.815   5.791   4.423
 5894SOL    HW118581   6.905   5.754   4.401
 5894SOL    HW218582   6.794   5.773   4.519
 5895SOL     OW18583   5.408   3.593   3.985
 5895SOL    HW118584   5.314   3.624   4.000
 5895SOL    HW218585   5.419   3.500   4.019
 5896SOL     OW18586   3.434   0.901   0.491
 5896SOL    HW118587   3.364   0.830   0.500
 5896SOL    HW218588   3.432   0.939   0.399
 5897SOL     OW18589   4.471   6.884   1.165
 5897SOL    HW118590   4.527   6.873   1.083
 5897SOL    HW218591   4.422   6.798   1.182
 5898SOL     OW18592   2.330   0.189   3.940
 5898SOL    HW118593   2.238   0.209   3.908
 5898SOL    HW218594   2.326   0.126   4.017
 5899SOL     OW18595   6.533   5.370   0.304
 5899SOL    HW118596   6.633   5.367   0.302
 5899SOL    HW218597   6.501   5.434   0.235
 5900SOL     OW18598   6.203   4.919   3.682
 5900SOL    HW118599   6.203   5.013   3.718
 5900SOL    HW218600   6.289   4.874   3.706
 5901SOL     OW18601   2.470   1.439   0.107
 5901SOL    HW118602   2.430   1.381   0.178
 5901SOL    HW218603   2.441   1.406   0.017
 5902SOL     OW18604   5.761   2.052   4.925
 5902SOL    HW118605   5.702   2.052   5.005
 5902SOL    HW218606   5.707   2.028   4.844
 5903SOL     OW18607   4.956   4.303   6.868
 5903SOL    HW118608   4.963   4.315   6.769
 5903SOL    HW218609   4.952   4.393   6.912
 5904SOL     OW18610   1.028   4.526   1.390
 5904SOL    HW118611   0.970   4.580   1.451
 5904SOL    HW218612   0.975   4.448   1.355
 5905SOL     OW18613   6.230   6.701   3.686
 5905SOL    HW118614   6.326   6.728   3.700
 5905SOL    HW218615   6.227   6.606   3.656
 5906SOL     OW18616   3.598   2.087   3.658
 5906SOL    HW118617   3.690   2.051   3.644
 5906SOL    HW218618   3.595   2.136   3.745
 5907SOL     OW18619   0.997   5.052   0.619
 5907SOL    HW118620   1.060   4.980   0.588
 5907SOL    HW218621   1.050   5.126   0.661
 5908SOL     OW18622   0.535   3.036   6.861
 5908SOL    HW118623   0.457   3.036   6.799
 5908SOL    HW218624   0.512   2.985   6.944
 5909SOL     OW18625   6.973   5.346   0.966
 5909SOL    HW118626   0.005   5.431   0.980
 5909SOL    HW218627   6.982   5.316   0.871
 5910SOL     OW18628   0.620   4.115   3.594
 5910SOL    HW118629   0.672   4.042   3.639
 5910SOL    HW218630   0.648   4.203   3.631
 5911SOL     OW18631   6.924   5.381   6.251
 5911SOL    HW118632   7.001   5.422   6.301
 5911SOL    HW218633   6.954   5.295   6.210
 5912SOL     OW18634   6.066   1.847   6.886
 5912SOL    HW118635   6.125   1.926   6.899
 5912SOL    HW218636   6.011   1.861   6.804
 5913SOL     OW18637   5.079   2.972   6.060
 5913SOL    HW118638   5.156   2.981   6.123
 5913SOL    HW218639   5.002   3.026   6.095
 5914SOL     OW18640   1.604   5.414   6.123
 5914SOL    HW118641   1.639   5.327   6.089
 5914SOL    HW218642   1.518   5.400   6.171
 5915SOL     OW18643   4.775   5.348   1.239
 5915SOL    HW118644   4.739   5.420   1.179
 5915SOL    HW218645   4.722   5.265   1.228
 5916SOL     OW18646   4.877   6.320   4.094
 5916SOL    HW118647   4.918   6.231   4.112
 5916SOL    HW218648   4.904   6.352   4.004
 5917SOL     OW18649   2.890   3.586   3.996
 5917SOL    HW118650   2.922   3.499   4.034
 5917SOL    HW218651   2.898   3.584   3.896
 5918SOL     OW18652   1.878   3.723   6.155
 5918SOL    HW118653   1.934   3.765   6.083
 5918SOL    HW218654   1.914   3.632   6.176
 5919SOL     OW18655   3.424   3.119   1.919
 5919SOL    HW118656   3.407   3.217   1.931
 5919SOL    HW218657   3.439   3.077   2.008
 5920SOL     OW18658   4.303   0.419   6.744
 5920SOL    HW118659   4.242   0.497   6.731
 5920SOL    HW218660   4.267   0.340   6.693
 5921SOL     OW18661   3.871   5.284   6.749
 5921SOL    HW118662   3.926   5.366   6.732
 5921SOL    HW218663   3.906   5.209   6.693
 5922SOL     OW18664   5.710   5.238   2.784
 5922SOL    HW118665   5.747   5.310   2.843
 5922SOL    HW218666   5.715   5.268   2.688
 5923SOL     OW18667   6.102   1.049   1.411
 5923SOL    HW118668   6.102   0.959   1.368
 5923SOL    HW218669   6.143   1.115   1.348
 5924SOL     OW18670   6.568   0.910   3.054
 5924SOL    HW118671   6.497   0.980   3.042
 5924SOL    HW218672   6.525   0.821   3.067
 5925SOL     OW18673   4.080   6.587   1.851
 5925SOL    HW118674   4.120   6.679   1.842
 5925SOL    HW218675   4.015   6.572   1.777
 5926SOL     OW18676   4.069   5.386   1.359
 5926SOL    HW118677   4.113   5.382   1.449
 5926SOL    HW218678   4.091   5.473   1.315
 5927SOL     OW18679   1.358   4.200   2.700
 5927SOL    HW118680   1.389   4.111   2.669
 5927SOL    HW218681   1.285   4.233   2.641
 5928SOL     OW18682   4.120   0.254   1.080
 5928SOL    HW118683   4.051   0.199   1.127
 5928SOL    HW218684   4.148   0.207   0.996
 5929SOL     OW18685   0.552   6.757   6.825
 5929SOL    HW118686   0.647   6.746   6.797
 5929SOL    HW218687   0.493   6.702   6.766
 5930SOL     OW18688   6.399   3.494   3.803
 5930SOL    HW118689   6.383   3.567   3.737
 5930SOL    HW218690   6.469   3.432   3.768
 5931SOL     OW18691   6.571   5.408   3.246
 5931SOL    HW118692   6.611   5.317   3.242
 5931SOL    HW218693   6.551   5.432   3.341
 5932SOL     OW18694   3.130   0.498   0.643
 5932SOL    HW118695   3.133   0.475   0.740
 5932SOL    HW218696   3.038   0.525   0.617
 5933SOL     OW18697   6.534   6.193   3.127
 5933SOL    HW118698   6.559   6.213   3.032
 5933SOL    HW218699   6.611   6.216   3.186
 5934SOL     OW18700   3.843   2.981   4.318
 5934SOL    HW118701   3.858   2.972   4.416
 5934SOL    HW218702   3.913   3.041   4.278
 5935SOL     OW18703   5.220   5.324   6.434
 5935SOL    HW118704   5.149   5.333   6.364
 5935SOL    HW218705   5.253   5.229   6.436
 5936SOL     OW18706   3.742   2.923   1.157
 5936SOL    HW118707   3.736   2.913   1.058
 5936SOL    HW218708   3.727   3.019   1.182
 5937SOL     OW18709   0.578   4.617   2.564
 5937SOL    HW118710   0.614   4.586   2.476
 5937SOL    HW218711   0.481   4.595   2.571
 5938SOL     OW18712   0.637   5.487   3.226
 5938SOL    HW118713   0.625   5.406   3.283
 5938SOL    HW218714   0.697   5.464   3.149
 5939SOL     OW18715   3.090   7.009   2.765
 5939SOL    HW118716   3.116   0.035   2.680
 5939SOL    HW218717   3.096   6.910   2.753
 5940SOL     OW18718   5.100   5.393   0.772
 5940SOL    HW118719   5.004   5.380   0.795
 5940SOL    HW218720   5.107   5.452   0.691
 5941SOL     OW18721   6.201   2.890   2.453
 5941SOL    HW118722   6.284   2.925   2.408
 5941SOL    HW218723   6.158   2.964   2.505
 5942SOL     OW18724   4.698   3.571   6.986
 5942SOL    HW118725   4.748   3.486   7.007
 5942SOL    HW218726   4.635   3.555   6.911
 5943SOL     OW18727   3.576   4.928   0.071
 5943SOL    HW118728   3.485   4.961   0.094
 5943SOL    HW218729   3.613   4.875   0.147
 5944SOL     OW18730   6.267   2.909   0.908
 5944SOL    HW118731   6.304   2.831   0.858
 5944SOL    HW218732   6.291   2.901   1.005
 5945SOL     OW18733   5.968   5.474   5.112
 5945SOL    HW118734   6.045   5.508   5.057
 5945SOL    HW218735   5.977   5.507   5.206
 5946SOL     OW18736   3.780   3.131   6.386
 5946SOL    HW118737   3.779   3.148   6.287
 5946SOL    HW218738   3.757   3.216   6.434
 5947SOL     OW18739   3.665   3.727   2.125
 5947SOL    HW118740   3.572   3.726   2.162
 5947SOL    HW218741   3.692   3.634   2.099
 5948SOL     OW18742   4.397   5.361   3.814
 5948SOL    HW118743   4.464   5.324   3.878
 5948SOL    HW218744   4.423   5.336   3.720
 5949SOL     OW18745   5.194   3.475   2.075
 5949SOL    HW118746   5.241   3.462   2.163
 5949SOL    HW218747   5.106   3.427   2.077
 5950SOL     OW18748   4.592   1.683   5.786
 5950SOL    HW118749   4.563   1.769   5.745
 5950SOL    HW218750   4.524   1.653   5.853
 5951SOL     OW18751   1.294   5.786   4.109
 5951SOL    HW118752   1.248   5.765   4.196
 5951SOL    HW218753   1.270   5.879   4.081
 5952SOL     OW18754   5.512   4.851   3.331
 5952SOL    HW118755   5.495   4.949   3.327
 5952SOL    HW218756   5.594   4.829   3.278
 5953SOL     OW18757   6.291   2.417   5.437
 5953SOL    HW118758   6.313   2.323   5.464
 5953SOL    HW218759   6.204   2.418   5.388
 5954SOL     OW18760   0.251   4.324   6.276
 5954SOL    HW118761   0.216   4.236   6.244
 5954SOL    HW218762   0.270   4.383   6.198
 5955SOL     OW18763   5.084   6.242   2.691
 5955SOL    HW118764   5.166   6.206   2.734
 5955SOL    HW218765   5.013   6.256   2.760
 5956SOL     OW18766   4.126   1.195   5.389
 5956SOL    HW118767   4.118   1.139   5.471
 5956SOL    HW218768   4.041   1.190   5.337
 5957SOL     OW18769   4.380   0.976   4.966
 5957SOL    HW118770   4.358   0.893   5.019
 5957SOL    HW218771   4.366   1.056   5.024
 5958SOL     OW18772   5.893   0.063   3.264
 5958SOL    HW118773   5.825   7.009   3.251
 5958SOL    HW218774   5.903   0.114   3.179
 5959SOL     OW18775   4.022   2.827   5.293
 5959SOL    HW118776   3.951   2.855   5.229
 5959SOL    HW218777   4.067   2.744   5.259
 5960SOL     OW18778   3.295   4.897   4.556
 5960SOL    HW118779   3.225   4.951   4.604
 5960SOL    HW218780   3.348   4.845   4.623
 5961SOL     OW18781   5.265   1.257   2.807
 5961SOL    HW118782   5.296   1.341   2.853
 5961SOL    HW218783   5.232   1.281   2.716
 5962SOL     OW18784   6.032   6.232   0.174
 5962SOL    HW118785   6.055   6.326   0.151
 5962SOL    HW218786   5.933   6.218   0.164
 5963SOL     OW18787   3.934   3.640   5.385
 5963SOL    HW118788   3.992   3.675   5.458
 5963SOL    HW218789   3.850   3.694   5.380
 5964SOL     OW18790   0.553   5.307   5.481
 5964SOL    HW118791   0.600   5.253   5.411
 5964SOL    HW218792   0.553   5.403   5.454
 5965SOL     OW18793   1.368   2.302   6.333
 5965SOL    HW118794   1.371   2.342   6.241
 5965SOL    HW218795   1.460   2.279   6.362
 5966SOL     OW18796   2.845   5.489   5.690
 5966SOL    HW118797   2.909   5.449   5.756
 5966SOL    HW218798   2.813   5.578   5.724
 5967SOL     OW18799   4.138   6.794   6.453
 5967SOL    HW118800   4.103   6.881   6.420
 5967SOL    HW218801   4.172   6.805   6.547
 5968SOL     OW18802   5.141   1.819   1.264
 5968SOL    HW118803   5.087   1.781   1.189
 5968SOL    HW218804   5.142   1.919   1.258
 5969SOL     OW18805   0.149   6.837   6.196
 5969SOL    HW118806   0.091   6.776   6.142
 5969SOL    HW218807   0.092   6.890   6.259
 5970SOL     OW18808   0.111   4.481   2.396
 5970SOL    HW118809   0.168   4.463   2.315
 5970SOL    HW218810   0.077   4.395   2.433
 5971SOL     OW18811   0.922   1.182   2.263
 5971SOL    HW118812   0.996   1.243   2.233
 5971SOL    HW218813   0.914   1.105   2.200
 5972SOL     OW18814   5.626   4.949   6.200
 5972SOL    HW118815   5.698   4.930   6.133
 5972SOL    HW218816   5.553   5.003   6.158
 5973SOL     OW18817   1.330   3.357   2.699
 5973SOL    HW118818   1.311   3.321   2.790
 5973SOL    HW218819   1.428   3.378   2.692
 5974SOL     OW18820   5.091   5.101   6.164
 5974SOL    HW118821   5.043   5.068   6.082
 5974SOL    HW218822   5.036   5.172   6.208
 5975SOL     OW18823   4.164   0.733   0.282
 5975SOL    HW118824   4.199   0.643   0.257
 5975SOL    HW218825   4.213   0.803   0.231
 5976SOL     OW18826   3.348   2.968   5.444
 5976SOL    HW118827   3.353   3.067   5.455
 5976SOL    HW218828   3.303   2.928   5.524
 5977SOL     OW18829   1.939   5.143   6.801
 5977SOL    HW118830   1.986   5.147   6.713
 5977SOL    HW218831   1.911   5.049   6.819
 5978SOL     OW18832   5.140   5.523   2.386
 5978SOL    HW118833   5.047   5.490   2.370
 5978SOL    HW218834   5.154   5.609   2.338
 5979SOL     OW18835   5.760   0.788   2.612
 5979SOL    HW118836   5.770   0.866   2.673
 5979SOL    HW218837   5.839   0.728   2.622
 5980SOL     OW18838   4.348   4.227   1.343
 5980SOL    HW118839   4.390   4.193   1.259
 5980SOL    HW218840   4.252   4.251   1.326
 5981SOL     OW18841   5.410   2.414   1.516
 5981SOL    HW118842   5.397   2.419   1.417
 5981SOL    HW218843   5.327   2.446   1.562
 5982SOL     OW18844   6.430   3.336   2.483
 5982SOL    HW118845   6.397   3.265   2.421
 5982SOL    HW218846   6.375   3.336   2.567
 5983SOL     OW18847   1.313   1.532   4.265
 5983SOL    HW118848   1.318   1.623   4.305
 5983SOL    HW218849   1.338   1.536   4.168
 5984SOL     OW18850   6.822   5.553   3.239
 5984SOL    HW118851   6.890   5.511   3.298
 5984SOL    HW218852   6.731   5.522   3.266
 5985SOL     OW18853   0.318   2.989   4.424
 5985SOL    HW118854   0.243   2.934   4.387
 5985SOL    HW218855   0.353   3.049   4.352
 5986SOL     OW18856   2.995   3.722   4.232
 5986SOL    HW118857   2.969   3.669   4.313
 5986SOL    HW218858   2.972   3.671   4.150
 5987SOL     OW18859   4.885   0.236   3.786
 5987SOL    HW118860   4.853   0.280   3.870
 5987SOL    HW218861   4.915   0.143   3.807
 5988SOL     OW18862   4.702   6.922   5.344
 5988SOL    HW118863   4.736   6.960   5.430
 5988SOL    HW218864   4.780   6.894   5.287
 5989SOL     OW18865   2.534   6.296   6.106
 5989SOL    HW118866   2.631   6.306   6.127
 5989SOL    HW218867   2.487   6.383   6.124
 5990SOL     OW18868   3.650   4.344   6.979
 5990SOL    HW118869   3.685   4.398   6.902
 5990SOL    HW218870   3.553   4.365   6.994
 5991SOL     OW18871   2.926   5.242   0.179
 5991SOL    HW118872   2.936   5.315   0.247
 5991SOL    HW218873   2.973   5.268   0.094
 5992SOL     OW18874   4.004   0.506   2.497
 5992SOL    HW118875   4.064   0.574   2.455
 5992SOL    HW218876   4.013   0.511   2.597
 5993SOL     OW18877   3.465   6.097   6.740
 5993SOL    HW118878   3.474   6.137   6.831
 5993SOL    HW218879   3.369   6.100   6.711
 5994SOL     OW18880   5.677   2.664   2.459
 5994SOL    HW118881   5.582   2.671   2.428
 5994SOL    HW218882   5.678   2.650   2.558
 5995SOL     OW18883   5.039   4.024   2.719
 5995SOL    HW118884   5.126   4.074   2.710
 5995SOL    HW218885   5.029   3.990   2.812
 5996SOL     OW18886   1.186   6.372   0.656
 5996SOL    HW118887   1.093   6.346   0.682
 5996SOL    HW218888   1.236   6.402   0.738
 5997SOL     OW18889   0.750   5.510   2.571
 5997SOL    HW118890   0.843   5.489   2.539
 5997SOL    HW218891   0.685   5.492   2.497
 5998SOL     OW18892   5.788   0.942   2.967
 5998SOL    HW118893   5.745   1.032   2.975
 5998SOL    HW218894   5.736   0.876   3.022
 5999SOL     OW18895   1.499   1.565   2.501
 5999SOL    HW118896   1.588   1.602   2.526
 5999SOL    HW218897   1.438   1.640   2.475
 6000SOL     OW18898   4.306   6.750   0.743
 6000SOL    HW118899   4.324   6.660   0.703
 6000SOL    HW218900   4.208   6.758   0.764
 6001SOL     OW18901   1.074   4.047   6.900
 6001SOL    HW118902   1.148   4.053   6.833
 6001SOL    HW218903   0.994   4.004   6.859
 6002SOL     OW18904   5.755   0.363   0.717
 6002SOL    HW118905   5.826   0.307   0.674
 6002SOL    HW218906   5.734   0.441   0.658
 6003SOL     OW18907   5.743   2.620   4.887
 6003SOL    HW118908   5.800   2.565   4.949
 6003SOL    HW218909   5.686   2.560   4.831
 6004SOL     OW18910   0.309   3.872   2.747
 6004SOL    HW118911   0.235   3.937   2.731
 6004SOL    HW218912   0.309   3.803   2.675
 6005SOL     OW18913   4.773   5.801   4.211
 6005SOL    HW118914   4.736   5.713   4.183
 6005SOL    HW218915   4.735   5.873   4.153
 6006SOL     OW18916   2.532   0.871   5.423
 6006SOL    HW118917   2.591   0.937   5.376
 6006SOL    HW218918   2.581   0.784   5.433
 6007SOL     OW18919   4.831   3.505   5.820
 6007SOL    HW118920   4.760   3.478   5.754
 6007SOL    HW218921   4.800   3.585   5.871
 6008SOL     OW18922   2.405   4.303   5.512
 6008SOL    HW118923   2.486   4.361   5.518
 6008SOL    HW218924   2.328   4.347   5.558
 6009SOL     OW18925   3.014   0.332   3.584
 6009SOL    HW118926   3.111   0.323   3.606
 6009SOL    HW218927   2.971   0.394   3.650
 6010SOL     OW18928   1.371   4.295   4.413
 6010SOL    HW118929   1.436   4.371   4.422
 6010SOL    HW218930   1.413   4.211   4.449
 6011SOL     OW18931   4.837   3.140   2.995
 6011SOL    HW118932   4.831   3.121   2.897
 6011SOL    HW218933   4.863   3.235   3.009
 6012SOL     OW18934   5.443   1.275   6.900
 6012SOL    HW118935   5.390   1.274   6.985
 6012SOL    HW218936   5.525   1.329   6.914
 6013SOL     OW18937   4.756   1.987   2.512
 6013SOL    HW118938   4.724   2.051   2.442
 6013SOL    HW218939   4.682   1.926   2.538
 6014SOL     OW18940   3.752   3.490   2.019
 6014SOL    HW118941   3.756   3.391   2.010
 6014SOL    HW218942   3.793   3.533   1.938
 6015SOL     OW18943   5.820   3.765   4.219
 6015SOL    HW118944   5.808   3.693   4.151
 6015SOL    HW218945   5.845   3.724   4.306
 6016SOL     OW18946   6.570   1.706   5.721
 6016SOL    HW118947   6.629   1.712   5.802
 6016SOL    HW218948   6.486   1.758   5.736
 6017SOL     OW18949   6.588   4.324   3.299
 6017SOL    HW118950   6.537   4.276   3.371
 6017SOL    HW218951   6.555   4.418   3.291
 6018SOL     OW18952   3.581   0.660   6.808
 6018SOL    HW118953   3.484   0.667   6.831
 6018SOL    HW218954   3.631   0.736   6.851
 6019SOL     OW18955   6.716   1.658   4.349
 6019SOL    HW118956   6.705   1.741   4.293
 6019SOL    HW218957   6.792   1.671   4.413
 6020SOL     OW18958   0.831   4.832   1.197
 6020SOL    HW118959   0.859   4.888   1.118
 6020SOL    HW218960   0.836   4.887   1.280
 6021SOL     OW18961   4.768   0.348   2.537
 6021SOL    HW118962   4.795   0.253   2.521
 6021SOL    HW218963   4.706   0.353   2.616
 6022SOL     OW18964   4.711   2.264   4.218
 6022SOL    HW118965   4.727   2.165   4.219
 6022SOL    HW218966   4.786   2.308   4.169
 6023SOL     OW18967   6.160   0.456   2.165
 6023SOL    HW118968   6.140   0.491   2.073
 6023SOL    HW218969   6.259   0.448   2.177
 6024SOL     OW18970   1.440   4.318   3.110
 6024SOL    HW118971   1.432   4.407   3.155
 6024SOL    HW218972   1.348   4.286   3.084
 6025SOL     OW18973   3.938   1.688   2.893
 6025SOL    HW118974   3.980   1.658   2.979
 6025SOL    HW218975   3.885   1.771   2.908
 6026SOL     OW18976   0.376   4.459   5.500
 6026SOL    HW118977   0.320   4.440   5.420
 6026SOL    HW218978   0.344   4.544   5.543
 6027SOL     OW18979   1.152   3.849   6.496
 6027SOL    HW118980   1.060   3.846   6.457
 6027SOL    HW218981   1.155   3.796   6.581
 6028SOL     OW18982   7.009   4.645   7.003
 6028SOL    HW118983   6.950   4.606   0.055
 6028SOL    HW218984   0.048   4.717   0.024
 6029SOL     OW18985   2.420   6.264   5.268
 6029SOL    HW118986   2.494   6.302   5.324
 6029SOL    HW218987   2.459   6.215   5.190
 6030SOL     OW18988   3.899   6.017   2.596
 6030SOL    HW118989   3.832   6.045   2.666
 6030SOL    HW218990   3.981   5.982   2.641
 6031SOL     OW18991   2.997   5.633   3.749
 6031SOL    HW118992   3.081   5.684   3.732
 6031SOL    HW218993   2.942   5.681   3.816
 6032SOL     OW18994   2.323   4.269   2.697
 6032SOL    HW118995   2.330   4.239   2.792
 6032SOL    HW218996   2.387   4.344   2.681
 6033SOL     OW18997   3.120   2.179   3.227
 6033SOL    HW118998   3.216   2.195   3.204
 6033SOL    HW218999   3.067   2.166   3.143
 6034SOL     OW19000   1.576   5.269   4.648
 6034SOL    HW119001   1.551   5.318   4.564
 6034SOL    HW219002   1.522   5.303   4.724
 6035SOL     OW19003   0.475   1.203   2.777
 6035SOL    HW119004   0.462   1.249   2.865
 6035SOL    HW219005   0.406   1.132   2.766
 6036SOL     OW19006   5.501   5.766   3.323
 6036SOL    HW119007   5.508   5.827   3.403
 6036SOL    HW219008   5.424   5.795   3.266
 6037SOL     OW19009   4.261   5.480   6.956
 6037SOL    HW119010   4.296   5.569   6.926
 6037SOL    HW219011   4.333   5.431   7.005
 6038SOL     OW19012   1.446   2.066   5.743
 6038SOL    HW119013   1.491   2.141   5.693
 6038SOL    HW219014   1.347   2.077   5.735
 6039SOL     OW19015   2.916   3.624   2.452
 6039SOL    HW119016   2.903   3.679   2.534
 6039SOL    HW219017   2.983   3.552   2.470
 6040SOL     OW19018   0.681   1.617   6.805
 6040SOL    HW119019   0.695   1.684   6.879
 6040SOL    HW219020   0.752   1.629   6.736
 6041SOL     OW19021   2.883   0.082   4.814
 6041SOL    HW119022   2.964   0.054   4.866
 6041SOL    HW219023   2.837   0.001   4.779
 6042SOL     OW19024   4.878   5.841   2.103
 6042SOL    HW119025   4.789   5.858   2.146
 6042SOL    HW219026   4.867   5.770   2.033
 6043SOL     OW19027   0.929   4.614   5.352
 6043SOL    HW119028   0.919   4.713   5.368
 6043SOL    HW219029   1.022   4.586   5.377
 6044SOL     OW19030   0.895   2.078   1.692
 6044SOL    HW119031   0.852   2.003   1.642
 6044SOL    HW219032   0.853   2.085   1.783
 6045SOL     OW19033   5.984   4.972   2.107
 6045SOL    HW119034   6.006   5.045   2.172
 6045SOL    HW219035   5.888   4.976   2.083
 6046SOL     OW19036   3.783   1.873   0.161
 6046SOL    HW119037   3.879   1.851   0.148
 6046SOL    HW219038   3.772   1.934   0.240
 6047SOL     OW19039   5.138   1.999   1.713
 6047SOL    HW119040   5.189   2.046   1.785
 6047SOL    HW219041   5.190   1.920   1.681
 6048SOL     OW19042   4.607   5.474   5.138
 6048SOL    HW119043   4.603   5.535   5.218
 6048SOL    HW219044   4.659   5.392   5.161
 6049SOL     OW19045   5.639   3.225   6.403
 6049SOL    HW119046   5.705   3.299   6.409
 6049SOL    HW219047   5.554   3.252   6.449
 6050SOL     OW19048   3.791   6.023   4.772
 6050SOL    HW119049   3.795   5.959   4.696
 6050SOL    HW219050   3.735   5.985   4.846
 6051SOL     OW19051   2.615   0.581   4.055
 6051SOL    HW119052   2.576   0.621   3.972
 6051SOL    HW219053   2.678   0.646   4.097
 6052SOL     OW19054   6.586   0.163   0.398
 6052SOL    HW119055   6.551   0.078   0.359
 6052SOL    HW219056   6.516   0.234   0.391
 6053SOL     OW19057   3.931   1.239   6.834
 6053SOL    HW119058   3.983   1.246   6.920
 6053SOL    HW219059   3.868   1.316   6.827
 6054SOL     OW19060   2.761   3.818   0.576
 6054SOL    HW119061   2.807   3.827   0.488
 6054SOL    HW219062   2.666   3.850   0.567
 6055SOL     OW19063   4.420   0.441   5.229
 6055SOL    HW119064   4.384   0.348   5.227
 6055SOL    HW219065   4.489   0.452   5.158
 6056SOL     OW19066   4.676   2.768   4.588
 6056SOL    HW119067   4.723   2.856   4.595
 6056SOL    HW219068   4.649   2.737   4.679
 6057SOL     OW19069   5.418   3.331   4.049
 6057SOL    HW119070   5.476   3.334   4.131
 6057SOL    HW219071   5.382   3.239   4.036
 6058SOL     OW19072   5.291   2.712   1.683
 6058SOL    HW119073   5.286   2.713   1.783
 6058SOL    HW219074   5.231   2.641   1.648
 6059SOL     OW19075   5.042   4.720   4.906
 6059SOL    HW119076   5.138   4.734   4.931
 6059SOL    HW219077   4.984   4.785   4.954
 6060SOL     OW19078   2.923   4.613   0.640
 6060SOL    HW119079   2.896   4.654   0.727
 6060SOL    HW219080   2.870   4.653   0.566
 6061SOL     OW19081   3.920   2.101   1.077
 6061SOL    HW119082   3.968   2.114   0.990
 6061SOL    HW219083   3.887   2.007   1.082
 6062SOL     OW19084   2.592   1.263   5.168
 6062SOL    HW119085   2.623   1.248   5.074
 6062SOL    HW219086   2.508   1.211   5.184
 6063SOL     OW19087   3.320   1.798   6.070
 6063SOL    HW119088   3.392   1.832   6.130
 6063SOL    HW219089   3.238   1.779   6.124
 6064SOL     OW19090   1.893   6.122   0.837
 6064SOL    HW119091   1.833   6.197   0.809
 6064SOL    HW219092   1.875   6.098   0.932
 6065SOL     OW19093   6.723   0.247   1.909
 6065SOL    HW119094   6.779   0.232   1.990
 6065SOL    HW219095   6.748   0.180   1.839
 6066SOL     OW19096   4.545   1.364   5.930
 6066SOL    HW119097   4.636   1.402   5.914
 6066SOL    HW219098   4.553   1.277   5.980
 6067SOL     OW19099   5.118   1.332   5.563
 6067SOL    HW119100   5.129   1.305   5.659
 6067SOL    HW219101   5.195   1.390   5.536
 6068SOL     OW19102   5.259   3.253   4.522
 6068SOL    HW119103   5.166   3.277   4.494
 6068SOL    HW219104   5.323   3.323   4.489
 6069SOL     OW19105   6.619   2.748   4.933
 6069SOL    HW119106   6.703   2.701   4.960
 6069SOL    HW219107   6.540   2.698   4.967
 6070SOL     OW19108   2.221   3.232   0.424
 6070SOL    HW119109   2.314   3.241   0.458
 6070SOL    HW219110   2.156   3.258   0.496
 6071SOL     OW19111   5.464   5.373   4.112
 6071SOL    HW119112   5.531   5.444   4.133
 6071SOL    HW219113   5.383   5.415   4.071
 6072SOL     OW19114   0.283   0.554   1.717
 6072SOL    HW119115   0.186   0.564   1.693
 6072SOL    HW219116   0.292   0.551   1.817
 6073SOL     OW19117   5.736   3.772   0.134
 6073SOL    HW119118   5.752   3.808   0.226
 6073SOL    HW219119   5.813   3.716   0.106
 6074SOL     OW19120   1.331   6.526   4.525
 6074SOL    HW119121   1.410   6.527   4.464
 6074SOL    HW219122   1.250   6.559   4.475
 6075SOL     OW19123   6.901   1.581   6.461
 6075SOL    HW119124   6.921   1.575   6.559
 6075SOL    HW219125   6.807   1.613   6.448
 6076SOL     OW19126   2.552   5.564   4.177
 6076SOL    HW119127   2.607   5.532   4.255
 6076SOL    HW219128   2.486   5.494   4.152
 6077SOL     OW19129   5.693   6.070   0.919
 6077SOL    HW119130   5.739   5.983   0.898
 6077SOL    HW219131   5.750   6.146   0.887
 6078SOL     OW19132   4.105   4.498   0.789
 6078SOL    HW119133   4.052   4.477   0.870
 6078SOL    HW219134   4.046   4.541   0.720
 6079SOL     OW19135   4.049   3.572   6.004
 6079SOL    HW119136   4.051   3.526   6.093
 6079SOL    HW219137   3.959   3.560   5.963
 6080SOL     OW19138   6.837   1.321   1.291
 6080SOL    HW119139   6.876   1.233   1.264
 6080SOL    HW219140   6.912   1.387   1.305
 6081SOL     OW19141   6.591   3.723   5.926
 6081SOL    HW119142   6.671   3.775   5.957
 6081SOL    HW219143   6.602   3.627   5.951
 6082SOL     OW19144   2.099   2.004   3.823
 6082SOL    HW119145   2.099   1.910   3.790
 6082SOL    HW219146   2.014   2.049   3.797
 6083SOL     OW19147   0.153   4.887   6.989
 6083SOL    HW119148   0.086   4.959   7.003
 6083SOL    HW219149   0.177   4.882   6.893
 6084SOL     OW19150   0.713   6.903   3.605
 6084SOL    HW119151   0.626   6.935   3.568
 6084SOL    HW219152   0.719   6.803   3.597
 6085SOL     OW19153   0.932   4.608   0.550
 6085SOL    HW119154   1.027   4.635   0.540
 6085SOL    HW219155   0.926   4.529   0.612
 6086SOL     OW19156   3.384   0.896   6.277
 6086SOL    HW119157   3.455   0.957   6.313
 6086SOL    HW219158   3.369   0.821   6.341
 6087SOL     OW19159   4.077   5.543   0.894
 6087SOL    HW119160   3.981   5.516   0.907
 6087SOL    HW219161   4.102   5.532   0.798
 6088SOL     OW19162   5.701   5.498   3.774
 6088SOL    HW119163   5.717   5.413   3.824
 6088SOL    HW219164   5.775   5.563   3.793
 6089SOL     OW19165   6.057   3.266   0.833
 6089SOL    HW119166   5.987   3.274   0.762
 6089SOL    HW219167   6.023   3.208   0.907
 6090SOL     OW19168   1.822   5.850   6.035
 6090SOL    HW119169   1.795   5.764   6.079
 6090SOL    HW219170   1.822   5.923   6.102
 6091SOL     OW19171   1.788   1.712   0.574
 6091SOL    HW119172   1.832   1.802   0.580
 6091SOL    HW219173   1.847   1.642   0.614
 6092SOL     OW19174   4.056   6.557   2.831
 6092SOL    HW119175   4.109   6.629   2.873
 6092SOL    HW219176   4.080   6.550   2.734
 6093SOL     OW19177   1.804   3.379   2.842
 6093SOL    HW119178   1.880   3.437   2.873
 6093SOL    HW219179   1.743   3.432   2.783
 6094SOL     OW19180   3.531   0.260   1.709
 6094SOL    HW119181   3.562   0.343   1.661
 6094SOL    HW219182   3.522   0.185   1.643
 6095SOL     OW19183   4.538   3.413   0.273
 6095SOL    HW119184   4.583   3.335   0.230
 6095SOL    HW219185   4.607   3.475   0.311
 6096SOL     OW19186   0.262   0.258   3.292
 6096SOL    HW119187   0.167   0.280   3.273
 6096SOL    HW219188   0.287   0.174   3.245
 6097SOL     OW19189   2.769   6.940   2.323
 6097SOL    HW119190   2.682   6.935   2.275
 6097SOL    HW219191   2.756   6.986   2.411
 6098SOL     OW19192   1.553   2.688   5.633
 6098SOL    HW119193   1.547   2.688   5.534
 6098SOL    HW219194   1.636   2.640   5.661
 6099SOL     OW19195   6.510   6.336   0.331
 6099SOL    HW119196   6.560   6.420   0.309
 6099SOL    HW219197   6.490   6.286   0.247
 6100SOL     OW19198   4.353   4.313   6.733
 6100SOL    HW119199   4.337   4.223   6.690
 6100SOL    HW219200   4.424   4.304   6.802
 6101SOL     OW19201   6.305   2.524   4.704
 6101SOL    HW119202   6.402   2.505   4.718
 6101SOL    HW219203   6.294   2.618   4.671
 6102SOL     OW19204   3.377   6.560   3.380
 6102SOL    HW119205   3.452   6.533   3.441
 6102SOL    HW219206   3.302   6.494   3.388
 6103SOL     OW19207   6.652   2.779   2.137
 6103SOL    HW119208   6.655   2.680   2.151
 6103SOL    HW219209   6.606   2.800   2.050
 6104SOL     OW19210   5.886   1.048   5.290
 6104SOL    HW119211   5.982   1.054   5.260
 6104SOL    HW219212   5.832   1.004   5.218
 6105SOL     OW19213   2.776   6.858   5.811
 6105SOL    HW119214   2.751   6.950   5.782
 6105SOL    HW219215   2.830   6.863   5.895
 6106SOL     OW19216   2.795   4.774   5.954
 6106SOL    HW119217   2.839   4.811   6.035
 6106SOL    HW219218   2.791   4.674   5.961
 6107SOL     OW19219   2.488   4.545   4.598
 6107SOL    HW119220   2.446   4.488   4.669
 6107SOL    HW219221   2.475   4.502   4.509
 6108SOL     OW19222   0.609   2.335   2.048
 6108SOL    HW119223   0.548   2.258   2.067
 6108SOL    HW219224   0.585   2.413   2.106
 6109SOL     OW19225   5.559   2.725   5.381
 6109SOL    HW119226   5.607   2.804   5.343
 6109SOL    HW219227   5.503   2.682   5.310
 6110SOL     OW19228   4.662   3.856   0.452
 6110SOL    HW119229   4.566   3.882   0.451
 6110SOL    HW219230   4.670   3.758   0.437
 6111SOL     OW19231   2.229   4.256   2.338
 6111SOL    HW119232   2.135   4.229   2.359
 6111SOL    HW219233   2.292   4.206   2.398
 6112SOL     OW19234   4.142   6.996   2.781
 6112SOL    HW119235   4.206   6.983   2.706
 6112SOL    HW219236   4.184   0.035   2.851
 6113SOL     OW19237   2.003   0.990   6.452
 6113SOL    HW119238   2.047   0.976   6.363
 6113SOL    HW219239   1.910   1.022   6.438
 6114SOL     OW19240   5.026   5.557   1.192
 6114SOL    HW119241   5.106   5.596   1.238
 6114SOL    HW219242   4.994   5.476   1.242
 6115SOL     OW19243   5.403   0.018   4.057
 6115SOL    HW119244   5.359   6.948   4.060
 6115SOL    HW219245   5.450   0.030   3.970
 6116SOL     OW19246   3.281   0.345   6.916
 6116SOL    HW119247   3.268   0.264   6.974
 6116SOL    HW219248   3.261   0.427   6.968
 6117SOL     OW19249   1.097   1.274   5.091
 6117SOL    HW119250   1.085   1.209   5.166
 6117SOL    HW219251   1.015   1.276   5.033
 6118SOL     OW19252   6.630   0.803   2.160
 6118SOL    HW119253   6.691   0.803   2.239
 6118SOL    HW219254   6.542   0.763   2.186
 6119SOL     OW19255   1.982   3.503   5.901
 6119SOL    HW119256   1.984   3.491   6.000
 6119SOL    HW219257   1.931   3.586   5.878
 6120SOL     OW19258   3.869   6.528   4.596
 6120SOL    HW119259   3.929   6.465   4.548
 6120SOL    HW219260   3.842   6.603   4.534
 6121SOL     OW19261   1.376   3.333   5.640
 6121SOL    HW119262   1.463   3.341   5.592
 6121SOL    HW219263   1.312   3.401   5.606
 6122SOL     OW19264   4.352   6.258   0.492
 6122SOL    HW119265   4.410   6.244   0.572
 6122SOL    HW219266   4.409   6.262   0.410
 6123SOL     OW19267   6.365   0.000   6.563
 6123SOL    HW119268   6.337   6.924   6.550
 6123SOL    HW219269   6.311   0.059   6.502
 6124SOL     OW19270   2.164   0.703   5.831
 6124SOL    HW119271   2.125   0.788   5.868
 6124SOL    HW219272   2.215   0.723   5.748
 6125SOL     OW19273   1.039   6.063   6.957
 6125SOL    HW119274   1.014   5.967   6.944
 6125SOL    HW219275   1.111   6.069   0.008
 6126SOL     OW19276   0.787   0.632   4.185
 6126SOL    HW119277   0.691   0.629   4.156
 6126SOL    HW219278   0.814   0.540   4.216
 6127SOL     OW19279   3.787   0.020   1.533
 6127SOL    HW119280   3.817   6.947   1.508
 6127SOL    HW219281   3.687   0.022   1.540
 6128SOL     OW19282   6.142   3.334   6.687
 6128SOL    HW119283   6.133   3.236   6.666
 6128SOL    HW219284   6.234   3.352   6.722
 6129SOL     OW19285   6.272   3.812   3.430
 6129SOL    HW119286   6.179   3.802   3.397
 6129SOL    HW219287   6.310   3.900   3.400
 6130SOL     OW19288   6.050   2.012   3.701
 6130SOL    HW119289   6.063   2.079   3.628
 6130SOL    HW219290   5.955   1.983   3.704
 6131SOL     OW19291   6.825   0.913   5.096
 6131SOL    HW119292   6.745   0.933   5.040
 6131SOL    HW219293   6.797   0.867   5.180
 6132SOL     OW19294   4.870   1.523   0.499
 6132SOL    HW119295   4.827   1.554   0.415
 6132SOL    HW219296   4.955   1.574   0.514
 6133SOL     OW19297   0.910   2.591   2.078
 6133SOL    HW119298   0.921   2.541   2.164
 6133SOL    HW219299   0.909   2.526   2.002
 6134SOL     OW19300   3.772   4.638   6.349
 6134SOL    HW119301   3.794   4.551   6.394
 6134SOL    HW219302   3.832   4.651   6.270
 6135SOL     OW19303   0.621   0.879   2.229
 6135SOL    HW119304   0.560   0.951   2.260
 6135SOL    HW219305   0.603   0.860   2.132
 6136SOL     OW19306   0.845   2.929   2.866
 6136SOL    HW119307   0.855   3.028   2.859
 6136SOL    HW219308   0.926   2.885   2.827
 6137SOL     OW19309   6.251   2.492   3.865
 6137SOL    HW119310   6.180   2.494   3.796
 6137SOL    HW219311   6.213   2.516   3.954
 6138SOL     OW19312   4.392   6.815   2.666
 6138SOL    HW119313   4.414   6.754   2.742
 6138SOL    HW219314   4.330   6.767   2.603
 6139SOL     OW19315   1.569   1.234   6.094
 6139SOL    HW119316   1.495   1.182   6.051
 6139SOL    HW219317   1.549   1.246   6.192
 6140SOL     OW19318   0.580   6.714   1.419
 6140SOL    HW119319   0.679   6.697   1.424
 6140SOL    HW219320   0.550   6.705   1.324
 6141SOL     OW19321   6.646   5.531   5.916
 6141SOL    HW119322   6.742   5.543   5.891
 6141SOL    HW219323   6.639   5.515   6.015
 6142SOL     OW19324   1.188   5.923   0.894
 6142SOL    HW119325   1.199   5.966   0.805
 6142SOL    HW219326   1.148   5.988   0.958
 6143SOL     OW19327   0.003   3.946   0.943
 6143SOL    HW119328   0.061   3.900   0.875
 6143SOL    HW219329   6.933   3.902   0.946
 6144SOL     OW19330   5.856   4.275   3.118
 6144SOL    HW119331   5.922   4.234   3.180
 6144SOL    HW219332   5.769   4.225   3.123
 6145SOL     OW19333   4.768   5.449   3.672
 6145SOL    HW119334   4.846   5.436   3.611
 6145SOL    HW219335   4.686   5.466   3.619
 6146SOL     OW19336   2.750   6.233   3.389
 6146SOL    HW119337   2.691   6.205   3.313
 6146SOL    HW219338   2.772   6.154   3.445
 6147SOL     OW19339   1.415   3.542   4.187
 6147SOL    HW119340   1.333   3.489   4.208
 6147SOL    HW219341   1.401   3.637   4.214
 6148SOL     OW19342   6.610   0.095   4.255
 6148SOL    HW119343   6.664   0.021   4.296
 6148SOL    HW219344   6.640   0.110   4.161
 6149SOL     OW19345   2.926   5.580   1.520
 6149SOL    HW119346   2.965   5.661   1.565
 6149SOL    HW219347   2.996   5.539   1.461
 6150SOL     OW19348   4.582   4.554   6.998
 6150SOL    HW119349   4.605   4.523   0.071
 6150SOL    HW219350   4.569   4.475   6.938
 6151SOL     OW19351   5.668   4.206   5.802
 6151SOL    HW119352   5.728   4.138   5.843
 6151SOL    HW219353   5.720   4.264   5.739
 6152SOL     OW19354   6.579   5.340   5.187
 6152SOL    HW119355   6.631   5.257   5.165
 6152SOL    HW219356   6.491   5.338   5.138
 6153SOL     OW19357   5.470   3.853   1.413
 6153SOL    HW119358   5.381   3.826   1.377
 6153SOL    HW219359   5.498   3.939   1.370
 6154SOL     OW19360   6.256   2.325   2.286
 6154SOL    HW119361   6.279   2.307   2.381
 6154SOL    HW219362   6.336   2.309   2.229
 6155SOL     OW19363   1.739   1.839   4.549
 6155SOL    HW119364   1.706   1.807   4.461
 6155SOL    HW219365   1.823   1.891   4.536
 6156SOL     OW19366   4.057   4.621   1.787
 6156SOL    HW119367   4.038   4.668   1.701
 6156SOL    HW219368   4.003   4.537   1.791
 6157SOL     OW19369   1.385   0.952   4.119
 6157SOL    HW119370   1.307   0.962   4.056
 6157SOL    HW219371   1.362   0.887   4.190
 6158SOL     OW19372   4.201   1.439   6.127
 6158SOL    HW119373   4.245   1.443   6.217
 6158SOL    HW219374   4.234   1.514   6.070
 6159SOL     OW19375   4.845   2.624   1.555
 6159SOL    HW119376   4.810   2.709   1.594
 6159SOL    HW219377   4.852   2.555   1.627
 6160SOL     OW19378   4.860   0.851   6.463
 6160SOL    HW119379   4.910   0.768   6.486
 6160SOL    HW219380   4.842   0.855   6.365
 6161SOL     OW19381   5.089   1.681   4.818
 6161SOL    HW119382   5.108   1.765   4.868
 6161SOL    HW219383   5.006   1.639   4.854
 6162SOL     OW19384   1.312   6.437   3.410
 6162SOL    HW119385   1.251   6.375   3.361
 6162SOL    HW219386   1.265   6.472   3.491
 6163SOL     OW19387   6.634   6.322   0.687
 6163SOL    HW119388   6.538   6.343   0.704
 6163SOL    HW219389   6.642   6.234   0.640
 6164SOL     OW19390   3.380   2.665   1.745
 6164SOL    HW119391   3.283   2.651   1.767
 6164SOL    HW219392   3.417   2.739   1.802
 6165SOL     OW19393   4.612   0.833   6.587
 6165SOL    HW119394   4.691   0.850   6.528
 6165SOL    HW219395   4.626   0.748   6.638
 6166SOL     OW19396   4.452   0.720   6.023
 6166SOL    HW119397   4.379   0.708   6.091
 6166SOL    HW219398   4.444   0.810   5.980
 6167SOL     OW19399   1.047   4.916   3.485
 6167SOL    HW119400   1.080   4.979   3.555
 6167SOL    HW219401   1.115   4.846   3.468
 6168SOL     OW19402   0.688   3.807   1.022
 6168SOL    HW119403   0.687   3.882   0.957
 6168SOL    HW219404   0.624   3.827   1.097
 6169SOL     OW19405   1.529   2.422   0.738
 6169SOL    HW119406   1.536   2.334   0.784
 6169SOL    HW219407   1.559   2.494   0.800
 6170SOL     OW19408   1.050   3.929   5.389
 6170SOL    HW119409   0.982   3.956   5.458
 6170SOL    HW219410   1.004   3.882   5.313
 6171SOL     OW19411   0.394   3.105   0.961
 6171SOL    HW119412   0.487   3.089   0.994
 6171SOL    HW219413   0.331   3.042   1.006
 6172SOL     OW19414   2.239   2.885   2.236
 6172SOL    HW119415   2.210   2.966   2.185
 6172SOL    HW219416   2.277   2.818   2.172
 6173SOL     OW19417   6.827   5.981   1.889
 6173SOL    HW119418   6.792   5.917   1.957
 6173SOL    HW219419   6.795   5.954   1.798
 6174SOL     OW19420   4.532   5.859   3.569
 6174SOL    HW119421   4.461   5.803   3.526
 6174SOL    HW219422   4.490   5.922   3.634
 6175SOL     OW19423   4.710   0.146   3.465
 6175SOL    HW119424   4.638   0.174   3.402
 6175SOL    HW219425   4.719   0.214   3.538
 6176SOL     OW19426   4.852   4.398   5.291
 6176SOL    HW119427   4.894   4.473   5.342
 6176SOL    HW219428   4.875   4.407   5.194
 6177SOL     OW19429   5.757   1.025   1.530
 6177SOL    HW119430   5.802   1.041   1.442
 6177SOL    HW219431   5.707   1.107   1.557
 6178SOL     OW19432   4.653   4.257   2.500
 6178SOL    HW119433   4.574   4.264   2.561
 6178SOL    HW219434   4.627   4.289   2.409
 6179SOL     OW19435   6.333   4.721   3.917
 6179SOL    HW119436   6.401   4.734   3.845
 6179SOL    HW219437   6.290   4.808   3.939
 6180SOL     OW19438   2.987   4.370   0.557
 6180SOL    HW119439   2.962   4.464   0.578
 6180SOL    HW219440   2.913   4.326   0.506
 6181SOL     OW19441   5.050   6.571   6.580
 6181SOL    HW119442   5.072   6.658   6.625
 6181SOL    HW219443   5.127   6.543   6.523
 6182SOL     OW19444   4.794   2.969   4.894
 6182SOL    HW119445   4.827   3.063   4.882
 6182SOL    HW219446   4.786   2.949   4.992
 6183SOL     OW19447   1.208   2.576   3.876
 6183SOL    HW119448   1.217   2.674   3.859
 6183SOL    HW219449   1.120   2.557   3.920
 6184SOL     OW19450   2.636   6.349   6.760
 6184SOL    HW119451   2.663   6.388   6.673
 6184SOL    HW219452   2.536   6.338   6.762
 6185SOL     OW19453   0.474   3.646   6.284
 6185SOL    HW119454   0.421   3.682   6.206
 6185SOL    HW219455   0.541   3.580   6.251
 6186SOL     OW19456   0.069   0.769   0.240
 6186SOL    HW119457   0.122   0.820   0.307
 6186SOL    HW219458   0.028   0.832   0.174
 6187SOL     OW19459   5.212   4.407   4.185
 6187SOL    HW119460   5.234   4.400   4.087
 6187SOL    HW219461   5.114   4.392   4.198
 6188SOL     OW19462   2.367   1.982   6.502
 6188SOL    HW119463   2.465   2.001   6.506
 6188SOL    HW219464   2.351   1.888   6.532
 6189SOL     OW19465   4.466   4.475   2.505
 6189SOL    HW119466   4.493   4.475   2.408
 6189SOL    HW219467   4.372   4.508   2.513
 6190SOL     OW19468   0.824   4.295   5.488
 6190SOL    HW119469   0.732   4.283   5.525
 6190SOL    HW219470   0.840   4.228   5.415
 6191SOL     OW19471   2.809   2.539   6.613
 6191SOL    HW119472   2.799   2.637   6.631
 6191SOL    HW219473   2.719   2.496   6.616
 6192SOL     OW19474   2.686   2.302   5.669
 6192SOL    HW119475   2.616   2.254   5.722
 6192SOL    HW219476   2.762   2.240   5.650
 6193SOL     OW19477   4.398   6.239   1.700
 6193SOL    HW119478   4.429   6.278   1.787
 6193SOL    HW219479   4.304   6.270   1.682
 6194SOL     OW19480   0.840   0.452   0.495
 6194SOL    HW119481   0.920   0.473   0.550
 6194SOL    HW219482   0.816   0.531   0.438
 6195SOL     OW19483   4.341   5.946   4.762
 6195SOL    HW119484   4.265   5.911   4.708
 6195SOL    HW219485   4.401   6.001   4.704
 6196SOL     OW19486   5.601   3.311   2.100
 6196SOL    HW119487   5.582   3.409   2.098
 6196SOL    HW219488   5.687   3.293   2.053
 6197SOL     OW19489   3.486   5.159   1.168
 6197SOL    HW119490   3.479   5.244   1.221
 6197SOL    HW219491   3.525   5.088   1.225
 6198SOL     OW19492   3.967   6.590   1.262
 6198SOL    HW119493   3.929   6.507   1.304
 6198SOL    HW219494   4.025   6.564   1.185
 6199SOL     OW19495   1.354   1.119   0.423
 6199SOL    HW119496   1.276   1.139   0.364
 6199SOL    HW219497   1.431   1.177   0.397
 6200SOL     OW19498   1.323   1.400   5.840
 6200SOL    HW119499   1.237   1.446   5.821
 6200SOL    HW219500   1.399   1.455   5.807
 6201SOL     OW19501   0.917   4.272   5.756
 6201SOL    HW119502   0.890   4.306   5.665
 6201SOL    HW219503   0.974   4.340   5.801
 6202SOL     OW19504   4.884   1.385   1.432
 6202SOL    HW119505   4.928   1.345   1.352
 6202SOL    HW219506   4.906   1.482   1.438
 6203SOL     OW19507   6.414   5.643   2.300
 6203SOL    HW119508   6.512   5.635   2.281
 6203SOL    HW219509   6.381   5.732   2.268
 6204SOL     OW19510   6.871   5.672   4.058
 6204SOL    HW119511   6.866   5.603   4.131
 6204SOL    HW219512   6.965   5.705   4.050
 6205SOL     OW19513   6.738   5.854   1.613
 6205SOL    HW119514   6.836   5.857   1.593
 6205SOL    HW219515   6.689   5.817   1.535
 6206SOL     OW19516   6.067   1.729   2.915
 6206SOL    HW119517   6.149   1.781   2.939
 6206SOL    HW219518   6.025   1.770   2.834
 6207SOL     OW19519   1.667   5.295   5.714
 6207SOL    HW119520   1.725   5.339   5.783
 6207SOL    HW219521   1.680   5.341   5.626
 6208SOL     OW19522   4.671   2.711   5.607
 6208SOL    HW119523   4.770   2.703   5.616
 6208SOL    HW219524   4.641   2.664   5.524
 6209SOL     OW19525   3.180   6.165   0.041
 6209SOL    HW119526   3.200   6.224   0.119
 6209SOL    HW219527   3.101   6.107   0.062
 6210SOL     OW19528   5.026   3.008   3.907
 6210SOL    HW119529   4.933   2.978   3.925
 6210SOL    HW219530   5.054   3.075   3.976
 6211SOL     OW19531   3.019   6.075   5.858
 6211SOL    HW119532   3.111   6.100   5.889
 6211SOL    HW219533   2.956   6.149   5.881
 6212SOL     OW19534   2.604   4.701   4.880
 6212SOL    HW119535   2.691   4.677   4.924
 6212SOL    HW219536   2.562   4.618   4.842
 6213SOL     OW19537   5.910   0.193   6.847
 6213SOL    HW119538   5.868   0.252   6.916
 6213SOL    HW219539   5.996   0.157   6.882
 6214SOL     OW19540   5.412   5.520   4.677
 6214SOL    HW119541   5.394   5.427   4.710
 6214SOL    HW219542   5.325   5.564   4.654
 6215SOL     OW19543   4.050   2.437   6.187
 6215SOL    HW119544   4.123   2.428   6.120
 6215SOL    HW219545   3.962   2.423   6.143
 6216SOL     OW19546   6.061   2.073   2.848
 6216SOL    HW119547   6.061   2.166   2.811
 6216SOL    HW219548   6.149   2.029   2.829
 6217SOL     OW19549   0.605   3.515   2.213
 6217SOL    HW119550   0.695   3.502   2.174
 6217SOL    HW219551   0.597   3.461   2.297
 6218SOL     OW19552   3.512   6.551   6.214
 6218SOL    HW119553   3.517   6.627   6.279
 6218SOL    HW219554   3.564   6.473   6.249
 6219SOL     OW19555   0.830   2.177   4.750
 6219SOL    HW119556   0.744   2.213   4.716
 6219SOL    HW219557   0.862   2.233   4.826
 6220SOL     OW19558   2.477   1.015   4.918
 6220SOL    HW119559   2.385   1.010   4.956
 6220SOL    HW219560   2.540   0.961   4.974
 6221SOL     OW19561   5.553   6.422   0.105
 6221SOL    HW119562   5.593   6.421   0.013
 6221SOL    HW219563   5.453   6.422   0.098
 6222SOL     OW19564   1.726   6.836   1.484
 6222SOL    HW119565   1.716   6.921   1.536
 6222SOL    HW219566   1.823   6.818   1.468
 6223SOL     OW19567   1.522   5.028   3.384
 6223SOL    HW119568   1.479   5.054   3.470
 6223SOL    HW219569   1.452   5.027   3.311
 6224SOL     OW19570   3.595   1.040   6.415
 6224SOL    HW119571   3.600   1.128   6.368
 6224SOL    HW219572   3.606   1.053   6.513
 6225SOL     OW19573   4.047   3.039   6.466
 6225SOL    HW119574   3.950   3.064   6.461
 6225SOL    HW219575   4.103   3.122   6.470
 6226SOL     OW19576   0.769   1.619   4.604
 6226SOL    HW119577   0.824   1.581   4.530
 6226SOL    HW219578   0.823   1.687   4.653
 6227SOL     OW19579   3.107   4.955   5.077
 6227SOL    HW119580   3.031   4.966   5.013
 6227SOL    HW219581   3.105   4.863   5.116
 6228SOL     OW19582   0.577   3.145   2.367
 6228SOL    HW119583   0.628   3.091   2.299
 6228SOL    HW219584   0.486   3.104   2.380
 6229SOL     OW19585   0.600   2.315   4.694
 6229SOL    HW119586   0.532   2.388   4.688
 6229SOL    HW219587   0.560   2.229   4.662
 6230SOL     OW19588   0.606   2.205   4.332
 6230SOL    HW119589   0.634   2.166   4.419
 6230SOL    HW219590   0.645   2.151   4.257
 6231SOL     OW19591   6.171   5.692   0.721
 6231SOL    HW119592   6.114   5.658   0.647
 6231SOL    HW219593   6.267   5.673   0.701
 6232SOL     OW19594   6.597   1.226   1.037
 6232SOL    HW119595   6.691   1.201   1.015
 6232SOL    HW219596   6.558   1.280   0.962
 6233SOL     OW19597   6.560   2.569   1.293
 6233SOL    HW119598   6.610   2.581   1.207
 6233SOL    HW219599   6.623   2.576   1.370
 6234SOL     OW19600   7.010   0.051   5.276
 6234SOL    HW119601   0.014   0.087   5.186
 6234SOL    HW219602   6.929   0.098   5.311
 6235SOL     OW19603   7.018   0.317   1.439
 6235SOL    HW119604   6.981   0.375   1.367
 6235SOL    HW219605   6.943   0.269   1.485
 6236SOL     OW19606   0.542   4.367   1.227
 6236SOL    HW119607   0.572   4.342   1.135
 6236SOL    HW219608   0.533   4.467   1.233
 6237SOL     OW19609   3.603   6.838   6.657
 6237SOL    HW119610   3.602   6.938   6.654
 6237SOL    HW219611   3.523   6.806   6.708
 6238SOL     OW19612   5.328   5.778   2.723
 6238SOL    HW119613   5.330   5.846   2.649
 6238SOL    HW219614   5.348   5.823   2.810
 6239SOL     OW19615   4.207   1.541   1.316
 6239SOL    HW119616   4.227   1.552   1.219
 6239SOL    HW219617   4.110   1.521   1.329
 6240SOL     OW19618   2.463   3.803   5.341
 6240SOL    HW119619   2.459   3.862   5.260
 6240SOL    HW219620   2.547   3.749   5.338
 6241SOL     OW19621   3.412   0.783   2.141
 6241SOL    HW119622   3.473   0.706   2.163
 6241SOL    HW219623   3.455   0.868   2.171
 6242SOL     OW19624   3.942   6.771   3.135
 6242SOL    HW119625   3.847   6.759   3.105
 6242SOL    HW219626   4.004   6.749   3.061
 6243SOL     OW19627   6.997   6.586   5.147
 6243SOL    HW119628   6.938   6.661   5.177
 6243SOL    HW219629   0.073   6.609   5.164
 6244SOL     OW19630   5.321   3.260   3.439
 6244SOL    HW119631   5.406   3.211   3.420
 6244SOL    HW219632   5.247   3.220   3.384
 6245SOL     OW19633   1.604   3.303   0.755
 6245SOL    HW119634   1.650   3.222   0.791
 6245SOL    HW219635   1.505   3.292   0.766
 6246SOL     OW19636   1.049   2.098   5.369
 6246SOL    HW119637   1.014   2.178   5.418
 6246SOL    HW219638   1.011   2.095   5.277
 6247SOL     OW19639   0.315   5.959   3.843
 6247SOL    HW119640   0.335   6.031   3.910
 6247SOL    HW219641   0.380   5.966   3.767
 6248SOL     OW19642   4.035   4.082   0.039
 6248SOL    HW119643   4.086   4.154   0.085
 6248SOL    HW219644   4.035   4.000   0.095
 6249SOL     OW19645   6.739   3.290   0.842
 6249SOL    HW119646   6.681   3.222   0.886
 6249SOL    HW219647   6.834   3.259   0.843
 6250SOL     OW19648   6.353   0.013   1.479
 6250SOL    HW119649   6.285   0.038   1.549
 6250SOL    HW219650   6.411   0.092   1.459
 6251SOL     OW19651   4.237   5.730   5.076
 6251SOL    HW119652   4.328   5.690   5.088
 6251SOL    HW219653   4.225   5.805   5.141
 6252SOL     OW19654   2.745   5.818   6.504
 6252SOL    HW119655   2.803   5.763   6.565
 6252SOL    HW219656   2.731   5.768   6.419
 6253SOL     OW19657   2.748   5.023   4.132
 6253SOL    HW119658   2.724   4.977   4.047
 6253SOL    HW219659   2.666   5.065   4.172
 6254SOL     OW19660   6.255   1.236   1.277
 6254SOL    HW119661   6.250   1.223   1.178
 6254SOL    HW219662   6.297   1.325   1.297
 6255SOL     OW19663   2.520   1.001   1.117
 6255SOL    HW119664   2.516   1.030   1.021
 6255SOL    HW219665   2.609   0.960   1.135
 6256SOL     OW19666   3.842   5.252   2.655
 6256SOL    HW119667   3.748   5.218   2.644
 6256SOL    HW219668   3.843   5.351   2.646
 6257SOL     OW19669   4.401   2.989   0.024
 6257SOL    HW119670   4.384   2.998   0.122
 6257SOL    HW219671   4.500   2.987   0.007
 6258SOL     OW19672   2.974   0.009   3.854
 6258SOL    HW119673   2.973   0.063   3.770
 6258SOL    HW219674   2.907   0.045   3.918
 6259SOL     OW19675   1.997   1.238   6.621
 6259SOL    HW119676   2.005   1.213   6.524
 6259SOL    HW219677   2.064   1.309   6.643
 6260SOL     OW19678   3.459   6.151   0.007
 6260SOL    HW119679   3.360   6.162   0.015
 6260SOL    HW219680   3.497   6.128   0.097
 6261SOL     OW19681   5.246   0.639   6.704
 6261SOL    HW119682   5.217   0.716   6.647
 6261SOL    HW219683   5.169   0.577   6.719
 6262SOL     OW19684   2.208   6.206   1.739
 6262SOL    HW119685   2.232   6.298   1.709
 6262SOL    HW219686   2.194   6.147   1.659
 6263SOL     OW19687   0.789   6.889   4.701
 6263SOL    HW119688   0.854   6.813   4.692
 6263SOL    HW219689   0.763   6.921   4.610
 6264SOL     OW19690   2.013   0.837   2.093
 6264SOL    HW119691   2.002   0.768   2.021
 6264SOL    HW219692   1.995   0.928   2.056
 6265SOL     OW19693   3.973   3.297   0.253
 6265SOL    HW119694   3.963   3.337   0.344
 6265SOL    HW219695   3.904   3.336   0.192
 6266SOL     OW19696   5.050   6.966   3.443
 6266SOL    HW119697   4.977   6.970   3.511
 6266SOL    HW219698   5.109   0.026   3.452
 6267SOL     OW19699   2.434   6.892   5.154
 6267SOL    HW119700   2.347   6.898   5.106
 6267SOL    HW219701   2.502   6.947   5.108
 6268SOL     OW19702   3.363   0.856   2.517
 6268SOL    HW119703   3.373   0.935   2.456
 6268SOL    HW219704   3.379   0.772   2.464
 6269SOL     OW19705   6.941   0.109   2.572
 6269SOL    HW119706   6.942   0.134   2.669
 6269SOL    HW219707   6.998   0.028   2.558
 6270SOL     OW19708   0.074   0.218   5.902
 6270SOL    HW119709   0.008   0.241   5.830
 6270SOL    HW219710   0.109   0.125   5.887
 6271SOL     OW19711   5.688   2.461   5.550
 6271SOL    HW119712   5.698   2.557   5.527
 6271SOL    HW219713   5.603   2.447   5.601
 6272SOL     OW19714   0.782   2.325   0.515
 6272SOL    HW119715   0.747   2.251   0.573
 6272SOL    HW219716   0.711   2.396   0.506
 6273SOL     OW19717   0.583   6.438   2.789
 6273SOL    HW119718   0.551   6.381   2.864
 6273SOL    HW219719   0.595   6.382   2.707
 6274SOL     OW19720   3.225   6.756   5.023
 6274SOL    HW119721   3.151   6.776   5.087
 6274SOL    HW219722   3.188   6.747   4.931
 6275SOL     OW19723   2.321   6.392   0.014
 6275SOL    HW119724   2.242   6.395   6.972
 6275SOL    HW219725   2.331   6.299   0.051
 6276SOL     OW19726   2.097   5.356   3.835
 6276SOL    HW119727   2.132   5.443   3.871
 6276SOL    HW219728   2.156   5.323   3.762
 6277SOL     OW19729   4.554   3.035   1.010
 6277SOL    HW119730   4.456   3.059   1.012
 6277SOL    HW219731   4.585   3.029   0.915
 6278SOL     OW19732   4.846   0.040   4.707
 6278SOL    HW119733   4.857   6.963   4.682
 6278SOL    HW219734   4.921   0.094   4.670
 6279SOL     OW19735   3.245   6.260   0.280
 6279SOL    HW119736   3.220   6.168   0.311
 6279SOL    HW219737   3.343   6.275   0.294
 6280SOL     OW19738   0.137   0.833   6.134
 6280SOL    HW119739   0.230   0.833   6.171
 6280SOL    HW219740   0.078   0.890   6.191
 6281SOL     OW19741   6.781   5.038   4.181
 6281SOL    HW119742   6.748   5.108   4.244
 6281SOL    HW219743   6.865   5.069   4.137
 6282SOL     OW19744   6.010   4.891   5.791
 6282SOL    HW119745   5.921   4.885   5.837
 6282SOL    HW219746   6.032   4.803   5.749
 6283SOL     OW19747   0.149   3.942   4.298
 6283SOL    HW119748   0.166   3.850   4.335
 6283SOL    HW219749   0.119   4.002   4.372
 6284SOL     OW19750   2.056   4.899   5.304
 6284SOL    HW119751   2.145   4.855   5.306
 6284SOL    HW219752   1.995   4.854   5.369
 6285SOL     OW19753   0.420   3.405   3.779
 6285SOL    HW119754   0.415   3.485   3.720
 6285SOL    HW219755   0.368   3.421   3.863
 6286SOL     OW19756   6.853   2.348   4.261
 6286SOL    HW119757   6.922   2.312   4.324
 6286SOL    HW219758   6.899   2.395   4.185
 6287SOL     OW19759   3.417   4.946   5.016
 6287SOL    HW119760   3.317   4.941   5.024
 6287SOL    HW219761   3.459   4.926   5.104
 6288SOL     OW19762   4.821   4.608   1.978
 6288SOL    HW119763   4.834   4.619   2.077
 6288SOL    HW219764   4.890   4.544   1.943
 6289SOL     OW19765   1.606   5.086   0.172
 6289SOL    HW119766   1.652   4.999   0.155
 6289SOL    HW219767   1.643   5.155   0.110
 6290SOL     OW19768   6.238   4.620   6.104
 6290SOL    HW119769   6.298   4.557   6.153
 6290SOL    HW219770   6.151   4.575   6.086
 6291SOL     OW19771   4.056   3.848   3.651
 6291SOL    HW119772   4.002   3.930   3.668
 6291SOL    HW219773   4.102   3.819   3.735
 6292SOL     OW19774   2.230   2.166   4.973
 6292SOL    HW119775   2.173   2.166   5.054
 6292SOL    HW219776   2.204   2.243   4.914
 6293SOL     OW19777   4.215   1.790   1.104
 6293SOL    HW119778   4.249   1.824   1.192
 6293SOL    HW219779   4.122   1.824   1.089
 6294SOL     OW19780   4.091   0.520   3.420
 6294SOL    HW119781   4.031   0.467   3.481
 6294SOL    HW219782   4.037   0.589   3.372
 6295SOL     OW19783   5.180   4.884   4.373
 6295SOL    HW119784   5.251   4.815   4.361
 6295SOL    HW219785   5.157   4.891   4.470
 6296SOL     OW19786   6.739   4.898   6.453
 6296SOL    HW119787   6.641   4.885   6.458
 6296SOL    HW219788   6.777   4.837   6.383
 6297SOL     OW19789   5.814   0.155   5.425
 6297SOL    HW119790   5.835   0.251   5.407
 6297SOL    HW219791   5.764   0.117   5.347
 6298SOL     OW19792   1.458   3.604   6.332
 6298SOL    HW119793   1.529   3.637   6.393
 6298SOL    HW219794   1.467   3.648   6.243
 6299SOL     OW19795   5.916   2.488   2.015
 6299SOL    HW119796   5.850   2.532   2.075
 6299SOL    HW219797   6.008   2.496   2.055
 6300SOL     OW19798   6.277   1.164   6.643
 6300SOL    HW119799   6.356   1.125   6.689
 6300SOL    HW219800   6.194   1.137   6.691
 6301SOL     OW19801   2.841   6.812   6.962
 6301SOL    HW119802   2.904   6.760   0.001
 6301SOL    HW219803   2.747   6.786   6.984
 6302SOL     OW19804   1.765   2.059   4.973
 6302SOL    HW119805   1.836   2.056   4.902
 6302SOL    HW219806   1.690   2.117   4.943
 6303SOL     OW19807   0.656   0.876   5.387
 6303SOL    HW119808   0.725   0.934   5.430
 6303SOL    HW219809   0.693   0.839   5.302
 6304SOL     OW19810   3.569   1.057   2.012
 6304SOL    HW119811   3.509   1.027   1.938
 6304SOL    HW219812   3.630   0.982   2.038
 6305SOL     OW19813   5.767   6.390   0.594
 6305SOL    HW119814   5.699   6.334   0.548
 6305SOL    HW219815   5.763   6.483   0.559
 6306SOL     OW19816   6.920   4.139   4.274
 6306SOL    HW119817   6.963   4.206   4.213
 6306SOL    HW219818   6.968   4.052   4.268
 6307SOL     OW19819   3.495   3.876   3.636
 6307SOL    HW119820   3.469   3.972   3.626
 6307SOL    HW219821   3.482   3.847   3.731
 6308SOL     OW19822   1.884   2.789   4.422
 6308SOL    HW119823   1.794   2.746   4.428
 6308SOL    HW219824   1.873   2.885   4.396
 6309SOL     OW19825   0.089   6.423   4.416
 6309SOL    HW119826   0.020   6.442   4.345
 6309SOL    HW219827   0.049   6.437   4.506
 6310SOL     OW19828   1.313   6.493   2.451
 6310SOL    HW119829   1.310   6.470   2.353
 6310SOL    HW219830   1.388   6.557   2.468
 6311SOL     OW19831   4.341   1.549   5.930
 6311SOL    HW119832   4.268   1.558   5.863
 6311SOL    HW219833   4.374   1.455   5.931
 6312SOL     OW19834   0.256   7.002   4.660
 6312SOL    HW119835   0.166   0.010   4.696
 6312SOL    HW219836   0.326   0.001   4.729
 6313SOL     OW19837   6.541   5.982   4.015
 6313SOL    HW119838   6.597   5.961   4.096
 6313SOL    HW219839   6.452   6.017   4.044
 6314SOL     OW19840   3.597   6.706   1.486
 6314SOL    HW119841   3.579   6.713   1.584
 6314SOL    HW219842   3.528   6.648   1.443
 6315SOL     OW19843   3.024   2.185   5.871
 6315SOL    HW119844   2.983   2.238   5.946
 6315SOL    HW219845   3.084   2.115   5.909
 6316SOL     OW19846   5.097   2.041   5.848
 6316SOL    HW119847   5.160   2.030   5.772
 6316SOL    HW219848   5.052   1.954   5.869
 6317SOL     OW19849   5.010   4.504   1.332
 6317SOL    HW119850   5.066   4.585   1.319
 6317SOL    HW219851   5.023   4.469   1.425
 6318SOL     OW19852   4.292   6.855   6.221
 6318SOL    HW119853   4.265   6.853   6.317
 6318SOL    HW219854   4.226   6.908   6.169
 6319SOL     OW19855   6.256   2.067   5.364
 6319SOL    HW119856   6.220   2.146   5.314
 6319SOL    HW219857   6.342   2.093   5.408
 6320SOL     OW19858   6.962   6.446   4.684
 6320SOL    HW119859   6.982   6.544   4.687
 6320SOL    HW219860   6.869   6.430   4.717
 6321SOL     OW19861   4.371   3.011   0.654
 6321SOL    HW119862   4.440   3.058   0.709
 6321SOL    HW219863   4.397   3.016   0.558
 6322SOL     OW19864   2.360   2.431   1.116
 6322SOL    HW119865   2.349   2.372   1.195
 6322SOL    HW219866   2.290   2.502   1.117
 6323SOL     OW19867   1.205   2.654   1.802
 6323SOL    HW119868   1.150   2.679   1.723
 6323SOL    HW219869   1.282   2.717   1.811
 6324SOL     OW19870   4.214   1.104   0.745
 6324SOL    HW119871   4.238   1.024   0.799
 6324SOL    HW219872   4.262   1.184   0.782
 6325SOL     OW19873   2.034   3.283   2.972
 6325SOL    HW119874   1.955   3.269   2.912
 6325SOL    HW219875   2.061   3.380   2.970
 6326SOL     OW19876   5.522   5.276   0.314
 6326SOL    HW119877   5.587   5.268   0.390
 6326SOL    HW219878   5.539   5.362   0.266
 6327SOL     OW19879   6.871   1.993   4.845
 6327SOL    HW119880   6.881   1.894   4.831
 6327SOL    HW219881   6.867   2.039   4.757
 6328SOL     OW19882   4.307   3.532   0.302
 6328SOL    HW119883   4.377   3.463   0.288
 6328SOL    HW219884   4.285   3.576   0.214
 6329SOL     OW19885   1.496   3.085   3.928
 6329SOL    HW119886   1.571   3.025   3.956
 6329SOL    HW219887   1.411   3.053   3.969
 6330SOL     OW19888   6.017   6.838   1.717
 6330SOL    HW119889   5.922   6.862   1.738
 6330SOL    HW219890   6.073   6.847   1.799
 6331SOL     OW19891   6.742   3.460   5.238
 6331SOL    HW119892   6.741   3.438   5.141
 6331SOL    HW219893   6.668   3.524   5.259
 6332SOL     OW19894   0.586   2.532   1.389
 6332SOL    HW119895   0.540   2.452   1.427
 6332SOL    HW219896   0.685   2.519   1.395
 6333SOL     OW19897   4.873   0.219   5.505
 6333SOL    HW119898   4.790   0.218   5.562
 6333SOL    HW219899   4.892   0.313   5.476
 6334SOL     OW19900   3.638   1.216   2.642
 6334SOL    HW119901   3.640   1.249   2.737
 6334SOL    HW219902   3.711   1.262   2.590
 6335SOL     OW19903   4.085   0.177   0.685
 6335SOL    HW119904   4.010   0.243   0.682
 6335SOL    HW219905   4.070   0.113   0.760
 6336SOL     OW19906   0.901   1.747   6.645
 6336SOL    HW119907   0.949   1.798   6.717
 6336SOL    HW219908   0.941   1.769   6.556
 6337SOL     OW19909   4.013   5.054   5.210
 6337SOL    HW119910   3.937   5.062   5.275
 6337SOL    HW219911   4.089   5.112   5.240
 6338SOL     OW19912   2.994   2.165   4.088
 6338SOL    HW119913   3.009   2.086   4.147
 6338SOL    HW219914   2.988   2.247   4.144
 6339SOL     OW19915   0.954   3.400   3.828
 6339SOL    HW119916   0.860   3.411   3.860
 6339SOL    HW219917   0.975   3.471   3.760
 6340SOL     OW19918   2.025   4.653   1.093
 6340SOL    HW119919   2.018   4.751   1.110
 6340SOL    HW219920   1.982   4.631   1.005
 6341SOL     OW19921   6.781   3.293   4.697
 6341SOL    HW119922   6.702   3.255   4.649
 6341SOL    HW219923   6.764   3.292   4.795
 6342SOL     OW19924   2.896   1.591   1.140
 6342SOL    HW119925   2.964   1.594   1.213
 6342SOL    HW219926   2.867   1.496   1.125
 6343SOL     OW19927   4.238   0.665   6.179
 6343SOL    HW119928   4.251   0.606   6.258
 6343SOL    HW219929   4.171   0.624   6.117
 6344SOL     OW19930   5.261   2.528   4.497
 6344SOL    HW119931   5.175   2.479   4.483
 6344SOL    HW219932   5.262   2.565   4.590
 6345SOL     OW19933   5.454   2.678   2.047
 6345SOL    HW119934   5.504   2.615   1.987
 6345SOL    HW219935   5.356   2.662   2.039
 6346SOL     OW19936   6.227   5.366   4.275
 6346SOL    HW119937   6.295   5.294   4.262
 6346SOL    HW219938   6.157   5.359   4.204
 6347SOL     OW19939   2.407   1.274   0.343
 6347SOL    HW119940   2.383   1.203   0.410
 6347SOL    HW219941   2.432   1.358   0.391
 6348SOL     OW19942   1.874   2.496   6.390
 6348SOL    HW119943   1.809   2.510   6.464
 6348SOL    HW219944   1.923   2.410   6.404
 6349SOL     OW19945   1.813   1.161   1.003
 6349SOL    HW119946   1.793   1.115   0.916
 6349SOL    HW219947   1.867   1.101   1.062
 6350SOL     OW19948   0.298   5.352   4.090
 6350SOL    HW119949   0.356   5.428   4.060
 6350SOL    HW219950   0.334   5.266   4.053
 6351SOL     OW19951   6.035   3.612   3.666
 6351SOL    HW119952   5.948   3.649   3.697
 6351SOL    HW219953   6.105   3.683   3.671
 6352SOL     OW19954   2.996   6.711   4.838
 6352SOL    HW119955   2.901   6.742   4.842
 6352SOL    HW219956   3.002   6.619   4.876
 6353SOL     OW19957   0.828   6.093   5.633
 6353SOL    HW119958   0.863   6.093   5.539
 6353SOL    HW219959   0.902   6.116   5.696
 6354SOL     OW19960   3.594   5.510   3.024
 6354SOL    HW119961   3.501   5.511   2.987
 6354SOL    HW219962   3.603   5.436   3.090
 6355SOL     OW19963   2.107   5.382   6.773
 6355SOL    HW119964   2.045   5.308   6.797
 6355SOL    HW219965   2.075   5.467   6.816
 6356SOL     OW19966   4.967   5.244   1.058
 6356SOL    HW119967   4.898   5.256   1.128
 6356SOL    HW219968   5.046   5.302   1.078
 6357SOL     OW19969   6.112   3.427   2.918
 6357SOL    HW119970   6.034   3.428   2.856
 6357SOL    HW219971   6.080   3.423   3.012
 6358SOL     OW19972   0.607   1.732   6.258
 6358SOL    HW119973   0.624   1.678   6.176
 6358SOL    HW219974   0.564   1.674   6.328
 6359SOL     OW19975   6.275   0.044   0.169
 6359SOL    HW119976   6.327   0.091   0.240
 6359SOL    HW219977   6.276   6.965   0.186
 6360SOL     OW19978   1.264   3.729   5.328
 6360SOL    HW119979   1.250   3.723   5.229
 6360SOL    HW219980   1.208   3.803   5.365
 6361SOL     OW19981   1.179   0.913   0.909
 6361SOL    HW119982   1.272   0.948   0.920
 6361SOL    HW219983   1.179   0.837   0.843
 6362SOL     OW19984   0.441   5.392   6.473
 6362SOL    HW119985   0.448   5.476   6.420
 6362SOL    HW219986   0.532   5.354   6.488
 6363SOL     OW19987   2.258   6.126   3.626
 6363SOL    HW119988   2.235   6.181   3.546
 6363SOL    HW219989   2.233   6.176   3.709
 6364SOL     OW19990   2.746   1.969   5.452
 6364SOL    HW119991   2.794   2.047   5.492
 6364SOL    HW219992   2.720   1.991   5.358
 6365SOL     OW19993   4.894   6.565   4.208
 6365SOL    HW119994   4.991   6.583   4.189
 6365SOL    HW219995   4.868   6.477   4.168
 6366SOL     OW19996   1.118   5.483   5.060
 6366SOL    HW119997   1.137   5.565   5.007
 6366SOL    HW219998   1.198   5.460   5.116
 6367SOL     OW19999   4.151   1.335   3.903
 6367SOL    HW120000   4.177   1.407   3.838
 6367SOL    HW220001   4.183   1.360   3.994
 6368SOL     OW20002   3.550   5.163   3.861
 6368SOL    HW120003   3.603   5.160   3.945
 6368SOL    HW220004   3.528   5.258   3.838
 6369SOL     OW20005   2.062   0.495   4.795
 6369SOL    HW120006   2.124   0.471   4.720
 6369SOL    HW220007   1.978   0.442   4.786
 6370SOL     OW20008   5.779   3.398   3.794
 6370SOL    HW120009   5.870   3.367   3.821
 6370SOL    HW220010   5.787   3.479   3.736
 6371SOL     OW20011   5.379   4.710   3.126
 6371SOL    HW120012   5.362   4.791   3.070
 6371SOL    HW220013   5.416   4.738   3.215
 6372SOL     OW20014   1.424   1.877   1.991
 6372SOL    HW120015   1.503   1.893   2.050
 6372SOL    HW220016   1.455   1.841   1.903
 6373SOL     OW20017   5.233   4.414   2.649
 6373SOL    HW120018   5.140   4.452   2.644
 6373SOL    HW220019   5.228   4.316   2.667
 6374SOL     OW20020   4.138   3.414   1.755
 6374SOL    HW120021   4.180   3.323   1.757
 6374SOL    HW220022   4.137   3.448   1.661
 6375SOL     OW20023   0.019   1.847   2.153
 6375SOL    HW120024   6.993   1.922   2.201
 6375SOL    HW220025   0.045   1.776   2.218
 6376SOL     OW20026   4.987   2.257   6.393
 6376SOL    HW120027   4.900   2.211   6.404
 6376SOL    HW220028   4.973   2.356   6.396
 6377SOL     OW20029   6.739   1.150   5.460
 6377SOL    HW120030   6.683   1.117   5.536
 6377SOL    HW220031   6.824   1.190   5.496
 6378SOL     OW20032   4.483   4.585   3.676
 6378SOL    HW120033   4.527   4.671   3.650
 6378SOL    HW220034   4.529   4.548   3.757
 6379SOL     OW20035   0.520   4.170   5.269
 6379SOL    HW120036   0.538   4.080   5.231
 6379SOL    HW220037   0.594   4.195   5.332
 6380SOL     OW20038   0.108   1.571   5.227
 6380SOL    HW120039   0.019   1.596   5.266
 6380SOL    HW220040   0.161   1.654   5.211
 6381SOL     OW20041   4.176   2.919   1.333
 6381SOL    HW120042   4.211   2.829   1.361
 6381SOL    HW220043   4.251   2.984   1.329
 6382SOL     OW20044   3.293   1.885   0.810
 6382SOL    HW120045   3.275   1.871   0.908
 6382SOL    HW220046   3.381   1.845   0.786
 6383SOL     OW20047   2.533   2.548   3.170
 6383SOL    HW120048   2.467   2.602   3.119
 6383SOL    HW220049   2.605   2.515   3.108
 6384SOL     OW20050   6.487   3.865   3.152
 6384SOL    HW120051   6.532   3.916   3.078
 6384SOL    HW220052   6.546   3.789   3.180
 6385SOL     OW20053   6.934   3.375   3.772
 6385SOL    HW120054   6.962   3.431   3.695
 6385SOL    HW220055   6.936   3.278   3.746
 6386SOL     OW20056   2.946   3.248   6.593
 6386SOL    HW120057   2.974   3.160   6.630
 6386SOL    HW220058   2.918   3.308   6.668
 6387SOL     OW20059   6.924   1.549   6.738
 6387SOL    HW120060   6.910   1.583   6.831
 6387SOL    HW220061   6.912   1.450   6.736
 6388SOL     OW20062   4.559   6.211   1.452
 6388SOL    HW120063   4.642   6.253   1.491
 6388SOL    HW220064   4.479   6.261   1.483
 6389SOL     OW20065   0.770   6.621   0.589
 6389SOL    HW120066   0.803   6.696   0.647
 6389SOL    HW220067   0.672   6.632   0.573
 6390SOL     OW20068   0.127   0.389   5.574
 6390SOL    HW120069   0.156   0.293   5.564
 6390SOL    HW220070   0.133   0.414   5.671
 6391SOL     OW20071   1.203   0.707   6.278
 6391SOL    HW120072   1.231   0.729   6.185
 6391SOL    HW220073   1.277   0.659   6.325
 6392SOL     OW20074   2.760   5.249   2.782
 6392SOL    HW120075   2.769   5.187   2.860
 6392SOL    HW220076   2.831   5.227   2.715
 6393SOL     OW20077   0.390   6.051   2.073
 6393SOL    HW120078   0.466   6.018   2.129
 6393SOL    HW220079   0.370   6.146   2.096
 6394SOL     OW20080   1.657   5.957   0.733
 6394SOL    HW120081   1.652   5.983   0.830
 6394SOL    HW220082   1.617   6.030   0.677
 6395SOL     OW20083   0.384   2.953   1.608
 6395SOL    HW120084   0.449   2.967   1.683
 6395SOL    HW220085   0.319   3.028   1.605
 6396SOL     OW20086   6.166   3.041   6.660
 6396SOL    HW120087   6.262   3.017   6.644
 6396SOL    HW220088   6.153   3.059   6.758
 6397SOL     OW20089   5.695   0.797   1.669
 6397SOL    HW120090   5.713   0.809   1.767
 6397SOL    HW220091   5.721   0.880   1.620
 6398SOL     OW20092   2.948   6.766   1.905
 6398SOL    HW120093   2.946   6.809   1.814
 6398SOL    HW220094   2.988   6.829   1.971
 6399SOL     OW20095   1.696   0.710   6.583
 6399SOL    HW120096   1.723   0.705   6.679
 6399SOL    HW220097   1.614   0.654   6.568
 6400SOL     OW20098   2.234   4.899   2.534
 6400SOL    HW120099   2.142   4.922   2.565
 6400SOL    HW220100   2.300   4.961   2.577
 6401SOL     OW20101   5.714   6.170   2.964
 6401SOL    HW120102   5.710   6.116   3.048
 6401SOL    HW220103   5.765   6.121   2.894
 6402SOL     OW20104   2.158   3.121   3.561
 6402SOL    HW120105   2.252   3.088   3.563
 6402SOL    HW220106   2.157   3.219   3.581
 6403SOL     OW20107   6.238   5.327   6.124
 6403SOL    HW120108   6.173   5.403   6.129
 6403SOL    HW220109   6.321   5.358   6.077
 6404SOL     OW20110   4.016   1.323   2.412
 6404SOL    HW120111   4.066   1.391   2.357
 6404SOL    HW220112   3.930   1.363   2.442
 6405SOL     OW20113   3.969   0.696   3.726
 6405SOL    HW120114   3.934   0.758   3.655
 6405SOL    HW220115   4.067   0.682   3.713
 6406SOL     OW20116   0.436   2.620   2.859
 6406SOL    HW120117   0.482   2.708   2.857
 6406SOL    HW220118   0.403   2.597   2.767
 6407SOL     OW20119   2.394   0.055   4.216
 6407SOL    HW120120   2.473   7.017   4.194
 6407SOL    HW220121   2.310   0.001   4.205
 6408SOL     OW20122   5.406   0.708   0.651
 6408SOL    HW120123   5.485   0.766   0.674
 6408SOL    HW220124   5.365   0.673   0.736
 6409SOL     OW20125   6.399   4.479   4.415
 6409SOL    HW120126   6.475   4.421   4.443
 6409SOL    HW220127   6.435   4.566   4.382
 6410SOL     OW20128   2.017   1.486   5.896
 6410SOL    HW120129   1.938   1.436   5.934
 6410SOL    HW220130   1.996   1.516   5.803
 6411SOL     OW20131   0.410   2.975   3.072
 6411SOL    HW120132   0.404   3.067   3.111
 6411SOL    HW220133   0.320   2.946   3.041
 6412SOL     OW20134   1.876   1.229   5.345
 6412SOL    HW120135   1.848   1.147   5.296
 6412SOL    HW220136   1.809   1.251   5.415
 6413SOL     OW20137   3.837   4.898   3.684
 6413SOL    HW120138   3.755   4.891   3.628
 6413SOL    HW220139   3.834   4.981   3.739
 6414SOL     OW20140   5.503   1.093   0.206
 6414SOL    HW120141   5.518   1.068   0.302
 6414SOL    HW220142   5.405   1.106   0.191
 6415SOL     OW20143   1.295   3.628   3.604
 6415SOL    HW120144   1.319   3.633   3.701
 6415SOL    HW220145   1.208   3.579   3.594
 6416SOL     OW20146   2.020   0.208   6.608
 6416SOL    HW120147   2.041   0.297   6.569
 6416SOL    HW220148   1.972   0.152   6.540
 6417SOL     OW20149   5.670   4.506   0.352
 6417SOL    HW120150   5.680   4.432   0.285
 6417SOL    HW220151   5.576   4.538   0.353
 6418SOL     OW20152   4.881   3.868   2.552
 6418SOL    HW120153   4.803   3.893   2.495
 6418SOL    HW220154   4.942   3.948   2.561
 6419SOL     OW20155   0.893   5.325   2.818
 6419SOL    HW120156   0.917   5.366   2.729
 6419SOL    HW220157   0.964   5.260   2.844
 6420SOL     OW20158   2.167   6.929   4.213
 6420SOL    HW120159   2.191   6.860   4.145
 6420SOL    HW220160   2.073   6.961   4.196
 6421SOL     OW20161   4.775   0.592   2.075
 6421SOL    HW120162   4.833   0.619   1.997
 6421SOL    HW220163   4.803   0.643   2.156
 6422SOL     OW20164   6.789   0.239   5.025
 6422SOL    HW120165   6.759   0.332   5.045
 6422SOL    HW220166   6.889   0.235   5.029
 6423SOL     OW20167   5.036   5.833   3.608
 6423SOL    HW120168   4.974   5.757   3.591
 6423SOL    HW220169   4.996   5.894   3.676
 6424SOL     OW20170   0.493   4.129   4.491
 6424SOL    HW120171   0.566   4.167   4.548
 6424SOL    HW220172   0.407   4.177   4.511
 6425SOL     OW20173   6.610   6.230   2.849
 6425SOL    HW120174   6.684   6.231   2.782
 6425SOL    HW220175   6.544   6.159   2.826
 6426SOL     OW20176   0.616   5.249   2.786
 6426SOL    HW120177   0.562   5.333   2.779
 6426SOL    HW220178   0.712   5.273   2.799
 6427SOL     OW20179   3.889   4.016   3.774
 6427SOL    HW120180   3.803   4.066   3.780
 6427SOL    HW220181   3.937   4.023   3.862
 6428SOL     OW20182   5.662   3.401   6.685
 6428SOL    HW120183   5.737   3.370   6.626
 6428SOL    HW220184   5.689   3.394   6.781
 6429SOL     OW20185   0.081   1.403   5.757
 6429SOL    HW120186   0.100   1.491   5.713
 6429SOL    HW220187   0.166   1.353   5.770
 6430SOL     OW20188   6.337   1.076   3.961
 6430SOL    HW120189   6.247   1.063   3.918
 6430SOL    HW220190   6.361   0.994   4.013
 6431SOL     OW20191   3.773   6.032   3.802
 6431SOL    HW120192   3.854   5.974   3.808
 6431SOL    HW220193   3.772   6.096   3.879
 6432SOL     OW20194   4.498   4.523   5.852
 6432SOL    HW120195   4.570   4.485   5.910
 6432SOL    HW220196   4.474   4.614   5.884
 6433SOL     OW20197   1.994   5.219   6.022
 6433SOL    HW120198   2.077   5.206   6.076
 6433SOL    HW220199   1.986   5.145   5.956
 6434SOL     OW20200   2.830   6.715   6.164
 6434SOL    HW120201   2.888   6.633   6.163
 6434SOL    HW220202   2.830   6.755   6.255
 6435SOL     OW20203   5.586   6.759   0.230
 6435SOL    HW120204   5.600   6.664   0.204
 6435SOL    HW220205   5.502   6.794   0.189
 6436SOL     OW20206   1.306   2.907   2.546
 6436SOL    HW120207   1.284   3.003   2.532
 6436SOL    HW220208   1.318   2.889   2.644
 6437SOL     OW20209   1.530   2.458   6.918
 6437SOL    HW120210   1.598   2.475   6.990
 6437SOL    HW220211   1.570   2.401   6.847
 6438SOL     OW20212   0.543   4.269   5.580
 6438SOL    HW120213   0.495   4.352   5.552
 6438SOL    HW220214   0.478   4.194   5.588
 6439SOL     OW20215   5.440   1.033   2.128
 6439SOL    HW120216   5.503   0.973   2.079
 6439SOL    HW220217   5.491   1.105   2.174
 6440SOL     OW20218   2.461   1.549   5.768
 6440SOL    HW120219   2.558   1.549   5.747
 6440SOL    HW220220   2.435   1.637   5.808
 6441SOL     OW20221   0.369   0.572   1.290
 6441SOL    HW120222   0.428   0.621   1.226
 6441SOL    HW220223   0.314   0.505   1.239
 6442SOL     OW20224   2.451   1.732   4.882
 6442SOL    HW120225   2.392   1.812   4.891
 6442SOL    HW220226   2.529   1.755   4.823
 6443SOL     OW20227   3.663   2.640   5.651
 6443SOL    HW120228   3.692   2.735   5.656
 6443SOL    HW220229   3.650   2.614   5.556
 6444SOL     OW20230   5.437   3.101   4.829
 6444SOL    HW120231   5.476   3.191   4.809
 6444SOL    HW220232   5.352   3.089   4.777
 6445SOL     OW20233   3.951   3.642   4.493
 6445SOL    HW120234   3.994   3.720   4.539
 6445SOL    HW220235   3.978   3.642   4.396
 6446SOL     OW20236   1.249   1.285   0.071
 6446SOL    HW120237   1.337   1.239   0.076
 6446SOL    HW220238   1.180   1.232   0.121
 6447SOL     OW20239   6.409   5.070   2.770
 6447SOL    HW120240   6.433   5.060   2.867
 6447SOL    HW220241   6.380   4.982   2.733
 6448SOL     OW20242   5.054   5.378   1.415
 6448SOL    HW120243   5.140   5.392   1.464
 6448SOL    HW220244   4.978   5.415   1.469
 6449SOL     OW20245   3.714   6.098   1.542
 6449SOL    HW120246   3.765   6.025   1.586
 6449SOL    HW220247   3.630   6.061   1.502
 6450SOL     OW20248   1.546   2.738   0.753
 6450SOL    HW120249   1.617   2.669   0.764
 6450SOL    HW220250   1.580   2.812   0.694
 6451SOL     OW20251   2.476   0.260   5.842
 6451SOL    HW120252   2.464   0.164   5.817
 6451SOL    HW220253   2.561   0.294   5.802
 6452SOL     OW20254   4.353   4.693   2.843
 6452SOL    HW120255   4.342   4.781   2.795
 6452SOL    HW220256   4.427   4.641   2.801
 6453SOL     OW20257   2.228   6.960   1.852
 6453SOL    HW120258   2.275   0.028   1.837
 6453SOL    HW220259   2.135   6.978   1.886
 6454SOL     OW20260   0.886   1.640   3.469
 6454SOL    HW120261   0.841   1.555   3.494
 6454SOL    HW220262   0.879   1.705   3.545
 6455SOL     OW20263   0.314   3.237   4.168
 6455SOL    HW120264   0.299   3.331   4.137
 6455SOL    HW220265   0.230   3.201   4.209
 6456SOL     OW20266   1.583   1.274   2.983
 6456SOL    HW120267   1.634   1.357   2.958
 6456SOL    HW220268   1.549   1.230   2.900
 6457SOL     OW20269   4.879   0.637   1.602
 6457SOL    HW120270   4.785   0.605   1.588
 6457SOL    HW220271   4.904   0.700   1.528
 6458SOL     OW20272   0.827   5.580   4.125
 6458SOL    HW120273   0.915   5.581   4.076
 6458SOL    HW220274   0.776   5.663   4.105
 6459SOL     OW20275   6.296   3.313   1.479
 6459SOL    HW120276   6.301   3.237   1.545
 6459SOL    HW220277   6.358   3.386   1.509
 6460SOL     OW20278   6.111   6.087   6.434
 6460SOL    HW120279   6.195   6.057   6.480
 6460SOL    HW220280   6.032   6.060   6.490
 6461SOL     OW20281   2.459   4.443   0.069
 6461SOL    HW120282   2.386   4.493   0.115
 6461SOL    HW220283   2.437   4.435   6.991
 6462SOL     OW20284   1.946   2.817   4.697
 6462SOL    HW120285   1.908   2.848   4.610
 6462SOL    HW220286   2.027   2.872   4.720
 6463SOL     OW20287   5.442   1.563   0.480
 6463SOL    HW120288   5.510   1.629   0.447
 6463SOL    HW220289   5.450   1.555   0.580
 6464SOL     OW20290   1.647   5.080   5.204
 6464SOL    HW120291   1.565   5.024   5.207
 6464SOL    HW220292   1.716   5.035   5.147
 6465SOL     OW20293   6.709   2.968   2.494
 6465SOL    HW120294   6.754   2.878   2.496
 6465SOL    HW220295   6.774   3.037   2.461
 6466SOL     OW20296   6.238   1.518   5.887
 6466SOL    HW120297   6.246   1.543   5.791
 6466SOL    HW220298   6.301   1.443   5.908
 6467SOL     OW20299   3.861   0.215   0.064
 6467SOL    HW120300   3.805   0.175   0.136
 6467SOL    HW220301   3.863   0.315   0.075
 6468SOL     OW20302   2.956   6.311   1.239
 6468SOL    HW120303   2.981   6.389   1.181
 6468SOL    HW220304   3.014   6.233   1.216
 6469SOL     OW20305   4.435   2.302   3.789
 6469SOL    HW120306   4.422   2.363   3.711
 6469SOL    HW220307   4.355   2.308   3.849
 6470SOL     OW20308   5.251   2.724   0.982
 6470SOL    HW120309   5.279   2.630   0.963
 6470SOL    HW220310   5.265   2.781   0.901
 6471SOL     OW20311   0.271   6.377   5.740
 6471SOL    HW120312   0.205   6.442   5.778
 6471SOL    HW220313   0.283   6.395   5.642
 6472SOL     OW20314   6.790   6.257   1.550
 6472SOL    HW120315   6.700   6.237   1.589
 6472SOL    HW220316   6.858   6.260   1.623
 6473SOL     OW20317   3.066   1.615   4.802
 6473SOL    HW120318   3.068   1.548   4.877
 6473SOL    HW220319   3.007   1.582   4.729
 6474SOL     OW20320   3.555   5.387   6.433
 6474SOL    HW120321   3.562   5.464   6.370
 6474SOL    HW220322   3.460   5.357   6.440
 6475SOL     OW20323   6.030   4.714   3.618
 6475SOL    HW120324   5.984   4.687   3.702
 6475SOL    HW220325   6.074   4.803   3.631
 6476SOL     OW20326   5.004   3.413   0.635
 6476SOL    HW120327   4.967   3.358   0.710
 6476SOL    HW220328   5.087   3.460   0.666
 6477SOL     OW20329   6.446   4.922   0.422
 6477SOL    HW120330   6.405   5.012   0.436
 6477SOL    HW220331   6.376   4.851   0.432
 6478SOL     OW20332   3.375   6.837   2.083
 6478SOL    HW120333   3.441   6.899   2.124
 6478SOL    HW220334   3.420   6.750   2.061
 6479SOL     OW20335   4.275   5.597   3.858
 6479SOL    HW120336   4.324   5.513   3.833
 6479SOL    HW220337   4.311   5.674   3.805
 6480SOL     OW20338   2.797   1.085   6.939
 6480SOL    HW120339   2.765   1.156   7.002
 6480SOL    HW220340   2.749   1.000   6.958
 6481SOL     OW20341   3.223   2.116   2.325
 6481SOL    HW120342   3.146   2.169   2.291
 6481SOL    HW220343   3.192   2.053   2.396
 6482SOL     OW20344   6.377   1.909   5.762
 6482SOL    HW120345   6.292   1.871   5.798
 6482SOL    HW220346   6.355   1.974   5.689
 6483SOL     OW20347   0.602   0.329   3.067
 6483SOL    HW120348   0.636   0.266   3.136
 6483SOL    HW220349   0.632   0.298   2.976
 6484SOL     OW20350   3.543   7.017   1.628
 6484SOL    HW120351   3.553   6.932   1.679
 6484SOL    HW220352   3.453   0.001   1.585
 6485SOL     OW20353   1.799   5.371   3.828
 6485SOL    HW120354   1.895   5.349   3.846
 6485SOL    HW220355   1.789   5.406   3.735
 6486SOL     OW20356   0.341   4.340   2.724
 6486SOL    HW120357   0.306   4.431   2.703
 6486SOL    HW220358   0.386   4.342   2.813
 6487SOL     OW20359   0.916   6.481   4.965
 6487SOL    HW120360   0.968   6.548   4.912
 6487SOL    HW220361   0.978   6.411   5.001
 6488SOL     OW20362   4.182   6.392   4.690
 6488SOL    HW120363   4.190   6.432   4.782
 6488SOL    HW220364   4.097   6.341   4.684
 6489SOL     OW20365   3.155   3.341   6.027
 6489SOL    HW120366   3.071   3.348   5.974
 6489SOL    HW220367   3.218   3.277   5.983
 6490SOL     OW20368   3.899   1.030   6.534
 6490SOL    HW120369   3.856   0.989   6.453
 6490SOL    HW220370   3.831   1.082   6.585
 6491SOL     OW20371   3.725   0.663   1.227
 6491SOL    HW120372   3.801   0.728   1.233
 6491SOL    HW220373   3.678   0.676   1.140
 6492SOL     OW20374   3.919   4.671   5.780
 6492SOL    HW120375   3.985   4.612   5.826
 6492SOL    HW220376   3.964   4.756   5.752
 6493SOL     OW20377   1.627   4.441   6.026
 6493SOL    HW120378   1.714   4.395   6.047
 6493SOL    HW220379   1.577   4.387   5.958
 6494SOL     OW20380   6.772   0.456   3.227
 6494SOL    HW120381   6.789   0.483   3.132
 6494SOL    HW220382   6.708   0.520   3.269
 6495SOL     OW20383   6.711   0.513   4.759
 6495SOL    HW120384   6.692   0.422   4.722
 6495SOL    HW220385   6.670   0.583   4.699
 6496SOL     OW20386   5.978   0.734   2.924
 6496SOL    HW120387   5.978   0.675   2.843
 6496SOL    HW220388   5.894   0.788   2.926
 6497SOL     OW20389   0.966   1.055   1.462
 6497SOL    HW120390   0.992   0.982   1.398
 6497SOL    HW220391   0.877   1.032   1.504
 6498SOL     OW20392   1.684   3.035   4.240
 6498SOL    HW120393   1.728   3.042   4.330
 6498SOL    HW220394   1.746   3.070   4.170
 6499SOL     OW20395   5.457   4.158   5.225
 6499SOL    HW120396   5.409   4.233   5.179
 6499SOL    HW220397   5.390   4.089   5.253
 6500SOL     OW20398   6.693   3.701   4.797
 6500SOL    HW120399   6.735   3.763   4.863
 6500SOL    HW220400   6.637   3.753   4.733
 6501SOL     OW20401   6.757   0.942   6.433
 6501SOL    HW120402   6.701   0.947   6.515
 6501SOL    HW220403   6.701   0.911   6.356
 6502SOL     OW20404   6.684   3.409   2.417
 6502SOL    HW120405   6.735   3.368   2.492
 6502SOL    HW220406   6.586   3.398   2.433
 6503SOL     OW20407   5.287   1.017   3.710
 6503SOL    HW120408   5.364   1.072   3.742
 6503SOL    HW220409   5.243   1.062   3.632
 6504SOL     OW20410   4.158   6.434   5.245
 6504SOL    HW120411   4.075   6.449   5.191
 6504SOL    HW220412   4.155   6.343   5.286
 6505SOL     OW20413   5.257   5.896   6.290
 6505SOL    HW120414   5.296   5.971   6.344
 6505SOL    HW220415   5.293   5.809   6.324
 6506SOL     OW20416   6.912   2.757   2.602
 6506SOL    HW120417   6.998   2.748   2.651
 6506SOL    HW220418   6.877   2.665   2.581
 6507SOL     OW20419   1.740   5.631   6.190
 6507SOL    HW120420   1.682   5.570   6.137
 6507SOL    HW220421   1.684   5.695   6.242
 6508SOL     OW20422   1.833   0.961   2.616
 6508SOL    HW120423   1.869   1.044   2.658
 6508SOL    HW220424   1.873   0.950   2.525
 6509SOL     OW20425   4.073   1.799   4.654
 6509SOL    HW120426   4.148   1.849   4.612
 6509SOL    HW220427   3.988   1.852   4.646
 6510SOL     OW20428   6.757   5.306   6.981
 6510SOL    HW120429   6.692   5.238   6.948
 6510SOL    HW220430   6.813   5.266   0.035
 6511SOL     OW20431   3.784   1.149   4.843
 6511SOL    HW120432   3.841   1.131   4.763
 6511SOL    HW220433   3.725   1.228   4.826
 6512SOL     OW20434   3.769   6.341   1.968
 6512SOL    HW120435   3.869   6.337   1.963
 6512SOL    HW220436   3.731   6.343   1.876
 6513SOL     OW20437   2.683   5.103   3.282
 6513SOL    HW120438   2.644   5.019   3.243
 6513SOL    HW220439   2.614   5.175   3.283
 6514SOL     OW20440   6.152   1.373   4.114
 6514SOL    HW120441   6.105   1.285   4.119
 6514SOL    HW220442   6.241   1.366   4.159
 6515SOL     OW20443   0.517   4.577   3.624
 6515SOL    HW120444   0.562   4.665   3.613
 6515SOL    HW220445   0.585   4.504   3.631
 6516SOL     OW20446   0.628   3.395   1.743
 6516SOL    HW120447   0.580   3.414   1.828
 6516SOL    HW220448   0.726   3.414   1.755
 6517SOL     OW20449   0.182   1.169   1.843
 6517SOL    HW120450   0.110   1.221   1.797
 6517SOL    HW220451   0.165   1.170   1.941
 6518SOL     OW20452   0.054   0.144   0.451
 6518SOL    HW120453   0.119   0.218   0.433
 6518SOL    HW220454   0.080   0.096   0.534
 6519SOL     OW20455   0.783   2.061   2.799
 6519SOL    HW120456   0.835   2.010   2.867
 6519SOL    HW220457   0.843   2.128   2.755
 6520SOL     OW20458   6.506   5.321   1.260
 6520SOL    HW120459   6.551   5.258   1.323
 6520SOL    HW220460   6.470   5.271   1.182
 6521SOL     OW20461   1.935   2.845   3.970
 6521SOL    HW120462   1.965   2.797   4.052
 6521SOL    HW220463   1.986   2.812   3.891
 6522SOL     OW20464   2.937   4.917   5.425
 6522SOL    HW120465   2.943   4.840   5.489
 6522SOL    HW220466   2.992   4.993   5.459
 6523SOL     OW20467   3.174   1.182   0.021
 6523SOL    HW120468   3.127   1.189   6.952
 6523SOL    HW220469   3.273   1.188   0.006
 6524SOL     OW20470   2.950   3.619   1.471
 6524SOL    HW120471   2.910   3.528   1.471
 6524SOL    HW220472   3.001   3.634   1.556
 6525SOL     OW20473   2.198   5.148   3.356
 6525SOL    HW120474   2.177   5.089   3.278
 6525SOL    HW220475   2.122   5.211   3.372
 6526SOL     OW20476   2.391   0.697   1.161
 6526SOL    HW120477   2.427   0.777   1.209
 6526SOL    HW220478   2.322   0.652   1.217
 6527SOL     OW20479   0.203   1.650   5.668
 6527SOL    HW120480   0.240   1.577   5.610
 6527SOL    HW220481   0.275   1.718   5.686
 6528SOL     OW20482   5.755   1.224   5.061
 6528SOL    HW120483   5.840   1.274   5.081
 6528SOL    HW220484   5.750   1.206   4.963
 6529SOL     OW20485   2.254   0.914   2.576
 6529SOL    HW120486   2.261   0.843   2.506
 6529SOL    HW220487   2.337   0.915   2.631
 6530SOL     OW20488   6.948   1.937   0.118
 6530SOL    HW120489   7.012   1.903   0.187
 6530SOL    HW220490   6.997   1.995   0.053
 6531SOL     OW20491   4.916   3.227   5.066
 6531SOL    HW120492   4.861   3.264   5.140
 6531SOL    HW220493   4.962   3.301   5.017
 6532SOL     OW20494   0.485   1.134   1.474
 6532SOL    HW120495   0.440   1.087   1.550
 6532SOL    HW220496   0.466   1.086   1.389
 6533SOL     OW20497   4.597   6.990   0.858
 6533SOL    HW120498   4.509   6.998   0.810
 6533SOL    HW220499   4.667   6.960   0.794
 6534SOL     OW20500   4.760   4.145   1.540
 6534SOL    HW120501   4.721   4.153   1.632
 6534SOL    HW220502   4.777   4.049   1.520
 6535SOL     OW20503   6.361   4.411   3.871
 6535SOL    HW120504   6.378   4.500   3.912
 6535SOL    HW220505   6.302   4.421   3.791
 6536SOL     OW20506   0.512   1.400   5.692
 6536SOL    HW120507   0.520   1.494   5.661
 6536SOL    HW220508   0.417   1.371   5.687
 6537SOL     OW20509   6.837   4.870   6.925
 6537SOL    HW120510   6.912   4.914   6.975
 6537SOL    HW220511   6.859   4.865   6.828
 6538SOL     OW20512   2.376   3.614   6.345
 6538SOL    HW120513   2.303   3.545   6.346
 6538SOL    HW220514   2.420   3.614   6.256
 6539SOL     OW20515   5.406   1.019   6.800
 6539SOL    HW120516   5.401   0.976   6.890
 6539SOL    HW220517   5.403   1.118   6.811
 6540SOL     OW20518   4.424   1.848   6.349
 6540SOL    HW120519   4.416   1.934   6.298
 6540SOL    HW220520   4.454   1.776   6.287
 6541SOL     OW20521   4.812   1.516   4.872
 6541SOL    HW120522   4.805   1.436   4.812
 6541SOL    HW220523   4.727   1.525   4.925
 6542SOL     OW20524   6.842   3.118   4.157
 6542SOL    HW120525   6.826   3.043   4.222
 6542SOL    HW220526   6.776   3.191   4.174
 6543SOL     OW20527   4.583   2.975   5.441
 6543SOL    HW120528   4.560   2.889   5.486
 6543SOL    HW220529   4.501   3.033   5.436
 6544SOL     OW20530   1.279   6.660   3.023
 6544SOL    HW120531   1.324   6.666   3.113
 6544SOL    HW220532   1.330   6.716   2.958
 6545SOL     OW20533   4.313   0.342   0.771
 6545SOL    HW120534   4.242   0.284   0.731
 6545SOL    HW220535   4.352   0.296   0.851
 6546SOL     OW20536   2.739   4.477   0.091
 6546SOL    HW120537   2.640   4.482   0.085
 6546SOL    HW220538   2.766   4.385   0.122
 6547SOL     OW20539   4.766   0.920   6.080
 6547SOL    HW120540   4.757   0.824   6.052
 6547SOL    HW220541   4.693   0.974   6.037
 6548SOL     OW20542   0.367   4.220   0.773
 6548SOL    HW120543   0.433   4.146   0.762
 6548SOL    HW220544   0.316   4.207   0.858
 6549SOL     OW20545   4.013   0.498   1.717
 6549SOL    HW120546   4.012   0.593   1.688
 6549SOL    HW220547   4.000   0.493   1.816
 6550SOL     OW20548   0.103   6.965   3.338
 6550SOL    HW120549   0.191   7.004   3.314
 6550SOL    HW220550   0.040   0.018   3.365
 6551SOL     OW20551   1.600   4.602   1.856
 6551SOL    HW120552   1.598   4.506   1.826
 6551SOL    HW220553   1.695   4.630   1.871
 6552SOL     OW20554   1.769   0.285   0.457
 6552SOL    HW120555   1.845   0.315   0.514
 6552SOL    HW220556   1.800   0.275   0.362
 6553SOL     OW20557   6.882   2.434   3.363
 6553SOL    HW120558   6.863   2.336   3.354
 6553SOL    HW220559   6.959   2.447   3.426
 6554SOL     OW20560   0.826   0.432   4.643
 6554SOL    HW120561   0.842   0.517   4.593
 6554SOL    HW220562   0.913   0.399   4.681
 6555SOL     OW20563   5.551   1.335   3.418
 6555SOL    HW120564   5.485   1.410   3.425
 6555SOL    HW220565   5.523   1.272   3.346
 6556SOL     OW20566   5.252   4.371   3.907
 6556SOL    HW120567   5.336   4.369   3.853
 6556SOL    HW220568   5.182   4.315   3.862
 6557SOL     OW20569   3.154   0.089   2.520
 6557SOL    HW120570   3.252   0.095   2.539
 6557SOL    HW220571   3.139   0.093   2.421
 6558SOL     OW20572   0.155   5.096   0.400
 6558SOL    HW120573   0.088   5.084   0.472
 6558SOL    HW220574   0.213   5.015   0.394
 6559SOL     OW20575   0.967   4.268   0.101
 6559SOL    HW120576   0.976   4.204   0.178
 6559SOL    HW220577   1.015   4.231   0.022
 6560SOL     OW20578   4.676   4.913   1.434
 6560SOL    HW120579   4.709   4.931   1.527
 6560SOL    HW220580   4.745   4.862   1.383
 6561SOL     OW20581   3.310   4.192   1.581
 6561SOL    HW120582   3.220   4.219   1.617
 6561SOL    HW220583   3.341   4.110   1.630
 6562SOL     OW20584   6.342   2.864   0.492
 6562SOL    HW120585   6.320   2.961   0.498
 6562SOL    HW220586   6.403   2.848   0.414
 6563SOL     OW20587   4.993   5.839   6.377
 6563SOL    HW120588   5.061   5.909   6.355
 6563SOL    HW220589   4.921   5.839   6.307
 6564SOL     OW20590   6.909   3.895   2.936
 6564SOL    HW120591   6.921   3.799   2.910
 6564SOL    HW220592   6.927   3.905   3.034
 6565SOL     OW20593   5.466   1.873   2.759
 6565SOL    HW120594   5.555   1.835   2.787
 6565SOL    HW220595   5.455   1.964   2.799
 6566SOL     OW20596   4.125   6.042   2.044
 6566SOL    HW120597   4.158   6.035   1.950
 6566SOL    HW220598   4.083   6.132   2.058
 6567SOL     OW20599   5.068   0.793   2.795
 6567SOL    HW120600   5.032   0.886   2.784
 6567SOL    HW220601   5.078   0.750   2.705
 6568SOL     OW20602   3.112   1.103   3.668
 6568SOL    HW120603   3.163   1.036   3.615
 6568SOL    HW220604   3.024   1.122   3.624
 6569SOL     OW20605   2.671   3.464   0.535
 6569SOL    HW120606   2.704   3.372   0.557
 6569SOL    HW220607   2.627   3.504   0.616
 6570SOL     OW20608   3.928   0.990   2.650
 6570SOL    HW120609   3.834   0.964   2.670
 6570SOL    HW220610   3.946   0.980   2.552
 6571SOL     OW20611   3.170   5.265   1.805
 6571SOL    HW120612   3.083   5.217   1.799
 6571SOL    HW220613   3.215   5.240   1.891
 6572SOL     OW20614   0.374   4.816   4.725
 6572SOL    HW120615   0.464   4.839   4.689
 6572SOL    HW220616   0.382   4.738   4.788
 6573SOL     OW20617   1.029   2.018   1.988
 6573SOL    HW120618   1.071   1.943   1.936
 6573SOL    HW220619   0.950   2.053   1.938
 6574SOL     OW20620   2.432   5.167   2.170
 6574SOL    HW120621   2.418   5.079   2.215
 6574SOL    HW220622   2.525   5.199   2.187
 6575SOL     OW20623   1.101   6.959   3.136
 6575SOL    HW120624   1.066   6.882   3.189
 6575SOL    HW220625   1.089   6.940   3.038
 6576SOL     OW20626   2.127   6.532   6.842
 6576SOL    HW120627   2.041   6.492   6.873
 6576SOL    HW220628   2.110   6.625   6.809
 6577SOL     OW20629   0.664   1.667   4.128
 6577SOL    HW120630   0.737   1.729   4.101
 6577SOL    HW220631   0.695   1.573   4.120
 6578SOL     OW20632   0.862   6.185   3.282
 6578SOL    HW120633   0.852   6.090   3.253
 6578SOL    HW220634   0.956   6.201   3.313
 6579SOL     OW20635   0.101   3.495   4.273
 6579SOL    HW120636   0.086   3.397   4.276
 6579SOL    HW220637   0.025   3.539   4.225
 6580SOL     OW20638   1.115   1.934   1.240
 6580SOL    HW120639   1.069   2.021   1.257
 6580SOL    HW220640   1.197   1.951   1.185
 6581SOL     OW20641   2.666   0.902   0.414
 6581SOL    HW120642   2.588   0.841   0.403
 6581SOL    HW220643   2.731   0.862   0.479
 6582SOL     OW20644   0.407   1.570   3.187
 6582SOL    HW120645   0.451   1.625   3.259
 6582SOL    HW220646   0.434   1.606   3.098
 6583SOL     OW20647   4.179   0.140   5.580
 6583SOL    HW120648   4.216   0.219   5.531
 6583SOL    HW220649   4.121   0.087   5.518
 6584SOL     OW20650   4.285   2.698   1.129
 6584SOL    HW120651   4.288   2.693   1.229
 6584SOL    HW220652   4.373   2.671   1.092
 6585SOL     OW20653   6.503   6.191   6.955
 6585SOL    HW120654   6.568   6.240   7.013
 6585SOL    HW220655   6.414   6.186   7.001
 6586SOL     OW20656   5.595   0.865   5.475
 6586SOL    HW120657   5.572   0.904   5.386
 6586SOL    HW220658   5.535   0.904   5.545
 6587SOL     OW20659   2.081   5.308   5.362
 6587SOL    HW120660   2.179   5.289   5.369
 6587SOL    HW220661   2.043   5.322   5.453
 6588SOL     OW20662   0.687   3.129   1.895
 6588SOL    HW120663   0.607   3.177   1.859
 6588SOL    HW220664   0.769   3.157   1.843
 6589SOL     OW20665   4.778   0.536   0.684
 6589SOL    HW120666   4.689   0.577   0.705
 6589SOL    HW220667   4.845   0.609   0.670
 6590SOL     OW20668   0.053   1.116   6.018
 6590SOL    HW120669   0.082   1.203   5.978
 6590SOL    HW220670   0.072   1.042   5.953
 6591SOL     OW20671   6.212   5.443   2.288
 6591SOL    HW120672   6.280   5.516   2.298
 6591SOL    HW220673   6.193   5.402   2.378
 6592SOL     OW20674   5.438   6.953   2.861
 6592SOL    HW120675   5.483   6.875   2.905
 6592SOL    HW220676   5.446   6.944   2.761
 6593SOL     OW20677   1.877   2.499   2.692
 6593SOL    HW120678   1.781   2.488   2.720
 6593SOL    HW220679   1.882   2.565   2.616
 6594SOL     OW20680   3.560   1.767   6.739
 6594SOL    HW120681   3.532   1.698   6.807
 6594SOL    HW220682   3.525   1.856   6.766
 6595SOL     OW20683   1.121   4.525   7.013
 6595SOL    HW120684   1.034   4.504   6.968
 6595SOL    HW220685   1.185   4.450   6.997
 6596SOL     OW20686   3.292   6.589   4.457
 6596SOL    HW120687   3.275   6.644   4.539
 6596SOL    HW220688   3.233   6.508   4.459
 6597SOL     OW20689   1.228   5.474   1.679
 6597SOL    HW120690   1.323   5.470   1.707
 6597SOL    HW220691   1.205   5.393   1.625
 6598SOL     OW20692   1.562   5.467   4.440
 6598SOL    HW120693   1.514   5.541   4.488
 6598SOL    HW220694   1.534   5.466   4.344
 6599SOL     OW20695   3.773   6.298   6.607
 6599SOL    HW120696   3.840   6.284   6.680
 6599SOL    HW220697   3.707   6.223   6.607
 6600SOL     OW20698   4.337   5.708   5.476
 6600SOL    HW120699   4.343   5.804   5.450
 6600SOL    HW220700   4.246   5.673   5.455
 6601SOL     OW20701   1.587   2.198   4.752
 6601SOL    HW120702   1.502   2.246   4.775
 6601SOL    HW220703   1.566   2.106   4.721
 6602SOL     OW20704   1.738   1.203   2.468
 6602SOL    HW120705   1.663   1.246   2.519
 6602SOL    HW220706   1.742   1.106   2.489
 6603SOL     OW20707   6.930   2.678   3.631
 6603SOL    HW120708   6.834   2.678   3.605
 6603SOL    HW220709   6.987   2.689   3.550
 6604SOL     OW20710   1.387   0.469   0.985
 6604SOL    HW120711   1.467   0.523   1.012
 6604SOL    HW220712   1.314   0.483   1.052
 6605SOL     OW20713   5.983   5.046   1.314
 6605SOL    HW120714   5.999   5.042   1.215
 6605SOL    HW220715   5.886   5.033   1.333
 6606SOL     OW20716   0.911   5.693   2.209
 6606SOL    HW120717   0.878   5.608   2.251
 6606SOL    HW220718   0.866   5.706   2.121
 6607SOL     OW20719   1.879   3.655   2.223
 6607SOL    HW120720   1.879   3.752   2.199
 6607SOL    HW220721   1.868   3.600   2.140
 6608SOL     OW20722   6.330   6.242   1.080
 6608SOL    HW120723   6.265   6.301   1.033
 6608SOL    HW220724   6.422   6.258   1.043
 6609SOL     OW20725   5.122   1.150   6.668
 6609SOL    HW120726   5.165   1.160   6.578
 6609SOL    HW220727   5.146   1.228   6.725
 6610SOL     OW20728   2.791   6.142   0.191
 6610SOL    HW120729   2.795   6.234   0.229
 6610SOL    HW220730   2.747   6.145   0.102
 6611SOL     OW20731   4.875   2.493   3.594
 6611SOL    HW120732   4.906   2.523   3.504
 6611SOL    HW220733   4.780   2.521   3.608
 6612SOL     OW20734   6.079   1.948   6.154
 6612SOL    HW120735   6.031   1.966   6.068
 6612SOL    HW220736   6.025   1.885   6.210
 6613SOL     OW20737   6.452   6.576   5.014
 6613SOL    HW120738   6.518   6.644   4.980
 6613SOL    HW220739   6.414   6.607   5.101
 6614SOL     OW20740   4.488   5.387   0.094
 6614SOL    HW120741   4.545   5.378   0.013
 6614SOL    HW220742   4.521   5.325   0.165
 6615SOL     OW20743   2.090   5.759   1.108
 6615SOL    HW120744   2.072   5.828   1.178
 6615SOL    HW220745   2.007   5.744   1.054
 6616SOL     OW20746   5.116   0.873   5.825
 6616SOL    HW120747   5.063   0.954   5.850
 6616SOL    HW220748   5.055   0.805   5.784
 6617SOL     OW20749   4.491   5.080   3.957
 6617SOL    HW120750   4.399   5.043   3.944
 6617SOL    HW220751   4.550   5.048   3.883
 6618SOL     OW20752   1.216   2.582   2.210
 6618SOL    HW120753   1.218   2.510   2.140
 6618SOL    HW220754   1.207   2.671   2.166
 6619SOL     OW20755   5.801   0.353   4.015
 6619SOL    HW120756   5.835   0.368   4.108
 6619SOL    HW220757   5.754   0.436   3.984
 6620SOL     OW20758   1.849   2.664   5.586
 6620SOL    HW120759   1.934   2.678   5.636
 6620SOL    HW220760   1.811   2.753   5.559
 6621SOL     OW20761   3.242   3.216   5.737
 6621SOL    HW120762   3.273   3.227   5.642
 6621SOL    HW220763   3.143   3.225   5.741
 6622SOL     OW20764   5.679   6.438   1.837
 6622SOL    HW120765   5.661   6.371   1.908
 6622SOL    HW220766   5.593   6.463   1.792
 6623SOL     OW20767   3.688   3.281   4.817
 6623SOL    HW120768   3.763   3.301   4.879
 6623SOL    HW220769   3.717   3.213   4.750
 6624SOL     OW20770   0.275   4.492   6.044
 6624SOL    HW120771   0.240   4.445   5.963
 6624SOL    HW220772   0.371   4.514   6.031
 6625SOL     OW20773   5.113   1.825   5.190
 6625SOL    HW120774   5.174   1.795   5.263
 6625SOL    HW220775   5.040   1.758   5.178
 6626SOL     OW20776   3.500   5.680   5.179
 6626SOL    HW120777   3.578   5.690   5.116
 6626SOL    HW220778   3.514   5.599   5.236
 6627SOL     OW20779   2.026   6.831   5.719
 6627SOL    HW120780   1.937   6.870   5.745
 6627SOL    HW220781   2.081   6.900   5.673
 6628SOL     OW20782   5.227   5.336   4.439
 6628SOL    HW120783   5.150   5.305   4.384
 6628SOL    HW220784   5.266   5.258   4.488
 6629SOL     OW20785   4.838   6.536   6.395
 6629SOL    HW120786   4.879   6.492   6.315
 6629SOL    HW220787   4.909   6.582   6.448
 6630SOL     OW20788   3.795   1.575   1.115
 6630SOL    HW120789   3.736   1.504   1.076
 6630SOL    HW220790   3.833   1.543   1.202
 6631SOL     OW20791   2.337   5.368   3.686
 6631SOL    HW120792   2.308   5.455   3.645
 6631SOL    HW220793   2.418   5.334   3.638
 6632SOL     OW20794   0.524   0.410   0.906
 6632SOL    HW120795   0.506   0.372   0.815
 6632SOL    HW220796   0.437   0.434   0.949
 6633SOL     OW20797   1.288   4.546   6.657
 6633SOL    HW120798   1.327   4.454   6.666
 6633SOL    HW220799   1.320   4.604   6.732
 6634SOL     OW20800   4.946   1.919   4.964
 6634SOL    HW120801   5.039   1.942   4.994
 6634SOL    HW220802   4.919   1.832   5.006
 6635SOL     OW20803   4.770   5.006   2.934
 6635SOL    HW120804   4.681   4.967   2.954
 6635SOL    HW220805   4.823   4.942   2.879
 6636SOL     OW20806   4.618   1.860   6.548
 6636SOL    HW120807   4.613   1.947   6.597
 6636SOL    HW220808   4.557   1.863   6.469
 6637SOL     OW20809   0.945   6.938   6.902
 6637SOL    HW120810   0.976   0.006   6.865
 6637SOL    HW220811   1.020   6.894   6.952
 6638SOL     OW20812   2.895   3.683   3.092
 6638SOL    HW120813   2.804   3.724   3.084
 6638SOL    HW220814   2.960   3.734   3.037
 6639SOL     OW20815   5.000   4.696   6.450
 6639SOL    HW120816   5.080   4.640   6.473
 6639SOL    HW220817   5.010   4.730   6.356
 6640SOL     OW20818   0.478   2.100   4.936
 6640SOL    HW120819   0.464   2.198   4.954
 6640SOL    HW220820   0.513   2.056   5.019
 6641SOL     OW20821   2.623   1.059   6.169
 6641SOL    HW120822   2.648   1.027   6.261
 6641SOL    HW220823   2.523   1.055   6.159
 6642SOL     OW20824   1.957   6.026   6.648
 6642SOL    HW120825   1.947   5.941   6.597
 6642SOL    HW220826   1.867   6.063   6.670
 6643SOL     OW20827   5.987   5.573   0.539
 6643SOL    HW120828   5.920   5.628   0.487
 6643SOL    HW220829   5.939   5.521   0.610
 6644SOL     OW20830   2.264   5.220   1.251
 6644SOL    HW120831   2.350   5.171   1.267
 6644SOL    HW220832   2.210   5.220   1.335
 6645SOL     OW20833   6.407   4.258   0.194
 6645SOL    HW120834   6.405   4.234   0.097
 6645SOL    HW220835   6.473   4.198   0.241
 6646SOL     OW20836   4.247   0.485   4.886
 6646SOL    HW120837   4.253   0.542   4.968
 6646SOL    HW220838   4.288   0.395   4.905
 6647SOL     OW20839   5.044   0.795   0.885
 6647SOL    HW120840   5.068   0.891   0.867
 6647SOL    HW220841   4.945   0.785   0.883
 6648SOL     OW20842   3.405   6.246   3.906
 6648SOL    HW120843   3.346   6.264   3.985
 6648SOL    HW220844   3.349   6.240   3.824
 6649SOL     OW20845   5.692   1.285   6.540
 6649SOL    HW120846   5.626   1.210   6.536
 6649SOL    HW220847   5.645   1.372   6.523
 6650SOL     OW20848   3.404   1.325   5.869
 6650SOL    HW120849   3.427   1.393   5.938
 6650SOL    HW220850   3.384   1.370   5.782
 6651SOL     OW20851   2.538   0.703   5.768
 6651SOL    HW120852   2.549   0.800   5.746
 6651SOL    HW220853   2.549   0.649   5.686
 6652SOL     OW20854   0.657   3.956   0.413
 6652SOL    HW120855   0.699   3.967   0.323
 6652SOL    HW220856   0.558   3.970   0.405
 6653SOL     OW20857   3.969   3.629   1.335
 6653SOL    HW120858   3.884   3.681   1.333
 6653SOL    HW220859   4.036   3.671   1.274
 6654SOL     OW20860   0.959   5.017   1.022
 6654SOL    HW120861   1.028   4.992   0.955
 6654SOL    HW220862   0.919   5.105   0.997
 6655SOL     OW20863   0.970   6.786   4.263
 6655SOL    HW120864   1.049   6.739   4.300
 6655SOL    HW220865   0.889   6.764   4.318
 6656SOL     OW20866   4.841   1.872   3.938
 6656SOL    HW120867   4.784   1.903   3.861
 6656SOL    HW220868   4.794   1.892   4.024
 6657SOL     OW20869   6.284   4.402   6.310
 6657SOL    HW120870   6.184   4.409   6.311
 6657SOL    HW220871   6.318   4.404   6.404
 6658SOL     OW20872   6.224   0.968   4.669
 6658SOL    HW120873   6.135   1.009   4.682
 6658SOL    HW220874   6.294   1.039   4.666
 6659SOL     OW20875   2.345   3.762   0.337
 6659SOL    HW120876   2.252   3.796   0.342
 6659SOL    HW220877   2.351   3.692   0.265
 6660SOL     OW20878   1.290   5.328   1.317
 6660SOL    HW120879   1.241   5.369   1.240
 6660SOL    HW220880   1.236   5.341   1.401
 6661SOL     OW20881   1.207   6.622   5.247
 6661SOL    HW120882   1.197   6.525   5.224
 6661SOL    HW220883   1.119   6.669   5.236
 6662SOL     OW20884   1.394   6.802   0.229
 6662SOL    HW120885   1.319   6.779   0.167
 6662SOL    HW220886   1.418   6.899   0.218
 6663SOL     OW20887   5.921   5.524   4.436
 6663SOL    HW120888   5.857   5.527   4.513
 6663SOL    HW220889   6.015   5.519   4.471
 6664SOL     OW20890   2.446   6.968   0.784
 6664SOL    HW120891   2.383   0.015   0.827
 6664SOL    HW220892   2.393   6.899   0.735
 6665SOL     OW20893   2.005   5.722   4.823
 6665SOL    HW120894   1.964   5.735   4.913
 6665SOL    HW220895   2.090   5.671   4.832
 6666SOL     OW20896   6.149   6.211   6.034
 6666SOL    HW120897   6.067   6.213   5.976
 6666SOL    HW220898   6.141   6.136   6.099
 6667SOL     OW20899   6.420   6.197   6.178
 6667SOL    HW120900   6.342   6.195   6.116
 6667SOL    HW220901   6.482   6.271   6.152
 6668SOL     OW20902   6.633   5.390   0.782
 6668SOL    HW120903   6.565   5.317   0.783
 6668SOL    HW220904   6.668   5.401   0.689
 6669SOL     OW20905   1.752   2.393   3.044
 6669SOL    HW120906   1.717   2.484   3.020
 6669SOL    HW220907   1.845   2.384   3.010
 6670SOL     OW20908   3.384   1.675   5.334
 6670SOL    HW120909   3.391   1.692   5.236
 6670SOL    HW220910   3.474   1.686   5.377
 6671SOL     OW20911   5.007   6.691   0.694
 6671SOL    HW120912   5.020   6.708   0.596
 6671SOL    HW220913   5.000   6.593   0.710
 6672SOL     OW20914   6.473   2.359   6.584
 6672SOL    HW120915   6.553   2.313   6.623
 6672SOL    HW220916   6.401   2.292   6.567
 6673SOL     OW20917   4.732   4.448   4.801
 6673SOL    HW120918   4.805   4.485   4.744
 6673SOL    HW220919   4.653   4.509   4.798
 6674SOL     OW20920   0.779   3.637   6.594
 6674SOL    HW120921   0.794   3.654   6.691
 6674SOL    HW220922   0.866   3.611   6.551
 6675SOL     OW20923   5.691   3.330   0.214
 6675SOL    HW120924   5.763   3.400   0.209
 6675SOL    HW220925   5.648   3.332   0.304
 6676SOL     OW20926   1.165   4.035   5.826
 6676SOL    HW120927   1.182   4.069   5.918
 6676SOL    HW220928   1.201   4.101   5.759
 6677SOL     OW20929   1.502   1.724   5.907
 6677SOL    HW120930   1.548   1.754   5.990
 6677SOL    HW220931   1.464   1.804   5.860
 6678SOL     OW20932   3.517   2.967   6.587
 6678SOL    HW120933   3.507   3.054   6.539
 6678SOL    HW220934   3.598   2.971   6.647
 6679SOL     OW20935   3.301   1.206   4.002
 6679SOL    HW120936   3.211   1.203   3.961
 6679SOL    HW220937   3.293   1.199   4.102
 6680SOL     OW20938   5.317   6.600   6.841
 6680SOL    HW120939   5.328   6.579   6.744
 6680SOL    HW220940   5.342   6.695   6.858
 6681SOL     OW20941   3.829   5.559   1.096
 6681SOL    HW120942   3.730   5.572   1.089
 6681SOL    HW220943   3.861   5.597   1.183
 6682SOL     OW20944   1.336   4.667   1.961
 6682SOL    HW120945   1.432   4.652   1.935
 6682SOL    HW220946   1.281   4.676   1.878
 6683SOL     OW20947   6.110   3.860   5.231
 6683SOL    HW120948   6.195   3.871   5.180
 6683SOL    HW220949   6.129   3.858   5.329
 6684SOL     OW20950   2.838   7.012   1.405
 6684SOL    HW120951   2.828   0.089   1.433
 6684SOL    HW220952   2.748   6.970   1.399
 6685SOL     OW20953   6.174   2.572   5.698
 6685SOL    HW120954   6.245   2.609   5.638
 6685SOL    HW220955   6.208   2.570   5.792
 6686SOL     OW20956   4.613   6.335   4.043
 6686SOL    HW120957   4.712   6.331   4.061
 6686SOL    HW220958   4.572   6.408   4.097
 6687SOL     OW20959   1.298   3.160   0.800
 6687SOL    HW120960   1.249   3.073   0.797
 6687SOL    HW220961   1.268   3.218   0.724
 6688SOL     OW20962   6.073   4.875   2.574
 6688SOL    HW120963   6.105   4.783   2.553
 6688SOL    HW220964   6.039   4.878   2.668
 6689SOL     OW20965   3.711   3.054   6.775
 6689SOL    HW120966   3.740   3.149   6.774
 6689SOL    HW220967   3.791   2.995   6.767
 6690SOL     OW20968   1.030   1.334   0.543
 6690SOL    HW120969   1.112   1.277   0.551
 6690SOL    HW220970   1.057   1.430   0.541
 6691SOL     OW20971   3.119   6.399   2.808
 6691SOL    HW120972   3.020   6.410   2.822
 6691SOL    HW220973   3.160   6.362   2.892
 6692SOL     OW20974   3.531   2.892   4.336
 6692SOL    HW120975   3.620   2.935   4.321
 6692SOL    HW220976   3.525   2.858   4.430
 6693SOL     OW20977   3.977   2.901   5.557
 6693SOL    HW120978   3.883   2.926   5.582
 6693SOL    HW220979   3.976   2.847   5.473
 6694SOL     OW20980   3.979   5.260   1.116
 6694SOL    HW120981   4.021   5.279   1.205
 6694SOL    HW220982   3.926   5.339   1.086
 6695SOL     OW20983   2.767   1.913   6.973
 6695SOL    HW120984   2.695   1.907   0.023
 6695SOL    HW220985   2.850   1.949   7.014
 6696SOL     OW20986   3.016   3.047   5.086
 6696SOL    HW120987   2.929   3.031   5.039
 6696SOL    HW220988   3.033   2.972   5.150
 6697SOL     OW20989   5.159   2.168   2.769
 6697SOL    HW120990   5.129   2.257   2.804
 6697SOL    HW220991   5.090   2.131   2.707
 6698SOL     OW20992   3.086   2.195   0.852
 6698SOL    HW120993   3.115   2.125   0.786
 6698SOL    HW220994   3.136   2.279   0.834
 6699SOL     OW20995   2.453   5.881   5.275
 6699SOL    HW120996   2.497   5.957   5.226
 6699SOL    HW220997   2.360   5.907   5.300
 6700SOL     OW20998   0.904   0.576   1.398
 6700SOL    HW120999   0.835   0.591   1.327
 6700SOL    HW221000   0.861   0.580   1.488
 6701SOL     OW21001   5.784   4.808   2.495
 6701SOL    HW121002   5.748   4.725   2.537
 6701SOL    HW221003   5.802   4.876   2.566
 6702SOL     OW21004   3.268   2.171   1.763
 6702SOL    HW121005   3.172   2.200   1.753
 6702SOL    HW221006   3.328   2.246   1.735
 6703SOL     OW21007   6.603   1.576   0.187
 6703SOL    HW121008   6.564   1.514   0.254
 6703SOL    HW221009   6.620   1.665   0.229
 6704SOL     OW21010   3.679   1.216   3.433
 6704SOL    HW121011   3.764   1.253   3.471
 6704SOL    HW221012   3.608   1.287   3.436
 6705SOL     OW21013   6.409   3.709   1.802
 6705SOL    HW121014   6.323   3.733   1.757
 6705SOL    HW221015   6.391   3.636   1.868
 6706SOL     OW21016   1.654   4.358   2.090
 6706SOL    HW121017   1.632   4.340   1.994
 6706SOL    HW221018   1.586   4.314   2.149
 6707SOL     OW21019   6.502   6.391   3.776
 6707SOL    HW121020   6.409   6.399   3.813
 6707SOL    HW221021   6.564   6.446   3.830
 6708SOL     OW21022   7.004   5.059   1.054
 6708SOL    HW121023   0.022   5.145   1.020
 6708SOL    HW221024   6.910   5.074   1.084
 6709SOL     OW21025   2.661   6.374   3.068
 6709SOL    HW121026   2.638   6.276   3.069
 6709SOL    HW221027   2.750   6.387   3.023
 6710SOL     OW21028   3.267   0.663   6.105
 6710SOL    HW121029   3.287   0.747   6.154
 6710SOL    HW221030   3.202   0.608   6.157
 6711SOL     OW21031   4.391   5.656   5.750
 6711SOL    HW121032   4.488   5.669   5.768
 6711SOL    HW221033   4.376   5.646   5.651
 6712SOL     OW21034   5.325   3.821   0.650
 6712SOL    HW121035   5.278   3.811   0.738
 6712SOL    HW221036   5.268   3.874   0.588
 6713SOL     OW21037   2.230   0.355   2.518
 6713SOL    HW121038   2.209   0.268   2.563
 6713SOL    HW221039   2.318   0.349   2.471
 6714SOL     OW21040   6.735   0.751   5.804
 6714SOL    HW121041   6.796   0.725   5.729
 6714SOL    HW221042   6.760   0.700   5.886
 6715SOL     OW21043   0.523   0.085   6.959
 6715SOL    HW121044   0.439   0.139   6.950
 6715SOL    HW221045   0.572   0.086   6.871
 6716SOL     OW21046   0.181   5.851   2.045
 6716SOL    HW121047   0.116   5.901   1.987
 6716SOL    HW221048   0.228   5.915   2.105
 6717SOL     OW21049   3.992   2.976   6.121
 6717SOL    HW121050   4.071   2.993   6.061
 6717SOL    HW221051   4.024   2.959   6.214
 6718SOL     OW21052   5.962   0.876   0.918
 6718SOL    HW121053   5.950   0.887   0.820
 6718SOL    HW221054   5.894   0.811   0.953
 6719SOL     OW21055   2.453   6.626   6.326
 6719SOL    HW121056   2.358   6.625   6.360
 6719SOL    HW221057   2.504   6.699   6.372
 6720SOL     OW21058   1.519   0.302   4.408
 6720SOL    HW121059   1.596   0.365   4.393
 6720SOL    HW221060   1.535   0.248   4.490
 6721SOL     OW21061   6.787   0.243   0.551
 6721SOL    HW121062   6.870   0.235   0.496
 6721SOL    HW221063   6.711   0.198   0.503
 6722SOL     OW21064   6.512   2.813   1.892
 6722SOL    HW121065   6.480   2.908   1.885
 6722SOL    HW221066   6.434   2.752   1.895
 6723SOL     OW21067   2.313   6.282   3.189
 6723SOL    HW121068   2.307   6.378   3.215
 6723SOL    HW221069   2.368   6.233   3.256
 6724SOL     OW21070   2.001   3.439   6.158
 6724SOL    HW121071   1.910   3.405   6.183
 6724SOL    HW221072   2.070   3.398   6.217
 6725SOL     OW21073   7.009   3.212   1.781
 6725SOL    HW121074   0.015   3.187   1.875
 6725SOL    HW221075   6.974   3.306   1.780
 6726SOL     OW21076   0.364   2.360   5.403
 6726SOL    HW121077   0.347   2.352   5.501
 6726SOL    HW221078   0.461   2.376   5.386
 6727SOL     OW21079   0.118   4.689   5.238
 6727SOL    HW121080   0.101   4.742   5.155
 6727SOL    HW221081   0.103   4.748   5.318
 6728SOL     OW21082   3.859   2.196   2.720
 6728SOL    HW121083   3.897   2.198   2.627
 6728SOL    HW221084   3.763   2.224   2.717
 6729SOL     OW21085   6.990   1.184   2.865
 6729SOL    HW121086   6.963   1.124   2.790
 6729SOL    HW221087   6.948   1.274   2.853
 6730SOL     OW21088   1.678   6.890   1.226
 6730SOL    HW121089   1.739   6.821   1.189
 6730SOL    HW221090   1.702   6.909   1.321
 6731SOL     OW21091   0.798   6.504   1.121
 6731SOL    HW121092   0.878   6.491   1.062
 6731SOL    HW221093   0.748   6.417   1.128
 6732SOL     OW21094   5.521   4.763   4.630
 6732SOL    HW121095   5.557   4.670   4.629
 6732SOL    HW221096   5.487   4.786   4.539
 6733SOL     OW21097   4.042   5.340   0.019
 6733SOL    HW121098   4.109   5.409   7.011
 6733SOL    HW221099   3.953   5.384   0.035
 6734SOL     OW21100   6.033   2.883   4.204
 6734SOL    HW121101   5.976   2.897   4.123
 6734SOL    HW221102   5.975   2.859   4.281
 6735SOL     OW21103   6.442   4.335   5.175
 6735SOL    HW121104   6.390   4.261   5.133
 6735SOL    HW221105   6.394   4.368   5.256
 6736SOL     OW21106   3.531   3.912   0.353
 6736SOL    HW121107   3.538   3.926   0.254
 6736SOL    HW221108   3.450   3.858   0.374
 6737SOL     OW21109   1.490   2.414   0.472
 6737SOL    HW121110   1.394   2.401   0.446
 6737SOL    HW221111   1.500   2.400   0.570
 6738SOL     OW21112   1.846   5.789   2.955
 6738SOL    HW121113   1.779   5.762   3.026
 6738SOL    HW221114   1.912   5.715   2.943
 6739SOL     OW21115   3.793   5.832   5.190
 6739SOL    HW121116   3.763   5.890   5.265
 6739SOL    HW221117   3.889   5.851   5.170
 6740SOL     OW21118   1.059   0.352   4.740
 6740SOL    HW121119   1.102   0.285   4.800
 6740SOL    HW221120   1.069   0.443   4.779
 6741SOL     OW21121   3.572   1.643   5.613
 6741SOL    HW121122   3.611   1.614   5.701
 6741SOL    HW221123   3.645   1.671   5.552
 6742SOL     OW21124   5.778   6.259   2.298
 6742SOL    HW121125   5.697   6.222   2.252
 6742SOL    HW221126   5.748   6.314   2.376
 6743SOL     OW21127   3.818   5.472   0.137
 6743SOL    HW121128   3.852   5.434   0.223
 6743SOL    HW221129   3.854   5.564   0.124
 6744SOL     OW21130   5.698   3.747   5.787
 6744SOL    HW121131   5.793   3.723   5.771
 6744SOL    HW221132   5.640   3.668   5.766
 6745SOL     OW21133   6.928   6.861   3.175
 6745SOL    HW121134   6.979   6.916   3.241
 6745SOL    HW221135   6.948   6.764   3.191
 6746SOL     OW21136   0.859   1.518   3.846
 6746SOL    HW121137   0.926   1.475   3.785
 6746SOL    HW221138   0.770   1.475   3.834
 6747SOL     OW21139   5.374   1.152   5.012
 6747SOL    HW121140   5.417   1.206   5.085
 6747SOL    HW221141   5.281   1.128   5.038
 6748SOL     OW21142   2.724   1.089   3.796
 6748SOL    HW121143   2.781   1.088   3.878
 6748SOL    HW221144   2.783   1.084   3.715
 6749SOL     OW21145   2.780   5.326   0.492
 6749SOL    HW121146   2.714   5.273   0.438
 6749SOL    HW221147   2.743   5.342   0.584
 6750SOL     OW21148   3.973   2.055   4.868
 6750SOL    HW121149   4.054   2.113   4.877
 6750SOL    HW221150   4.001   1.960   4.863
 6751SOL     OW21151   4.266   6.937   3.416
 6751SOL    HW121152   4.215   6.869   3.468
 6751SOL    HW221153   4.242   6.930   3.319
 6752SOL     OW21154   1.045   1.677   2.939
 6752SOL    HW121155   0.996   1.663   3.025
 6752SOL    HW221156   1.110   1.603   2.925
 6753SOL     OW21157   2.951   0.455   6.507
 6753SOL    HW121158   3.023   0.433   6.572
 6753SOL    HW221159   2.920   0.549   6.522
 6754SOL     OW21160   0.393   2.042   0.506
 6754SOL    HW121161   0.471   2.104   0.519
 6754SOL    HW221162   0.337   2.075   0.429
 6755SOL     OW21163   4.767   0.623   3.115
 6755SOL    HW121164   4.853   0.575   3.135
 6755SOL    HW221165   4.691   0.573   3.156
 6756SOL     OW21166   3.944   5.250   5.047
 6756SOL    HW121167   3.968   5.169   5.100
 6756SOL    HW221168   3.871   5.300   5.094
 6757SOL     OW21169   4.231   2.185   0.973
 6757SOL    HW121170   4.203   2.281   0.980
 6757SOL    HW221171   4.212   2.139   1.060
 6758SOL     OW21172   6.536   1.886   1.915
 6758SOL    HW121173   6.604   1.812   1.920
 6758SOL    HW221174   6.576   1.964   1.868
 6759SOL     OW21175   0.906   4.026   4.602
 6759SOL    HW121176   0.870   3.942   4.641
 6759SOL    HW221177   0.925   4.013   4.505
 6760SOL     OW21178   6.680   4.031   2.495
 6760SOL    HW121179   6.743   4.088   2.444
 6760SOL    HW221180   6.614   4.088   2.543
 6761SOL     OW21181   6.343   2.185   5.997
 6761SOL    HW121182   6.261   2.198   5.941
 6761SOL    HW221183   6.316   2.171   6.093
 6762SOL     OW21184   0.718   5.815   4.125
 6762SOL    HW121185   0.771   5.866   4.192
 6762SOL    HW221186   0.701   5.873   4.045
 6763SOL     OW21187   1.162   4.986   2.631
 6763SOL    HW121188   1.179   5.072   2.582
 6763SOL    HW221189   1.245   4.931   2.631
 6764SOL     OW21190   1.648   5.575   0.792
 6764SOL    HW121191   1.664   5.496   0.852
 6764SOL    HW221192   1.593   5.643   0.840
 6765SOL     OW21193   5.452   4.175   3.683
 6765SOL    HW121194   5.491   4.110   3.748
 6765SOL    HW221195   5.495   4.264   3.695
 6766SOL     OW21196   4.955   6.948   6.516
 6766SOL    HW121197   5.027   6.922   6.452
 6766SOL    HW221198   4.951   0.029   6.523
 6767SOL     OW21199   1.359   2.476   1.240
 6767SOL    HW121200   1.329   2.380   1.241
 6767SOL    HW221201   1.340   2.515   1.150
 6768SOL     OW21202   1.011   6.251   3.555
 6768SOL    HW121203   0.928   6.203   3.526
 6768SOL    HW221204   1.019   6.248   3.654
 6769SOL     OW21205   2.638   0.857   5.080
 6769SOL    HW121206   2.685   0.905   5.154
 6769SOL    HW221207   2.705   0.827   5.012
 6770SOL     OW21208   5.102   1.910   3.541
 6770SOL    HW121209   5.166   1.949   3.476
 6770SOL    HW221210   5.135   1.927   3.634
 6771SOL     OW21211   4.084   1.120   2.194
 6771SOL    HW121212   4.172   1.128   2.241
 6771SOL    HW221213   4.019   1.186   2.234
 6772SOL     OW21214   4.661   2.725   2.014
 6772SOL    HW121215   4.675   2.823   2.001
 6772SOL    HW221216   4.647   2.706   2.111
 6773SOL     OW21217   0.607   6.239   1.926
 6773SOL    HW121218   0.691   6.282   1.891
 6773SOL    HW221219   0.609   6.141   1.908
 6774SOL     OW21220   2.181   3.629   5.023
 6774SOL    HW121221   2.232   3.587   5.097
 6774SOL    HW221222   2.125   3.704   5.059
 6775SOL     OW21223   1.405   2.306   3.090
 6775SOL    HW121224   1.445   2.334   3.178
 6775SOL    HW221225   1.423   2.377   3.022
 6776SOL     OW21226   4.320   3.069   0.296
 6776SOL    HW121227   4.362   3.126   0.367
 6776SOL    HW221228   4.292   2.982   0.336
 6777SOL     OW21229   5.297   4.805   0.800
 6777SOL    HW121230   5.254   4.725   0.758
 6777SOL    HW221231   5.392   4.812   0.771
 6778SOL     OW21232   0.083   5.432   1.706
 6778SOL    HW121233   0.167   5.447   1.757
 6778SOL    HW221234   0.086   5.343   1.661
 6779SOL     OW21235   5.878   4.986   6.355
 6779SOL    HW121236   5.794   5.021   6.312
 6779SOL    HW221237   5.958   5.020   6.304
 6780SOL     OW21238   1.339   2.874   2.816
 6780SOL    HW121239   1.278   2.835   2.886
 6780SOL    HW221240   1.428   2.895   2.857
 6781SOL     OW21241   6.011   1.645   4.834
 6781SOL    HW121242   5.953   1.563   4.836
 6781SOL    HW221243   6.107   1.618   4.848
 6782SOL     OW21244   0.972   1.244   3.234
 6782SOL    HW121245   1.063   1.208   3.256
 6782SOL    HW221246   0.977   1.343   3.221
 6783SOL     OW21247   0.504   1.713   5.751
 6783SOL    HW121248   0.455   1.799   5.766
 6783SOL    HW221249   0.512   1.664   5.838
 6784SOL     OW21250   1.755   3.826   0.813
 6784SOL    HW121251   1.687   3.778   0.757
 6784SOL    HW221252   1.778   3.913   0.770
 6785SOL     OW21253   6.074   5.540   5.360
 6785SOL    HW121254   6.108   5.624   5.403
 6785SOL    HW221255   6.145   5.469   5.364
 6786SOL     OW21256   1.409   2.079   0.556
 6786SOL    HW121257   1.480   2.120   0.614
 6786SOL    HW221258   1.328   2.061   0.611
 6787SOL     OW21259   3.367   3.401   0.225
 6787SOL    HW121260   3.291   3.464   0.207
 6787SOL    HW221261   3.333   3.307   0.229
 6788SOL     OW21262   0.917   4.562   1.803
 6788SOL    HW121263   0.991   4.613   1.847
 6788SOL    HW221264   0.860   4.626   1.751
 6789SOL     OW21265   0.532   4.837   3.919
 6789SOL    HW121266   0.596   4.872   3.850
 6789SOL    HW221267   0.583   4.783   3.987
 6790SOL     OW21268   0.893   3.428   0.200
 6790SOL    HW121269   0.885   3.413   0.102
 6790SOL    HW221270   0.802   3.438   0.240
 6791SOL     OW21271   3.690   2.060   2.379
 6791SOL    HW121272   3.712   2.047   2.282
 6791SOL    HW221273   3.598   2.026   2.397
 6792SOL     OW21274   5.204   6.886   5.376
 6792SOL    HW121275   5.158   6.798   5.361
 6792SOL    HW221276   5.302   6.876   5.355
 6793SOL     OW21277   2.146   1.446   6.685
 6793SOL    HW121278   2.195   1.482   6.605
 6793SOL    HW221279   2.107   1.521   6.737
 6794SOL     OW21280   5.553   1.165   5.240
 6794SOL    HW121281   5.638   1.170   5.188
 6794SOL    HW221282   5.537   1.070   5.270
 6795SOL     OW21283   1.208   6.861   1.293
 6795SOL    HW121284   1.224   6.765   1.268
 6795SOL    HW221285   1.122   6.868   1.344
 6796SOL     OW21286   6.181   0.853   3.046
 6796SOL    HW121287   6.230   0.776   3.087
 6796SOL    HW221288   6.110   0.819   2.985
 6797SOL     OW21289   6.974   2.229   1.825
 6797SOL    HW121290   6.886   2.274   1.842
 6797SOL    HW221291   6.963   2.159   1.755
 6798SOL     OW21292   5.840   6.313   1.576
 6798SOL    HW121293   5.885   6.385   1.628
 6798SOL    HW221294   5.743   6.334   1.567
 6799SOL     OW21295   6.215   0.944   2.156
 6799SOL    HW121296   6.231   0.903   2.066
 6799SOL    HW221297   6.206   0.872   2.225
 6800SOL     OW21298   2.325   2.708   2.000
 6800SOL    HW121299   2.314   2.766   1.920
 6800SOL    HW221300   2.248   2.643   2.004
 6801SOL     OW21301   1.572   0.801   3.633
 6801SOL    HW121302   1.598   0.765   3.722
 6801SOL    HW221303   1.482   0.845   3.639
 6802SOL     OW21304   3.272   5.436   1.330
 6802SOL    HW121305   3.342   5.491   1.375
 6802SOL    HW221306   3.246   5.359   1.389
 6803SOL     OW21307   3.975   4.055   6.094
 6803SOL    HW121308   3.897   4.063   6.032
 6803SOL    HW221309   4.060   4.060   6.041
 6804SOL     OW21310   4.015   4.817   3.910
 6804SOL    HW121311   3.933   4.821   3.852
 6804SOL    HW221312   3.987   4.806   4.006
 6805SOL     OW21313   0.374   4.667   6.424
 6805SOL    HW121314   0.437   4.714   6.362
 6805SOL    HW221315   0.405   4.572   6.436
 6806SOL     OW21316   6.522   1.653   3.354
 6806SOL    HW121317   6.477   1.616   3.435
 6806SOL    HW221318   6.561   1.578   3.300
 6807SOL     OW21319   3.277   3.138   1.338
 6807SOL    HW121320   3.235   3.053   1.369
 6807SOL    HW221321   3.331   3.121   1.256
 6808SOL     OW21322   6.678   1.982   5.797
 6808SOL    HW121323   6.578   1.986   5.794
 6808SOL    HW221324   6.707   1.896   5.839
 6809SOL     OW21325   0.137   3.461   1.464
 6809SOL    HW121326   0.168   3.438   1.557
 6809SOL    HW221327   0.209   3.509   1.416
 6810SOL     OW21328   3.351   1.286   2.618
 6810SOL    HW121329   3.442   1.248   2.631
 6810SOL    HW221330   3.358   1.384   2.601
 6811SOL     OW21331   5.728   3.460   1.703
 6811SOL    HW121332   5.703   3.427   1.611
 6811SOL    HW221333   5.710   3.387   1.769
 6812SOL     OW21334   3.203   4.078   5.038
 6812SOL    HW121335   3.299   4.053   5.040
 6812SOL    HW221336   3.182   4.122   4.951
 6813SOL     OW21337   5.568   3.171   2.821
 6813SOL    HW121338   5.495   3.209   2.879
 6813SOL    HW221339   5.648   3.152   2.877
 6814SOL     OW21340   3.954   1.939   6.374
 6814SOL    HW121341   3.899   2.012   6.414
 6814SOL    HW221342   4.051   1.960   6.385
 6815SOL     OW21343   2.298   5.951   6.828
 6815SOL    HW121344   2.330   6.025   6.768
 6815SOL    HW221345   2.201   5.935   6.811
 6816SOL     OW21346   6.462   0.788   5.882
 6816SOL    HW121347   6.560   0.808   5.893
 6816SOL    HW221348   6.409   0.849   5.940
 6817SOL     OW21349   2.341   2.664   3.699
 6817SOL    HW121350   2.266   2.603   3.726
 6817SOL    HW221351   2.324   2.699   3.607
 6818SOL     OW21352   2.258   6.803   0.665
 6818SOL    HW121353   2.293   6.749   0.588
 6818SOL    HW221354   2.158   6.811   0.658
 6819SOL     OW21355   4.350   1.458   2.844
 6819SOL    HW121356   4.401   1.408   2.914
 6819SOL    HW221357   4.355   1.407   2.758
 6820SOL     OW21358   2.195   6.189   1.408
 6820SOL    HW121359   2.104   6.230   1.407
 6820SOL    HW221360   2.264   6.261   1.407
 6821SOL     OW21361   3.967   2.434   5.383
 6821SOL    HW121362   3.995   2.505   5.318
 6821SOL    HW221363   3.975   2.468   5.476
 6822SOL     OW21364   5.652   2.186   5.773
 6822SOL    HW121365   5.568   2.233   5.798
 6822SOL    HW221366   5.711   2.248   5.721
 6823SOL     OW21367   5.566   3.545   5.452
 6823SOL    HW121368   5.629   3.622   5.442
 6823SOL    HW221369   5.608   3.462   5.415
 6824SOL     OW21370   1.209   1.690   0.467
 6824SOL    HW121371   1.191   1.730   0.377
 6824SOL    HW221372   1.307   1.695   0.487
 6825SOL     OW21373   6.333   0.266   0.333
 6825SOL    HW121374   6.320   0.304   0.242
 6825SOL    HW221375   6.300   0.332   0.401
 6826SOL     OW21376   1.867   3.682   3.462
 6826SOL    HW121377   1.799   3.651   3.395
 6826SOL    HW221378   1.956   3.644   3.439
 6827SOL     OW21379   4.688   5.140   6.097
 6827SOL    HW121380   4.752   5.129   6.021
 6827SOL    HW221381   4.731   5.109   6.181
 6828SOL     OW21382   3.505   1.626   1.385
 6828SOL    HW121383   3.446   1.699   1.420
 6828SOL    HW221384   3.576   1.666   1.327
 6829SOL     OW21385   5.186   6.251   5.634
 6829SOL    HW121386   5.208   6.336   5.683
 6829SOL    HW221387   5.236   6.249   5.548
 6830SOL     OW21388   5.776   0.432   3.064
 6830SOL    HW121389   5.758   0.504   3.131
 6830SOL    HW221390   5.718   0.446   2.984
 6831SOL     OW21391   1.570   1.083   6.654
 6831SOL    HW121392   1.592   1.146   6.579
 6831SOL    HW221393   1.654   1.058   6.703
 6832SOL     OW21394   2.310   4.423   0.939
 6832SOL    HW121395   2.388   4.364   0.919
 6832SOL    HW221396   2.317   4.507   0.885
 6833SOL     OW21397   2.678   4.738   0.014
 6833SOL    HW121398   2.749   4.800   0.046
 6833SOL    HW221399   2.696   4.646   0.049
 6834SOL     OW21400   6.358   0.449   0.534
 6834SOL    HW121401   6.332   0.385   0.606
 6834SOL    HW221402   6.434   0.506   0.566
 6835SOL     OW21403   4.213   0.707   4.649
 6835SOL    HW121404   4.287   0.773   4.666
 6835SOL    HW221405   4.220   0.632   4.715
 6836SOL     OW21406   3.340   4.699   0.365
 6836SOL    HW121407   3.246   4.729   0.379
 6836SOL    HW221408   3.363   4.627   0.431
 6837SOL     OW21409   0.595   2.163   2.982
 6837SOL    HW121410   0.560   2.098   3.049
 6837SOL    HW221411   0.666   2.118   2.926
 6838SOL     OW21412   3.266   6.169   6.460
 6838SOL    HW121413   3.236   6.074   6.450
 6838SOL    HW221414   3.202   6.229   6.413
 6839SOL     OW21415   5.059   1.123   5.424
 6839SOL    HW121416   4.962   1.138   5.402
 6839SOL    HW221417   5.092   1.198   5.480
 6840SOL     OW21418   3.426   0.010   4.884
 6840SOL    HW121419   3.514   0.039   4.920
 6840SOL    HW221420   3.435   6.939   4.841
 6841SOL     OW21421   3.418   4.576   0.117
 6841SOL    HW121422   3.373   4.603   0.202
 6841SOL    HW221423   3.504   4.626   0.108
 6842SOL     OW21424   2.742   3.021   0.905
 6842SOL    HW121425   2.673   3.024   0.832
 6842SOL    HW221426   2.704   3.063   0.987
 6843SOL     OW21427   5.863   0.115   2.072
 6843SOL    HW121428   5.902   0.190   2.125
 6843SOL    HW221429   5.763   0.116   2.082
 6844SOL     OW21430   5.360   6.726   3.837
 6844SOL    HW121431   5.327   6.647   3.785
 6844SOL    HW221432   5.424   6.778   3.780
 6845SOL     OW21433   5.811   5.381   3.007
 6845SOL    HW121434   5.769   5.458   2.960
 6845SOL    HW221435   5.871   5.415   3.080
 6846SOL     OW21436   4.257   3.043   0.922
 6846SOL    HW121437   4.277   3.131   0.965
 6846SOL    HW221438   4.278   3.048   0.825
 6847SOL     OW21439   6.831   5.096   3.390
 6847SOL    HW121440   6.929   5.111   3.374
 6847SOL    HW221441   6.798   5.161   3.457
 6848SOL     OW21442   3.588   6.301   4.188
 6848SOL    HW121443   3.542   6.315   4.275
 6848SOL    HW221444   3.532   6.338   4.114
 6849SOL     OW21445   3.365   5.113   5.464
 6849SOL    HW121446   3.275   5.113   5.508
 6849SOL    HW221447   3.353   5.117   5.365
 6850SOL     OW21448   5.864   3.662   2.072
 6850SOL    HW121449   5.782   3.625   2.116
 6850SOL    HW221450   5.837   3.724   1.999
 6851SOL     OW21451   0.572   3.136   3.380
 6851SOL    HW121452   0.561   3.050   3.430
 6851SOL    HW221453   0.652   3.129   3.320
 6852SOL     OW21454   1.841   5.079   0.744
 6852SOL    HW121455   1.909   5.088   0.816
 6852SOL    HW221456   1.760   5.133   0.768
 6853SOL     OW21457   6.253   3.608   0.398
 6853SOL    HW121458   6.249   3.512   0.369
 6853SOL    HW221459   6.301   3.615   0.485
 6854SOL     OW21460   4.892   1.793   6.782
 6854SOL    HW121461   4.923   1.733   6.709
 6854SOL    HW221462   4.884   1.886   6.748
 6855SOL     OW21463   3.224   5.950   3.530
 6855SOL    HW121464   3.167   5.918   3.454
 6855SOL    HW221465   3.227   5.879   3.601
 6856SOL     OW21466   5.066   3.495   5.571
 6856SOL    HW121467   5.159   3.515   5.540
 6856SOL    HW221468   5.033   3.571   5.628
 6857SOL     OW21469   2.845   2.323   0.228
 6857SOL    HW121470   2.918   2.349   0.291
 6857SOL    HW221471   2.799   2.241   0.261
 6858SOL     OW21472   3.522   3.856   3.925
 6858SOL    HW121473   3.492   3.774   3.975
 6858SOL    HW221474   3.611   3.884   3.960
 6859SOL     OW21475   0.511   0.857   0.742
 6859SOL    HW121476   0.479   0.788   0.676
 6859SOL    HW221477   0.594   0.900   0.706
 6860SOL     OW21478   6.384   5.128   1.079
 6860SOL    HW121479   6.293   5.134   1.036
 6860SOL    HW221480   6.406   5.032   1.094
 6861SOL     OW21481   4.581   4.672   0.248
 6861SOL    HW121482   4.600   4.770   0.260
 6861SOL    HW221483   4.620   4.621   0.324
 6862SOL     OW21484   1.807   4.487   5.596
 6862SOL    HW121485   1.708   4.484   5.609
 6862SOL    HW221486   1.842   4.394   5.582
 6863SOL     OW21487   5.523   0.424   5.773
 6863SOL    HW121488   5.454   0.449   5.841
 6863SOL    HW221489   5.490   0.451   5.682
 6864SOL     OW21490   2.952   5.980   4.216
 6864SOL    HW121491   3.031   5.926   4.185
 6864SOL    HW221492   2.917   5.940   4.301
 6865SOL     OW21493   0.888   5.803   2.936
 6865SOL    HW121494   0.964   5.753   2.895
 6865SOL    HW221495   0.802   5.761   2.909
 6866SOL     OW21496   6.396   5.043   3.082
 6866SOL    HW121497   6.431   4.954   3.051
 6866SOL    HW221498   6.470   5.094   3.126
 6867SOL     OW21499   2.316   4.791   1.315
 6867SOL    HW121500   2.289   4.804   1.411
 6867SOL    HW221501   2.352   4.699   1.304
 6868SOL     OW21502   1.134   5.593   6.377
 6868SOL    HW121503   1.042   5.630   6.387
 6868SOL    HW221504   1.140   5.507   6.428
 6869SOL     OW21505   5.144   0.796   4.929
 6869SOL    HW121506   5.099   0.720   4.881
 6869SOL    HW221507   5.107   0.883   4.896
 6870SOL     OW21508   6.689   5.010   2.172
 6870SOL    HW121509   6.713   4.913   2.170
 6870SOL    HW221510   6.679   5.044   2.079
 6871SOL     OW21511   6.477   4.594   3.232
 6871SOL    HW121512   6.384   4.614   3.264
 6871SOL    HW221513   6.472   4.543   3.146
 6872SOL     OW21514   0.676   3.400   1.412
 6872SOL    HW121515   0.649   3.311   1.375
 6872SOL    HW221516   0.595   3.456   1.426
 6873SOL     OW21517   6.775   4.152   5.290
 6873SOL    HW121518   6.761   4.221   5.218
 6873SOL    HW221519   6.687   4.130   5.331
 6874SOL     OW21520   0.565   5.912   2.238
 6874SOL    HW121521   0.660   5.943   2.245
 6874SOL    HW221522   0.546   5.847   2.311
 6875SOL     OW21523   1.743   2.560   3.449
 6875SOL    HW121524   1.803   2.489   3.412
 6875SOL    HW221525   1.703   2.528   3.535
 6876SOL     OW21526   3.851   6.436   3.971
 6876SOL    HW121527   3.889   6.347   3.997
 6876SOL    HW221528   3.848   6.496   4.051
 6877SOL     OW21529   2.592   3.894   1.002
 6877SOL    HW121530   2.532   3.919   1.079
 6877SOL    HW221531   2.548   3.922   0.916
 6878SOL     OW21532   3.018   1.201   5.125
 6878SOL    HW121533   3.104   1.207   5.175
 6878SOL    HW221534   2.942   1.219   5.187
 6879SOL     OW21535   1.232   2.152   0.354
 6879SOL    HW121536   1.285   2.111   0.428
 6879SOL    HW221537   1.186   2.234   0.388
 6880SOL     OW21538   1.798   4.473   5.255
 6880SOL    HW121539   1.842   4.421   5.328
 6880SOL    HW221540   1.864   4.491   5.182
 6881SOL     OW21541   1.041   3.670   1.676
 6881SOL    HW121542   1.069   3.645   1.584
 6881SOL    HW221543   1.107   3.634   1.742
 6882SOL     OW21544   3.167   0.380   6.655
 6882SOL    HW121545   3.201   0.398   6.747
 6882SOL    HW221546   3.242   0.351   6.596
 6883SOL     OW21547   4.352   1.454   0.472
 6883SOL    HW121548   4.370   1.508   0.554
 6883SOL    HW221549   4.419   1.380   0.465
 6884SOL     OW21550   2.204   4.754   4.482
 6884SOL    HW121551   2.143   4.803   4.545
 6884SOL    HW221552   2.257   4.686   4.533
 6885SOL     OW21553   3.862   5.137   3.822
 6885SOL    HW121554   3.811   5.203   3.768
 6885SOL    HW221555   3.953   5.173   3.843
 6886SOL     OW21556   6.601   0.340   4.506
 6886SOL    HW121557   6.585   0.344   4.407
 6886SOL    HW221558   6.520   0.373   4.554
 6887SOL     OW21559   5.118   5.811   6.074
 6887SOL    HW121560   5.163   5.860   6.148
 6887SOL    HW221561   5.048   5.869   6.032
 6888SOL     OW21562   5.435   6.091   6.828
 6888SOL    HW121563   5.388   6.166   6.875
 6888SOL    HW221564   5.505   6.052   6.889
 6889SOL     OW21565   1.812   1.588   4.994
 6889SOL    HW121566   1.757   1.658   4.948
 6889SOL    HW221567   1.906   1.593   4.961
 6890SOL     OW21568   3.933   6.286   1.382
 6890SOL    HW121569   3.884   6.260   1.465
 6890SOL    HW221570   4.020   6.238   1.378
 6891SOL     OW21571   1.975   4.481   3.288
 6891SOL    HW121572   1.970   4.539   3.369
 6891SOL    HW221573   1.889   4.432   3.276
 6892SOL     OW21574   2.873   2.199   3.551
 6892SOL    HW121575   2.859   2.101   3.564
 6892SOL    HW221576   2.855   2.247   3.637
 6893SOL     OW21577   4.412   4.108   6.940
 6893SOL    HW121578   4.357   4.075   6.864
 6893SOL    HW221579   4.468   4.185   6.909
 6894SOL     OW21580   6.162   4.554   0.350
 6894SOL    HW121581   6.117   4.464   0.350
 6894SOL    HW221582   6.229   4.557   0.276
 6895SOL     OW21583   2.637   5.366   0.212
 6895SOL    HW121584   2.625   5.437   0.142
 6895SOL    HW221585   2.726   5.323   0.200
 6896SOL     OW21586   1.924   6.661   3.313
 6896SOL    HW121587   1.898   6.706   3.398
 6896SOL    HW221588   1.894   6.566   3.314
 6897SOL     OW21589   3.717   3.828   6.191
 6897SOL    HW121590   3.797   3.859   6.140
 6897SOL    HW221591   3.636   3.832   6.132
 6898SOL     OW21592   4.008   1.708   1.840
 6898SOL    HW121593   3.947   1.733   1.765
 6898SOL    HW221594   3.959   1.654   1.908
 6899SOL     OW21595   5.797   6.686   1.053
 6899SOL    HW121596   5.713   6.690   0.999
 6899SOL    HW221597   5.826   6.591   1.064
 6900SOL     OW21598   6.611   6.541   5.873
 6900SOL    HW121599   6.603   6.634   5.836
 6900SOL    HW221600   6.707   6.522   5.895
 6901SOL     OW21601   0.188   6.053   6.154
 6901SOL    HW121602   0.199   5.957   6.180
 6901SOL    HW221603   0.216   6.066   6.059
 6902SOL     OW21604   5.705   6.068   0.004
 6902SOL    HW121605   5.718   6.122   0.087
 6902SOL    HW221606   5.743   6.119   6.945
 6903SOL     OW21607   3.325   5.667   4.339
 6903SOL    HW121608   3.280   5.643   4.253
 6903SOL    HW221609   3.333   5.585   4.397
 6904SOL     OW21610   5.993   1.097   4.690
 6904SOL    HW121611   6.008   1.106   4.789
 6904SOL    HW221612   5.916   1.035   4.674
 6905SOL     OW21613   6.048   6.410   6.343
 6905SOL    HW121614   6.056   6.315   6.372
 6905SOL    HW221615   6.036   6.469   6.423
 6906SOL     OW21616   4.911   0.924   3.645
 6906SOL    HW121617   4.953   0.949   3.558
 6906SOL    HW221618   4.955   0.843   3.682
 6907SOL     OW21619   5.199   2.505   1.321
 6907SOL    HW121620   5.108   2.544   1.307
 6907SOL    HW221621   5.250   2.504   1.235
 6908SOL     OW21622   0.831   5.632   6.196
 6908SOL    HW121623   0.833   5.636   6.296
 6908SOL    HW221624   0.872   5.546   6.166
 6909SOL     OW21625   6.073   4.175   1.490
 6909SOL    HW121626   6.130   4.175   1.408
 6909SOL    HW221627   6.110   4.240   1.556
 6910SOL     OW21628   6.700   2.637   3.333
 6910SOL    HW121629   6.752   2.552   3.338
 6910SOL    HW221630   6.668   2.662   3.425
 6911SOL     OW21631   4.073   5.918   3.791
 6911SOL    HW121632   4.121   5.935   3.878
 6911SOL    HW221633   4.097   5.990   3.726
 6912SOL     OW21634   3.190   5.345   0.309
 6912SOL    HW121635   3.122   5.416   0.328
 6912SOL    HW221636   3.150   5.255   0.326
 6913SOL     OW21637   4.746   5.036   4.729
 6913SOL    HW121638   4.656   5.076   4.745
 6913SOL    HW221639   4.735   4.950   4.679
 6914SOL     OW21640   6.284   4.084   5.836
 6914SOL    HW121641   6.374   4.042   5.829
 6914SOL    HW221642   6.248   4.100   5.744
 6915SOL     OW21643   6.008   3.382   1.475
 6915SOL    HW121644   6.092   3.328   1.479
 6915SOL    HW221645   5.956   3.358   1.393
 6916SOL     OW21646   0.076   3.379   7.005
 6916SOL    HW121647   0.138   3.443   0.030
 6916SOL    HW221648   0.075   3.394   6.906
 6917SOL     OW21649   2.849   5.865   1.280
 6917SOL    HW121650   2.773   5.905   1.332
 6917SOL    HW221651   2.861   5.769   1.308
 6918SOL     OW21652   0.001   3.174   4.620
 6918SOL    HW121653   6.941   3.215   4.665
 6918SOL    HW221654   0.084   3.199   4.670
 6919SOL     OW21655   0.178   6.122   2.344
 6919SOL    HW121656   0.184   6.200   2.281
 6919SOL    HW221657   0.120   6.051   2.302
 6920SOL     OW21658   4.315   5.402   5.436
 6920SOL    HW121659   4.310   5.371   5.531
 6920SOL    HW221660   4.406   5.384   5.399
 6921SOL     OW21661   5.384   5.890   2.969
 6921SOL    HW121662   5.479   5.860   2.956
 6921SOL    HW221663   5.358   5.877   3.065
 6922SOL     OW21664   1.955   6.017   5.876
 6922SOL    HW121665   1.911   5.953   5.940
 6922SOL    HW221666   2.045   5.982   5.852
 6923SOL     OW21667   4.012   5.243   3.538
 6923SOL    HW121668   4.053   5.182   3.604
 6923SOL    HW221669   3.916   5.219   3.524
 6924SOL     OW21670   2.246   3.785   6.723
 6924SOL    HW121671   2.162   3.839   6.730
 6924SOL    HW221672   2.224   3.692   6.695
 6925SOL     OW21673   4.219   6.112   4.977
 6925SOL    HW121674   4.252   6.069   4.893
 6925SOL    HW221675   4.286   6.179   5.009
 6926SOL     OW21676   3.229   2.784   1.208
 6926SOL    HW121677   3.248   2.863   1.149
 6926SOL    HW221678   3.310   2.726   1.213
 6927SOL     OW21679   5.203   2.553   6.473
 6927SOL    HW121680   5.187   2.519   6.381
 6927SOL    HW221681   5.254   2.485   6.526
 6928SOL     OW21682   6.340   6.052   0.825
 6928SOL    HW121683   6.335   6.143   0.865
 6928SOL    HW221684   6.260   5.999   0.852
 6929SOL     OW21685   6.173   4.942   0.698
 6929SOL    HW121686   6.154   4.991   0.614
 6929SOL    HW221687   6.251   4.881   0.684
 6930SOL     OW21688   0.281   6.316   2.188
 6930SOL    HW121689   0.358   6.379   2.182
 6930SOL    HW221690   0.235   6.312   2.099
 6931SOL     OW21691   2.270   0.790   2.228
 6931SOL    HW121692   2.188   0.797   2.171
 6931SOL    HW221693   2.247   0.742   2.313
 6932SOL     OW21694   4.027   6.755   0.788
 6932SOL    HW121695   3.954   6.815   0.756
 6932SOL    HW221696   4.007   6.661   0.762
 6933SOL     OW21697   2.954   6.578   4.501
 6933SOL    HW121698   2.890   6.651   4.523
 6933SOL    HW221699   2.967   6.574   4.402
 6934SOL     OW21700   4.981   3.440   6.034
 6934SOL    HW121701   5.079   3.449   6.017
 6934SOL    HW221702   4.931   3.461   5.950
 6935SOL     OW21703   4.176   4.714   3.062
 6935SOL    HW121704   4.085   4.738   3.028
 6935SOL    HW221705   4.236   4.695   2.984
 6936SOL     OW21706   6.349   2.333   4.214
 6936SOL    HW121707   6.392   2.423   4.202
 6936SOL    HW221708   6.298   2.332   4.300
 6937SOL     OW21709   0.382   6.346   0.229
 6937SOL    HW121710   0.415   6.260   0.189
 6937SOL    HW221711   0.317   6.327   0.301
 6938SOL     OW21712   5.423   3.167   5.604
 6938SOL    HW121713   5.371   3.107   5.542
 6938SOL    HW221714   5.364   3.242   5.634
 6939SOL     OW21715   0.904   4.570   2.148
 6939SOL    HW121716   0.944   4.479   2.149
 6939SOL    HW221717   0.926   4.618   2.233
 6940SOL     OW21718   4.282   0.921   0.134
 6940SOL    HW121719   4.373   0.946   0.100
 6940SOL    HW221720   4.262   0.975   0.217
 6941SOL     OW21721   3.807   3.369   1.700
 6941SOL    HW121722   3.775   3.302   1.767
 6941SOL    HW221723   3.876   3.428   1.741
 6942SOL     OW21724   5.264   0.568   1.772
 6942SOL    HW121725   5.215   0.617   1.699
 6942SOL    HW221726   5.219   0.586   1.859
 6943SOL     OW21727   4.271   6.374   6.802
 6943SOL    HW121728   4.323   6.292   6.777
 6943SOL    HW221729   4.321   6.455   6.775
 6944SOL     OW21730   0.902   3.968   6.703
 6944SOL    HW121731   0.803   3.975   6.717
 6944SOL    HW221732   0.923   3.964   6.606
 6945SOL     OW21733   6.323   1.791   6.200
 6945SOL    HW121734   6.241   1.848   6.207
 6945SOL    HW221735   6.297   1.700   6.168
 6946SOL     OW21736   6.046   5.996   0.831
 6946SOL    HW121737   5.974   5.926   0.829
 6946SOL    HW221738   6.011   6.081   0.791
 6947SOL     OW21739   3.633   6.294   6.296
 6947SOL    HW121740   3.544   6.248   6.301
 6947SOL    HW221741   3.698   6.237   6.245
 6948SOL     OW21742   6.774   0.492   0.210
 6948SOL    HW121743   6.708   0.481   0.135
 6948SOL    HW221744   6.807   0.403   0.238
 6949SOL     OW21745   4.814   6.643   2.646
 6949SOL    HW121746   4.774   6.709   2.582
 6949SOL    HW221747   4.829   6.687   2.735
 6950SOL     OW21748   2.419   1.047   4.644
 6950SOL    HW121749   2.347   0.983   4.617
 6950SOL    HW221750   2.435   1.039   4.743
 6951SOL     OW21751   6.536   5.737   5.303
 6951SOL    HW121752   6.538   5.831   5.338
 6951SOL    HW221753   6.530   5.674   5.380
 6952SOL     OW21754   0.613   6.304   3.759
 6952SOL    HW121755   0.523   6.269   3.784
 6952SOL    HW221756   0.645   6.366   3.830
 6953SOL     OW21757   4.916   6.441   0.334
 6953SOL    HW121758   4.875   6.455   0.243
 6953SOL    HW221759   4.960   6.526   0.363
 6954SOL     OW21760   0.137   3.887   3.593
 6954SOL    HW121761   0.158   3.809   3.534
 6954SOL    HW221762   0.128   3.970   3.537
 6955SOL     OW21763   6.549   0.654   2.528
 6955SOL    HW121764   6.507   0.719   2.592
 6955SOL    HW221765   6.605   0.589   2.580
 6956SOL     OW21766   5.261   5.800   3.203
 6956SOL    HW121767   5.231   5.707   3.221
 6956SOL    HW221768   5.187   5.864   3.223
 6957SOL     OW21769   6.472   5.171   0.755
 6957SOL    HW121770   6.531   5.093   0.773
 6957SOL    HW221771   6.395   5.170   0.820
 6958SOL     OW21772   2.937   3.314   4.441
 6958SOL    HW121773   2.855   3.278   4.485
 6958SOL    HW221774   3.014   3.253   4.458
 6959SOL     OW21775   1.697   1.673   4.308
 6959SOL    HW121776   1.723   1.577   4.316
 6959SOL    HW221777   1.770   1.725   4.265
 6960SOL     OW21778   2.236   4.825   1.577
 6960SOL    HW121779   2.241   4.846   1.675
 6960SOL    HW221780   2.141   4.803   1.553
 6961SOL     OW21781   5.730   2.180   3.926
 6961SOL    HW121782   5.693   2.087   3.929
 6961SOL    HW221783   5.655   2.245   3.916
 6962SOL     OW21784   4.394   6.036   2.003
 6962SOL    HW121785   4.365   6.058   1.910
 6962SOL    HW221786   4.315   6.036   2.064
 6963SOL     OW21787   5.282   5.991   0.972
 6963SOL    HW121788   5.272   5.895   0.949
 6963SOL    HW221789   5.346   6.034   0.907
 6964SOL     OW21790   3.580   0.480   4.986
 6964SOL    HW121791   3.655   0.498   4.922
 6964SOL    HW221792   3.527   0.401   4.955
 6965SOL     OW21793   1.040   3.234   1.225
 6965SOL    HW121794   1.010   3.311   1.281
 6965SOL    HW221795   1.115   3.187   1.272
 6966SOL     OW21796   6.918   2.549   3.091
 6966SOL    HW121797   6.966   2.633   3.119
 6966SOL    HW221798   6.896   2.496   3.173
 6967SOL     OW21799   2.331   6.564   5.491
 6967SOL    HW121800   2.394   6.541   5.565
 6967SOL    HW221801   2.375   6.546   5.403
 6968SOL     OW21802   4.224   6.692   2.464
 6968SOL    HW121803   4.267   6.699   2.374
 6968SOL    HW221804   4.175   6.605   2.470
 6969SOL     OW21805   2.949   2.204   1.364
 6969SOL    HW121806   2.919   2.286   1.315
 6969SOL    HW221807   2.958   2.225   1.461
 6970SOL     OW21808   3.284   4.443   6.753
 6970SOL    HW121809   3.304   4.416   6.847
 6970SOL    HW221810   3.196   4.489   6.749
 6971SOL     OW21811   6.245   4.253   2.378
 6971SOL    HW121812   6.177   4.275   2.448
 6971SOL    HW221813   6.198   4.233   2.292
 6972SOL     OW21814   4.858   3.862   3.113
 6972SOL    HW121815   4.830   3.957   3.100
 6972SOL    HW221816   4.853   3.814   3.025
 6973SOL     OW21817   0.586   2.801   4.316
 6973SOL    HW121818   0.519   2.769   4.382
 6973SOL    HW221819   0.550   2.881   4.268
 6974SOL     OW21820   3.478   3.966   2.352
 6974SOL    HW121821   3.510   4.027   2.280
 6974SOL    HW221822   3.459   4.020   2.434
 6975SOL     OW21823   2.046   6.754   6.366
 6975SOL    HW121824   1.996   6.672   6.339
 6975SOL    HW221825   2.127   6.728   6.419
 6976SOL     OW21826   5.103   5.957   4.791
 6976SOL    HW121827   5.032   5.887   4.785
 6976SOL    HW221828   5.166   5.935   4.865
 6977SOL     OW21829   4.025   2.631   1.610
 6977SOL    HW121830   4.120   2.661   1.622
 6977SOL    HW221831   3.965   2.691   1.662
 6978SOL     OW21832   4.850   1.373   2.688
 6978SOL    HW121833   4.764   1.425   2.682
 6978SOL    HW221834   4.836   1.282   2.651
 6979SOL     OW21835   0.746   4.161   1.144
 6979SOL    HW121836   0.791   4.072   1.149
 6979SOL    HW221837   0.647   4.149   1.150
 6980SOL     OW21838   1.788   1.070   3.711
 6980SOL    HW121839   1.866   1.032   3.662
 6980SOL    HW221840   1.760   1.007   3.784
 6981SOL     OW21841   3.840   2.482   5.803
 6981SOL    HW121842   3.787   2.532   5.734
 6981SOL    HW221843   3.891   2.408   5.759
 6982SOL     OW21844   1.292   0.434   4.588
 6982SOL    HW121845   1.254   0.526   4.596
 6982SOL    HW221846   1.348   0.428   4.506
 6983SOL     OW21847   3.847   1.997   3.609
 6983SOL    HW121848   3.928   2.054   3.620
 6983SOL    HW221849   3.872   1.913   3.561
 6984SOL     OW21850   2.435   1.834   3.689
 6984SOL    HW121851   2.390   1.871   3.771
 6984SOL    HW221852   2.397   1.879   3.608
 6985SOL     OW21853   4.874   4.913   1.942
 6985SOL    HW121854   4.907   4.821   1.964
 6985SOL    HW221855   4.876   4.969   2.024
 6986SOL     OW21856   1.709   0.048   6.311
 6986SOL    HW121857   1.655   0.109   6.368
 6986SOL    HW221858   1.655   6.986   6.288
 6987SOL     OW21859   6.234   1.565   5.617
 6987SOL    HW121860   6.175   1.640   5.647
 6987SOL    HW221861   6.183   1.504   5.557
 6988SOL     OW21862   0.548   0.368   5.291
 6988SOL    HW121863   0.546   0.440   5.360
 6988SOL    HW221864   0.622   0.386   5.226
 6989SOL     OW21865   0.678   4.193   3.083
 6989SOL    HW121866   0.711   4.206   3.177
 6989SOL    HW221867   0.722   4.260   3.023
 6990SOL     OW21868   4.633   2.787   1.139
 6990SOL    HW121869   4.699   2.785   1.214
 6990SOL    HW221870   4.629   2.880   1.101
 6991SOL     OW21871   3.409   4.975   3.601
 6991SOL    HW121872   3.366   4.939   3.684
 6991SOL    HW221873   3.446   5.066   3.620
 6992SOL     OW21874   5.037   6.151   6.492
 6992SOL    HW121875   5.080   6.231   6.450
 6992SOL    HW221876   4.943   6.143   6.460
 6993SOL     OW21877   5.989   0.636   2.633
 6993SOL    HW121878   6.051   0.708   2.601
 6993SOL    HW221879   6.033   0.547   2.621
 6994SOL     OW21880   0.477   2.448   4.322
 6994SOL    HW121881   0.427   2.442   4.236
 6994SOL    HW221882   0.505   2.356   4.351
 6995SOL     OW21883   0.022   4.466   6.269
 6995SOL    HW121884   7.007   4.497   6.358
 6995SOL    HW221885   0.114   4.428   6.280
 6996SOL     OW21886   1.336   0.376   6.822
 6996SOL    HW121887   1.275   0.425   6.760
 6996SOL    HW221888   1.284   0.338   6.898
 6997SOL     OW21889   0.012   5.817   5.088
 6997SOL    HW121890   0.037   5.889   5.152
 6997SOL    HW221891   0.080   5.813   5.014
 6998SOL     OW21892   2.284   0.737   1.807
 6998SOL    HW121893   2.285   0.678   1.888
 6998SOL    HW221894   2.338   0.819   1.825
 6999SOL     OW21895   2.469   2.190   5.840
 6999SOL    HW121896   2.418   2.241   5.909
 6999SOL    HW221897   2.408   2.161   5.767
 7000SOL     OW21898   5.561   6.374   1.533
 7000SOL    HW121899   5.482   6.412   1.581
 7000SOL    HW221900   5.558   6.274   1.537
 7001SOL     OW21901   1.873   2.788   5.263
 7001SOL    HW121902   1.912   2.853   5.198
 7001SOL    HW221903   1.901   2.695   5.238
 7002SOL     OW21904   1.793   5.493   4.118
 7002SOL    HW121905   1.777   5.439   4.201
 7002SOL    HW221906   1.788   5.434   4.038
 7003SOL     OW21907   3.977   4.805   0.312
 7003SOL    HW121908   4.036   4.815   0.231
 7003SOL    HW221909   3.988   4.713   0.350
 7004SOL     OW21910   0.948   4.442   2.458
 7004SOL    HW121911   0.904   4.398   2.379
 7004SOL    HW221912   1.005   4.517   2.426
 7005SOL     OW21913   1.631   0.566   0.381
 7005SOL    HW121914   1.710   0.618   0.412
 7005SOL    HW221915   1.631   0.476   0.425
 7006SOL     OW21916   5.144   5.027   3.730
 7006SOL    HW121917   5.095   5.049   3.646
 7006SOL    HW221918   5.242   5.035   3.715
 7007SOL     OW21919   5.365   6.860   3.394
 7007SOL    HW121920   5.274   6.901   3.379
 7007SOL    HW221921   5.383   6.792   3.324
 7008SOL     OW21922   0.780   3.818   4.750
 7008SOL    HW121923   0.870   3.776   4.757
 7008SOL    HW221924   0.769   3.887   4.821
 7009SOL     OW21925   5.529   6.262   2.011
 7009SOL    HW121926   5.516   6.183   2.072
 7009SOL    HW221927   5.462   6.333   2.034
 7010SOL     OW21928   5.467   4.515   4.267
 7010SOL    HW121929   5.534   4.531   4.195
 7010SOL    HW221930   5.386   4.472   4.227
 7011SOL     OW21931   3.571   6.719   6.419
 7011SOL    HW121932   3.607   6.757   6.504
 7011SOL    HW221933   3.586   6.784   6.344
 7012SOL     OW21934   1.296   2.166   1.461
 7012SOL    HW121935   1.239   2.106   1.517
 7012SOL    HW221936   1.264   2.165   1.367
 7013SOL     OW21937   0.507   0.357   0.359
 7013SOL    HW121938   0.415   0.327   0.383
 7013SOL    HW221939   0.573   0.291   0.393
 7014SOL     OW21940   4.271   3.255   1.080
 7014SOL    HW121941   4.199   3.212   1.136
 7014SOL    HW221942   4.229   3.317   1.014
 7015SOL     OW21943   5.537   5.029   2.276
 7015SOL    HW121944   5.550   4.931   2.283
 7015SOL    HW221945   5.556   5.059   2.183
 7016SOL     OW21946   3.727   4.685   1.431
 7016SOL    HW121947   3.727   4.782   1.409
 7016SOL    HW221948   3.681   4.634   1.358
 7017SOL     OW21949   1.883   4.795   2.156
 7017SOL    HW121950   1.880   4.760   2.062
 7017SOL    HW221951   1.898   4.894   2.154
 7018SOL     OW21952   5.560   3.792   4.146
 7018SOL    HW121953   5.538   3.719   4.081
 7018SOL    HW221954   5.651   3.777   4.184
 7019SOL     OW21955   3.319   3.960   0.104
 7019SOL    HW121956   3.409   3.922   0.082
 7019SOL    HW221957   3.263   3.964   0.020
 7020SOL     OW21958   6.576   5.467   6.812
 7020SOL    HW121959   6.631   5.399   6.860
 7020SOL    HW221960   6.483   5.467   6.848
 7021SOL     OW21961   1.228   1.803   5.760
 7021SOL    HW121962   1.223   1.902   5.745
 7021SOL    HW221963   1.257   1.758   5.676
 7022SOL     OW21964   4.744   6.916   6.350
 7022SOL    HW121965   4.711   6.823   6.335
 7022SOL    HW221966   4.834   6.913   6.393
 7023SOL     OW21967   0.501   1.543   4.451
 7023SOL    HW121968   0.587   1.579   4.487
 7023SOL    HW221969   0.450   1.617   4.406
 7024SOL     OW21970   2.649   4.105   5.352
 7024SOL    HW121971   2.577   4.077   5.288
 7024SOL    HW221972   2.660   4.204   5.348
 7025SOL     OW21973   2.955   1.305   0.732
 7025SOL    HW121974   2.997   1.222   0.699
 7025SOL    HW221975   2.856   1.292   0.741
 7026SOL     OW21976   3.387   1.776   2.132
 7026SOL    HW121977   3.296   1.737   2.144
 7026SOL    HW221978   3.382   1.875   2.143
 7027SOL     OW21979   2.340   5.387   4.139
 7027SOL    HW121980   2.382   5.317   4.082
 7027SOL    HW221981   2.250   5.356   4.170
 7028SOL     OW21982   3.738   1.262   3.974
 7028SOL    HW121983   3.836   1.247   3.989
 7028SOL    HW221984   3.713   1.231   3.883
 7029SOL     OW21985   5.131   4.744   5.273
 7029SOL    HW121986   5.089   4.823   5.318
 7029SOL    HW221987   5.087   4.660   5.305
 7030SOL     OW21988   1.430   0.904   5.301
 7030SOL    HW121989   1.352   0.884   5.241
 7030SOL    HW221990   1.396   0.938   5.389
 7031SOL     OW21991   2.851   5.976   4.777
 7031SOL    HW121992   2.886   5.998   4.868
 7031SOL    HW221993   2.895   6.036   4.710
 7032SOL     OW21994   4.040   0.510   3.010
 7032SOL    HW121995   4.071   0.433   3.066
 7032SOL    HW221996   4.098   0.589   3.027
 7033SOL     OW21997   1.639   2.510   3.703
 7033SOL    HW121998   1.686   2.455   3.772
 7033SOL    HW221999   1.543   2.485   3.701
 7034SOL     OW22000   6.278   0.603   3.934
 7034SOL    HW122001   6.272   0.504   3.940
 7034SOL    HW222002   6.356   0.635   3.988
 7035SOL     OW22003   1.546   6.507   1.399
 7035SOL    HW122004   1.518   6.419   1.437
 7035SOL    HW222005   1.521   6.581   1.462
 7036SOL     OW22006   0.416   0.539   2.892
 7036SOL    HW122007   0.496   0.478   2.891
 7036SOL    HW222008   0.381   0.546   2.985
 7037SOL     OW22009   1.817   1.760   6.656
 7037SOL    HW122010   1.826   1.855   6.686
 7037SOL    HW222011   1.886   1.704   6.701
 7038SOL     OW22012   2.722   3.043   5.584
 7038SOL    HW122013   2.708   3.121   5.645
 7038SOL    HW222014   2.728   3.076   5.489
 7039SOL     OW22015   3.008   4.944   1.678
 7039SOL    HW122016   2.965   4.858   1.653
 7039SOL    HW222017   3.074   4.971   1.608
 7040SOL     OW22018   6.222   1.951   5.108
 7040SOL    HW122019   6.125   1.926   5.102
 7040SOL    HW222020   6.243   1.977   5.202
 7041SOL     OW22021   6.633   1.633   1.851
 7041SOL    HW122022   6.549   1.593   1.815
 7041SOL    HW222023   6.694   1.656   1.775
 7042SOL     OW22024   4.692   4.996   5.372
 7042SOL    HW122025   4.616   4.978   5.310
 7042SOL    HW222026   4.657   5.017   5.463
 7043SOL     OW22027   2.205   3.935   2.910
 7043SOL    HW122028   2.123   3.992   2.919
 7043SOL    HW222029   2.189   3.866   2.839
 7044SOL     OW22030   4.356   4.595   4.197
 7044SOL    HW122031   4.302   4.661   4.250
 7044SOL    HW222032   4.362   4.626   4.102
 7045SOL     OW22033   5.033   5.941   3.208
 7045SOL    HW122034   4.980   5.859   3.229
 7045SOL    HW222035   5.029   5.959   3.110
 7046SOL     OW22036   3.228   0.690   3.265
 7046SOL    HW122037   3.312   0.744   3.263
 7046SOL    HW222038   3.151   0.750   3.289
 7047SOL     OW22039   6.834   1.651   2.354
 7047SOL    HW122040   6.806   1.709   2.278
 7047SOL    HW222041   6.921   1.607   2.333
 7048SOL     OW22042   5.501   6.259   2.783
 7048SOL    HW122043   5.572   6.261   2.854
 7048SOL    HW222044   5.526   6.193   2.712
 7049SOL     OW22045   3.778   1.561   0.673
 7049SOL    HW122046   3.842   1.611   0.731
 7049SOL    HW222047   3.752   1.618   0.595
 7050SOL     OW22048   4.537   3.365   1.170
 7050SOL    HW122049   4.464   3.296   1.168
 7050SOL    HW222050   4.517   3.436   1.103
 7051SOL     OW22051   6.992   0.122   1.726
 7051SOL    HW122052   7.009   0.056   1.799
 7051SOL    HW222053   0.055   0.175   1.709
 7052SOL     OW22054   5.889   2.575   3.497
 7052SOL    HW122055   5.922   2.628   3.419
 7052SOL    HW222056   5.789   2.578   3.500
 7053SOL     OW22057   0.903   3.588   5.498
 7053SOL    HW122058   0.975   3.530   5.536
 7053SOL    HW222059   0.917   3.682   5.528
 7054SOL     OW22060   1.055   6.639   0.407
 7054SOL    HW122061   1.025   6.553   0.448
 7054SOL    HW222062   1.149   6.659   0.434
 7055SOL     OW22063   2.950   6.937   5.454
 7055SOL    HW122064   3.036   6.980   5.482
 7055SOL    HW222065   2.874   6.998   5.472
 7056SOL     OW22066   6.233   4.570   2.202
 7056SOL    HW122067   6.256   4.482   2.160
 7056SOL    HW222068   6.134   4.579   2.210
 7057SOL     OW22069   1.504   5.555   4.178
 7057SOL    HW122070   1.445   5.625   4.137
 7057SOL    HW222071   1.597   5.590   4.188
 7058SOL     OW22072   5.756   4.668   5.677
 7058SOL    HW122073   5.714   4.582   5.649
 7058SOL    HW222074   5.737   4.739   5.608
 7059SOL     OW22075   6.744   1.308   4.021
 7059SOL    HW122076   6.673   1.247   4.054
 7059SOL    HW222077   6.832   1.282   4.060
 7060SOL     OW22078   4.186   0.078   1.362
 7060SOL    HW122079   4.283   0.095   1.347
 7060SOL    HW222080   4.148   0.149   1.420
 7061SOL     OW22081   0.501   2.792   3.278
 7061SOL    HW122082   0.568   2.730   3.240
 7061SOL    HW222083   0.467   2.854   3.207
 7062SOL     OW22084   3.984   0.949   5.407
 7062SOL    HW122085   3.948   1.029   5.358
 7062SOL    HW222086   3.919   0.874   5.400
 7063SOL     OW22087   1.582   0.167   1.832
 7063SOL    HW122088   1.557   0.194   1.738
 7063SOL    HW222089   1.502   0.126   1.876
 7064SOL     OW22090   4.048   1.993   0.819
 7064SOL    HW122091   4.017   2.039   0.736
 7064SOL    HW222092   4.138   2.029   0.845
 7065SOL     OW22093   4.379   3.874   6.266
 7065SOL    HW122094   4.453   3.841   6.209
 7065SOL    HW222095   4.314   3.800   6.284
 7066SOL     OW22096   4.672   0.767   6.963
 7066SOL    HW122097   4.626   0.748   0.031
 7066SOL    HW222098   4.615   0.736   6.887
 7067SOL     OW22099   1.622   2.712   5.378
 7067SOL    HW122100   1.553   2.692   5.308
 7067SOL    HW222101   1.699   2.760   5.337
 7068SOL     OW22102   6.519   4.523   4.828
 7068SOL    HW122103   6.487   4.549   4.919
 7068SOL    HW222104   6.441   4.498   4.771
 7069SOL     OW22105   5.418   1.789   4.315
 7069SOL    HW122106   5.417   1.889   4.316
 7069SOL    HW222107   5.440   1.757   4.223
 7070SOL     OW22108   6.925   6.714   4.766
 7070SOL    HW122109   6.958   6.780   4.833
 7070SOL    HW222110   6.935   6.752   4.674
 7071SOL     OW22111   3.001   5.770   6.053
 7071SOL    HW122112   3.054   5.711   6.115
 7071SOL    HW222113   2.982   5.857   6.099
 7072SOL     OW22114   1.892   6.476   0.044
 7072SOL    HW122115   1.894   6.568   0.005
 7072SOL    HW222116   1.949   6.473   0.126
 7073SOL     OW22117   5.175   6.634   4.515
 7073SOL    HW122118   5.094   6.677   4.475
 7073SOL    HW222119   5.248   6.702   4.525
 7074SOL     OW22120   4.902   2.388   1.664
 7074SOL    HW122121   4.918   2.290   1.663
 7074SOL    HW222122   4.881   2.417   1.758
 7075SOL     OW22123   1.861   4.184   5.497
 7075SOL    HW122124   1.946   4.167   5.547
 7075SOL    HW222125   1.868   4.143   5.406
 7076SOL     OW22126   5.836   2.251   6.008
 7076SOL    HW122127   5.753   2.239   5.953
 7076SOL    HW222128   5.908   2.291   5.951
 7077SOL     OW22129   2.713   4.736   3.563
 7077SOL    HW122130   2.803   4.738   3.606
 7077SOL    HW222131   2.664   4.654   3.594
 7078SOL     OW22132   6.979   6.799   1.646
 7078SOL    HW122133   0.022   6.836   1.716
 7078SOL    HW222134   0.014   6.767   1.568
 7079SOL     OW22135   6.910   5.983   4.166
 7079SOL    HW122136   6.892   5.921   4.090
 7079SOL    HW222137   6.849   5.962   4.242
 7080SOL     OW22138   3.413   1.103   5.090
 7080SOL    HW122139   3.432   1.160   5.010
 7080SOL    HW222140   3.365   1.020   5.062
 7081SOL     OW22141   2.587   6.723   6.985
 7081SOL    HW122142   2.581   6.623   6.990
 7081SOL    HW222143   2.520   6.757   6.919
 7082SOL     OW22144   6.734   3.851   0.096
 7082SOL    HW122145   6.761   3.771   0.148
 7082SOL    HW222146   6.815   3.905   0.071
 7083SOL     OW22147   2.309   0.282   0.853
 7083SOL    HW122148   2.286   0.200   0.906
 7083SOL    HW222149   2.362   0.344   0.911
 7084SOL     OW22150   0.272   5.767   5.693
 7084SOL    HW122151   0.269   5.809   5.783
 7084SOL    HW222152   0.182   5.729   5.670
 7085SOL     OW22153   1.042   1.528   1.914
 7085SOL    HW122154   0.957   1.492   1.875
 7085SOL    HW222155   1.116   1.517   1.847
 7086SOL     OW22156   5.496   6.994   5.860
 7086SOL    HW122157   5.547   0.051   5.821
 7086SOL    HW222158   5.413   6.978   5.806
 7087SOL     OW22159   6.089   4.021   4.720
 7087SOL    HW122160   6.000   4.066   4.728
 7087SOL    HW222161   6.078   3.937   4.666
 7088SOL     OW22162   5.103   2.681   3.542
 7088SOL    HW122163   5.055   2.746   3.482
 7088SOL    HW222164   5.042   2.656   3.618
 7089SOL     OW22165   2.944   1.884   4.693
 7089SOL    HW122166   3.027   1.923   4.655
 7089SOL    HW222167   2.910   1.813   4.631
 7090SOL     OW22168   2.170   0.887   0.151
 7090SOL    HW122169   2.120   0.971   0.130
 7090SOL    HW222170   2.161   0.866   0.249
 7091SOL     OW22171   0.536   2.232   0.657
 7091SOL    HW122172   0.565   2.312   0.708
 7091SOL    HW222173   0.518   2.156   0.720
 7092SOL     OW22174   3.782   3.249   5.834
 7092SOL    HW122175   3.707   3.187   5.857
 7092SOL    HW222176   3.811   3.234   5.740
 7093SOL     OW22177   3.150   3.957   2.548
 7093SOL    HW122178   3.237   3.992   2.582
 7093SOL    HW222179   3.167   3.903   2.465
 7094SOL     OW22180   6.989   5.928   5.846
 7094SOL    HW122181   6.902   5.888   5.816
 7094SOL    HW222182   6.987   5.940   5.946
 7095SOL     OW22183   4.288   4.740   5.505
 7095SOL    HW122184   4.204   4.720   5.454
 7095SOL    HW222185   4.367   4.706   5.455
 7096SOL     OW22186   6.684   1.194   3.406
 7096SOL    HW122187   6.733   1.182   3.493
 7096SOL    HW222188   6.606   1.132   3.403
 7097SOL     OW22189   5.316   1.738   1.655
 7097SOL    HW122190   5.277   1.646   1.653
 7097SOL    HW222191   5.371   1.753   1.573
 7098SOL     OW22192   1.980   5.444   5.874
 7098SOL    HW122193   1.996   5.371   5.941
 7098SOL    HW222194   2.006   5.532   5.914
 7099SOL     OW22195   3.682   1.330   5.393
 7099SOL    HW122196   3.625   1.309   5.472
 7099SOL    HW222197   3.625   1.332   5.311
 7100SOL     OW22198   6.236   3.387   0.231
 7100SOL    HW122199   6.236   3.292   0.263
 7100SOL    HW222200   6.281   3.392   0.142
 7101SOL     OW22201   2.077   1.259   5.170
 7101SOL    HW122202   2.132   1.337   5.199
 7101SOL    HW222203   2.011   1.235   5.242
 7102SOL     OW22204   5.370   6.892   0.771
 7102SOL    HW122205   5.394   6.865   0.678
 7102SOL    HW222206   5.330   6.984   0.770
 7103SOL     OW22207   5.143   4.982   2.618
 7103SOL    HW122208   5.186   5.061   2.662
 7103SOL    HW222209   5.213   4.926   2.575
 7104SOL     OW22210   6.932   3.123   3.654
 7104SOL    HW122211   6.845   3.128   3.605
 7104SOL    HW222212   7.007   3.125   3.588
 7105SOL     OW22213   2.944   3.335   5.626
 7105SOL    HW122214   3.005   3.359   5.551
 7105SOL    HW222215   2.850   3.330   5.593
 7106SOL     OW22216   3.675   3.489   2.388
 7106SOL    HW122217   3.577   3.474   2.380
 7106SOL    HW222218   3.720   3.465   2.302
 7107SOL     OW22219   4.595   1.254   0.705
 7107SOL    HW122220   4.645   1.186   0.759
 7107SOL    HW222221   4.506   1.271   0.747
 7108SOL     OW22222   3.470   6.546   2.612
 7108SOL    HW122223   3.553   6.495   2.590
 7108SOL    HW222224   3.391   6.485   2.611
 7109SOL     OW22225   2.734   0.323   5.739
 7109SOL    HW122226   2.768   0.410   5.704
 7109SOL    HW222227   2.768   0.248   5.683
 7110SOL     OW22228   3.036   5.556   4.391
 7110SOL    HW122229   3.057   5.459   4.379
 7110SOL    HW222230   2.982   5.588   4.314
 7111SOL     OW22231   1.215   2.987   5.389
 7111SOL    HW122232   1.244   2.928   5.465
 7111SOL    HW222233   1.273   2.968   5.309
 7112SOL     OW22234   1.992   4.882   4.642
 7112SOL    HW122235   2.051   4.962   4.630
 7112SOL    HW222236   1.897   4.912   4.654
 7113SOL     OW22237   3.475   4.022   5.040
 7113SOL    HW122238   3.530   3.968   5.104
 7113SOL    HW222239   3.447   3.965   4.963
 7114SOL     OW22240   5.151   6.171   1.478
 7114SOL    HW122241   5.122   6.079   1.454
 7114SOL    HW222242   5.169   6.223   1.394
 7115SOL     OW22243   5.237   3.185   0.874
 7115SOL    HW122244   5.306   3.121   0.908
 7115SOL    HW222245   5.160   3.190   0.938
 7116SOL     OW22246   5.991   4.242   2.877
 7116SOL    HW122247   5.928   4.250   2.955
 7116SOL    HW222248   6.082   4.218   2.910
 7117SOL     OW22249   0.563   6.623   5.307
 7117SOL    HW122250   0.542   6.564   5.385
 7117SOL    HW222251   0.532   6.716   5.327
 7118SOL     OW22252   3.028   4.912   0.834
 7118SOL    HW122253   3.004   4.981   0.902
 7118SOL    HW222254   2.970   4.831   0.846
 7119SOL     OW22255   4.737   1.950   4.190
 7119SOL    HW122256   4.647   1.921   4.221
 7119SOL    HW222257   4.806   1.885   4.220
 7120SOL     OW22258   3.448   2.020   2.470
 7120SOL    HW122259   3.440   1.921   2.454
 7120SOL    HW222260   3.395   2.069   2.400
 7121SOL     OW22261   0.893   0.049   3.758
 7121SOL    HW122262   0.930   0.087   3.673
 7121SOL    HW222263   0.833   6.991   3.738
 7122SOL     OW22264   1.749   0.551   5.836
 7122SOL    HW122265   1.689   0.502   5.773
 7122SOL    HW222266   1.844   0.534   5.811
 7123SOL     OW22267   1.853   4.690   2.919
 7123SOL    HW122268   1.804   4.742   2.989
 7123SOL    HW222269   1.790   4.662   2.847
 7124SOL     OW22270   6.588   2.278   1.358
 7124SOL    HW122271   6.578   2.377   1.357
 7124SOL    HW222272   6.556   2.242   1.446
 7125SOL     OW22273   0.864   0.140   0.865
 7125SOL    HW122274   0.943   0.199   0.846
 7125SOL    HW222275   0.782   0.181   0.825
 7126SOL     OW22276   3.510   5.354   0.308
 7126SOL    HW122277   3.412   5.352   0.328
 7126SOL    HW222278   3.525   5.394   0.218
 7127SOL     OW22279   1.737   4.909   5.863
 7127SOL    HW122280   1.797   4.936   5.787
 7127SOL    HW222281   1.728   4.810   5.864
 7128SOL     OW22282   2.861   4.974   0.071
 7128SOL    HW122283   2.844   5.067   0.105
 7128SOL    HW222284   2.923   4.979   7.012
 7129SOL     OW22285   2.406   1.739   0.450
 7129SOL    HW122286   2.500   1.718   0.478
 7129SOL    HW222287   2.399   1.731   0.350
 7130SOL     OW22288   3.603   5.573   4.909
 7130SOL    HW122289   3.549   5.488   4.909
 7130SOL    HW222290   3.551   5.644   4.861
 7131SOL     OW22291   2.525   0.874   1.398
 7131SOL    HW122292   2.589   0.855   1.472
 7131SOL    HW222293   2.520   0.972   1.383
 7132SOL     OW22294   3.944   3.838   0.326
 7132SOL    HW122295   3.923   3.808   0.233
 7132SOL    HW222296   3.890   3.919   0.348
 7133SOL     OW22297   4.717   5.612   5.871
 7133SOL    HW122298   4.675   5.541   5.815
 7133SOL    HW222299   4.731   5.577   5.964
 7134SOL     OW22300   5.031   6.668   1.417
 7134SOL    HW122301   5.012   6.571   1.401
 7134SOL    HW222302   4.946   6.720   1.410
 7135SOL     OW22303   1.509   2.384   3.320
 7135SOL    HW122304   1.528   2.296   3.363
 7135SOL    HW222305   1.548   2.457   3.376
 7136SOL     OW22306   2.274   1.974   0.326
 7136SOL    HW122307   2.341   2.016   0.388
 7136SOL    HW222308   2.287   1.875   0.326
 7137SOL     OW22309   3.435   0.332   6.558
 7137SOL    HW122310   3.469   0.314   6.650
 7137SOL    HW222311   3.475   0.417   6.523
 7138SOL     OW22312   2.699   2.085   0.324
 7138SOL    HW122313   2.762   2.009   0.336
 7138SOL    HW222314   2.664   2.086   0.231
 7139SOL     OW22315   6.180   3.756   1.664
 7139SOL    HW122316   6.178   3.807   1.579
 7139SOL    HW222317   6.104   3.692   1.666
 7140SOL     OW22318   6.379   3.623   2.461
 7140SOL    HW122319   6.363   3.527   2.485
 7140SOL    HW222320   6.292   3.668   2.444
 7141SOL     OW22321   3.885   6.142   0.773
 7141SOL    HW122322   3.838   6.201   0.708
 7141SOL    HW222323   3.983   6.162   0.771
 7142SOL     OW22324   4.202   6.764   2.894
 7142SOL    HW122325   4.296   6.730   2.893
 7142SOL    HW222326   4.199   6.856   2.855
 7143SOL     OW22327   1.914   2.526   5.941
 7143SOL    HW122328   1.988   2.473   5.983
 7143SOL    HW222329   1.951   2.610   5.902
 7144SOL     OW22330   1.914   2.230   2.549
 7144SOL    HW122331   1.854   2.295   2.595
 7144SOL    HW222332   2.006   2.269   2.544
 7145SOL     OW22333   4.127   0.141   0.125
 7145SOL    HW122334   4.143   0.220   0.184
 7145SOL    HW222335   4.029   0.135   0.105
 7146SOL     OW22336   1.891   6.753   0.380
 7146SOL    HW122337   1.953   6.793   0.312
 7146SOL    HW222338   1.800   6.744   0.341
 7147SOL     OW22339   6.943   0.136   2.854
 7147SOL    HW122340   6.844   0.131   2.867
 7147SOL    HW222341   6.978   0.221   2.893
 7148SOL     OW22342   0.288   6.824   1.130
 7148SOL    HW122343   0.326   6.875   1.207
 7148SOL    HW222344   0.308   6.727   1.141
 7149SOL     OW22345   6.555   6.791   3.405
 7149SOL    HW122346   6.478   6.738   3.368
 7149SOL    HW222347   6.588   6.747   3.489
 7150SOL     OW22348   3.566   2.736   1.263
 7150SOL    HW122349   3.624   2.674   1.315
 7150SOL    HW222350   3.617   2.819   1.241
 7151SOL     OW22351   2.971   6.626   0.344
 7151SOL    HW122352   2.926   6.628   0.433
 7151SOL    HW222353   3.066   6.596   0.356
 7152SOL     OW22354   0.144   0.888   5.851
 7152SOL    HW122355   0.131   0.858   5.946
 7152SOL    HW222356   0.232   0.854   5.817
 7153SOL     OW22357   4.223   5.315   1.611
 7153SOL    HW122358   4.222   5.252   1.688
 7153SOL    HW222359   4.208   5.408   1.644
 7154SOL     OW22360   4.932   6.628   3.344
 7154SOL    HW122361   4.992   6.665   3.415
 7154SOL    HW222362   4.976   6.550   3.300
 7155SOL     OW22363   2.173   3.631   0.923
 7155SOL    HW122364   2.087   3.589   0.950
 7155SOL    HW222365   2.156   3.725   0.894
 7156SOL     OW22366   0.035   3.080   4.006
 7156SOL    HW122367   6.988   3.099   4.079
 7156SOL    HW222368   7.006   3.041   3.927
 7157SOL     OW22369   0.497   3.838   1.225
 7157SOL    HW122370   0.578   3.853   1.281
 7157SOL    HW222371   0.424   3.899   1.255
 7158SOL     OW22372   1.250   6.967   3.994
 7158SOL    HW122373   1.286   6.979   4.087
 7158SOL    HW222374   1.306   6.900   3.945
 7159SOL     OW22375   0.862   4.633   3.370
 7159SOL    HW122376   0.905   4.657   3.283
 7159SOL    HW222377   0.810   4.712   3.404
 7160SOL     OW22378   5.646   0.581   2.870
 7160SOL    HW122379   5.563   0.610   2.823
 7160SOL    HW222380   5.655   0.631   2.956
 7161SOL     OW22381   3.361   4.119   3.241
 7161SOL    HW122382   3.368   4.127   3.340
 7161SOL    HW222383   3.282   4.063   3.217
 7162SOL     OW22384   1.245   5.406   0.065
 7162SOL    HW122385   1.182   5.360   0.002
 7162SOL    HW222386   1.311   5.459   0.012
 7163SOL     OW22387   2.893   6.563   2.706
 7163SOL    HW122388   2.801   6.533   2.682
 7163SOL    HW222389   2.891   6.659   2.734
 7164SOL     OW22390   3.052   0.468   4.165
 7164SOL    HW122391   3.113   0.472   4.086
 7164SOL    HW222392   3.071   0.545   4.226
 7165SOL     OW22393   6.875   0.909   2.678
 7165SOL    HW122394   6.818   0.980   2.718
 7165SOL    HW222395   6.908   0.848   2.750
 7166SOL     OW22396   4.980   2.181   0.968
 7166SOL    HW122397   4.904   2.144   1.023
 7166SOL    HW222398   4.950   2.190   0.873
 7167SOL     OW22399   5.576   3.401   4.574
 7167SOL    HW122400   5.591   3.375   4.669
 7167SOL    HW222401   5.629   3.340   4.514
 7168SOL     OW22402   1.956   2.726   2.962
 7168SOL    HW122403   1.986   2.685   3.048
 7168SOL    HW222404   2.027   2.714   2.893
 7169SOL     OW22405   0.693   3.190   5.893
 7169SOL    HW122406   0.706   3.134   5.975
 7169SOL    HW222407   0.619   3.153   5.838
 7170SOL     OW22408   5.280   6.451   3.773
 7170SOL    HW122409   5.325   6.387   3.711
 7170SOL    HW222410   5.340   6.473   3.849
 7171SOL     OW22411   6.552   3.523   0.096
 7171SOL    HW122412   6.621   3.556   0.031
 7171SOL    HW222413   6.548   3.586   0.174
 7172SOL     OW22414   1.234   6.859   4.922
 7172SOL    HW122415   1.169   6.929   4.892
 7172SOL    HW222416   1.314   6.859   4.862
 7173SOL     OW22417   6.539   4.291   6.659
 7173SOL    HW122418   6.557   4.263   6.754
 7173SOL    HW222419   6.624   4.324   6.618
 7174SOL     OW22420   1.611   3.588   0.670
 7174SOL    HW122421   1.597   3.504   0.721
 7174SOL    HW222422   1.626   3.567   0.573
 7175SOL     OW22423   5.755   2.976   6.549
 7175SOL    HW122424   5.676   3.035   6.536
 7175SOL    HW222425   5.756   2.941   6.643
 7176SOL     OW22426   6.791   0.891   3.212
 7176SOL    HW122427   6.824   0.976   3.252
 7176SOL    HW222428   6.706   0.908   3.163
 7177SOL     OW22429   1.429   4.953   4.986
 7177SOL    HW122430   1.403   5.044   4.955
 7177SOL    HW222431   1.388   4.935   5.076
 7178SOL     OW22432   0.571   1.611   6.013
 7178SOL    HW122433   0.612   1.522   6.035
 7178SOL    HW222434   0.471   1.603   6.016
 7179SOL     OW22435   2.136   3.170   4.255
 7179SOL    HW122436   2.157   3.155   4.351
 7179SOL    HW222437   2.174   3.095   4.200
 7180SOL     OW22438   1.787   5.432   0.260
 7180SOL    HW122439   1.806   5.529   0.244
 7180SOL    HW222440   1.866   5.390   0.305
 7181SOL     OW22441   2.107   0.501   0.486
 7181SOL    HW122442   2.051   0.562   0.542
 7181SOL    HW222443   2.154   0.554   0.415
 7182SOL     OW22444   0.410   3.377   4.936
 7182SOL    HW122445   0.490   3.410   4.886
 7182SOL    HW222446   0.340   3.449   4.938
 7183SOL     OW22447   1.732   5.763   1.192
 7183SOL    HW122448   1.716   5.807   1.281
 7183SOL    HW222449   1.726   5.664   1.202
 7184SOL     OW22450   6.493   1.023   3.408
 7184SOL    HW122451   6.453   0.934   3.388
 7184SOL    HW222452   6.473   1.047   3.504
 7185SOL     OW22453   5.598   0.420   4.677
 7185SOL    HW122454   5.521   0.358   4.659
 7185SOL    HW222455   5.673   0.369   4.719
 7186SOL     OW22456   6.311   1.739   1.626
 7186SOL    HW122457   6.361   1.655   1.647
 7186SOL    HW222458   6.244   1.757   1.698
 7187SOL     OW22459   3.729   4.399   6.000
 7187SOL    HW122460   3.807   4.352   5.959
 7187SOL    HW222461   3.689   4.462   5.933
 7188SOL     OW22462   5.317   0.412   6.923
 7188SOL    HW122463   5.324   0.499   6.972
 7188SOL    HW222464   5.408   0.373   6.913
 7189SOL     OW22465   6.204   0.873   5.082
 7189SOL    HW122466   6.206   0.946   5.150
 7189SOL    HW222467   6.297   0.848   5.056
 7190SOL     OW22468   0.044   4.011   2.314
 7190SOL    HW122469   0.141   4.005   2.291
 7190SOL    HW222470   0.019   3.934   2.372
 7191SOL     OW22471   1.618   5.378   2.649
 7191SOL    HW122472   1.553   5.425   2.588
 7191SOL    HW222473   1.658   5.445   2.712
 7192SOL     OW22474   2.825   4.934   5.727
 7192SOL    HW122475   2.873   4.889   5.651
 7192SOL    HW222476   2.823   4.873   5.806
 7193SOL     OW22477   1.068   2.814   2.753
 7193SOL    HW122478   1.162   2.835   2.780
 7193SOL    HW222479   1.070   2.748   2.677
 7194SOL     OW22480   2.491   2.735   0.928
 7194SOL    HW122481   2.517   2.688   1.012
 7194SOL    HW222482   2.420   2.803   0.948
 7195SOL     OW22483   1.262   4.280   6.998
 7195SOL    HW122484   1.353   4.275   6.957
 7195SOL    HW222485   1.211   4.197   6.976
 7196SOL     OW22486   2.712   3.978   1.387
 7196SOL    HW122487   2.695   3.901   1.448
 7196SOL    HW222488   2.683   3.955   1.294
 7197SOL     OW22489   0.591   2.345   6.228
 7197SOL    HW122490   0.614   2.303   6.140
 7197SOL    HW222491   0.661   2.413   6.251
 7198SOL     OW22492   0.163   0.705   0.627
 7198SOL    HW122493   0.091   0.768   0.657
 7198SOL    HW222494   0.236   0.757   0.582
 7199SOL     OW22495   1.617   0.961   2.245
 7199SOL    HW122496   1.668   1.045   2.228
 7199SOL    HW222497   1.519   0.981   2.243
 7200SOL     OW22498   2.411   2.651   6.781
 7200SOL    HW122499   2.380   2.590   6.709
 7200SOL    HW222500   2.508   2.633   6.800
 7201SOL     OW22501   0.545   6.224   4.452
 7201SOL    HW122502   0.478   6.278   4.503
 7201SOL    HW222503   0.561   6.137   4.499
 7202SOL     OW22504   5.334   6.798   0.092
 7202SOL    HW122505   5.300   6.889   0.118
 7202SOL    HW222506   5.258   6.735   0.080
 7203SOL     OW22507   0.370   1.623   0.786
 7203SOL    HW122508   0.387   1.692   0.717
 7203SOL    HW222509   0.365   1.533   0.743
 7204SOL     OW22510   0.085   0.088   5.554
 7204SOL    HW122511   0.160   0.024   5.572
 7204SOL    HW222512   0.069   0.094   5.455
 7205SOL     OW22513   1.185   4.017   4.362
 7205SOL    HW122514   1.095   4.031   4.322
 7205SOL    HW222515   1.189   4.063   4.451
 7206SOL     OW22516   1.700   1.000   1.850
 7206SOL    HW122517   1.638   1.040   1.783
 7206SOL    HW222518   1.678   0.903   1.863
 7207SOL     OW22519   3.993   0.660   2.764
 7207SOL    HW122520   4.016   0.641   2.859
 7207SOL    HW222521   4.051   0.734   2.729
 7208SOL     OW22522   4.255   6.764   3.779
 7208SOL    HW122523   4.329   6.832   3.784
 7208SOL    HW222524   4.275   6.699   3.706
 7209SOL     OW22525   2.612   3.614   1.716
 7209SOL    HW122526   2.516   3.607   1.742
 7209SOL    HW222527   2.658   3.527   1.737
 7210SOL     OW22528   4.518   1.279   3.424
 7210SOL    HW122529   4.517   1.362   3.368
 7210SOL    HW222530   4.493   1.303   3.518
 7211SOL     OW22531   2.529   0.052   4.664
 7211SOL    HW122532   2.612   0.007   4.697
 7211SOL    HW222533   2.546   0.093   4.575
 7212SOL     OW22534   0.237   6.314   4.980
 7212SOL    HW122535   0.270   6.408   4.986
 7212SOL    HW222536   0.143   6.310   5.012
 7213SOL     OW22537   4.568   5.692   0.150
 7213SOL    HW122538   4.658   5.703   0.110
 7213SOL    HW222539   4.574   5.633   0.231
 7214SOL     OW22540   6.319   6.894   5.308
 7214SOL    HW122541   6.334   6.800   5.279
 7214SOL    HW222542   6.266   6.942   5.238
 7215SOL     OW22543   6.969   3.773   4.545
 7215SOL    HW122544   6.937   3.680   4.564
 7215SOL    HW222545   0.047   3.769   4.519
 7216SOL     OW22546   3.108   0.155   0.009
 7216SOL    HW122547   3.048   0.184   0.083
 7216SOL    HW222548   3.154   0.070   0.035
 7217SOL     OW22549   2.018   4.015   3.508
 7217SOL    HW122550   2.080   4.085   3.472
 7217SOL    HW222551   2.072   3.944   3.555
 7218SOL     OW22552   5.528   3.145   5.247
 7218SOL    HW122553   5.535   3.107   5.155
 7218SOL    HW222554   5.432   3.155   5.271
 7219SOL     OW22555   4.892   0.078   3.215
 7219SOL    HW122556   4.883   0.176   3.232
 7219SOL    HW222557   4.950   0.037   3.285
 7220SOL     OW22558   1.177   4.512   5.308
 7220SOL    HW122559   1.236   4.571   5.363
 7220SOL    HW222560   1.187   4.535   5.212
 7221SOL     OW22561   3.599   6.020   4.510
 7221SOL    HW122562   3.512   6.043   4.553
 7221SOL    HW222563   3.636   5.937   4.552
 7222SOL     OW22564   6.081   6.840   3.360
 7222SOL    HW122565   6.051   6.837   3.456
 7222SOL    HW222566   6.001   6.829   3.300
 7223SOL     OW22567   2.666   1.285   0.745
 7223SOL    HW122568   2.617   1.303   0.831
 7223SOL    HW222569   2.625   1.206   0.700
 7224SOL     OW22570   5.429   1.435   4.144
 7224SOL    HW122571   5.376   1.511   4.106
 7224SOL    HW222572   5.526   1.458   4.145
 7225SOL     OW22573   0.843   5.667   0.757
 7225SOL    HW122574   0.880   5.581   0.723
 7225SOL    HW222575   0.751   5.652   0.792
 7226SOL     OW22576   6.229   1.499   1.876
 7226SOL    HW122577   6.147   1.455   1.841
 7226SOL    HW222578   6.307   1.436   1.869
 7227SOL     OW22579   2.021   2.310   1.269
 7227SOL    HW122580   2.027   2.215   1.301
 7227SOL    HW222581   1.942   2.354   1.311
 7228SOL     OW22582   0.935   2.275   3.077
 7228SOL    HW122583   0.873   2.352   3.090
 7228SOL    HW222584   0.883   2.190   3.075
 7229SOL     OW22585   1.239   6.136   5.300
 7229SOL    HW122586   1.274   6.147   5.392
 7229SOL    HW222587   1.299   6.182   5.235
 7230SOL     OW22588   3.486   5.409   4.217
 7230SOL    HW122589   3.574   5.454   4.209
 7230SOL    HW222590   3.451   5.419   4.310
 7231SOL     OW22591   4.029   0.842   6.697
 7231SOL    HW122592   4.000   0.906   6.627
 7231SOL    HW222593   4.061   0.892   6.778
 7232SOL     OW22594   5.412   6.105   3.189
 7232SOL    HW122595   5.422   6.107   3.089
 7232SOL    HW222596   5.441   6.193   3.227
 7233SOL     OW22597   1.048   2.016   3.603
 7233SOL    HW122598   0.950   2.008   3.619
 7233SOL    HW222599   1.083   2.098   3.649
 7234SOL     OW22600   5.323   2.854   3.987
 7234SOL    HW122601   5.376   2.892   4.063
 7234SOL    HW222602   5.230   2.890   3.990
 7235SOL     OW22603   6.993   4.980   2.475
 7235SOL    HW122604   0.020   5.037   2.408
 7235SOL    HW222605   0.016   4.994   2.565
 7236SOL     OW22606   2.210   2.223   1.713
 7236SOL    HW122607   2.115   2.191   1.710
 7236SOL    HW222608   2.220   2.302   1.653
 7237SOL     OW22609   3.978   0.304   5.129
 7237SOL    HW122610   3.947   0.289   5.035
 7237SOL    HW222611   4.042   0.232   5.155
 7238SOL     OW22612   3.517   1.693   0.365
 7238SOL    HW122613   3.456   1.756   0.316
 7238SOL    HW222614   3.585   1.746   0.415
 7239SOL     OW22615   1.082   2.537   2.618
 7239SOL    HW122616   1.148   2.489   2.560
 7239SOL    HW222617   1.102   2.518   2.714
 7240SOL     OW22618   1.227   6.973   5.909
 7240SOL    HW122619   1.317   6.983   5.952
 7240SOL    HW222620   1.198   0.043   5.872
 7241SOL     OW22621   1.328   0.749   1.253
 7241SOL    HW122622   1.336   0.695   1.337
 7241SOL    HW222623   1.407   0.730   1.194
 7242SOL     OW22624   6.584   5.957   0.332
 7242SOL    HW122625   6.548   5.925   0.245
 7242SOL    HW222626   6.679   5.986   0.321
 7243SOL     OW22627   6.569   4.501   6.360
 7243SOL    HW122628   6.631   4.426   6.336
 7243SOL    HW222629   6.601   4.545   6.444
 7244SOL     OW22630   6.198   1.059   1.864
 7244SOL    HW122631   6.174   1.108   1.948
 7244SOL    HW222632   6.158   1.107   1.786
 7245SOL     OW22633   1.042   2.512   5.653
 7245SOL    HW122634   1.072   2.534   5.746
 7245SOL    HW222635   1.108   2.549   5.587
 7246SOL     OW22636   0.103   0.097   4.078
 7246SOL    HW122637   0.192   0.129   4.112
 7246SOL    HW222638   0.093   0.122   3.982
 7247SOL     OW22639   2.245   0.707   4.206
 7247SOL    HW122640   2.236   0.705   4.106
 7247SOL    HW222641   2.301   0.630   4.235
 7248SOL     OW22642   2.382   1.309   3.467
 7248SOL    HW122643   2.401   1.349   3.557
 7248SOL    HW222644   2.458   1.249   3.441
 7249SOL     OW22645   6.492   4.930   2.479
 7249SOL    HW122646   6.581   4.972   2.495
 7249SOL    HW222647   6.434   4.994   2.428
 7250SOL     OW22648   4.689   6.720   6.146
 7250SOL    HW122649   4.749   6.648   6.111
 7250SOL    HW222650   4.692   6.799   6.086
 7251SOL     OW22651   0.509   6.822   5.744
 7251SOL    HW122652   0.498   6.735   5.695
 7251SOL    HW222653   0.471   6.813   5.836
 7252SOL     OW22654   3.795   3.522   2.675
 7252SOL    HW122655   3.714   3.578   2.660
 7252SOL    HW222656   3.853   3.566   2.744
 7253SOL     OW22657   1.725   6.156   6.758
 7253SOL    HW122658   1.643   6.153   6.700
 7253SOL    HW222659   1.697   6.156   6.854
 7254SOL     OW22660   4.594   5.149   4.294
 7254SOL    HW122661   4.579   5.167   4.197
 7254SOL    HW222662   4.581   5.052   4.312
 7255SOL     OW22663   2.919   4.130   1.419
 7255SOL    HW122664   2.954   4.156   1.329
 7255SOL    HW222665   2.844   4.064   1.408
 7256SOL     OW22666   3.282   5.209   4.103
 7256SOL    HW122667   3.310   5.120   4.139
 7256SOL    HW222668   3.357   5.274   4.112
 7257SOL     OW22669   6.144   2.480   3.601
 7257SOL    HW122670   6.202   2.518   3.529
 7257SOL    HW222671   6.052   2.521   3.595
 7258SOL     OW22672   3.993   1.750   3.857
 7258SOL    HW122673   4.013   1.845   3.833
 7258SOL    HW222674   4.051   1.722   3.933
 7259SOL     OW22675   3.027   3.770   1.279
 7259SOL    HW122676   2.983   3.701   1.337
 7259SOL    HW222677   3.085   3.829   1.335
 7260SOL     OW22678   3.794   1.813   1.660
 7260SOL    HW122679   3.755   1.902   1.686
 7260SOL    HW222680   3.728   1.763   1.605
 7261SOL     OW22681   1.569   2.727   1.648
 7261SOL    HW122682   1.511   2.682   1.580
 7261SOL    HW222683   1.576   2.669   1.729
 7262SOL     OW22684   5.079   1.895   5.513
 7262SOL    HW122685   4.991   1.860   5.482
 7262SOL    HW222686   5.152   1.852   5.460
 7263SOL     OW22687   0.768   0.509   0.816
 7263SOL    HW122688   0.810   0.455   0.743
 7263SOL    HW222689   0.682   0.467   0.845
 7264SOL     OW22690   5.693   2.081   6.407
 7264SOL    HW122691   5.749   2.157   6.373
 7264SOL    HW222692   5.727   1.995   6.368
 7265SOL     OW22693   5.386   5.664   5.630
 7265SOL    HW122694   5.475   5.708   5.642
 7265SOL    HW222695   5.397   5.565   5.636
 7266SOL     OW22696   5.654   6.830   1.447
 7266SOL    HW122697   5.631   6.851   1.352
 7266SOL    HW222698   5.741   6.780   1.450
 7267SOL     OW22699   6.485   6.000   5.368
 7267SOL    HW122700   6.531   6.052   5.296
 7267SOL    HW222701   6.389   6.028   5.373
 7268SOL     OW22702   5.407   5.086   3.651
 7268SOL    HW122703   5.493   5.064   3.605
 7268SOL    HW222704   5.424   5.155   3.722
 7269SOL     OW22705   0.511   6.765   0.101
 7269SOL    HW122706   0.494   6.725   0.011
 7269SOL    HW222707   0.571   6.845   0.091
 7270SOL     OW22708   1.538   3.534   5.482
 7270SOL    HW122709   1.615   3.568   5.535
 7270SOL    HW222710   1.495   3.610   5.433
 7271SOL     OW22711   0.540   6.055   2.909
 7271SOL    HW122712   0.537   6.029   3.006
 7271SOL    HW222713   0.610   6.126   2.896
 7272SOL     OW22714   5.242   5.677   2.032
 7272SOL    HW122715   5.299   5.732   1.971
 7272SOL    HW222716   5.196   5.737   2.097
 7273SOL     OW22717   5.729   4.934   2.054
 7273SOL    HW122718   5.698   5.000   1.985
 7273SOL    HW222719   5.680   4.848   2.041
 7274SOL     OW22720   0.993   6.014   6.445
 7274SOL    HW122721   1.015   6.011   6.348
 7274SOL    HW222722   0.894   6.007   6.457
 7275SOL     OW22723   7.016   6.882   2.922
 7275SOL    HW122724   6.981   6.860   3.013
 7275SOL    HW222725   0.009   6.981   2.914
 7276SOL     OW22726   3.765   1.785   2.620
 7276SOL    HW122727   3.751   1.710   2.555
 7276SOL    HW222728   3.863   1.802   2.631
 7277SOL     OW22729   4.940   0.311   3.348
 7277SOL    HW122730   4.862   0.274   3.399
 7277SOL    HW222731   5.004   0.355   3.411
 7278SOL     OW22732   2.988   2.671   1.164
 7278SOL    HW122733   2.931   2.697   1.086
 7278SOL    HW222734   3.068   2.730   1.168
 7279SOL     OW22735   3.759   4.021   5.914
 7279SOL    HW122736   3.799   3.991   5.827
 7279SOL    HW222737   3.666   4.054   5.898
 7280SOL     OW22738   0.243   2.096   3.881
 7280SOL    HW122739   0.256   2.003   3.847
 7280SOL    HW222740   0.164   2.137   3.836
 7281SOL     OW22741   1.572   1.110   0.684
 7281SOL    HW122742   1.664   1.070   0.687
 7281SOL    HW222743   1.511   1.049   0.634
 7282SOL     OW22744   5.923   6.204   1.237
 7282SOL    HW122745   5.942   6.114   1.197
 7282SOL    HW222746   5.962   6.208   1.329
 7283SOL     OW22747   4.114   0.766   2.054
 7283SOL    HW122748   4.042   0.761   1.985
 7283SOL    HW222749   4.184   0.830   2.025
 7284SOL     OW22750   6.748   2.253   5.726
 7284SOL    HW122751   6.766   2.162   5.763
 7284SOL    HW222752   6.761   2.252   5.627
 7285SOL     OW22753   5.564   3.186   2.354
 7285SOL    HW122754   5.570   3.234   2.267
 7285SOL    HW222755   5.631   3.225   2.418
 7286SOL     OW22756   1.058   0.835   1.319
 7286SOL    HW122757   1.014   0.753   1.356
 7286SOL    HW222758   1.155   0.817   1.302
 7287SOL     OW22759   6.522   2.889   5.562
 7287SOL    HW122760   6.486   2.798   5.582
 7287SOL    HW222761   6.473   2.958   5.616
 7288SOL     OW22762   1.939   2.211   1.775
 7288SOL    HW122763   1.870   2.193   1.845
 7288SOL    HW222764   1.900   2.271   1.705
 7289SOL     OW22765   5.559   2.541   4.180
 7289SOL    HW122766   5.552   2.591   4.093
 7289SOL    HW222767   5.614   2.458   4.166
 7290SOL     OW22768   2.150   1.092   4.941
 7290SOL    HW122769   2.140   1.141   4.855
 7290SOL    HW222770   2.101   1.141   5.014
 7291SOL     OW22771   1.486   0.065   0.258
 7291SOL    HW122772   1.522   0.122   0.185
 7291SOL    HW222773   1.408   0.112   0.301
 7292SOL     OW22774   3.332   0.436   3.160
 7292SOL    HW122775   3.315   0.525   3.201
 7292SOL    HW222776   3.253   0.408   3.106
 7293SOL     OW22777   0.848   1.860   4.757
 7293SOL    HW122778   0.827   1.872   4.854
 7293SOL    HW222779   0.865   1.950   4.715
 7294SOL     OW22780   3.118   5.011   0.289
 7294SOL    HW122781   3.061   4.955   0.229
 7294SOL    HW222782   3.059   5.065   0.350
 7295SOL     OW22783   6.439   4.367   0.922
 7295SOL    HW122784   6.396   4.374   0.832
 7295SOL    HW222785   6.537   4.347   0.912
 7296SOL     OW22786   4.242   5.730   1.892
 7296SOL    HW122787   4.320   5.791   1.880
 7296SOL    HW222788   4.157   5.782   1.884
 7297SOL     OW22789   2.999   6.568   1.126
 7297SOL    HW122790   3.095   6.573   1.097
 7297SOL    HW222791   2.978   6.646   1.184
 7298SOL     OW22792   4.515   5.405   6.001
 7298SOL    HW122793   4.521   5.313   5.962
 7298SOL    HW222794   4.419   5.429   6.015
 7299SOL     OW22795   1.138   2.329   0.817
 7299SOL    HW122796   1.217   2.272   0.837
 7299SOL    HW222797   1.161   2.425   0.835
 7300SOL     OW22798   0.314   6.955   2.348
 7300SOL    HW122799   0.300   6.969   2.250
 7300SOL    HW222800   0.226   6.932   2.391
 7301SOL     OW22801   5.513   2.264   4.838
 7301SOL    HW122802   5.541   2.356   4.811
 7301SOL    HW222803   5.543   2.245   4.931
 7302SOL     OW22804   0.143   2.507   6.109
 7302SOL    HW122805   0.054   2.462   6.115
 7302SOL    HW222806   0.175   2.506   6.014
 7303SOL     OW22807   3.353   1.036   0.257
 7303SOL    HW122808   3.262   1.067   0.284
 7303SOL    HW222809   3.407   1.113   0.223
 7304SOL     OW22810   2.737   4.932   1.464
 7304SOL    HW122811   2.818   4.888   1.503
 7304SOL    HW222812   2.664   4.935   1.533
 7305SOL     OW22813   5.269   1.419   1.692
 7305SOL    HW122814   5.235   1.335   1.735
 7305SOL    HW222815   5.291   1.402   1.596
 7306SOL     OW22816   3.986   1.875   1.512
 7306SOL    HW122817   3.924   1.852   1.586
 7306SOL    HW222818   3.937   1.926   1.441
 7307SOL     OW22819   3.285   6.750   2.551
 7307SOL    HW122820   3.218   6.749   2.625
 7307SOL    HW222821   3.357   6.684   2.572
 7308SOL     OW22822   6.300   1.795   4.512
 7308SOL    HW122823   6.217   1.781   4.566
 7308SOL    HW222824   6.380   1.779   4.570
 7309SOL     OW22825   3.812   5.699   1.348
 7309SOL    HW122826   3.853   5.641   1.418
 7309SOL    HW222827   3.723   5.732   1.381
 7310SOL     OW22828   1.992   3.878   6.859
 7310SOL    HW122829   1.960   3.783   6.869
 7310SOL    HW222830   1.929   3.928   6.800
 7311SOL     OW22831   1.859   2.032   1.213
 7311SOL    HW122832   1.943   2.046   1.160
 7311SOL    HW222833   1.841   1.934   1.223
 7312SOL     OW22834   0.936   2.644   4.803
 7312SOL    HW122835   0.930   2.629   4.704
 7312SOL    HW222836   1.023   2.688   4.825
 7313SOL     OW22837   2.137   1.342   0.703
 7313SOL    HW122838   2.222   1.346   0.650
 7313SOL    HW222839   2.087   1.428   0.692
 7314SOL     OW22840   0.136   3.858   6.613
 7314SOL    HW122841   0.124   3.910   6.528
 7314SOL    HW222842   0.195   3.780   6.595
 7315SOL     OW22843   5.238   5.476   1.593
 7315SOL    HW122844   5.184   5.502   1.673
 7315SOL    HW222845   5.317   5.421   1.622
 7316SOL     OW22846   3.095   3.150   6.392
 7316SOL    HW122847   3.140   3.067   6.426
 7316SOL    HW222848   3.040   3.190   6.465
 7317SOL     OW22849   4.298   1.843   1.351
 7317SOL    HW122850   4.270   1.757   1.393
 7317SOL    HW222851   4.271   1.919   1.410
 7318SOL     OW22852   3.217   0.330   2.322
 7318SOL    HW122853   3.305   0.344   2.368
 7318SOL    HW222854   3.143   0.355   2.384
 7319SOL     OW22855   6.104   3.765   6.852
 7319SOL    HW122856   6.155   3.679   6.857
 7319SOL    HW222857   6.155   3.837   6.899
 7320SOL     OW22858   0.622   3.702   1.569
 7320SOL    HW122859   0.627   3.802   1.579
 7320SOL    HW222860   0.548   3.667   1.626
 7321SOL     OW22861   1.887   6.683   5.968
 7321SOL    HW122862   1.938   6.760   6.007
 7321SOL    HW222863   1.949   6.625   5.915
 7322SOL     OW22864   6.576   2.966   2.972
 7322SOL    HW122865   6.555   3.031   2.899
 7322SOL    HW222866   6.492   2.919   2.999
 7323SOL     OW22867   2.291   3.076   1.608
 7323SOL    HW122868   2.227   3.041   1.539
 7323SOL    HW222869   2.268   3.171   1.630
 7324SOL     OW22870   5.645   5.158   1.552
 7324SOL    HW122871   5.706   5.120   1.622
 7324SOL    HW222872   5.550   5.136   1.574
 7325SOL     OW22873   2.481   0.260   6.298
 7325SOL    HW122874   2.414   0.251   6.372
 7325SOL    HW222875   2.556   0.319   6.328
 7326SOL     OW22876   3.374   5.890   6.302
 7326SOL    HW122877   3.456   5.930   6.342
 7326SOL    HW222878   3.302   5.884   6.371
 7327SOL     OW22879   5.920   2.336   5.355
 7327SOL    HW122880   5.886   2.341   5.449
 7327SOL    HW222881   5.970   2.420   5.334
 7328SOL     OW22882   4.546   0.024   6.228
 7328SOL    HW122883   4.458   6.997   6.243
 7328SOL    HW222884   4.615   7.003   6.289
 7329SOL     OW22885   0.846   4.396   0.705
 7329SOL    HW122886   0.861   4.335   0.783
 7329SOL    HW222887   0.750   4.393   0.677
 7330SOL     OW22888   2.342   3.456   0.269
 7330SOL    HW122889   2.294   3.404   0.339
 7330SOL    HW222890   2.418   3.402   0.232
 7331SOL     OW22891   5.367   6.571   0.750
 7331SOL    HW122892   5.414   6.489   0.718
 7331SOL    HW222893   5.423   6.652   0.730
 7332SOL     OW22894   3.263   5.436   0.056
 7332SOL    HW122895   3.241   5.389   0.142
 7332SOL    HW222896   3.358   5.418   0.031
 7333SOL     OW22897   6.358   3.183   3.258
 7333SOL    HW122898   6.366   3.236   3.173
 7333SOL    HW222899   6.279   3.215   3.310
 7334SOL     OW22900   1.633   6.270   6.173
 7334SOL    HW122901   1.695   6.348   6.157
 7334SOL    HW222902   1.540   6.303   6.185
 7335SOL     OW22903   0.077   3.369   3.161
 7335SOL    HW122904   0.102   3.368   3.258
 7335SOL    HW222905   0.104   3.282   3.118
 7336SOL     OW22906   2.469   6.848   2.353
 7336SOL    HW122907   2.545   6.847   2.417
 7336SOL    HW222908   2.390   6.893   2.394
 7337SOL     OW22909   1.356   2.854   1.832
 7337SOL    HW122910   1.349   2.945   1.872
 7337SOL    HW222911   1.444   2.845   1.785
 7338SOL     OW22912   5.440   1.249   1.929
 7338SOL    HW122913   5.386   1.321   1.973
 7338SOL    HW222914   5.455   1.174   1.994
 7339SOL     OW22915   5.875   0.500   5.046
 7339SOL    HW122916   5.791   0.495   4.992
 7339SOL    HW222917   5.934   0.572   5.010
 7340SOL     OW22918   3.333   1.487   0.102
 7340SOL    HW122919   3.254   1.480   0.042
 7340SOL    HW222920   3.302   1.489   0.197
 7341SOL     OW22921   0.984   4.275   4.682
 7341SOL    HW122922   0.954   4.182   4.661
 7341SOL    HW222923   1.056   4.273   4.751
 7342SOL     OW22924   0.161   6.960   5.948
 7342SOL    HW122925   0.073   6.962   5.995
 7342SOL    HW222926   0.233   6.937   6.013
 7343SOL     OW22927   5.736   4.355   1.670
 7343SOL    HW122928   5.640   4.355   1.697
 7343SOL    HW222929   5.782   4.434   1.708
 7344SOL     OW22930   1.104   0.556   5.974
 7344SOL    HW122931   1.024   0.512   6.016
 7344SOL    HW222932   1.186   0.530   6.025
 7345SOL     OW22933   5.043   5.651   5.271
 7345SOL    HW122934   5.140   5.654   5.294
 7345SOL    HW222935   4.996   5.589   5.334
 7346SOL     OW22936   4.831   3.975   1.875
 7346SOL    HW122937   4.778   4.048   1.832
 7346SOL    HW222938   4.790   3.887   1.853
 7347SOL     OW22939   0.543   3.042   1.204
 7347SOL    HW122940   0.608   3.016   1.132
 7347SOL    HW222941   0.468   2.977   1.207
 7348SOL     OW22942   1.096   3.822   3.247
 7348SOL    HW122943   1.001   3.846   3.265
 7348SOL    HW222944   1.108   3.723   3.253
 7349SOL     OW22945   4.368   2.110   0.331
 7349SOL    HW122946   4.295   2.174   0.355
 7349SOL    HW222947   4.357   2.079   0.237
 7350SOL     OW22948   1.800   2.935   5.494
 7350SOL    HW122949   1.784   3.031   5.473
 7350SOL    HW222950   1.843   2.891   5.415
 7351SOL     OW22951   4.718   6.114   5.391
 7351SOL    HW122952   4.735   6.154   5.301
 7351SOL    HW222953   4.796   6.131   5.451
 7352SOL     OW22954   1.738   2.929   3.179
 7352SOL    HW122955   1.784   3.003   3.227
 7352SOL    HW222956   1.698   2.865   3.245
 7353SOL     OW22957   0.758   0.222   5.819
 7353SOL    HW122958   0.705   0.226   5.904
 7353SOL    HW222959   0.712   0.162   5.754
 7354SOL     OW22960   0.254   1.867   6.556
 7354SOL    HW122961   0.223   1.778   6.590
 7354SOL    HW222962   0.348   1.883   6.585
 7355SOL     OW22963   2.309   1.051   0.494
 7355SOL    HW122964   2.255   1.051   0.578
 7355SOL    HW222965   2.294   0.965   0.445
 7356SOL     OW22966   3.803   3.523   5.877
 7356SOL    HW122967   3.710   3.531   5.912
 7356SOL    HW222968   3.816   3.433   5.836
 7357SOL     OW22969   4.615   6.615   1.699
 7357SOL    HW122970   4.639   6.680   1.772
 7357SOL    HW222971   4.608   6.523   1.738
 7358SOL     OW22972   6.614   3.339   2.833
 7358SOL    HW122973   6.666   3.332   2.918
 7358SOL    HW222974   6.671   3.383   2.763
 7359SOL     OW22975   2.355   2.412   6.059
 7359SOL    HW122976   2.420   2.454   6.122
 7359SOL    HW222977   2.283   2.478   6.036
 7360SOL     OW22978   3.427   4.407   6.022
 7360SOL    HW122979   3.376   4.333   5.978
 7360SOL    HW222980   3.515   4.372   6.054
 7361SOL     OW22981   5.030   0.377   1.317
 7361SOL    HW122982   5.009   0.398   1.413
 7361SOL    HW222983   5.119   0.331   1.312
 7362SOL     OW22984   0.990   5.076   4.360
 7362SOL    HW122985   1.026   5.119   4.442
 7362SOL    HW222986   0.916   5.133   4.323
 7363SOL     OW22987   4.375   1.230   1.095
 7363SOL    HW122988   4.287   1.263   1.131
 7363SOL    HW222989   4.447   1.294   1.122
 7364SOL     OW22990   4.699   0.839   1.165
 7364SOL    HW122991   4.716   0.779   1.087
 7364SOL    HW222992   4.610   0.884   1.153
 7365SOL     OW22993   1.690   0.080   1.572
 7365SOL    HW122994   1.711   0.143   1.497
 7365SOL    HW222995   1.758   0.091   1.645
 7366SOL     OW22996   2.397   5.665   6.906
 7366SOL    HW122997   2.404   5.595   6.835
 7366SOL    HW222998   2.337   5.738   6.875
 7367SOL     OW22999   5.133   3.661   1.141
 7367SOL    HW123000   5.039   3.632   1.126
 7367SOL    HW223001   5.186   3.584   1.178
 7368SOL     OW23002   3.829   2.979   3.347
 7368SOL    HW123003   3.790   3.008   3.435
 7368SOL    HW223004   3.893   3.048   3.315
 7369SOL     OW23005   4.002   2.641   6.748
 7369SOL    HW123006   3.995   2.601   6.657
 7369SOL    HW223007   4.095   2.675   6.763
 7370SOL     OW23008   1.975   0.738   4.695
 7370SOL    HW123009   2.048   0.805   4.688
 7370SOL    HW223010   2.010   0.653   4.735
 7371SOL     OW23011   1.938   6.111   3.634
 7371SOL    HW123012   1.985   6.033   3.593
 7371SOL    HW223013   1.993   6.193   3.620
 7372SOL     OW23014   4.248   1.351   5.058
 7372SOL    HW123015   4.247   1.278   5.127
 7372SOL    HW223016   4.168   1.409   5.071
 7373SOL     OW23017   5.660   1.355   4.380
 7373SOL    HW123018   5.757   1.348   4.358
 7373SOL    HW223019   5.649   1.378   4.476
 7374SOL     OW23020   2.979   1.516   5.249
 7374SOL    HW123021   2.940   1.453   5.317
 7374SOL    HW223022   2.904   1.564   5.203
 7375SOL     OW23023   2.140   3.388   3.611
 7375SOL    HW123024   2.162   3.391   3.709
 7375SOL    HW223025   2.159   3.477   3.570
 7376SOL     OW23026   3.227   1.848   0.042
 7376SOL    HW123027   3.219   1.825   6.964
 7376SOL    HW223028   3.323   1.862   0.065
 7377SOL     OW23029   5.658   4.166   0.346
 7377SOL    HW123030   5.560   4.154   0.365
 7377SOL    HW223031   5.711   4.122   0.419
 7378SOL     OW23032   0.297   1.247   5.771
 7378SOL    HW123033   0.323   1.220   5.864
 7378SOL    HW223034   0.313   1.170   5.709
 7379SOL     OW23035   3.232   2.034   2.977
 7379SOL    HW123036   3.307   2.062   3.037
 7379SOL    HW223037   3.227   1.934   2.975
 7380SOL     OW23038   0.229   4.041   5.082
 7380SOL    HW123039   0.233   3.944   5.107
 7380SOL    HW223040   0.134   4.070   5.075
 7381SOL     OW23041   4.319   3.622   1.574
 7381SOL    HW123042   4.376   3.558   1.524
 7381SOL    HW223043   4.365   3.711   1.578
 7382SOL     OW23044   0.131   5.510   6.324
 7382SOL    HW123045   0.150   5.518   6.226
 7382SOL    HW223046   0.097   5.597   6.359
 7383SOL     OW23047   0.943   6.946   1.299
 7383SOL    HW123048   0.942   0.019   1.258
 7383SOL    HW223049   0.869   6.891   1.261
 7384SOL     OW23050   5.877   0.860   3.448
 7384SOL    HW123051   5.956   0.800   3.459
 7384SOL    HW223052   5.907   0.950   3.417
 7385SOL     OW23053   4.292   5.425   1.970
 7385SOL    HW123054   4.292   5.519   1.936
 7385SOL    HW223055   4.354   5.418   2.048
 7386SOL     OW23056   0.492   2.304   5.704
 7386SOL    HW123057   0.461   2.235   5.770
 7386SOL    HW223058   0.581   2.277   5.669
 7387SOL     OW23059   4.834   6.214   4.452
 7387SOL    HW123060   4.808   6.309   4.439
 7387SOL    HW223061   4.931   6.202   4.428
 7388SOL     OW23062   0.217   5.253   2.575
 7388SOL    HW123063   0.280   5.197   2.521
 7388SOL    HW223064   0.172   5.195   2.644
 7389SOL     OW23065   0.380   3.294   6.117
 7389SOL    HW123066   0.314   3.338   6.055
 7389SOL    HW223067   0.465   3.346   6.117
 7390SOL     OW23068   1.856   2.249   0.352
 7390SOL    HW123069   1.874   2.304   0.434
 7390SOL    HW223070   1.932   2.186   0.337
 7391SOL     OW23071   4.071   3.834   4.942
 7391SOL    HW123072   3.989   3.834   4.999
 7391SOL    HW223073   4.145   3.882   4.989
 7392SOL     OW23074   2.696   6.139   6.966
 7392SOL    HW123075   2.729   6.059   6.916
 7392SOL    HW223076   2.675   6.213   6.900
 7393SOL     OW23077   5.349   4.827   2.510
 7393SOL    HW123078   5.276   4.763   2.485
 7393SOL    HW223079   5.421   4.824   2.441
 7394SOL     OW23080   3.237   2.064   5.588
 7394SOL    HW123081   3.161   2.059   5.523
 7394SOL    HW223082   3.317   2.017   5.550
 7395SOL     OW23083   1.978   2.455   0.073
 7395SOL    HW123084   1.894   2.489   0.114
 7395SOL    HW223085   1.988   2.491   7.000
 7396SOL     OW23086   1.323   6.742   0.505
 7396SOL    HW123087   1.376   6.662   0.534
 7396SOL    HW223088   1.352   6.770   0.414
 7397SOL     OW23089   4.478   5.200   5.078
 7397SOL    HW123090   4.458   5.134   5.151
 7397SOL    HW223091   4.549   5.263   5.110
 7398SOL     OW23092   2.431   4.839   4.285
 7398SOL    HW123093   2.414   4.812   4.379
 7398SOL    HW223094   2.514   4.794   4.251
 7399SOL     OW23095   0.767   2.179   5.701
 7399SOL    HW123096   0.718   2.153   5.618
 7399SOL    HW223097   0.835   2.110   5.723
 7400SOL     OW23098   4.284   2.826   5.907
 7400SOL    HW123099   4.283   2.903   5.972
 7400SOL    HW223100   4.375   2.819   5.866
 7401SOL     OW23101   1.568   0.705   4.699
 7401SOL    HW123102   1.528   0.795   4.713
 7401SOL    HW223103   1.599   0.697   4.604
 7402SOL     OW23104   2.717   5.820   6.091
 7402SOL    HW123105   2.690   5.769   6.173
 7402SOL    HW223106   2.803   5.784   6.056
 7403SOL     OW23107   2.203   3.933   2.293
 7403SOL    HW123108   2.223   4.011   2.352
 7403SOL    HW223109   2.180   3.853   2.349
 7404SOL     OW23110   2.016   5.308   1.123
 7404SOL    HW123111   2.064   5.390   1.094
 7404SOL    HW223112   2.068   5.227   1.095
 7405SOL     OW23113   3.756   5.214   4.044
 7405SOL    HW123114   3.807   5.154   3.984
 7405SOL    HW223115   3.795   5.306   4.040
 7406SOL     OW23116   0.185   3.357   3.416
 7406SOL    HW123117   0.186   3.277   3.475
 7406SOL    HW223118   0.277   3.373   3.380
 7407SOL     OW23119   0.541   6.604   4.409
 7407SOL    HW123120   0.553   6.572   4.315
 7407SOL    HW223121   0.485   6.539   4.460
 7408SOL     OW23122   2.592   4.146   6.502
 7408SOL    HW123123   2.577   4.102   6.590
 7408SOL    HW223124   2.678   4.197   6.504
 7409SOL     OW23125   0.141   1.803   6.057
 7409SOL    HW123126   0.125   1.863   6.136
 7409SOL    HW223127   0.076   1.824   5.985
 7410SOL     OW23128   0.594   6.909   0.627
 7410SOL    HW123129   0.624   6.991   0.579
 7410SOL    HW223130   0.607   6.921   0.725
 7411SOL     OW23131   2.664   0.017   5.092
 7411SOL    HW123132   2.628   0.066   5.012
 7411SOL    HW223133   2.761   7.017   5.078
 7412SOL     OW23134   5.123   0.012   1.848
 7412SOL    HW123135   5.082   0.100   1.824
 7412SOL    HW223136   5.078   6.958   1.798
 7413SOL     OW23137   4.892   5.932   4.431
 7413SOL    HW123138   4.859   5.901   4.342
 7413SOL    HW223139   4.909   6.031   4.427
 7414SOL     OW23140   6.948   0.451   3.632
 7414SOL    HW123141   7.003   0.408   3.559
 7414SOL    HW223142   6.851   0.450   3.605
 7415SOL     OW23143   1.801   4.463   4.670
 7415SOL    HW123144   1.871   4.393   4.675
 7415SOL    HW223145   1.825   4.539   4.731
 7416SOL     OW23146   2.016   1.491   3.367
 7416SOL    HW123147   1.920   1.479   3.341
 7416SOL    HW223148   2.031   1.586   3.395
 7417SOL     OW23149   1.762   0.691   6.860
 7417SOL    HW123150   1.691   0.626   6.888
 7417SOL    HW223151   1.849   0.665   6.903
 7418SOL     OW23152   3.063   5.587   1.203
 7418SOL    HW123153   3.087   5.673   1.156
 7418SOL    HW223154   3.143   5.554   1.254
 7419SOL     OW23155   5.619   2.766   5.090
 7419SOL    HW123156   5.665   2.719   5.015
 7419SOL    HW223157   5.629   2.865   5.080
 7420SOL     OW23158   0.667   0.062   1.989
 7420SOL    HW123159   0.687   6.991   2.026
 7420SOL    HW223160   0.736   0.087   1.922
 7421SOL     OW23161   3.713   4.312   0.696
 7421SOL    HW123162   3.743   4.236   0.753
 7421SOL    HW223163   3.769   4.393   0.716
 7422SOL     OW23164   6.940   3.163   2.494
 7422SOL    HW123165   0.020   3.174   2.482
 7422SOL    HW223166   6.922   3.127   2.586
 7423SOL     OW23167   6.075   3.761   5.549
 7423SOL    HW123168   6.152   3.699   5.534
 7423SOL    HW223169   6.023   3.730   5.629
 7424SOL     OW23170   6.814   6.777   5.783
 7424SOL    HW123171   6.845   6.739   5.870
 7424SOL    HW223172   6.891   6.779   5.719
 7425SOL     OW23173   4.170   5.113   6.850
 7425SOL    HW123174   4.193   5.072   6.938
 7425SOL    HW223175   4.088   5.170   6.860
 7426SOL     OW23176   2.181   1.135   5.707
 7426SOL    HW123177   2.196   1.188   5.791
 7426SOL    HW223178   2.115   1.182   5.649
 7427SOL     OW23179   4.105   0.271   3.955
 7427SOL    HW123180   4.072   0.364   3.972
 7427SOL    HW223181   4.148   0.235   4.037
 7428SOL     OW23182   3.642   1.276   6.283
 7428SOL    HW123183   3.593   1.249   6.200
 7428SOL    HW223184   3.734   1.308   6.259
 7429SOL     OW23185   6.952   6.697   3.932
 7429SOL    HW123186   6.990   6.767   3.873
 7429SOL    HW223187   6.955   6.608   3.886
 7430SOL     OW23188   0.742   3.125   0.175
 7430SOL    HW123189   0.646   3.100   0.163
 7430SOL    HW223190   0.789   3.120   0.088
 7431SOL     OW23191   0.912   2.609   2.919
 7431SOL    HW123192   0.962   2.693   2.942
 7431SOL    HW223193   0.975   2.532   2.918
 7432SOL     OW23194   1.248   0.830   3.210
 7432SOL    HW123195   1.228   0.734   3.190
 7432SOL    HW223196   1.346   0.846   3.207
 7433SOL     OW23197   4.483   5.394   6.352
 7433SOL    HW123198   4.516   5.300   6.357
 7433SOL    HW223199   4.547   5.454   6.400
 7434SOL     OW23200   5.322   6.470   6.136
 7434SOL    HW123201   5.311   6.559   6.090
 7434SOL    HW223202   5.346   6.401   6.068
 7435SOL     OW23203   4.161   5.569   0.613
 7435SOL    HW123204   4.102   5.565   0.532
 7435SOL    HW223205   4.250   5.608   0.588
 7436SOL     OW23206   5.641   3.549   6.238
 7436SOL    HW123207   5.734   3.520   6.214
 7436SOL    HW223208   5.577   3.475   6.219
 7437SOL     OW23209   1.004   6.321   7.017
 7437SOL    HW123210   1.074   6.379   6.975
 7437SOL    HW223211   0.993   6.237   6.963
 7438SOL     OW23212   1.149   5.744   0.047
 7438SOL    HW123213   1.163   5.761   0.145
 7438SOL    HW223214   1.237   5.724   0.004
 7439SOL     OW23215   1.834   5.823   5.554
 7439SOL    HW123216   1.883   5.736   5.551
 7439SOL    HW223217   1.764   5.820   5.626
 7440SOL     OW23218   0.193   3.718   4.446
 7440SOL    HW123219   0.174   3.643   4.382
 7440SOL    HW223220   0.278   3.697   4.496
 7441SOL     OW23221   5.575   6.187   3.904
 7441SOL    HW123222   5.569   6.087   3.906
 7441SOL    HW223223   5.611   6.217   3.816
 7442SOL     OW23224   6.174   1.180   5.749
 7442SOL    HW123225   6.153   1.100   5.806
 7442SOL    HW223226   6.224   1.247   5.803
 7443SOL     OW23227   0.095   0.081   2.070
 7443SOL    HW123228   7.019   0.097   2.092
 7443SOL    HW223229   0.143   0.168   2.060
 7444SOL     OW23230   5.844   2.722   5.494
 7444SOL    HW123231   5.805   2.724   5.585
 7444SOL    HW223232   5.790   2.780   5.432
 7445SOL     OW23233   3.845   1.315   1.285
 7445SOL    HW123234   3.841   1.389   1.352
 7445SOL    HW223235   3.753   1.275   1.274
 7446SOL     OW23236   5.713   3.447   1.081
 7446SOL    HW123237   5.770   3.371   1.113
 7446SOL    HW223238   5.625   3.412   1.049
 7447SOL     OW23239   1.016   3.315   6.481
 7447SOL    HW123240   0.948   3.310   6.554
 7447SOL    HW223241   1.104   3.282   6.515
 7448SOL     OW23242   6.958   6.329   5.396
 7448SOL    HW123243   6.871   6.347   5.441
 7448SOL    HW223244   6.980   6.232   5.403
 7449SOL     OW23245   6.317   3.532   1.972
 7449SOL    HW123246   6.348   3.460   2.034
 7449SOL    HW223247   6.221   3.517   1.949
 7450SOL     OW23248   5.265   2.081   4.525
 7450SOL    HW123249   5.175   2.098   4.485
 7450SOL    HW223250   5.335   2.131   4.474
 7451SOL     OW23251   0.020   0.391   2.958
 7451SOL    HW123252   0.095   0.424   3.017
 7451SOL    HW223253   6.956   0.442   2.979
 7452SOL     OW23254   0.366   6.388   4.605
 7452SOL    HW123255   0.418   6.431   4.679
 7452SOL    HW223256   0.291   6.334   4.642
 7453SOL     OW23257   4.502   0.078   5.930
 7453SOL    HW123258   4.522   0.095   6.026
 7453SOL    HW223259   4.404   0.092   5.913
 7454SOL     OW23260   0.413   2.511   2.591
 7454SOL    HW123261   0.502   2.492   2.549
 7454SOL    HW223262   0.342   2.511   2.521
 7455SOL     OW23263   0.142   1.645   2.308
 7455SOL    HW123264   0.240   1.666   2.312
 7455SOL    HW223265   0.128   1.546   2.318
 7456SOL     OW23266   0.723   1.151   4.288
 7456SOL    HW123267   0.723   1.235   4.232
 7456SOL    HW223268   0.800   1.093   4.261
 7457SOL     OW23269   3.660   0.184   5.905
 7457SOL    HW123270   3.746   0.168   5.856
 7457SOL    HW223271   3.637   0.282   5.901
 7458SOL     OW23272   1.702   6.656   5.763
 7458SOL    HW123273   1.760   6.659   5.681
 7458SOL    HW223274   1.745   6.709   5.836
 7459SOL     OW23275   4.357   0.592   1.792
 7459SOL    HW123276   4.394   0.643   1.715
 7459SOL    HW223277   4.423   0.591   1.867
 7460SOL     OW23278   0.985   5.445   0.649
 7460SOL    HW123279   1.080   5.437   0.677
 7460SOL    HW223280   0.979   5.496   0.564
 7461SOL     OW23281   5.792   1.267   5.982
 7461SOL    HW123282   5.889   1.286   6.000
 7461SOL    HW223283   5.737   1.343   6.016
 7462SOL     OW23284   2.158   3.711   2.705
 7462SOL    HW123285   2.131   3.805   2.684
 7462SOL    HW223286   2.156   3.656   2.622
 7463SOL     OW23287   2.205   4.472   1.186
 7463SOL    HW123288   2.137   4.540   1.158
 7463SOL    HW223289   2.248   4.434   1.104
 7464SOL     OW23290   4.972   0.490   6.774
 7464SOL    HW123291   4.933   0.537   6.694
 7464SOL    HW223292   4.920   0.407   6.793
 7465SOL     OW23293   0.788   5.394   0.001
 7465SOL    HW123294   0.869   5.362   6.971
 7465SOL    HW223295   0.798   5.376   0.098
 7466SOL     OW23296   6.965   0.752   5.403
 7466SOL    HW123297   0.021   0.719   5.346
 7466SOL    HW223298   6.998   0.821   5.466
 7467SOL     OW23299   0.228   1.737   1.002
 7467SOL    HW123300   0.274   1.709   0.918
 7467SOL    HW223301   0.287   1.718   1.081
 7468SOL     OW23302   5.642   2.813   3.791
 7468SOL    HW123303   5.621   2.813   3.693
 7468SOL    HW223304   5.649   2.907   3.823
 7469SOL     OW23305   6.842   1.146   0.967
 7469SOL    HW123306   6.902   1.158   0.889
 7469SOL    HW223307   6.807   1.052   0.968
 7470SOL     OW23308   6.605   3.633   4.238
 7470SOL    HW123309   6.590   3.701   4.166
 7470SOL    HW223310   6.520   3.621   4.290
 7471SOL     OW23311   6.607   5.964   6.185
 7471SOL    HW123312   6.576   6.057   6.164
 7471SOL    HW223313   6.657   5.928   6.106
 7472SOL     OW23314   6.316   6.788   4.829
 7472SOL    HW123315   6.255   6.746   4.762
 7472SOL    HW223316   6.294   6.884   4.841
 7473SOL     OW23317   6.176   5.224   3.168
 7473SOL    HW123318   6.248   5.160   3.138
 7473SOL    HW223319   6.133   5.189   3.251
 7474SOL     OW23320   1.432   1.294   5.357
 7474SOL    HW123321   1.445   1.365   5.426
 7474SOL    HW223322   1.417   1.206   5.402
 7475SOL     OW23323   4.842   1.763   2.227
 7475SOL    HW123324   4.824   1.749   2.325
 7475SOL    HW223325   4.760   1.738   2.175
 7476SOL     OW23326   3.481   6.795   4.056
 7476SOL    HW123327   3.458   6.892   4.061
 7476SOL    HW223328   3.550   6.781   3.985
 7477SOL     OW23329   0.485   0.711   5.014
 7477SOL    HW123330   0.451   0.707   5.109
 7477SOL    HW223331   0.407   0.719   4.952
 7478SOL     OW23332   4.868   5.366   6.484
 7478SOL    HW123333   4.871   5.455   6.530
 7478SOL    HW223334   4.926   5.368   6.403
 7479SOL     OW23335   4.570   2.297   1.885
 7479SOL    HW123336   4.527   2.252   1.964
 7479SOL    HW223337   4.500   2.332   1.824
 7480SOL     OW23338   0.580   4.113   1.884
 7480SOL    HW123339   0.511   4.125   1.813
 7480SOL    HW223340   0.593   4.016   1.903
 7481SOL     OW23341   6.222   4.905   1.369
 7481SOL    HW123342   6.188   4.814   1.394
 7481SOL    HW223343   6.145   4.967   1.359
 7482SOL     OW23344   4.745   2.115   2.999
 7482SOL    HW123345   4.742   2.101   2.900
 7482SOL    HW223346   4.786   2.035   3.043
 7483SOL     OW23347   4.470   2.528   4.474
 7483SOL    HW123348   4.469   2.518   4.375
 7483SOL    HW223349   4.519   2.612   4.498
 7484SOL     OW23350   1.735   0.422   3.771
 7484SOL    HW123351   1.826   0.459   3.791
 7484SOL    HW223352   1.743   0.343   3.711
 7485SOL     OW23353   3.805   6.939   4.770
 7485SOL    HW123354   3.777   6.872   4.700
 7485SOL    HW223355   3.856   7.013   4.727
 7486SOL     OW23356   1.931   0.053   0.742
 7486SOL    HW123357   1.917   0.141   0.696
 7486SOL    HW223358   1.921   0.064   0.841
 7487SOL     OW23359   2.231   6.661   2.900
 7487SOL    HW123360   2.176   6.690   2.978
 7487SOL    HW223361   2.327   6.652   2.927
 7488SOL     OW23362   2.595   0.150   3.787
 7488SOL    HW123363   2.503   0.160   3.825
 7488SOL    HW223364   2.603   0.062   3.740
 7489SOL     OW23365   4.808   2.346   5.362
 7489SOL    HW123366   4.819   2.306   5.271
 7489SOL    HW223367   4.880   2.310   5.422
 7490SOL     OW23368   1.133   0.870   1.961
 7490SOL    HW123369   1.058   0.911   2.013
 7490SOL    HW223370   1.159   0.932   1.887
 7491SOL     OW23371   5.564   2.001   6.123
 7491SOL    HW123372   5.544   2.094   6.093
 7491SOL    HW223373   5.479   1.948   6.126
 7492SOL     OW23374   1.929   0.259   3.010
 7492SOL    HW123375   2.019   0.295   3.033
 7492SOL    HW223376   1.931   0.216   2.920
 7493SOL     OW23377   0.274   3.675   6.482
 7493SOL    HW123378   0.348   3.671   6.415
 7493SOL    HW223379   0.275   3.592   6.538
 7494SOL     OW23380   5.001   1.037   2.703
 7494SOL    HW123381   4.901   1.038   2.696
 7494SOL    HW223382   5.039   1.113   2.651
 7495SOL     OW23383   2.196   1.559   0.083
 7495SOL    HW123384   2.154   1.560   0.174
 7495SOL    HW223385   2.269   1.627   0.079
 7496SOL     OW23386   5.929   3.415   5.845
 7496SOL    HW123387   5.929   3.346   5.771
 7496SOL    HW223388   5.993   3.387   5.916
 7497SOL     OW23389   2.317   4.300   6.850
 7497SOL    HW123390   2.413   4.270   6.843
 7497SOL    HW223391   2.304   4.382   6.795
 7498SOL     OW23392   2.857   0.554   5.635
 7498SOL    HW123393   2.768   0.599   5.625
 7498SOL    HW223394   2.897   0.538   5.545
 7499SOL     OW23395   3.556   1.601   2.729
 7499SOL    HW123396   3.611   1.684   2.717
 7499SOL    HW223397   3.548   1.580   2.826
 7500SOL     OW23398   3.193   5.279   3.190
 7500SOL    HW123399   3.122   5.289   3.120
 7500SOL    HW223400   3.222   5.184   3.195
 7501SOL     OW23401   5.346   4.218   4.728
 7501SOL    HW123402   5.318   4.304   4.772
 7501SOL    HW223403   5.391   4.238   4.642
 7502SOL     OW23404   1.811   0.575   4.036
 7502SOL    HW123405   1.879   0.617   3.977
 7502SOL    HW223406   1.719   0.601   4.007
 7503SOL     OW23407   2.303   0.729   1.447
 7503SOL    HW123408   2.234   0.787   1.403
 7503SOL    HW223409   2.389   0.781   1.454
 7504SOL     OW23410   1.414   7.016   2.686
 7504SOL    HW123411   1.323   0.031   2.663
 7504SOL    HW223412   1.433   0.017   2.782
 7505SOL     OW23413   2.201   1.500   5.242
 7505SOL    HW123414   2.176   1.592   5.213
 7505SOL    HW223415   2.261   1.505   5.322
 7506SOL     OW23416   5.652   0.697   3.151
 7506SOL    HW123417   5.557   0.665   3.149
 7506SOL    HW223418   5.678   0.716   3.246
 7507SOL     OW23419   0.581   1.185   2.413
 7507SOL    HW123420   0.619   1.252   2.349
 7507SOL    HW223421   0.655   1.143   2.466
 7508SOL     OW23422   1.181   7.010   1.580
 7508SOL    HW123423   1.195   6.976   1.673
 7508SOL    HW223424   1.241   6.961   1.517
 7509SOL     OW23425   5.422   4.118   0.474
 7509SOL    HW123426   5.438   4.076   0.563
 7509SOL    HW223427   5.353   4.064   0.424
 7510SOL     OW23428   4.138   3.770   5.558
 7510SOL    HW123429   4.120   3.866   5.540
 7510SOL    HW223430   4.217   3.762   5.620
 7511SOL     OW23431   2.552   6.630   4.000
 7511SOL    HW123432   2.514   6.621   4.092
 7511SOL    HW223433   2.625   6.564   3.987
 7512SOL     OW23434   3.057   6.410   6.385
 7512SOL    HW123435   3.050   6.499   6.429
 7512SOL    HW223436   3.078   6.422   6.288
 7513SOL     OW23437   2.615   0.842   1.692
 7513SOL    HW123438   2.660   0.920   1.734
 7513SOL    HW223439   2.528   0.823   1.738
 7514SOL     OW23440   2.504   6.312   2.022
 7514SOL    HW123441   2.455   6.233   1.985
 7514SOL    HW223442   2.457   6.396   1.994
 7515SOL     OW23443   6.909   5.092   2.985
 7515SOL    HW123444   6.997   5.141   2.986
 7515SOL    HW223445   6.838   5.152   2.949
 7516SOL     OW23446   6.856   6.804   5.197
 7516SOL    HW123447   6.795   6.882   5.185
 7516SOL    HW223448   6.883   6.797   5.293
 7517SOL     OW23449   0.185   2.831   0.956
 7517SOL    HW123450   0.193   2.738   0.921
 7517SOL    HW223451   0.235   2.839   1.042
 7518SOL     OW23452   4.013   4.832   4.176
 7518SOL    HW123453   4.045   4.927   4.177
 7518SOL    HW223454   4.086   4.772   4.208
 7519SOL     OW23455   0.411   6.750   3.271
 7519SOL    HW123456   0.455   6.745   3.361
 7519SOL    HW223457   0.472   6.713   3.201
 7520SOL     OW23458   2.423   0.293   2.334
 7520SOL    HW123459   2.473   0.268   2.250
 7520SOL    HW223460   2.485   0.288   2.412
 7521SOL     OW23461   4.772   4.222   6.107
 7521SOL    HW123462   4.730   4.157   6.044
 7521SOL    HW223463   4.871   4.205   6.113
 7522SOL     OW23464   1.537   0.907   6.292
 7522SOL    HW123465   1.615   0.969   6.293
 7522SOL    HW223466   1.507   0.889   6.386
 7523SOL     OW23467   5.919   0.395   5.681
 7523SOL    HW123468   6.010   0.427   5.656
 7523SOL    HW223469   5.913   0.387   5.781
 7524SOL     OW23470   1.442   2.102   5.343
 7524SOL    HW123471   1.359   2.047   5.352
 7524SOL    HW223472   1.522   2.046   5.363
 7525SOL     OW23473   3.086   0.551   6.260
 7525SOL    HW123474   3.023   0.474   6.247
 7525SOL    HW223475   3.033   0.633   6.285
 7526SOL     OW23476   2.874   3.300   1.957
 7526SOL    HW123477   2.865   3.356   2.039
 7526SOL    HW223478   2.944   3.230   1.971
 7527SOL     OW23479   3.013   5.902   2.876
 7527SOL    HW123480   3.001   5.820   2.932
 7527SOL    HW223481   3.095   5.891   2.819
 7528SOL     OW23482   5.369   2.035   0.196
 7528SOL    HW123483   5.378   2.102   0.123
 7528SOL    HW223484   5.343   2.081   0.281
 7529SOL     OW23485   4.829   1.288   4.712
 7529SOL    HW123486   4.894   1.224   4.671
 7529SOL    HW223487   4.738   1.272   4.674
 7530SOL     OW23488   6.928   3.000   2.738
 7530SOL    HW123489   6.875   3.034   2.815
 7530SOL    HW223490   6.893   2.910   2.710
 7531SOL     OW23491   5.177   3.127   4.724
 7531SOL    HW123492   5.213   3.175   4.645
 7531SOL    HW223493   5.084   3.159   4.743
 7532SOL     OW23494   5.042   5.545   6.895
 7532SOL    HW123495   5.122   5.575   6.843
 7532SOL    HW223496   5.058   5.454   6.933
 7533SOL     OW23497   2.595   1.678   1.864
 7533SOL    HW123498   2.632   1.665   1.772
 7533SOL    HW223499   2.501   1.710   1.857
 7534SOL     OW23500   4.458   6.149   5.542
 7534SOL    HW123501   4.539   6.112   5.497
 7534SOL    HW223502   4.452   6.247   5.525
 7535SOL     OW23503   1.833   0.134   4.808
 7535SOL    HW123504   1.821   0.122   4.906
 7535SOL    HW223505   1.874   0.052   4.769
 7536SOL     OW23506   4.688   4.797   4.586
 7536SOL    HW123507   4.638   4.723   4.632
 7536SOL    HW223508   4.762   4.757   4.531
 7537SOL     OW23509   2.934   5.639   2.260
 7537SOL    HW123510   2.927   5.662   2.357
 7537SOL    HW223511   3.030   5.626   2.235
 7538SOL     OW23512   2.137   3.389   1.254
 7538SOL    HW123513   2.150   3.293   1.227
 7538SOL    HW223514   2.225   3.437   1.249
 7539SOL     OW23515   1.357   3.787   4.292
 7539SOL    HW123516   1.307   3.872   4.277
 7539SOL    HW223517   1.427   3.802   4.362
 7540SOL     OW23518   3.912   0.392   4.361
 7540SOL    HW123519   3.977   0.453   4.316
 7540SOL    HW223520   3.831   0.443   4.389
 7541SOL     OW23521   0.359   4.578   5.217
 7541SOL    HW123522   0.261   4.599   5.222
 7541SOL    HW223523   0.411   4.659   5.242
 7542SOL     OW23524   1.074   5.383   6.531
 7542SOL    HW123525   1.047   5.396   6.626
 7542SOL    HW223526   1.114   5.292   6.520
 7543SOL     OW23527   3.563   1.680   6.424
 7543SOL    HW123528   3.596   1.742   6.353
 7543SOL    HW223529   3.520   1.733   6.497
 7544SOL     OW23530   6.737   2.614   2.877
 7544SOL    HW123531   6.658   2.674   2.889
 7544SOL    HW223532   6.792   2.615   2.961
 7545SOL     OW23533   0.269   5.830   0.949
 7545SOL    HW123534   0.214   5.908   0.979
 7545SOL    HW223535   0.365   5.855   0.950
 7546SOL     OW23536   3.647   2.044   1.745
 7546SOL    HW123537   3.570   2.006   1.797
 7546SOL    HW223538   3.689   2.118   1.796
 7547SOL     OW23539   5.355   1.056   0.812
 7547SOL    HW123540   5.301   1.122   0.864
 7547SOL    HW223541   5.396   0.990   0.875
 7548SOL     OW23542   4.314   1.218   6.797
 7548SOL    HW123543   4.366   1.303   6.782
 7548SOL    HW223544   4.241   1.212   6.729
 7549SOL     OW23545   4.478   2.809   0.448
 7549SOL    HW123546   4.517   2.738   0.507
 7549SOL    HW223547   4.381   2.789   0.432
 7550SOL     OW23548   2.498   5.309   2.561
 7550SOL    HW123549   2.427   5.364   2.517
 7550SOL    HW223550   2.587   5.334   2.523
 7551SOL     OW23551   5.429   3.399   6.052
 7551SOL    HW123552   5.378   3.424   5.969
 7551SOL    HW223553   5.521   3.368   6.027
 7552SOL     OW23554   1.312   6.313   2.686
 7552SOL    HW123555   1.319   6.215   2.669
 7552SOL    HW223556   1.331   6.362   2.601
 7553SOL     OW23557   4.292   6.510   5.773
 7553SOL    HW123558   4.332   6.524   5.863
 7553SOL    HW223559   4.364   6.495   5.706
 7554SOL     OW23560   4.926   1.214   0.489
 7554SOL    HW123561   4.895   1.305   0.517
 7554SOL    HW223562   5.026   1.210   0.491
 7555SOL     OW23563   2.194   4.842   5.910
 7555SOL    HW123564   2.253   4.795   5.975
 7555SOL    HW223565   2.228   4.935   5.896
 7556SOL     OW23566   2.102   3.165   0.204
 7556SOL    HW123567   2.153   3.175   0.289
 7556SOL    HW223568   2.015   3.213   0.212
 7557SOL     OW23569   5.209   0.871   5.441
 7557SOL    HW123570   5.238   0.841   5.350
 7557SOL    HW223571   5.136   0.939   5.432
 7558SOL     OW23572   1.304   2.619   4.249
 7558SOL    HW123573   1.323   2.711   4.281
 7558SOL    HW223574   1.214   2.617   4.204
 7559SOL     OW23575   5.148   3.350   0.139
 7559SOL    HW123576   5.178   3.267   0.091
 7559SOL    HW223577   5.228   3.406   0.163
 7560SOL     OW23578   5.305   0.162   0.737
 7560SOL    HW123579   5.302   0.211   0.823
 7560SOL    HW223580   5.398   0.128   0.722
 7561SOL     OW23581   0.854   3.546   6.856
 7561SOL    HW123582   0.770   3.514   6.901
 7561SOL    HW223583   0.909   3.598   6.922
 7562SOL     OW23584   0.175   6.553   4.141
 7562SOL    HW123585   0.093   6.592   4.100
 7562SOL    HW223586   0.188   6.459   4.108
 7563SOL     OW23587   3.215   0.355   1.379
 7563SOL    HW123588   3.116   0.340   1.378
 7563SOL    HW223589   3.246   0.385   1.289
 7564SOL     OW23590   4.779   0.283   2.903
 7564SOL    HW123591   4.834   0.207   2.869
 7564SOL    HW223592   4.834   0.366   2.905
 7565SOL     OW23593   5.278   3.393   0.469
 7565SOL    HW123594   5.264   3.461   0.540
 7565SOL    HW223595   5.268   3.301   0.508
 7566SOL     OW23596   6.118   4.802   2.884
 7566SOL    HW123597   6.201   4.778   2.933
 7566SOL    HW223598   6.044   4.739   2.909
 7567SOL     OW23599   1.960   1.973   4.523
 7567SOL    HW123600   1.916   2.060   4.546
 7567SOL    HW223601   2.056   1.989   4.500
 7568SOL     OW23602   5.274   6.100   2.837
 7568SOL    HW123603   5.354   6.160   2.834
 7568SOL    HW223604   5.296   6.018   2.890
 7569SOL     OW23605   3.823   4.941   6.112
 7569SOL    HW123606   3.821   4.841   6.109
 7569SOL    HW223607   3.732   4.976   6.132
 7570SOL     OW23608   5.687   3.337   5.308
 7570SOL    HW123609   5.631   3.257   5.287
 7570SOL    HW223610   5.726   3.373   5.223
 7571SOL     OW23611   3.824   5.085   3.422
 7571SOL    HW123612   3.883   5.120   3.349
 7571SOL    HW223613   3.866   5.004   3.463
 7572SOL     OW23614   4.744   1.127   1.133
 7572SOL    HW123615   4.674   1.198   1.139
 7572SOL    HW223616   4.737   1.066   1.212
 7573SOL     OW23617   0.234   0.658   5.520
 7573SOL    HW123618   0.199   0.569   5.548
 7573SOL    HW223619   0.213   0.672   5.423
 7574SOL     OW23620   4.952   6.978   5.480
 7574SOL    HW123621   4.941   0.057   5.494
 7574SOL    HW223622   5.047   6.958   5.459
 7575SOL     OW23623   4.972   0.271   6.296
 7575SOL    HW123624   4.990   0.182   6.252
 7575SOL    HW223625   4.890   0.312   6.256
 7576SOL     OW23626   4.598   4.312   6.888
 7576SOL    HW123627   4.663   4.352   6.825
 7576SOL    HW223628   4.641   4.301   6.978
 7577SOL     OW23629   0.786   6.738   6.676
 7577SOL    HW123630   0.858   6.672   6.698
 7577SOL    HW223631   0.812   6.828   6.710
 7578SOL     OW23632   1.648   4.930   1.256
 7578SOL    HW123633   1.633   4.833   1.238
 7578SOL    HW223634   1.559   4.975   1.270
 7579SOL     OW23635   0.439   1.287   2.041
 7579SOL    HW123636   0.428   1.215   2.110
 7579SOL    HW223637   0.387   1.263   1.960
 7580SOL     OW23638   0.491   3.909   4.326
 7580SOL    HW123639   0.457   3.824   4.365
 7580SOL    HW223640   0.492   3.980   4.397
 7581SOL     OW23641   0.073   1.146   1.493
 7581SOL    HW123642   0.061   1.187   1.403
 7581SOL    HW223643   0.016   1.064   1.501
 7582SOL     OW23644   4.049   1.318   1.649
 7582SOL    HW123645   4.118   1.385   1.677
 7582SOL    HW223646   3.985   1.362   1.586
 7583SOL     OW23647   5.906   3.257   2.162
 7583SOL    HW123648   5.886   3.161   2.148
 7583SOL    HW223649   5.929   3.274   2.258
 7584SOL     OW23650   3.331   0.109   1.467
 7584SOL    HW123651   3.287   0.199   1.472
 7584SOL    HW223652   3.409   0.113   1.405
 7585SOL     OW23653   1.610   3.010   6.771
 7585SOL    HW123654   1.571   2.989   6.681
 7585SOL    HW223655   1.708   2.988   6.771
 7586SOL     OW23656   2.735   0.283   3.581
 7586SOL    HW123657   2.711   0.246   3.670
 7586SOL    HW223658   2.833   0.304   3.578
 7587SOL     OW23659   2.266   2.765   6.972
 7587SOL    HW123660   2.289   2.722   6.885
 7587SOL    HW223661   2.331   2.736   0.023
 7588SOL     OW23662   1.407   3.073   3.692
 7588SOL    HW123663   1.461   3.069   3.777
 7588SOL    HW223664   1.424   2.990   3.639
 7589SOL     OW23665   0.913   0.870   2.397
 7589SOL    HW123666   0.854   0.922   2.459
 7589SOL    HW223667   0.978   0.815   2.450
 7590SOL     OW23668   3.614   1.744   6.141
 7590SOL    HW123669   3.556   1.819   6.171
 7590SOL    HW223670   3.557   1.667   6.113
 7591SOL     OW23671   7.009   3.287   0.676
 7591SOL    HW123672   6.952   3.303   0.595
 7591SOL    HW223673   0.033   3.197   0.668
 7592SOL     OW23674   6.536   4.794   4.739
 7592SOL    HW123675   6.556   4.696   4.740
 7592SOL    HW223676   6.440   4.808   4.763
 7593SOL     OW23677   6.250   3.097   0.714
 7593SOL    HW123678   6.268   3.023   0.780
 7593SOL    HW223679   6.190   3.165   0.756
 7594SOL     OW23680   1.450   5.016   2.297
 7594SOL    HW123681   1.497   5.000   2.210
 7594SOL    HW223682   1.518   5.026   2.370
 7595SOL     OW23683   6.431   2.910   6.016
 7595SOL    HW123684   6.399   2.942   5.926
 7595SOL    HW223685   6.476   2.821   6.006
 7596SOL     OW23686   3.648   5.642   3.945
 7596SOL    HW123687   3.741   5.638   3.911
 7596SOL    HW223688   3.649   5.666   4.042
 7597SOL     OW23689   2.453   6.402   2.728
 7597SOL    HW123690   2.509   6.320   2.743
 7597SOL    HW223691   2.443   6.451   2.814
 7598SOL     OW23692   0.343   1.346   3.313
 7598SOL    HW123693   0.311   1.273   3.253
 7598SOL    HW223694   0.375   1.423   3.257
 7599SOL     OW23695   5.558   2.232   2.067
 7599SOL    HW123696   5.471   2.272   2.096
 7599SOL    HW223697   5.615   2.213   2.148
 7600SOL     OW23698   1.405   1.701   2.842
 7600SOL    HW123699   1.458   1.740   2.917
 7600SOL    HW223700   1.394   1.769   2.770
 7601SOL     OW23701   2.078   5.405   2.551
 7601SOL    HW123702   2.050   5.501   2.548
 7601SOL    HW223703   2.158   5.392   2.492
 7602SOL     OW23704   2.184   4.036   6.447
 7602SOL    HW123705   2.176   3.943   6.412
 7602SOL    HW223706   2.151   4.039   6.542
 7603SOL     OW23707   1.517   6.028   6.223
 7603SOL    HW123708   1.582   6.098   6.198
 7603SOL    HW223709   1.430   6.070   6.250
 7604SOL     OW23710   2.146   3.888   4.599
 7604SOL    HW123711   2.132   3.904   4.501
 7604SOL    HW223712   2.181   3.971   4.642
 7605SOL     OW23713   1.368   0.530   1.415
 7605SOL    HW123714   1.284   0.498   1.459
 7605SOL    HW223715   1.421   0.452   1.383
 7606SOL     OW23716   5.910   4.076   5.185
 7606SOL    HW123717   5.889   4.161   5.233
 7606SOL    HW223718   6.004   4.048   5.206
 7607SOL     OW23719   3.797   5.817   0.373
 7607SOL    HW123720   3.759   5.901   0.410
 7607SOL    HW223721   3.732   5.742   0.385
 7608SOL     OW23722   3.899   4.024   1.768
 7608SOL    HW123723   3.873   4.118   1.750
 7608SOL    HW223724   3.996   4.011   1.745
 7609SOL     OW23725   1.340   3.423   4.508
 7609SOL    HW123726   1.437   3.408   4.526
 7609SOL    HW223727   1.317   3.387   4.418
 7610SOL     OW23728   4.730   4.856   6.093
 7610SOL    HW123729   4.672   4.820   6.165
 7610SOL    HW223730   4.741   4.955   6.105
 7611SOL     OW23731   6.055   3.467   2.038
 7611SOL    HW123732   6.004   3.381   2.051
 7611SOL    HW223733   5.992   3.544   2.047
 7612SOL     OW23734   4.673   2.747   3.162
 7612SOL    HW123735   4.590   2.696   3.185
 7612SOL    HW223736   4.675   2.765   3.064
 7613SOL     OW23737   6.606   2.761   0.807
 7613SOL    HW123738   6.687   2.805   0.768
 7613SOL    HW223739   6.526   2.786   0.754
 7614SOL     OW23740   4.971   3.343   0.367
 7614SOL    HW123741   5.052   3.370   0.315
 7614SOL    HW223742   4.983   3.371   0.463
 7615SOL     OW23743   3.894   5.502   0.465
 7615SOL    HW123744   3.797   5.521   0.479
 7615SOL    HW223745   3.935   5.576   0.411
 7616SOL     OW23746   5.821   6.112   4.612
 7616SOL    HW123747   5.789   6.049   4.542
 7616SOL    HW223748   5.767   6.100   4.696
 7617SOL     OW23749   3.794   5.604   2.330
 7617SOL    HW123750   3.834   5.676   2.387
 7617SOL    HW223751   3.864   5.569   2.267
 7618SOL     OW23752   6.844   1.314   5.241
 7618SOL    HW123753   6.786   1.255   5.298
 7618SOL    HW223754   6.888   1.259   5.170
 7619SOL     OW23755   5.959   2.997   5.249
 7619SOL    HW123756   5.950   2.937   5.169
 7619SOL    HW223757   5.873   2.998   5.299
 7620SOL     OW23758   4.121   5.808   0.943
 7620SOL    HW123759   4.048   5.840   0.883
 7620SOL    HW223760   4.128   5.708   0.936
 7621SOL     OW23761   6.643   1.545   1.372
 7621SOL    HW123762   6.659   1.591   1.284
 7621SOL    HW223763   6.670   1.449   1.365
 7622SOL     OW23764   4.479   5.018   0.021
 7622SOL    HW123765   4.415   5.045   0.093
 7622SOL    HW223766   4.444   4.937   6.993
 7623SOL     OW23767   4.617   4.333   0.193
 7623SOL    HW123768   4.693   4.285   0.238
 7623SOL    HW223769   4.612   4.427   0.228
 7624SOL     OW23770   7.005   3.134   5.064
 7624SOL    HW123771   6.924   3.176   5.022
 7624SOL    HW223772   0.044   3.205   5.102
 7625SOL     OW23773   4.606   0.546   1.480
 7625SOL    HW123774   4.548   0.465   1.481
 7625SOL    HW223775   4.671   0.541   1.405
 7626SOL     OW23776   5.902   0.390   4.289
 7626SOL    HW123777   5.815   0.433   4.311
 7626SOL    HW223778   5.928   0.328   4.364
 7627SOL     OW23779   4.668   3.310   6.674
 7627SOL    HW123780   4.738   3.241   6.693
 7627SOL    HW223781   4.705   3.377   6.610
 7628SOL     OW23782   3.450   2.062   2.177
 7628SOL    HW123783   3.533   2.110   2.147
 7628SOL    HW223784   3.376   2.128   2.187
 7629SOL     OW23785   6.994   6.205   3.072
 7629SOL    HW123786   6.994   6.129   3.138
 7629SOL    HW223787   6.981   6.170   2.980
 7630SOL     OW23788   0.397   6.956   1.322
 7630SOL    HW123789   0.371   7.010   1.402
 7630SOL    HW223790   0.485   6.988   1.287
 7631SOL     OW23791   0.964   1.165   5.869
 7631SOL    HW123792   1.051   1.200   5.832
 7631SOL    HW223793   0.888   1.216   5.830
 7632SOL     OW23794   4.130   3.427   1.481
 7632SOL    HW123795   4.227   3.452   1.479
 7632SOL    HW223796   4.080   3.482   1.414
 7633SOL     OW23797   5.331   0.701   1.166
 7633SOL    HW123798   5.364   0.733   1.255
 7633SOL    HW223799   5.288   0.612   1.177
 7634SOL     OW23800   1.996   1.971   2.440
 7634SOL    HW123801   1.927   2.033   2.476
 7634SOL    HW223802   2.040   2.013   2.360
 7635SOL     OW23803   3.045   5.271   5.023
 7635SOL    HW123804   3.077   5.341   5.086
 7635SOL    HW223805   3.006   5.194   5.074
 7636SOL     OW23806   1.675   2.884   4.007
 7636SOL    HW123807   1.768   2.857   3.982
 7636SOL    HW223808   1.672   2.908   4.103
 7637SOL     OW23809   1.728   5.270   2.160
 7637SOL    HW123810   1.699   5.293   2.068
 7637SOL    HW223811   1.725   5.351   2.218
 7638SOL     OW23812   2.717   6.189   1.242
 7638SOL    HW123813   2.659   6.185   1.161
 7638SOL    HW223814   2.803   6.235   1.220
 7639SOL     OW23815   1.047   2.246   0.585
 7639SOL    HW123816   1.077   2.273   0.676
 7639SOL    HW223817   0.953   2.277   0.570
 7640SOL     OW23818   2.360   0.998   5.936
 7640SOL    HW123819   2.415   0.969   5.857
 7640SOL    HW223820   2.352   0.921   6.000
 7641SOL     OW23821   1.724   3.833   2.603
 7641SOL    HW123822   1.677   3.785   2.529
 7641SOL    HW223823   1.708   3.786   2.689
 7642SOL     OW23824   3.745   1.698   3.128
 7642SOL    HW123825   3.669   1.653   3.081
 7642SOL    HW223826   3.766   1.785   3.083
 7643SOL     OW23827   4.695   2.387   2.976
 7643SOL    HW123828   4.712   2.419   2.882
 7643SOL    HW223829   4.698   2.287   2.977
 7644SOL     OW23830   5.546   1.502   1.771
 7644SOL    HW123831   5.447   1.496   1.783
 7644SOL    HW223832   5.587   1.543   1.853
 7645SOL     OW23833   4.603   3.409   5.606
 7645SOL    HW123834   4.552   3.341   5.658
 7645SOL    HW223835   4.661   3.363   5.539
 7646SOL     OW23836   1.437   3.537   3.373
 7646SOL    HW123837   1.396   3.577   3.454
 7646SOL    HW223838   1.484   3.452   3.397
 7647SOL     OW23839   6.626   2.932   3.277
 7647SOL    HW123840   6.671   2.847   3.307
 7647SOL    HW223841   6.568   2.912   3.198
 7648SOL     OW23842   3.284   0.970   3.040
 7648SOL    HW123843   3.349   0.894   3.037
 7648SOL    HW223844   3.261   0.998   2.946
 7649SOL     OW23845   0.949   0.741   3.140
 7649SOL    HW123846   0.984   0.702   3.225
 7649SOL    HW223847   0.852   0.719   3.131
 7650SOL     OW23848   5.211   1.212   0.581
 7650SOL    HW123849   5.282   1.210   0.510
 7650SOL    HW223850   5.231   1.287   0.645
 7651SOL     OW23851   2.128   0.623   3.618
 7651SOL    HW123852   2.210   0.580   3.658
 7651SOL    HW223853   2.153   0.670   3.534
 7652SOL     OW23854   6.046   2.975   5.576
 7652SOL    HW123855   6.049   2.904   5.505
 7652SOL    HW223856   6.120   3.040   5.560
 7653SOL     OW23857   1.333   1.533   0.122
 7653SOL    HW123858   1.283   1.577   0.047
 7653SOL    HW223859   1.323   1.434   0.115
 7654SOL     OW23860   4.799   2.888   3.991
 7654SOL    HW123861   4.762   2.865   3.901
 7654SOL    HW223862   4.762   2.825   4.060
 7655SOL     OW23863   4.416   6.599   2.855
 7655SOL    HW123864   4.418   6.591   2.955
 7655SOL    HW223865   4.486   6.539   2.816
 7656SOL     OW23866   3.213   3.893   6.139
 7656SOL    HW123867   3.253   3.860   6.225
 7656SOL    HW223868   3.285   3.918   6.075
 7657SOL     OW23869   1.502   2.512   4.105
 7657SOL    HW123870   1.520   2.569   4.026
 7657SOL    HW223871   1.429   2.553   4.160
 7658SOL     OW23872   3.968   6.652   6.297
 7658SOL    HW123873   4.027   6.684   6.371
 7658SOL    HW223874   3.926   6.565   6.322
 7659SOL     OW23875   5.753   4.760   6.474
 7659SOL    HW123876   5.826   4.710   6.520
 7659SOL    HW223877   5.792   4.841   6.429
 7660SOL     OW23878   0.143   6.162   3.678
 7660SOL    HW123879   0.222   6.158   3.739
 7660SOL    HW223880   0.102   6.071   3.671
 7661SOL     OW23881   5.840   2.492   5.130
 7661SOL    HW123882   5.904   2.559   5.168
 7661SOL    HW223883   5.837   2.412   5.190
 7662SOL     OW23884   0.911   2.815   3.389
 7662SOL    HW123885   0.928   2.866   3.306
 7662SOL    HW223886   0.919   2.876   3.468
 7663SOL     OW23887   0.244   5.168   5.181
 7663SOL    HW123888   0.239   5.259   5.222
 7663SOL    HW223889   0.212   5.171   5.087
 7664SOL     OW23890   4.073   0.248   1.569
 7664SOL    HW123891   4.076   0.344   1.595
 7664SOL    HW223892   4.036   0.194   1.645
 7665SOL     OW23893   6.159   0.320   4.893
 7665SOL    HW123894   6.196   0.409   4.920
 7665SOL    HW223895   6.104   0.330   4.810
 7666SOL     OW23896   0.716   5.512   1.757
 7666SOL    HW123897   0.618   5.490   1.749
 7666SOL    HW223898   0.768   5.446   1.703
 7667SOL     OW23899   4.380   6.961   2.164
 7667SOL    HW123900   4.376   0.009   2.090
 7667SOL    HW223901   4.431   6.999   2.241
 7668SOL     OW23902   3.700   4.770   0.603
 7668SOL    HW123903   3.773   4.836   0.620
 7668SOL    HW223904   3.619   4.797   0.654
 7669SOL     OW23905   4.472   1.239   4.752
 7669SOL    HW123906   4.522   1.154   4.771
 7669SOL    HW223907   4.513   1.285   4.673
 7670SOL     OW23908   0.747   4.887   0.461
 7670SOL    HW123909   0.666   4.942   0.439
 7670SOL    HW223910   0.762   4.887   0.560
 7671SOL     OW23911   4.549   1.033   1.471
 7671SOL    HW123912   4.508   1.026   1.380
 7671SOL    HW223913   4.542   1.127   1.504
 7672SOL     OW23914   0.381   6.690   2.197
 7672SOL    HW123915   0.348   6.785   2.195
 7672SOL    HW223916   0.429   6.670   2.111
 7673SOL     OW23917   1.332   6.444   0.922
 7673SOL    HW123918   1.419   6.489   0.901
 7673SOL    HW223919   1.258   6.511   0.915
 7674SOL     OW23920   5.621   1.004   3.344
 7674SOL    HW123921   5.705   1.053   3.366
 7674SOL    HW223922   5.622   0.914   3.386
 7675SOL     OW23923   6.334   6.943   2.350
 7675SOL    HW123924   6.298   6.850   2.339
 7675SOL    HW223925   6.295   7.002   2.279
 7676SOL     OW23926   3.138   2.034   0.630
 7676SOL    HW123927   3.063   1.967   0.635
 7676SOL    HW223928   3.214   2.003   0.687
 7677SOL     OW23929   0.276   4.802   1.577
 7677SOL    HW123930   0.250   4.713   1.614
 7677SOL    HW223931   0.277   4.870   1.650
 7678SOL     OW23932   1.705   3.060   5.119
 7678SOL    HW123933   1.607   3.047   5.136
 7678SOL    HW223934   1.751   2.971   5.123
 7679SOL     OW23935   3.316   6.074   5.815
 7679SOL    HW123936   3.401   6.066   5.764
 7679SOL    HW223937   3.329   6.137   5.892
 7680SOL     OW23938   0.678   0.873   6.983
 7680SOL    HW123939   0.625   0.935   6.925
 7680SOL    HW223940   0.616   0.808   0.008
 7681SOL     OW23941   3.029   1.021   1.021
 7681SOL    HW123942   3.040   1.116   1.050
 7681SOL    HW223943   3.119   0.980   1.004
 7682SOL     OW23944   3.294   0.260   2.059
 7682SOL    HW123945   3.308   0.248   2.157
 7682SOL    HW223946   3.373   0.226   2.008
 7683SOL     OW23947   5.698   2.264   4.428
 7683SOL    HW123948   5.648   2.325   4.489
 7683SOL    HW223949   5.782   2.233   4.472
 7684SOL     OW23950   3.022   1.610   2.005
 7684SOL    HW123951   3.096   1.626   2.070
 7684SOL    HW223952   3.057   1.560   1.926
 7685SOL     OW23953   2.660   1.944   5.974
 7685SOL    HW123954   2.621   2.032   5.948
 7685SOL    HW223955   2.629   1.920   6.066
 7686SOL     OW23956   6.744   6.589   3.172
 7686SOL    HW123957   6.827   6.559   3.125
 7686SOL    HW223958   6.671   6.603   3.105
 7687SOL     OW23959   5.993   4.901   3.431
 7687SOL    HW123960   5.936   4.902   3.348
 7687SOL    HW223961   5.992   4.809   3.470
 7688SOL     OW23962   0.774   6.167   5.233
 7688SOL    HW123963   0.760   6.266   5.224
 7688SOL    HW223964   0.685   6.121   5.236
 7689SOL     OW23965   5.468   6.483   2.414
 7689SOL    HW123966   5.402   6.431   2.360
 7689SOL    HW223967   5.493   6.567   2.364
 7690SOL     OW23968   5.489   4.987   0.310
 7690SOL    HW123969   5.500   4.923   0.234
 7690SOL    HW223970   5.496   5.080   0.276
 7691SOL     OW23971   5.226   3.970   4.651
 7691SOL    HW123972   5.279   4.054   4.663
 7691SOL    HW223973   5.243   3.933   4.559
 7692SOL     OW23974   0.806   6.414   1.748
 7692SOL    HW123975   0.720   6.417   1.696
 7692SOL    HW223976   0.883   6.420   1.685
 7693SOL     OW23977   3.043   6.578   1.652
 7693SOL    HW123978   3.123   6.548   1.704
 7693SOL    HW223979   3.034   6.677   1.660
 7694SOL     OW23980   5.597   3.670   4.643
 7694SOL    HW123981   5.682   3.694   4.690
 7694SOL    HW223982   5.599   3.573   4.616
 7695SOL     OW23983   4.905   0.202   0.509
 7695SOL    HW123984   4.941   0.157   0.591
 7695SOL    HW223985   4.808   0.180   0.499
 7696SOL     OW23986   0.424   0.782   5.688
 7696SOL    HW123987   0.378   0.735   5.612
 7696SOL    HW223988   0.435   0.879   5.665
 7697SOL     OW23989   2.435   6.904   2.658
 7697SOL    HW123990   2.415   6.809   2.684
 7697SOL    HW223991   2.397   6.966   2.726
 7698SOL     OW23992   5.785   1.201   3.929
 7698SOL    HW123993   5.742   1.287   3.957
 7698SOL    HW223994   5.839   1.165   4.005
 7699SOL     OW23995   3.616   5.415   6.714
 7699SOL    HW123996   3.710   5.379   6.713
 7699SOL    HW223997   3.583   5.424   6.621
 7700SOL     OW23998   4.378   5.899   2.946
 7700SOL    HW123999   4.469   5.917   2.985
 7700SOL    HW224000   4.328   5.985   2.940
 7701SOL     OW24001   6.165   2.111   0.702
 7701SOL    HW124002   6.067   2.131   0.708
 7701SOL    HW224003   6.217   2.197   0.702
 7702SOL     OW24004   3.042   6.289   5.242
 7702SOL    HW124005   3.137   6.321   5.236
 7702SOL    HW224006   2.998   6.332   5.321
 7703SOL     OW24007   6.768   6.059   6.519
 7703SOL    HW124008   6.703   5.998   6.474
 7703SOL    HW224009   6.721   6.109   6.592
 7704SOL     OW24010   5.897   6.716   4.563
 7704SOL    HW124011   5.968   6.647   4.549
 7704SOL    HW224012   5.927   6.803   4.525
 7705SOL     OW24013   2.901   6.012   0.537
 7705SOL    HW124014   2.813   6.014   0.490
 7705SOL    HW224015   2.903   6.082   0.608
 7706SOL     OW24016   3.852   3.846   5.091
 7706SOL    HW124017   3.794   3.907   5.038
 7706SOL    HW224018   3.811   3.831   5.181
 7707SOL     OW24019   6.762   4.668   5.862
 7707SOL    HW124020   6.843   4.723   5.841
 7707SOL    HW224021   6.750   4.662   5.961
 7708SOL     OW24022   0.942   6.719   5.866
 7708SOL    HW124023   1.015   6.732   5.933
 7708SOL    HW224024   0.853   6.716   5.914
 7709SOL     OW24025   6.159   4.129   1.911
 7709SOL    HW124026   6.122   4.037   1.904
 7709SOL    HW224027   6.094   4.194   1.871
 7710SOL     OW24028   2.999   2.018   0.021
 7710SOL    HW124029   3.036   2.106   0.052
 7710SOL    HW224030   3.074   1.954   0.005
 7711SOL     OW24031   5.397   6.250   5.969
 7711SOL    HW124032   5.386   6.151   5.957
 7711SOL    HW224033   5.494   6.274   5.964
 7712SOL     OW24034   6.522   5.134   1.955
 7712SOL    HW124035   6.508   5.189   1.872
 7712SOL    HW224036   6.501   5.190   2.035
 7713SOL     OW24037   2.132   4.044   1.080
 7713SOL    HW124038   2.089   4.064   0.992
 7713SOL    HW224039   2.086   4.096   1.152
 7714SOL     OW24040   0.183   3.734   5.555
 7714SOL    HW124041   0.113   3.804   5.567
 7714SOL    HW224042   0.253   3.767   5.491
 7715SOL     OW24043   2.884   1.881   0.398
 7715SOL    HW124044   2.953   1.946   0.367
 7715SOL    HW224045   2.877   1.884   0.498
 7716SOL     OW24046   6.716   4.708   2.097
 7716SOL    HW124047   6.628   4.700   2.145
 7716SOL    HW224048   6.742   4.619   2.060
 7717SOL     OW24049   2.066   0.908   5.315
 7717SOL    HW124050   2.020   0.991   5.285
 7717SOL    HW224051   2.151   0.932   5.362
 7718SOL     OW24052   6.975   3.721   3.734
 7718SOL    HW124053   0.035   3.757   3.686
 7718SOL    HW224054   6.927   3.656   3.675
 7719SOL     OW24055   7.004   4.321   5.583
 7719SOL    HW124056   7.001   4.365   5.493
 7719SOL    HW224057   0.027   4.231   5.575
 7720SOL     OW24058   6.830   1.825   6.175
 7720SOL    HW124059   6.750   1.838   6.234
 7720SOL    HW224060   6.913   1.841   6.228
 7721SOL     OW24061   0.662   5.317   2.058
 7721SOL    HW124062   0.735   5.292   1.994
 7721SOL    HW224063   0.619   5.402   2.029
 7722SOL     OW24064   1.251   4.135   3.542
 7722SOL    HW124065   1.342   4.121   3.582
 7722SOL    HW224066   1.237   4.069   3.468
 7723SOL     OW24067   4.781   3.476   6.220
 7723SOL    HW124068   4.789   3.569   6.254
 7723SOL    HW224069   4.856   3.458   6.155
 7724SOL     OW24070   3.417   3.881   1.025
 7724SOL    HW124071   3.385   3.786   1.020
 7724SOL    HW224072   3.338   3.942   1.013
 7725SOL     OW24073   6.655   1.713   2.939
 7725SOL    HW124074   6.628   1.795   2.889
 7725SOL    HW224075   6.576   1.653   2.950
 7726SOL     OW24076   1.500   5.029   5.546
 7726SOL    HW124077   1.595   5.054   5.528
 7726SOL    HW224078   1.475   5.061   5.638
 7727SOL     OW24079   6.993   2.421   2.542
 7727SOL    HW124080   6.950   2.335   2.514
 7727SOL    HW224081   6.996   2.426   2.641
 7728SOL     OW24082   2.103   3.345   4.955
 7728SOL    HW124083   2.027   3.339   5.019
 7728SOL    HW224084   2.149   3.433   4.966
 7729SOL     OW24085   5.690   2.202   1.390
 7729SOL    HW124086   5.680   2.104   1.407
 7729SOL    HW224087   5.755   2.241   1.455
 7730SOL     OW24088   6.417   5.582   0.762
 7730SOL    HW124089   6.423   5.658   0.826
 7730SOL    HW224090   6.500   5.525   0.770
 7731SOL     OW24091   6.910   1.282   6.678
 7731SOL    HW124092   6.817   1.268   6.711
 7731SOL    HW224093   6.912   1.271   6.579
 7732SOL     OW24094   5.004   6.996   0.228
 7732SOL    HW124095   5.046   6.992   0.137
 7732SOL    HW224096   5.064   0.027   0.290
 7733SOL     OW24097   5.122   5.812   2.213
 7733SOL    HW124098   5.043   5.815   2.153
 7733SOL    HW224099   5.096   5.848   2.303
 7734SOL     OW24100   1.390   4.894   3.813
 7734SOL    HW124101   1.469   4.850   3.771
 7734SOL    HW224102   1.405   4.903   3.912
 7735SOL     OW24103   5.075   6.311   6.735
 7735SOL    HW124104   5.072   6.403   6.697
 7735SOL    HW224105   5.079   6.244   6.661
 7736SOL     OW24106   3.193   2.933   6.852
 7736SOL    HW124107   3.212   3.020   6.898
 7736SOL    HW224108   3.117   2.945   6.788
 7737SOL     OW24109   3.235   6.350   2.567
 7737SOL    HW124110   3.204   6.386   2.655
 7737SOL    HW224111   3.161   6.359   2.500
 7738SOL     OW24112   3.018   5.397   6.949
 7738SOL    HW124113   3.111   5.411   6.985
 7738SOL    HW224114   3.024   5.359   6.857
 7739SOL     OW24115   0.004   2.091   1.073
 7739SOL    HW124116   6.945   2.143   1.036
 7739SOL    HW224117   0.012   2.109   1.171
 7740SOL     OW24118   2.811   1.596   3.118
 7740SOL    HW124119   2.735   1.649   3.154
 7740SOL    HW224120   2.821   1.612   3.020
 7741SOL     OW24121   0.022   4.744   5.778
 7741SOL    HW124122   6.992   4.785   5.855
 7741SOL    HW224123   0.042   4.815   5.710
 7742SOL     OW24124   4.344   1.788   3.153
 7742SOL    HW124125   4.291   1.860   3.199
 7742SOL    HW224126   4.285   1.709   3.136
 7743SOL     OW24127   5.411   1.611   0.087
 7743SOL    HW124128   5.492   1.608   0.027
 7743SOL    HW224129   5.393   1.519   0.123
 7744SOL     OW24130   0.344   0.241   4.116
 7744SOL    HW124131   0.296   0.330   4.114
 7744SOL    HW224132   0.415   0.243   4.186
 7745SOL     OW24133   3.798   1.361   0.218
 7745SOL    HW124134   3.781   1.402   0.128
 7745SOL    HW224135   3.853   1.279   0.207
 7746SOL     OW24136   1.537   0.328   0.554
 7746SOL    HW124137   1.503   0.246   0.600
 7746SOL    HW224138   1.630   0.311   0.522
 7747SOL     OW24139   5.208   5.677   1.360
 7747SOL    HW124140   5.192   5.661   1.458
 7747SOL    HW224141   5.218   5.775   1.343
 7748SOL     OW24142   2.969   3.575   4.477
 7748SOL    HW124143   2.935   3.483   4.457
 7748SOL    HW224144   2.971   3.590   4.575
 7749SOL     OW24145   2.779   3.634   5.608
 7749SOL    HW124146   2.859   3.648   5.551
 7749SOL    HW224147   2.801   3.657   5.703
 7750SOL     OW24148   0.074   6.395   1.564
 7750SOL    HW124149   7.015   6.439   1.519
 7750SOL    HW224150   0.068   6.410   1.662
 7751SOL     OW24151   1.682   2.708   2.265
 7751SOL    HW124152   1.753   2.737   2.330
 7751SOL    HW224153   1.607   2.775   2.267
 7752SOL     OW24154   5.549   6.195   5.617
 7752SOL    HW124155   5.488   6.133   5.666
 7752SOL    HW224156   5.634   6.206   5.669
 7753SOL     OW24157   1.865   0.481   4.261
 7753SOL    HW124158   1.820   0.522   4.182
 7753SOL    HW224159   1.956   0.449   4.234
 7754SOL     OW24160   3.813   6.620   2.073
 7754SOL    HW124161   3.857   6.637   2.162
 7754SOL    HW224162   3.813   6.522   2.054
 7755SOL     OW24163   1.034   2.115   6.041
 7755SOL    HW124164   0.946   2.122   6.088
 7755SOL    HW224165   1.080   2.204   6.043
 7756SOL     OW24166   2.156   5.718   2.443
 7756SOL    HW124167   2.117   5.742   2.355
 7756SOL    HW224168   2.255   5.704   2.433
 7757SOL     OW24169   6.131   5.091   6.202
 7757SOL    HW124170   6.184   5.174   6.186
 7757SOL    HW224171   6.159   5.021   6.136
 7758SOL     OW24172   1.564   1.049   5.707
 7758SOL    HW124173   1.633   1.096   5.652
 7758SOL    HW224174   1.598   0.959   5.734
 7759SOL     OW24175   1.117   1.634   5.437
 7759SOL    HW124176   1.120   1.553   5.378
 7759SOL    HW224177   1.193   1.631   5.502
 7760SOL     OW24178   5.534   3.293   3.135
 7760SOL    HW124179   5.567   3.237   3.211
 7760SOL    HW224180   5.467   3.241   3.082
 7761SOL     OW24181   0.681   0.493   5.075
 7761SOL    HW124182   0.780   0.491   5.057
 7761SOL    HW224183   0.651   0.588   5.083
 7762SOL     OW24184   3.619   0.033   4.235
 7762SOL    HW124185   3.596   7.015   4.325
 7762SOL    HW224186   3.719   0.043   4.227
 7763SOL     OW24187   1.311   1.271   6.545
 7763SOL    HW124188   1.223   1.228   6.566
 7763SOL    HW224189   1.371   1.264   6.625
 7764SOL     OW24190   3.759   3.080   3.566
 7764SOL    HW124191   3.726   3.039   3.652
 7764SOL    HW224192   3.697   3.153   3.538
 7765SOL     OW24193   6.231   3.145   5.484
 7765SOL    HW124194   6.319   3.146   5.438
 7765SOL    HW224195   6.195   3.238   5.491
 7766SOL     OW24196   6.913   3.357   0.188
 7766SOL    HW124197   6.839   3.306   0.145
 7766SOL    HW224198   6.990   3.365   0.125
 7767SOL     OW24199   4.865   6.124   2.355
 7767SOL    HW124200   4.786   6.062   2.359
 7767SOL    HW224201   4.921   6.112   2.437
 7768SOL     OW24202   4.244   4.910   2.717
 7768SOL    HW124203   4.210   4.953   2.633
 7768SOL    HW224204   4.208   4.960   2.796
 7769SOL     OW24205   4.402   2.291   3.366
 7769SOL    HW124206   4.469   2.348   3.318
 7769SOL    HW224207   4.347   2.241   3.300
 7770SOL     OW24208   1.838   4.188   2.817
 7770SOL    HW124209   1.896   4.265   2.845
 7770SOL    HW224210   1.748   4.221   2.790
 7771SOL     OW24211   3.376   2.330   5.370
 7771SOL    HW124212   3.304   2.360   5.307
 7771SOL    HW224213   3.421   2.249   5.333
 7772SOL     OW24214   4.794   0.335   2.022
 7772SOL    HW124215   4.747   0.270   2.082
 7772SOL    HW224216   4.753   0.426   2.032
 7773SOL     OW24217   2.794   6.302   4.782
 7773SOL    HW124218   2.755   6.228   4.728
 7773SOL    HW224219   2.748   6.388   4.760
 7774SOL     OW24220   5.276   1.762   5.384
 7774SOL    HW124221   5.270   1.698   5.461
 7774SOL    HW224222   5.368   1.759   5.345
 7775SOL     OW24223   4.833   5.385   0.844
 7775SOL    HW124224   4.742   5.374   0.803
 7775SOL    HW224225   4.853   5.306   0.902
 7776SOL     OW24226   1.363   5.378   6.267
 7776SOL    HW124227   1.315   5.465   6.262
 7776SOL    HW224228   1.322   5.313   6.203
 7777SOL     OW24229   6.216   6.257   4.886
 7777SOL    HW124230   6.313   6.273   4.869
 7777SOL    HW224231   6.191   6.165   4.855
 7778SOL     OW24232   5.553   3.942   0.842
 7778SOL    HW124233   5.489   3.941   0.765
 7778SOL    HW224234   5.510   3.899   0.921
 7779SOL     OW24235   2.714   2.542   1.724
 7779SOL    HW124236   2.630   2.523   1.775
 7779SOL    HW224237   2.793   2.518   1.780
 7780SOL     OW24238   1.177   4.732   5.123
 7780SOL    HW124239   1.170   4.806   5.189
 7780SOL    HW224240   1.235   4.761   5.047
 7781SOL     OW24241   1.613   5.199   0.838
 7781SOL    HW124242   1.584   5.105   0.822
 7781SOL    HW224243   1.545   5.247   0.893
 7782SOL     OW24244   5.821   5.035   4.315
 7782SOL    HW124245   5.858   5.125   4.293
 7782SOL    HW224246   5.884   4.986   4.374
 7783SOL     OW24247   0.905   5.812   5.468
 7783SOL    HW124248   0.935   5.788   5.560
 7783SOL    HW224249   0.943   5.901   5.442
 7784SOL     OW24250   3.584   2.123   1.493
 7784SOL    HW124251   3.596   2.114   1.592
 7784SOL    HW224252   3.505   2.070   1.463
 7785SOL     OW24253   2.026   5.989   4.716
 7785SOL    HW124254   1.933   5.984   4.679
 7785SOL    HW224255   2.041   5.915   4.781
 7786SOL     OW24256   2.775   6.422   0.251
 7786SOL    HW124257   2.734   6.445   0.162
 7786SOL    HW224258   2.858   6.477   0.264
 7787SOL     OW24259   1.986   2.843   5.956
 7787SOL    HW124260   1.911   2.910   5.965
 7787SOL    HW224261   2.002   2.825   5.860
 7788SOL     OW24262   2.278   4.895   1.060
 7788SOL    HW124263   2.355   4.931   1.008
 7788SOL    HW224264   2.309   4.869   1.151
 7789SOL     OW24265   1.959   6.461   6.359
 7789SOL    HW124266   1.900   6.464   6.279
 7789SOL    HW224267   1.904   6.468   6.442
 7790SOL     OW24268   5.607   5.516   3.294
 7790SOL    HW124269   5.546   5.472   3.228
 7790SOL    HW224270   5.569   5.605   3.320
 7791SOL     OW24271   2.515   5.063   2.949
 7791SOL    HW124272   2.466   5.058   2.862
 7791SOL    HW224273   2.512   5.156   2.985
 7792SOL     OW24274   1.921   5.256   5.105
 7792SOL    HW124275   1.954   5.246   5.199
 7792SOL    HW224276   1.882   5.348   5.093
 7793SOL     OW24277   3.621   0.674   0.974
 7793SOL    HW124278   3.651   0.647   0.882
 7793SOL    HW224279   3.529   0.711   0.969
 7794SOL     OW24280   6.327   3.637   3.074
 7794SOL    HW124281   6.388   3.709   3.108
 7794SOL    HW224282   6.365   3.599   2.990
 7795SOL     OW24283   1.867   3.803   5.641
 7795SOL    HW124284   1.942   3.848   5.689
 7795SOL    HW224285   1.896   3.782   5.547
 7796SOL     OW24286   4.046   3.101   3.698
 7796SOL    HW124287   4.086   3.184   3.658
 7796SOL    HW224288   3.966   3.074   3.645
 7797SOL     OW24289   1.918   0.134   1.711
 7797SOL    HW124290   1.963   0.093   1.790
 7797SOL    HW224291   1.909   0.233   1.725
 7798SOL     OW24292   2.068   3.700   4.769
 7798SOL    HW124293   2.132   3.689   4.845
 7798SOL    HW224294   2.106   3.765   4.703
 7799SOL     OW24295   1.329   6.240   2.150
 7799SOL    HW124296   1.338   6.189   2.065
 7799SOL    HW224297   1.263   6.193   2.209
 7800SOL     OW24298   1.090   5.857   1.604
 7800SOL    HW124299   1.065   5.780   1.662
 7800SOL    HW224300   1.064   5.837   1.509
 7801SOL     OW24301   2.857   1.940   2.306
 7801SOL    HW124302   2.804   1.980   2.381
 7801SOL    HW224303   2.798   1.877   2.254
 7802SOL     OW24304   5.400   2.986   0.997
 7802SOL    HW124305   5.417   2.905   1.054
 7802SOL    HW224306   5.465   3.058   1.022
 7803SOL     OW24307   4.490   2.261   5.971
 7803SOL    HW124308   4.574   2.301   6.008
 7803SOL    HW224309   4.511   2.210   5.888
 7804SOL     OW24310   4.261   2.001   4.611
 7804SOL    HW124311   4.190   2.049   4.560
 7804SOL    HW224312   4.348   2.050   4.602
 7805SOL     OW24313   5.670   2.557   1.560
 7805SOL    HW124314   5.703   2.513   1.477
 7805SOL    HW224315   5.583   2.515   1.587
 7806SOL     OW24316   6.597   1.808   0.301
 7806SOL    HW124317   6.500   1.824   0.281
 7806SOL    HW224318   6.616   1.834   0.396
 7807SOL     OW24319   1.017   4.948   5.711
 7807SOL    HW124320   1.045   4.852   5.707
 7807SOL    HW224321   0.925   4.955   5.751
 7808SOL     OW24322   6.010   3.757   4.593
 7808SOL    HW124323   6.053   3.810   4.520
 7808SOL    HW224324   6.044   3.663   4.590
 7809SOL     OW24325   3.222   5.052   4.359
 7809SOL    HW124326   3.258   4.981   4.419
 7809SOL    HW224327   3.168   5.010   4.286
 7810SOL     OW24328   3.334   0.375   4.579
 7810SOL    HW124329   3.313   0.328   4.494
 7810SOL    HW224330   3.299   0.469   4.574
 7811SOL     OW24331   1.763   5.838   1.563
 7811SOL    HW124332   1.777   5.932   1.531
 7811SOL    HW224333   1.673   5.806   1.533
 7812SOL     OW24334   0.096   2.123   4.131
 7812SOL    HW124335   0.131   2.118   4.038
 7812SOL    HW224336   0.008   2.075   4.136
 7813SOL     OW24337   4.611   2.631   0.598
 7813SOL    HW124338   4.690   2.649   0.539
 7813SOL    HW224339   4.641   2.584   0.681
 7814SOL     OW24340   0.493   3.878   3.791
 7814SOL    HW124341   0.447   3.965   3.774
 7814SOL    HW224342   0.502   3.864   3.890
 7815SOL     OW24343   5.995   1.340   5.064
 7815SOL    HW124344   6.013   1.427   5.110
 7815SOL    HW224345   6.080   1.287   5.060
 7816SOL     OW24346   1.665   2.395   5.913
 7816SOL    HW124347   1.737   2.451   5.871
 7816SOL    HW224348   1.611   2.451   5.975
 7817SOL     OW24349   4.693   4.505   3.852
 7817SOL    HW124350   4.791   4.495   3.833
 7817SOL    HW224351   4.674   4.598   3.883
 7818SOL     OW24352   4.517   0.557   2.013
 7818SOL    HW124353   4.475   0.529   2.100
 7818SOL    HW224354   4.615   0.573   2.027
 7819SOL     OW24355   6.878   4.173   2.990
 7819SOL    HW124356   6.855   4.187   3.087
 7819SOL    HW224357   6.922   4.084   2.979
 7820SOL     OW24358   1.082   1.550   5.726
 7820SOL    HW124359   0.983   1.559   5.737
 7820SOL    HW224360   1.128   1.602   5.798
 7821SOL     OW24361   5.813   5.567   0.045
 7821SOL    HW124362   5.878   5.643   0.053
 7821SOL    HW224363   5.853   5.484   0.082
 7822SOL     OW24364   1.176   1.591   6.822
 7822SOL    HW124365   1.126   1.505   6.825
 7822SOL    HW224366   1.225   1.598   6.735
 7823SOL     OW24367   2.855   3.945   5.271
 7823SOL    HW124368   2.819   3.876   5.208
 7823SOL    HW224369   2.787   4.018   5.282
 7824SOL     OW24370   5.879   1.043   3.712
 7824SOL    HW124371   5.832   0.957   3.733
 7824SOL    HW224372   5.838   1.117   3.765
 7825SOL     OW24373   1.121   2.972   0.683
 7825SOL    HW124374   1.113   2.956   0.585
 7825SOL    HW224375   1.093   2.891   0.733
 7826SOL     OW24376   6.101   1.396   0.261
 7826SOL    HW124377   6.047   1.368   0.182
 7826SOL    HW224378   6.092   1.495   0.274
 7827SOL     OW24379   3.058   4.838   1.380
 7827SOL    HW124380   3.090   4.810   1.290
 7827SOL    HW224381   2.996   4.768   1.417
 7828SOL     OW24382   0.938   5.060   0.290
 7828SOL    HW124383   0.893   4.997   0.353
 7828SOL    HW224384   0.898   5.051   0.199
 7829SOL     OW24385   1.717   3.073   0.886
 7829SOL    HW124386   1.656   3.000   0.917
 7829SOL    HW224387   1.811   3.051   0.912
 7830SOL     OW24388   2.714   4.492   5.920
 7830SOL    HW124389   2.676   4.448   6.001
 7830SOL    HW224390   2.641   4.511   5.854
 7831SOL     OW24391   1.676   5.953   1.030
 7831SOL    HW124392   1.689   5.902   1.115
 7831SOL    HW224393   1.671   6.050   1.050
 7832SOL     OW24394   4.509   1.001   3.523
 7832SOL    HW124395   4.478   1.093   3.500
 7832SOL    HW224396   4.601   0.987   3.487
 7833SOL     OW24397   0.811   0.690   6.382
 7833SOL    HW124398   0.845   0.604   6.343
 7833SOL    HW224399   0.777   0.749   6.308
 7834SOL     OW24400   6.387   1.116   3.630
 7834SOL    HW124401   6.288   1.103   3.638
 7834SOL    HW224402   6.411   1.207   3.664
 7835SOL     OW24403   2.913   1.822   5.147
 7835SOL    HW124404   2.959   1.859   5.067
 7835SOL    HW224405   2.814   1.823   5.132
 7836SOL     OW24406   3.579   2.836   4.909
 7836SOL    HW124407   3.635   2.754   4.924
 7836SOL    HW224408   3.507   2.840   4.978
 7837SOL     OW24409   6.020   5.984   1.126
 7837SOL    HW124410   6.050   5.997   1.032
 7837SOL    HW224411   6.036   5.889   1.153
 7838SOL     OW24412   4.782   0.001   7.000
 7838SOL    HW124413   4.726   0.019   0.063
 7838SOL    HW224414   4.723   0.003   6.919
 7839SOL     OW24415   6.055   4.018   5.583
 7839SOL    HW124416   6.089   4.077   5.510
 7839SOL    HW224417   6.056   3.923   5.552
 7840SOL     OW24418   6.277   2.931   4.055
 7840SOL    HW124419   6.222   2.945   3.973
 7840SOL    HW224420   6.216   2.914   4.133
 7841SOL     OW24421   3.919   1.953   6.755
 7841SOL    HW124422   3.848   1.993   6.696
 7841SOL    HW224423   3.894   1.966   6.851
 7842SOL     OW24424   1.845   2.055   2.761
 7842SOL    HW124425   1.905   1.979   2.786
 7842SOL    HW224426   1.892   2.113   2.693
 7843SOL     OW24427   5.680   5.367   2.501
 7843SOL    HW124428   5.629   5.451   2.483
 7843SOL    HW224429   5.763   5.367   2.446
 7844SOL     OW24430   3.975   6.325   2.224
 7844SOL    HW124431   3.882   6.330   2.188
 7844SOL    HW224432   3.974   6.340   2.322
 7845SOL     OW24433   5.326   1.838   3.816
 7845SOL    HW124434   5.324   1.769   3.888
 7845SOL    HW224435   5.245   1.897   3.823
 7846SOL     OW24436   1.217   1.042   2.989
 7846SOL    HW124437   1.161   1.016   2.911
 7846SOL    HW224438   1.205   0.977   3.064
 7847SOL     OW24439   0.034   1.778   2.960
 7847SOL    HW124440   0.060   1.687   2.991
 7847SOL    HW224441   6.993   1.770   2.880
 7848SOL     OW24442   3.570   3.358   0.427
 7848SOL    HW124443   3.619   3.277   0.394
 7848SOL    HW224444   3.497   3.382   0.364
 7849SOL     OW24445   5.677   4.034   3.070
 7849SOL    HW124446   5.601   3.982   3.109
 7849SOL    HW224447   5.761   3.981   3.077
 7850SOL     OW24448   0.150   2.029   5.284
 7850SOL    HW124449   0.104   2.063   5.202
 7850SOL    HW224450   0.100   2.058   5.365
 7851SOL     OW24451   6.675   1.191   1.960
 7851SOL    HW124452   6.614   1.191   1.881
 7851SOL    HW224453   6.691   1.096   1.990
 7852SOL     OW24454   2.372   1.496   5.480
 7852SOL    HW124455   2.395   1.538   5.568
 7852SOL    HW224456   2.337   1.403   5.496
 7853SOL     OW24457   4.556   2.159   1.407
 7853SOL    HW124458   4.584   2.169   1.312
 7853SOL    HW224459   4.613   2.090   1.452
 7854SOL     OW24460   3.589   3.899   0.090
 7854SOL    HW124461   3.651   3.960   0.041
 7854SOL    HW224462   3.635   3.813   0.109
 7855SOL     OW24463   4.090   5.305   5.327
 7855SOL    HW124464   4.043   5.357   5.255
 7855SOL    HW224465   4.172   5.355   5.356
 7856SOL     OW24466   6.320   4.444   5.388
 7856SOL    HW124467   6.366   4.446   5.477
 7856SOL    HW224468   6.281   4.535   5.369
 7857SOL     OW24469   5.561   2.106   5.106
 7857SOL    HW124470   5.617   2.163   5.165
 7857SOL    HW224471   5.481   2.074   5.156
 7858SOL     OW24472   5.309   5.764   3.667
 7858SOL    HW124473   5.314   5.665   3.680
 7858SOL    HW224474   5.226   5.787   3.616
 7859SOL     OW24475   5.464   2.466   6.565
 7859SOL    HW124476   5.479   2.460   6.467
 7859SOL    HW224477   5.514   2.544   6.602
 7860SOL     OW24478   4.252   0.079   2.500
 7860SOL    HW124479   4.232   0.168   2.458
 7860SOL    HW224480   4.168   0.024   2.503
 7861SOL     OW24481   3.769   5.108   1.754
 7861SOL    HW124482   3.674   5.091   1.780
 7861SOL    HW224483   3.829   5.050   1.810
 7862SOL     OW24484   3.111   3.723   1.708
 7862SOL    HW124485   3.152   3.798   1.656
 7862SOL    HW224486   3.090   3.755   1.801
 7863SOL     OW24487   0.421   5.732   3.732
 7863SOL    HW124488   0.380   5.791   3.802
 7863SOL    HW224489   0.349   5.687   3.680
 7864SOL     OW24490   0.543   5.568   5.352
 7864SOL    HW124491   0.590   5.651   5.382
 7864SOL    HW224492   0.537   5.567   5.252
 7865SOL     OW24493   5.709   6.611   4.384
 7865SOL    HW124494   5.781   6.638   4.447
 7865SOL    HW224495   5.670   6.524   4.413
 7866SOL     OW24496   1.543   1.927   6.473
 7866SOL    HW124497   1.586   1.851   6.522
 7866SOL    HW224498   1.460   1.895   6.427
 7867SOL     OW24499   5.461   6.723   3.172
 7867SOL    HW124500   5.383   6.665   3.193
 7867SOL    HW224501   5.516   6.681   3.100
 7868SOL     OW24502   5.626   6.781   1.939
 7868SOL    HW124503   5.540   6.821   1.972
 7868SOL    HW224504   5.621   6.767   1.840
 7869SOL     OW24505   6.241   3.816   0.227
 7869SOL    HW124506   6.219   3.749   0.297
 7869SOL    HW224507   6.340   3.831   0.225
 7870SOL     OW24508   3.874   4.965   4.359
 7870SOL    HW124509   3.943   5.027   4.396
 7870SOL    HW224510   3.918   4.898   4.300
 7871SOL     OW24511   4.948   2.754   2.525
 7871SOL    HW124512   4.920   2.792   2.437
 7871SOL    HW224513   5.006   2.820   2.573
 7872SOL     OW24514   2.433   4.538   3.452
 7872SOL    HW124515   2.456   4.545   3.548
 7872SOL    HW224516   2.514   4.553   3.396
 7873SOL     OW24517   5.362   0.510   5.985
 7873SOL    HW124518   5.341   0.423   6.031
 7873SOL    HW224519   5.417   0.567   6.045
 7874SOL     OW24520   5.652   1.824   0.603
 7874SOL    HW124521   5.587   1.840   0.678
 7874SOL    HW224522   5.628   1.882   0.525
 7875SOL     OW24523   5.892   2.237   6.717
 7875SOL    HW124524   5.913   2.197   6.627
 7875SOL    HW224525   5.848   2.167   6.774
 7876SOL     OW24526   0.278   7.009   4.395
 7876SOL    HW124527   0.273   6.989   4.493
 7876SOL    HW224528   0.364   6.974   4.358
 7877SOL     OW24529   0.705   2.506   2.739
 7877SOL    HW124530   0.757   2.580   2.781
 7877SOL    HW224531   0.673   2.535   2.649
 7878SOL     OW24532   5.549   5.066   4.259
 7878SOL    HW124533   5.643   5.058   4.291
 7878SOL    HW224534   5.525   5.163   4.250
 7879SOL     OW24535   4.559   5.412   4.386
 7879SOL    HW124536   4.515   5.337   4.336
 7879SOL    HW224537   4.547   5.398   4.484
 7880SOL     OW24538   2.017   4.903   1.210
 7880SOL    HW124539   1.979   4.979   1.263
 7880SOL    HW224540   2.107   4.928   1.175
 7881SOL     OW24541   5.901   4.528   4.542
 7881SOL    HW124542   5.875   4.433   4.554
 7881SOL    HW224543   5.836   4.574   4.482
 7882SOL     OW24544   0.746   3.152   3.172
 7882SOL    HW124545   0.832   3.113   3.139
 7882SOL    HW224546   0.679   3.152   3.098
 7883SOL     OW24547   1.039   0.473   0.684
 7883SOL    HW124548   1.117   0.524   0.647
 7883SOL    HW224549   1.072   0.396   0.738
 7884SOL     OW24550   1.748   4.084   3.895
 7884SOL    HW124551   1.696   4.064   3.812
 7884SOL    HW224552   1.832   4.134   3.871
 7885SOL     OW24553   6.226   5.602   1.605
 7885SOL    HW124554   6.304   5.581   1.547
 7885SOL    HW224555   6.142   5.600   1.551
 7886SOL     OW24556   3.292   5.712   0.389
 7886SOL    HW124557   3.256   5.651   0.459
 7886SOL    HW224558   3.230   5.714   0.311
 7887SOL     OW24559   3.355   2.624   5.305
 7887SOL    HW124560   3.283   2.575   5.256
 7887SOL    HW224561   3.360   2.591   5.400
 7888SOL     OW24562   6.292   6.612   5.248
 7888SOL    HW124563   6.195   6.588   5.237
 7888SOL    HW224564   6.321   6.593   5.341
 7889SOL     OW24565   1.163   4.823   0.863
 7889SOL    HW124566   1.086   4.765   0.891
 7889SOL    HW224567   1.167   4.827   0.764
 7890SOL     OW24568   0.393   3.630   3.632
 7890SOL    HW124569   0.372   3.710   3.688
 7890SOL    HW224570   0.321   3.616   3.564
 7891SOL     OW24571   2.487   4.472   4.183
 7891SOL    HW124572   2.426   4.439   4.256
 7891SOL    HW224573   2.478   4.412   4.103
 7892SOL     OW24574   2.090   1.442   3.726
 7892SOL    HW124575   2.013   1.422   3.786
 7892SOL    HW224576   2.078   1.393   3.640
 7893SOL     OW24577   6.605   6.248   2.054
 7893SOL    HW124578   6.572   6.285   1.967
 7893SOL    HW224579   6.704   6.258   2.059
 7894SOL     OW24580   3.827   6.324   0.566
 7894SOL    HW124581   3.769   6.386   0.513
 7894SOL    HW224582   3.905   6.296   0.510
 7895SOL     OW24583   5.457   0.625   5.550
 7895SOL    HW124584   5.440   0.723   5.538
 7895SOL    HW224585   5.551   0.611   5.582
 7896SOL     OW24586   3.800   3.384   1.240
 7896SOL    HW124587   3.844   3.447   1.304
 7896SOL    HW224588   3.729   3.434   1.189
 7897SOL     OW24589   3.136   2.803   0.448
 7897SOL    HW124590   3.056   2.743   0.450
 7897SOL    HW224591   3.113   2.887   0.398
 7898SOL     OW24592   4.040   1.610   3.505
 7898SOL    HW124593   4.007   1.670   3.432
 7898SOL    HW224594   3.977   1.614   3.582
 7899SOL     OW24595   5.960   6.922   1.115
 7899SOL    HW124596   5.904   6.851   1.072
 7899SOL    HW224597   5.999   6.887   1.200
 7900SOL     OW24598   1.441   5.207   2.000
 7900SOL    HW124599   1.457   5.203   2.099
 7900SOL    HW224600   1.352   5.249   1.982
 7901SOL     OW24601   4.553   1.138   6.075
 7901SOL    HW124602   4.454   1.120   6.084
 7901SOL    HW224603   4.593   1.146   6.166
 7902SOL     OW24604   6.309   6.896   1.129
 7902SOL    HW124605   6.279   6.976   1.181
 7902SOL    HW224606   6.321   6.819   1.191
 7903SOL     OW24607   5.244   1.406   1.397
 7903SOL    HW124608   5.177   1.359   1.339
 7903SOL    HW224609   5.208   1.495   1.425
 7904SOL     OW24610   5.808   0.014   3.597
 7904SOL    HW124611   5.779   0.003   3.501
 7904SOL    HW224612   5.888   6.976   3.614
 7905SOL     OW24613   5.566   1.704   0.291
 7905SOL    HW124614   5.502   1.688   0.216
 7905SOL    HW224615   5.570   1.802   0.311
 7906SOL     OW24616   0.268   5.469   1.132
 7906SOL    HW124617   0.318   5.458   1.046
 7906SOL    HW224618   0.197   5.538   1.120
 7907SOL     OW24619   5.275   1.713   2.615
 7907SOL    HW124620   5.188   1.708   2.662
 7907SOL    HW224621   5.350   1.709   2.682
 7908SOL     OW24622   1.724   0.792   5.441
 7908SOL    HW124623   1.641   0.808   5.388
 7908SOL    HW224624   1.700   0.784   5.538
 7909SOL     OW24625   5.230   4.618   4.488
 7909SOL    HW124626   5.290   4.607   4.568
 7909SOL    HW224627   5.271   4.572   4.409
 7910SOL     OW24628   2.849   3.720   5.882
 7910SOL    HW124629   2.885   3.805   5.920
 7910SOL    HW224630   2.785   3.679   5.946
 7911SOL     OW24631   1.986   4.123   0.166
 7911SOL    HW124632   1.959   4.212   0.203
 7911SOL    HW224633   2.067   4.133   0.109
 7912SOL     OW24634   6.593   4.667   0.947
 7912SOL    HW124635   6.589   4.751   1.002
 7912SOL    HW224636   6.652   4.600   0.993
 7913SOL     OW24637   1.199   4.708   1.701
 7913SOL    HW124638   1.278   4.738   1.649
 7913SOL    HW224639   1.135   4.784   1.712
 7914SOL     OW24640   0.526   4.289   0.214
 7914SOL    HW124641   0.513   4.231   0.134
 7914SOL    HW224642   0.443   4.288   0.269
 7915SOL     OW24643   4.995   2.702   1.814
 7915SOL    HW124644   4.954   2.771   1.755
 7915SOL    HW224645   4.924   2.643   1.852
 7916SOL     OW24646   1.141   4.999   5.260
 7916SOL    HW124647   1.076   4.944   5.314
 7916SOL    HW224648   1.152   5.089   5.302
 7917SOL     OW24649   3.403   3.235   4.583
 7917SOL    HW124650   3.498   3.243   4.611
 7917SOL    HW224651   3.395   3.255   4.485
 7918SOL     OW24652   0.577   1.312   5.188
 7918SOL    HW124653   0.521   1.390   5.161
 7918SOL    HW224654   0.553   1.232   5.132
 7919SOL     OW24655   2.374   4.578   3.089
 7919SOL    HW124656   2.302   4.523   3.132
 7919SOL    HW224657   2.464   4.545   3.118
 7920SOL     OW24658   0.165   6.722   0.442
 7920SOL    HW124659   0.211   6.785   0.505
 7920SOL    HW224660   0.233   6.679   0.383
 7921SOL     OW24661   5.284   5.929   1.252
 7921SOL    HW124662   5.279   5.959   1.157
 7921SOL    HW224663   5.260   6.006   1.312
 7922SOL     OW24664   0.024   6.449   0.837
 7922SOL    HW124665   0.029   6.536   0.887
 7922SOL    HW224666   7.019   6.467   0.742
 7923SOL     OW24667   3.485   0.155   1.064
 7923SOL    HW124668   3.386   0.155   1.071
 7923SOL    HW224669   3.525   0.133   1.154
 7924SOL     OW24670   4.823   6.889   1.749
 7924SOL    HW124671   4.796   6.890   1.845
 7924SOL    HW224672   4.756   6.940   1.695
 7925SOL     OW24673   1.308   1.417   6.129
 7925SOL    HW124674   1.392   1.383   6.088
 7925SOL    HW224675   1.243   1.342   6.140
 7926SOL     OW24676   4.523   1.671   5.456
 7926SOL    HW124677   4.541   1.602   5.527
 7926SOL    HW224678   4.509   1.760   5.499
 7927SOL     OW24679   4.582   5.527   2.680
 7927SOL    HW124680   4.585   5.626   2.694
 7927SOL    HW224681   4.660   5.485   2.726
 7928SOL     OW24682   0.997   1.649   5.040
 7928SOL    HW124683   0.990   1.594   4.957
 7928SOL    HW224684   1.030   1.592   5.115
 7929SOL     OW24685   4.828   4.300   5.728
 7929SOL    HW124686   4.829   4.263   5.635
 7929SOL    HW224687   4.745   4.355   5.741
 7930SOL     OW24688   4.294   5.454   4.728
 7930SOL    HW124689   4.277   5.413   4.818
 7930SOL    HW224690   4.392   5.454   4.709
 7931SOL     OW24691   2.686   2.824   0.213
 7931SOL    HW124692   2.738   2.843   0.130
 7931SOL    HW224693   2.622   2.749   0.196
 7932SOL     OW24694   1.253   6.226   6.704
 7932SOL    HW124695   1.169   6.253   6.658
 7932SOL    HW224696   1.243   6.239   6.803
 7933SOL     OW24697   0.307   6.090   5.863
 7933SOL    HW124698   0.391   6.142   5.847
 7933SOL    HW224699   0.236   6.122   5.800
 7934SOL     OW24700   1.778   4.837   0.052
 7934SOL    HW124701   1.856   4.879   0.098
 7934SOL    HW224702   1.782   4.856   6.973
 7935SOL     OW24703   5.821   5.832   0.824
 7935SOL    HW124704   5.771   5.822   0.738
 7935SOL    HW224705   5.847   5.741   0.859
 7936SOL     OW24706   3.522   5.902   2.924
 7936SOL    HW124707   3.545   5.916   2.827
 7936SOL    HW224708   3.583   5.833   2.963
 7937SOL     OW24709   6.277   6.483   3.538
 7937SOL    HW124710   6.352   6.451   3.595
 7937SOL    HW224711   6.311   6.551   3.473
 7938SOL     OW24712   6.903   5.647   3.567
 7938SOL    HW124713   6.855   5.629   3.653
 7938SOL    HW224714   6.967   5.572   3.549
 7939SOL     OW24715   1.445   2.770   4.758
 7939SOL    HW124716   1.434   2.851   4.700
 7939SOL    HW224717   1.523   2.783   4.818
 7940SOL     OW24718   1.871   3.377   1.618
 7940SOL    HW124719   1.801   3.352   1.551
 7940SOL    HW224720   1.850   3.334   1.706
 7941SOL     OW24721   5.398   0.908   1.409
 7941SOL    HW124722   5.417   0.975   1.481
 7941SOL    HW224723   5.450   0.825   1.426
 7942SOL     OW24724   6.370   5.991   2.477
 7942SOL    HW124725   6.392   6.088   2.478
 7942SOL    HW224726   6.454   5.938   2.490
 7943SOL     OW24727   5.977   3.466   0.197
 7943SOL    HW124728   5.944   3.489   0.105
 7943SOL    HW224729   6.077   3.472   0.198
 7944SOL     OW24730   0.534   2.241   1.447
 7944SOL    HW124731   0.549   2.144   1.427
 7944SOL    HW224732   0.568   2.262   1.538
 7945SOL     OW24733   5.929   5.100   1.050
 7945SOL    HW124734   5.847   5.057   1.011
 7945SOL    HW224735   5.904   5.185   1.096
 7946SOL     OW24736   2.971   0.538   5.391
 7946SOL    HW124737   3.053   0.481   5.381
 7946SOL    HW224738   2.977   0.615   5.328
 7947SOL     OW24739   3.547   2.196   6.218
 7947SOL    HW124740   3.575   2.287   6.247
 7947SOL    HW224741   3.533   2.195   6.119
 7948SOL     OW24742   0.943   0.129   1.131
 7948SOL    HW124743   0.895   0.158   1.048
 7948SOL    HW224744   0.978   0.210   1.179
 7949SOL     OW24745   4.511   4.610   4.760
 7949SOL    HW124746   4.463   4.582   4.677
 7949SOL    HW224747   4.445   4.615   4.836
 7950SOL     OW24748   4.974   5.238   4.295
 7950SOL    HW124749   4.985   5.332   4.261
 7950SOL    HW224750   4.900   5.236   4.362
 7951SOL     OW24751   1.936   4.023   1.890
 7951SOL    HW124752   2.019   4.031   1.944
 7951SOL    HW224753   1.954   4.053   1.796
 7952SOL     OW24754   0.249   3.571   0.102
 7952SOL    HW124755   0.267   3.549   0.197
 7952SOL    HW224756   0.334   3.564   0.049
 7953SOL     OW24757   2.754   2.012   4.013
 7953SOL    HW124758   2.719   2.053   4.097
 7953SOL    HW224759   2.821   2.074   3.971
 7954SOL     OW24760   3.291   4.158   6.750
 7954SOL    HW124761   3.224   4.167   6.676
 7954SOL    HW224762   3.325   4.248   6.775
 7955SOL     OW24763   1.562   0.177   6.478
 7955SOL    HW124764   1.543   0.246   6.409
 7955SOL    HW224765   1.570   0.220   6.568
 7956SOL     OW24766   3.564   6.121   2.022
 7956SOL    HW124767   3.487   6.181   2.006
 7956SOL    HW224768   3.648   6.175   2.031
 7957SOL     OW24769   1.112   1.139   1.763
 7957SOL    HW124770   1.130   1.102   1.672
 7957SOL    HW224771   1.013   1.140   1.779
 7958SOL     OW24772   3.481   5.175   4.570
 7958SOL    HW124773   3.433   5.096   4.531
 7958SOL    HW224774   3.576   5.173   4.540
 7959SOL     OW24775   4.506   5.618   0.801
 7959SOL    HW124776   4.477   5.629   0.706
 7959SOL    HW224777   4.578   5.683   0.822
 7960SOL     OW24778   2.626   0.957   6.434
 7960SOL    HW124779   2.582   0.876   6.395
 7960SOL    HW224780   2.652   0.939   6.529
 7961SOL     OW24781   7.013   0.941   0.657
 7961SOL    HW124782   0.034   1.016   0.710
 7961SOL    HW224783   6.958   0.979   0.582
 7962SOL     OW24784   1.065   0.773   6.496
 7962SOL    HW124785   1.138   0.750   6.432
 7962SOL    HW224786   0.978   0.741   6.460
 7963SOL     OW24787   6.331   6.117   4.583
 7963SOL    HW124788   6.290   6.126   4.492
 7963SOL    HW224789   6.430   6.120   4.575
 7964SOL     OW24790   0.479   4.738   2.254
 7964SOL    HW124791   0.493   4.776   2.345
 7964SOL    HW224792   0.425   4.802   2.199
 7965SOL     OW24793   4.015   2.013   5.941
 7965SOL    HW124794   3.932   1.960   5.958
 7965SOL    HW224795   4.067   2.021   6.026
 7966SOL     OW24796   1.794   2.653   6.183
 7966SOL    HW124797   1.801   2.630   6.086
 7966SOL    HW224798   1.820   2.573   6.238
 7967SOL     OW24799   3.047   6.671   3.228
 7967SOL    HW124800   3.116   6.619   3.277
 7967SOL    HW224801   3.088   6.715   3.148
 7968SOL     OW24802   1.550   2.675   3.884
 7968SOL    HW124803   1.602   2.613   3.826
 7968SOL    HW224804   1.607   2.753   3.910
 7969SOL     OW24805   4.020   6.329   0.178
 7969SOL    HW124806   3.977   6.399   0.235
 7969SOL    HW224807   4.042   6.368   0.088
 7970SOL     OW24808   6.055   2.865   2.851
 7970SOL    HW124809   6.133   2.821   2.807
 7970SOL    HW224810   6.087   2.939   2.910
 7971SOL     OW24811   3.493   2.025   0.475
 7971SOL    HW124812   3.425   1.952   0.478
 7971SOL    HW224813   3.477   2.090   0.550
 7972SOL     OW24814   2.017   3.325   0.589
 7972SOL    HW124815   1.923   3.300   0.567
 7972SOL    HW224816   2.019   3.418   0.628
 7973SOL     OW24817   4.205   4.757   4.397
 7973SOL    HW124818   4.261   4.832   4.432
 7973SOL    HW224819   4.122   4.749   4.453
 7974SOL     OW24820   5.811   1.286   5.383
 7974SOL    HW124821   5.722   1.312   5.348
 7974SOL    HW224822   5.842   1.202   5.338
 7975SOL     OW24823   6.144   1.513   2.685
 7975SOL    HW124824   6.181   1.606   2.686
 7975SOL    HW224825   6.207   1.451   2.732
 7976SOL     OW24826   0.336   0.235   6.004
 7976SOL    HW124827   0.331   0.202   6.098
 7976SOL    HW224828   0.252   0.210   5.956
 7977SOL     OW24829   4.523   6.247   2.137
 7977SOL    HW124830   4.495   6.170   2.079
 7977SOL    HW224831   4.502   6.333   2.091
 7978SOL     OW24832   5.914   3.728   6.650
 7978SOL    HW124833   5.965   3.680   6.578
 7978SOL    HW224834   5.978   3.768   6.716
 7979SOL     OW24835   4.374   5.983   5.172
 7979SOL    HW124836   4.296   6.028   5.128
 7979SOL    HW224837   4.450   6.048   5.180
 7980SOL     OW24838   2.780   5.501   6.887
 7980SOL    HW124839   2.863   5.455   6.919
 7980SOL    HW224840   2.732   5.541   6.965
 7981SOL     OW24841   0.446   5.695   1.476
 7981SOL    HW124842   0.488   5.628   1.415
 7981SOL    HW224843   0.349   5.672   1.489
 7982SOL     OW24844   0.834   1.245   6.975
 7982SOL    HW124845   0.893   1.310   6.928
 7982SOL    HW224846   0.883   1.158   6.986
 7983SOL     OW24847   6.175   2.034   1.837
 7983SOL    HW124848   6.233   1.976   1.894
 7983SOL    HW224849   6.080   2.027   1.868
 7984SOL     OW24850   1.780   1.471   0.995
 7984SOL    HW124851   1.872   1.509   1.002
 7984SOL    HW224852   1.785   1.371   1.001
 7985SOL     OW24853   2.894   1.054   4.015
 7985SOL    HW124854   2.897   1.024   4.110
 7985SOL    HW224855   2.968   1.009   3.964
 7986SOL     OW24856   2.870   1.433   6.622
 7986SOL    HW124857   2.931   1.490   6.567
 7986SOL    HW224858   2.810   1.380   6.562
 7987SOL     OW24859   1.575   2.713   6.359
 7987SOL    HW124860   1.558   2.794   6.414
 7987SOL    HW224861   1.651   2.729   6.297
 7988SOL     OW24862   0.900   2.135   4.148
 7988SOL    HW124863   0.883   2.229   4.178
 7988SOL    HW224864   0.814   2.095   4.116
 7989SOL     OW24865   3.702   2.962   5.610
 7989SOL    HW124866   3.674   2.980   5.516
 7989SOL    HW224867   3.646   3.016   5.674
 7990SOL     OW24868   0.078   3.646   4.849
 7990SOL    HW124869   0.041   3.578   4.785
 7990SOL    HW224870   0.177   3.632   4.858
 7991SOL     OW24871   6.012   6.847   3.658
 7991SOL    HW124872   6.066   6.764   3.663
 7991SOL    HW224873   6.052   6.917   3.717
 7992SOL     OW24874   1.567   0.628   1.546
 7992SOL    HW124875   1.478   0.610   1.503
 7992SOL    HW224876   1.554   0.680   1.630
 7993SOL     OW24877   0.786   6.875   0.084
 7993SOL    HW124878   0.754   6.957   0.133
 7993SOL    HW224879   0.846   6.903   0.009
 7994SOL     OW24880   4.355   6.574   3.583
 7994SOL    HW124881   4.349   6.506   3.509
 7994SOL    HW224882   4.432   6.551   3.642
 7995SOL     OW24883   4.870   5.543   3.929
 7995SOL    HW124884   4.851   5.495   4.014
 7995SOL    HW224885   4.865   5.479   3.852
 7996SOL     OW24886   3.140   0.006   4.580
 7996SOL    HW124887   3.085   0.061   4.642
 7996SOL    HW224888   3.117   0.029   4.486
 7997SOL     OW24889   0.144   1.361   1.171
 7997SOL    HW124890   0.090   1.277   1.171
 7997SOL    HW224891   0.231   1.345   1.217
 7998SOL     OW24892   3.313   6.332   1.259
 7998SOL    HW124893   3.248   6.376   1.321
 7998SOL    HW224894   3.406   6.347   1.292
 7999SOL     OW24895   0.612   0.227   6.085
 7999SOL    HW124896   0.528   0.249   6.036
 7999SOL    HW224897   0.611   0.272   6.174
 8000SOL     OW24898   4.993   0.221   6.586
 8000SOL    HW124899   5.079   0.260   6.616
 8000SOL    HW224900   4.974   0.251   6.492
 8001SOL     OW24901   4.266   6.345   0.810
 8001SOL    HW124902   4.326   6.351   0.729
 8001SOL    HW224903   4.231   6.252   0.818
 8002SOL     OW24904   0.676   1.914   5.954
 8002SOL    HW124905   0.622   1.833   5.976
 8002SOL    HW224906   0.768   1.887   5.927
 8003SOL     OW24907   2.951   5.215   2.560
 8003SOL    HW124908   2.937   5.179   2.468
 8003SOL    HW224909   2.998   5.303   2.555
 8004SOL     OW24910   2.147   3.587   3.386
 8004SOL    HW124911   2.178   3.671   3.343
 8004SOL    HW224912   2.118   3.522   3.315
 8005SOL     OW24913   3.137   0.821   1.643
 8005SOL    HW124914   3.096   0.802   1.732
 8005SOL    HW224915   3.179   0.738   1.607
 8006SOL     OW24916   1.887   0.599   6.241
 8006SOL    HW124917   1.853   0.523   6.185
 8006SOL    HW224918   1.810   0.659   6.265
 8007SOL     OW24919   6.826   0.337   4.239
 8007SOL    HW124920   6.783   0.250   4.216
 8007SOL    HW224921   6.918   0.340   4.199
 8008SOL     OW24922   4.144   5.663   6.100
 8008SOL    HW124923   4.156   5.725   6.023
 8008SOL    HW224924   4.048   5.660   6.126
 8009SOL     OW24925   5.491   1.058   2.589
 8009SOL    HW124926   5.462   1.032   2.681
 8009SOL    HW224927   5.576   1.111   2.594
 8010SOL     OW24928   0.635   0.892   6.231
 8010SOL    HW124929   0.652   0.962   6.161
 8010SOL    HW224930   0.569   0.927   6.297
 8011SOL     OW24931   3.582   2.636   0.936
 8011SOL    HW124932   3.532   2.718   0.907
 8011SOL    HW224933   3.536   2.595   1.015
 8012SOL     OW24934   1.341   4.082   1.860
 8012SOL    HW124935   1.287   4.152   1.813
 8012SOL    HW224936   1.345   3.999   1.803
 8013SOL     OW24937   1.329   5.340   3.633
 8013SOL    HW124938   1.264   5.304   3.566
 8013SOL    HW224939   1.411   5.283   3.633
 8014SOL     OW24940   1.022   6.400   5.284
 8014SOL    HW124941   0.988   6.486   5.245
 8014SOL    HW224942   1.029   6.331   5.212
 8015SOL     OW24943   2.629   0.860   6.981
 8015SOL    HW124944   2.651   0.776   0.011
 8015SOL    HW224945   2.566   0.916   0.017
 8016SOL     OW24946   5.158   6.924   6.012
 8016SOL    HW124947   5.218   6.974   5.950
 8016SOL    HW224948   5.076   6.979   6.030
 8017SOL     OW24949   5.689   0.003   0.271
 8017SOL    HW124950   5.629   0.059   0.328
 8017SOL    HW224951   5.646   6.934   0.252
 8018SOL     OW24952   3.329   1.629   5.722
 8018SOL    HW124953   3.283   1.717   5.710
 8018SOL    HW224954   3.404   1.623   5.656
 8019SOL     OW24955   2.317   4.565   6.505
 8019SOL    HW124956   2.235   4.514   6.533
 8019SOL    HW224957   2.325   4.562   6.405
 8020SOL     OW24958   5.460   0.860   0.984
 8020SOL    HW124959   5.511   0.893   1.064
 8020SOL    HW224960   5.387   0.798   1.015
 8021SOL     OW24961   1.285   2.817   1.146
 8021SOL    HW124962   1.195   2.858   1.157
 8021SOL    HW224963   1.275   2.727   1.103
 8022SOL     OW24964   5.233   6.544   2.555
 8022SOL    HW124965   5.327   6.533   2.521
 8022SOL    HW224966   5.173   6.481   2.507
 8023SOL     OW24967   5.797   5.933   2.796
 8023SOL    HW124968   5.775   5.885   2.711
 8023SOL    HW224969   5.731   5.907   2.867
 8024SOL     OW24970   2.353   4.872   6.730
 8024SOL    HW124971   2.353   4.966   6.763
 8024SOL    HW224972   2.277   4.858   6.667
 8025SOL     OW24973   2.058   6.775   6.670
 8025SOL    HW124974   2.102   6.861   6.696
 8025SOL    HW224975   1.968   6.795   6.631
 8026SOL     OW24976   0.822   4.503   6.840
 8026SOL    HW124977   0.735   4.480   6.797
 8026SOL    HW224978   0.896   4.450   6.797
 8027SOL     OW24979   5.056   0.680   5.666
 8027SOL    HW124980   5.139   0.718   5.626
 8027SOL    HW224981   4.978   0.702   5.609
 8028SOL     OW24982   2.812   5.252   4.654
 8028SOL    HW124983   2.724   5.286   4.687
 8028SOL    HW224984   2.805   5.229   4.557
 8029SOL     OW24985   4.944   3.042   1.522
 8029SOL    HW124986   5.029   3.000   1.553
 8029SOL    HW224987   4.942   3.138   1.550
 8030SOL     OW24988   4.373   4.454   1.013
 8030SOL    HW124989   4.347   4.378   0.955
 8030SOL    HW224990   4.362   4.540   0.963
 8031SOL     OW24991   5.826   6.612   1.978
 8031SOL    HW124992   5.765   6.691   1.975
 8031SOL    HW224993   5.787   6.537   1.925
 8032SOL     OW24994   6.723   5.102   1.111
 8032SOL    HW124995   6.729   5.179   1.048
 8032SOL    HW224996   6.677   5.130   1.195
 8033SOL     OW24997   4.823   1.423   5.885
 8033SOL    HW124998   4.857   1.467   5.802
 8033SOL    HW224999   4.888   1.437   5.959
 8034SOL     OW25000   5.389   6.767   4.601
 8034SOL    HW125001   5.456   6.812   4.542
 8034SOL    HW225002   5.436   6.721   4.677
 8035SOL     OW25003   5.194   1.885   4.077
 8035SOL    HW125004   5.112   1.887   4.135
 8035SOL    HW225005   5.220   1.978   4.053
 8036SOL     OW25006   0.253   4.109   3.164
 8036SOL    HW125007   0.250   4.184   3.230
 8036SOL    HW225008   0.264   4.146   3.072
 8037SOL     OW25009   1.535   3.480   0.427
 8037SOL    HW125010   1.480   3.555   0.388
 8037SOL    HW225011   1.501   3.393   0.392
 8038SOL     OW25012   3.977   7.006   2.318
 8038SOL    HW125013   3.990   7.001   2.219
 8038SOL    HW225014   3.989   0.081   2.349
 8039SOL     OW25015   0.601   1.839   4.557
 8039SOL    HW125016   0.531   1.851   4.487
 8039SOL    HW225017   0.666   1.769   4.529
 8040SOL     OW25018   1.592   5.881   0.073
 8040SOL    HW125019   1.598   5.981   0.072
 8040SOL    HW225020   1.519   5.852   0.012
 8041SOL     OW25021   2.460   1.814   2.902
 8041SOL    HW125022   2.386   1.749   2.880
 8041SOL    HW225023   2.421   1.894   2.946
 8042SOL     OW25024   2.898   3.476   3.732
 8042SOL    HW125025   2.934   3.388   3.761
 8042SOL    HW225026   2.938   3.501   3.643
 8043SOL     OW25027   3.649   6.789   1.778
 8043SOL    HW125028   3.731   6.842   1.797
 8043SOL    HW225029   3.615   6.748   1.862
 8044SOL     OW25030   4.055   2.634   1.353
 8044SOL    HW125031   4.145   2.597   1.330
 8044SOL    HW225032   4.033   2.612   1.449
 8045SOL     OW25033   5.132   1.306   2.580
 8045SOL    HW125034   5.060   1.359   2.534
 8045SOL    HW225035   5.208   1.291   2.517
 8046SOL     OW25036   0.261   5.271   1.332
 8046SOL    HW125037   0.229   5.345   1.273
 8046SOL    HW225038   0.314   5.205   1.278
 8047SOL     OW25039   4.253   5.615   4.529
 8047SOL    HW125040   4.219   5.707   4.547
 8047SOL    HW225041   4.256   5.564   4.615
 8048SOL     OW25042   4.856   0.759   5.475
 8048SOL    HW125043   4.885   0.741   5.381
 8048SOL    HW225044   4.847   0.857   5.489
 8049SOL     OW25045   0.923   0.230   0.052
 8049SOL    HW125046   0.823   0.231   0.047
 8049SOL    HW225047   0.961   0.195   6.986
 8050SOL     OW25048   1.534   4.202   3.353
 8050SOL    HW125049   1.503   4.236   3.264
 8050SOL    HW225050   1.532   4.102   3.353
 8051SOL     OW25051   4.534   5.488   3.535
 8051SOL    HW125052   4.490   5.575   3.558
 8051SOL    HW225053   4.467   5.427   3.493
 8052SOL     OW25054   4.620   1.350   1.839
 8052SOL    HW125055   4.562   1.429   1.858
 8052SOL    HW225056   4.713   1.380   1.821
 8053SOL     OW25057   3.033   3.569   3.312
 8053SOL    HW125058   2.983   3.581   3.227
 8053SOL    HW225059   2.980   3.609   3.388
 8054SOL     OW25060   5.031   6.572   4.736
 8054SOL    HW125061   4.961   6.636   4.767
 8054SOL    HW225062   5.057   6.593   4.642
 8055SOL     OW25063   0.643   0.137   5.386
 8055SOL    HW125064   0.602   0.227   5.372
 8055SOL    HW225065   0.722   0.127   5.325
 8056SOL     OW25066   2.675   1.352   4.302
 8056SOL    HW125067   2.661   1.412   4.223
 8056SOL    HW225068   2.760   1.378   4.348
 8057SOL     OW25069   3.136   1.521   3.135
 8057SOL    HW125070   3.076   1.601   3.145
 8057SOL    HW225071   3.148   1.500   3.038
 8058SOL     OW25072   3.763   0.269   2.059
 8058SOL    HW125073   3.827   0.330   2.013
 8058SOL    HW225074   3.808   0.183   2.082
 8059SOL     OW25075   3.435   1.843   4.711
 8059SOL    HW125076   3.383   1.848   4.625
 8059SOL    HW225077   3.372   1.854   4.788
 8060SOL     OW25078   6.218   2.363   4.475
 8060SOL    HW125079   6.266   2.379   4.561
 8060SOL    HW225080   6.221   2.266   4.453
 8061SOL     OW25081   0.456   1.307   3.020
 8061SOL    HW125082   0.546   1.349   3.035
 8061SOL    HW225083   0.429   1.256   3.102
 8062SOL     OW25084   3.670   5.000   4.183
 8062SOL    HW125085   3.740   4.971   4.248
 8062SOL    HW225086   3.674   5.099   4.171
 8063SOL     OW25087   0.912   2.521   1.361
 8063SOL    HW125088   0.910   2.448   1.293
 8063SOL    HW225089   0.938   2.484   1.450
 8064SOL     OW25090   0.283   3.859   1.943
 8064SOL    HW125091   0.255   3.765   1.959
 8064SOL    HW225092   0.249   3.917   2.018
 8065SOL     OW25093   2.107   5.904   3.528
 8065SOL    HW125094   2.172   5.972   3.559
 8065SOL    HW225095   2.135   5.870   3.438
 8066SOL     OW25096   0.034   2.169   5.527
 8066SOL    HW125097   0.020   2.265   5.550
 8066SOL    HW225098   6.990   2.112   5.580
 8067SOL     OW25099   4.507   2.894   1.668
 8067SOL    HW125100   4.521   2.962   1.740
 8067SOL    HW225101   4.591   2.840   1.656
 8068SOL     OW25102   0.092   3.772   1.160
 8068SOL    HW125103   0.083   3.852   1.102
 8068SOL    HW225104   0.045   3.694   1.118
 8069SOL     OW25105   2.128   6.847   1.140
 8069SOL    HW125106   2.171   6.900   1.212
 8069SOL    HW225107   2.075   6.773   1.180
 8070SOL     OW25108   3.423   3.034   0.046
 8070SOL    HW125109   3.440   2.978   6.985
 8070SOL    HW225110   3.486   3.008   0.119
 8071SOL     OW25111   2.926   6.171   5.013
 8071SOL    HW125112   2.860   6.223   4.959
 8071SOL    HW225113   2.972   6.233   5.078
 8072SOL     OW25114   3.298   1.071   0.649
 8072SOL    HW125115   3.341   1.161   0.649
 8072SOL    HW225116   3.352   1.008   0.594
 8073SOL     OW25117   3.361   5.425   4.454
 8073SOL    HW125118   3.415   5.359   4.507
 8073SOL    HW225119   3.266   5.396   4.453
 8074SOL     OW25120   3.891   2.363   0.826
 8074SOL    HW125121   3.912   2.461   0.820
 8074SOL    HW225122   3.947   2.313   0.760
 8075SOL     OW25123   0.243   0.405   1.121
 8075SOL    HW125124   0.218   0.446   1.033
 8075SOL    HW225125   0.200   0.315   1.129
 8076SOL     OW25126   6.661   1.483   5.100
 8076SOL    HW125127   6.709   1.398   5.124
 8076SOL    HW225128   6.699   1.559   5.153
 8077SOL     OW25129   2.644   5.883   2.179
 8077SOL    HW125130   2.678   5.820   2.109
 8077SOL    HW225131   2.550   5.908   2.158
 8078SOL     OW25132   0.059   1.368   0.188
 8078SOL    HW125133   0.075   1.455   0.141
 8078SOL    HW225134   7.008   1.316   0.139
 8079SOL     OW25135   4.606   1.500   3.236
 8079SOL    HW125136   4.693   1.490   3.187
 8079SOL    HW225137   4.602   1.589   3.280
 8080SOL     OW25138   0.572   2.523   0.505
 8080SOL    HW125139   0.474   2.530   0.487
 8080SOL    HW225140   0.588   2.525   0.604
 8081SOL     OW25141   5.332   6.226   5.402
 8081SOL    HW125142   5.312   6.183   5.314
 8081SOL    HW225143   5.406   6.175   5.447
 8082SOL     OW25144   4.780   6.314   1.601
 8082SOL    HW125145   4.776   6.414   1.595
 8082SOL    HW225146   4.832   6.288   1.682
 8083SOL     OW25147   4.937   3.620   2.627
 8083SOL    HW125148   5.034   3.614   2.651
 8083SOL    HW225149   4.919   3.707   2.582
 8084SOL     OW25150   4.646   0.121   0.504
 8084SOL    HW125151   4.583   0.195   0.528
 8084SOL    HW225152   4.626   0.041   0.561
 8085SOL     OW25153   6.414   6.466   1.630
 8085SOL    HW125154   6.394   6.543   1.570
 8085SOL    HW225155   6.329   6.420   1.655
 8086SOL     OW25156   5.233   1.056   3.221
 8086SOL    HW125157   5.149   1.048   3.168
 8086SOL    HW225158   5.243   0.976   3.280
 8087SOL     OW25159   2.954   1.581   0.611
 8087SOL    HW125160   2.976   1.503   0.670
 8087SOL    HW225161   3.021   1.587   0.537
 8088SOL     OW25162   4.965   2.131   1.558
 8088SOL    HW125163   5.034   2.076   1.605
 8088SOL    HW225164   4.880   2.078   1.551
 8089SOL     OW25165   5.228   2.320   0.705
 8089SOL    HW125166   5.281   2.255   0.651
 8089SOL    HW225167   5.228   2.293   0.801
 8090SOL     OW25168   4.996   1.567   0.223
 8090SOL    HW125169   4.998   1.468   0.210
 8090SOL    HW225170   4.904   1.597   0.247
 8091SOL     OW25171   2.511   3.433   5.365
 8091SOL    HW125172   2.560   3.354   5.402
 8091SOL    HW225173   2.578   3.503   5.338
 8092SOL     OW25174   6.181   2.270   5.212
 8092SOL    HW125175   6.098   2.229   5.176
 8092SOL    HW225176   6.241   2.298   5.137
 8093SOL     OW25177   3.950   5.186   3.207
 8093SOL    HW125178   3.948   5.104   3.149
 8093SOL    HW225179   3.964   5.266   3.150
 8094SOL     OW25180   1.873   3.797   4.920
 8094SOL    HW125181   1.920   3.741   4.852
 8094SOL    HW225182   1.939   3.836   4.984
 8095SOL     OW25183   0.014   4.379   5.289
 8095SOL    HW125184   6.963   4.403   5.222
 8095SOL    HW225185   0.103   4.369   5.242
 8096SOL     OW25186   2.670   6.484   3.314
 8096SOL    HW125187   2.642   6.465   3.220
 8096SOL    HW225188   2.697   6.398   3.359
 8097SOL     OW25189   4.468   0.074   4.011
 8097SOL    HW125190   4.562   0.060   4.042
 8097SOL    HW225191   4.406   0.019   4.067
 8098SOL     OW25192   1.594   0.421   3.345
 8098SOL    HW125193   1.566   0.516   3.327
 8098SOL    HW225194   1.693   0.413   3.334
 8099SOL     OW25195   3.549   0.204   4.655
 8099SOL    HW125196   3.514   0.131   4.713
 8099SOL    HW225197   3.475   0.268   4.634
 8100SOL     OW25198   6.077   1.114   0.631
 8100SOL    HW125199   6.086   1.153   0.723
 8100SOL    HW225200   6.057   1.187   0.566
 8101SOL     OW25201   2.074   0.039   3.213
 8101SOL    HW125202   2.142   0.101   3.174
 8101SOL    HW225203   1.997   0.030   3.150
 8102SOL     OW25204   0.500   4.625   4.382
 8102SOL    HW125205   0.539   4.577   4.461
 8102SOL    HW225206   0.414   4.580   4.356
 8103SOL     OW25207   4.168   6.807   1.275
 8103SOL    HW125208   4.172   6.905   1.291
 8103SOL    HW225209   4.112   6.763   1.346
 8104SOL     OW25210   3.014   0.210   6.105
 8104SOL    HW125211   2.952   0.131   6.104
 8104SOL    HW225212   3.102   0.183   6.067
 8105SOL     OW25213   0.497   2.427   3.048
 8105SOL    HW125214   0.532   2.342   3.009
 8105SOL    HW225215   0.481   2.493   2.975
 8106SOL     OW25216   2.167   5.837   2.676
 8106SOL    HW125217   2.176   5.780   2.595
 8106SOL    HW225218   2.175   5.934   2.650
 8107SOL     OW25219   0.378   5.073   4.394
 8107SOL    HW125220   0.348   5.147   4.334
 8107SOL    HW225221   0.413   4.997   4.340
 8108SOL     OW25222   6.077   3.256   5.134
 8108SOL    HW125223   6.106   3.202   5.055
 8108SOL    HW225224   6.030   3.197   5.199
 8109SOL     OW25225   1.572   3.823   4.473
 8109SOL    HW125226   1.538   3.771   4.551
 8109SOL    HW225227   1.672   3.814   4.469
 8110SOL     OW25228   3.298   6.299   1.009
 8110SOL    HW125229   3.392   6.271   0.987
 8110SOL    HW225230   3.287   6.306   1.108
 8111SOL     OW25231   4.700   0.337   4.856
 8111SOL    HW125232   4.616   0.303   4.814
 8111SOL    HW225233   4.728   0.275   4.929
 8112SOL     OW25234   2.508   2.526   4.723
 8112SOL    HW125235   2.496   2.473   4.639
 8112SOL    HW225236   2.511   2.623   4.701
 8113SOL     OW25237   3.042   3.354   1.112
 8113SOL    HW125238   2.945   3.372   1.095
 8113SOL    HW225239   3.063   3.370   1.208
 8114SOL     OW25240   1.926   3.783   1.689
 8114SOL    HW125241   1.977   3.707   1.731
 8114SOL    HW225242   1.920   3.859   1.754
 8115SOL     OW25243   3.184   0.408   0.338
 8115SOL    HW125244   3.238   0.477   0.290
 8115SOL    HW225245   3.165   0.440   0.431
 8116SOL     OW25246   4.184   5.446   5.952
 8116SOL    HW125247   4.198   5.377   6.023
 8116SOL    HW225248   4.167   5.535   5.995
 8117SOL     OW25249   1.726   0.888   3.920
 8117SOL    HW125250   1.675   0.806   3.945
 8117SOL    HW225251   1.807   0.897   3.979
 8118SOL     OW25252   5.774   4.095   6.101
 8118SOL    HW125253   5.817   4.074   6.014
 8118SOL    HW225254   5.781   4.193   6.119
 8119SOL     OW25255   6.055   5.996   5.712
 8119SOL    HW125256   6.093   6.037   5.629
 8119SOL    HW225257   6.120   6.008   5.788
 8120SOL     OW25258   2.056   5.335   0.376
 8120SOL    HW125259   2.026   5.242   0.399
 8120SOL    HW225260   2.152   5.333   0.350
 8121SOL     OW25261   0.900   4.300   1.798
 8121SOL    HW125262   0.846   4.282   1.880
 8121SOL    HW225263   0.935   4.394   1.800
 8122SOL     OW25264   1.117   5.968   2.034
 8122SOL    HW125265   1.146   5.873   2.037
 8122SOL    HW225266   1.110   6.004   2.127
 8123SOL     OW25267   6.362   0.791   6.552
 8123SOL    HW125268   6.276   0.815   6.596
 8123SOL    HW225269   6.355   0.809   6.454
 8124SOL     OW25270   6.190   6.569   0.962
 8124SOL    HW125271   6.220   6.657   0.925
 8124SOL    HW225272   6.145   6.584   1.050
 8125SOL     OW25273   1.183   1.002   3.933
 8125SOL    HW125274   1.085   0.989   3.916
 8125SOL    HW225275   1.205   1.099   3.926
 8126SOL     OW25276   5.402   4.770   2.766
 8126SOL    HW125277   5.467   4.694   2.772
 8126SOL    HW225278   5.396   4.801   2.671
 8127SOL     OW25279   3.198   5.883   6.508
 8127SOL    HW125280   3.104   5.899   6.477
 8127SOL    HW225281   3.205   5.906   6.605
 8128SOL     OW25282   2.980   1.722   1.609
 8128SOL    HW125283   3.042   1.688   1.679
 8128SOL    HW225284   2.957   1.817   1.628
 8129SOL     OW25285   4.109   0.806   5.879
 8129SOL    HW125286   4.068   0.894   5.855
 8129SOL    HW225287   4.174   0.779   5.808
 8130SOL     OW25288   0.445   3.656   5.828
 8130SOL    HW125289   0.500   3.573   5.833
 8130SOL    HW225290   0.349   3.632   5.815
 8131SOL     OW25291   3.623   2.086   0.852
 8131SOL    HW125292   3.687   2.133   0.913
 8131SOL    HW225293   3.617   2.135   0.765
 8132SOL     OW25294   5.665   6.339   5.963
 8132SOL    HW125295   5.737   6.387   6.013
 8132SOL    HW225296   5.688   6.338   5.865
 8133SOL     OW25297   2.842   4.646   1.391
 8133SOL    HW125298   2.828   4.554   1.430
 8133SOL    HW225299   2.774   4.708   1.429
 8134SOL     OW25300   0.523   2.714   5.597
 8134SOL    HW125301   0.470   2.799   5.594
 8134SOL    HW225302   0.463   2.636   5.581
 8135SOL     OW25303   2.436   6.127   1.146
 8135SOL    HW125304   2.352   6.158   1.103
 8135SOL    HW225305   2.465   6.194   1.215
 8136SOL     OW25306   4.535   5.042   3.305
 8136SOL    HW125307   4.465   4.998   3.249
 8136SOL    HW225308   4.594   4.972   3.346
 8137SOL     OW25309   3.510   1.387   5.180
 8137SOL    HW125310   3.498   1.321   5.106
 8137SOL    HW225311   3.535   1.476   5.142
 8138SOL     OW25312   6.009   1.642   0.377
 8138SOL    HW125313   5.987   1.728   0.424
 8138SOL    HW225314   5.928   1.582   0.379
 8139SOL     OW25315   0.792   1.380   3.462
 8139SOL    HW125316   0.861   1.316   3.429
 8139SOL    HW225317   0.703   1.334   3.465
 8140SOL     OW25318   4.797   0.292   0.806
 8140SOL    HW125319   4.823   0.382   0.773
 8140SOL    HW225320   4.869   0.226   0.784
 8141SOL     OW25321   4.502   6.433   5.451
 8141SOL    HW125322   4.542   6.438   5.360
 8141SOL    HW225323   4.518   6.520   5.499
 8142SOL     OW25324   1.661   4.612   6.916
 8142SOL    HW125325   1.593   4.645   6.850
 8142SOL    HW225326   1.643   4.652   7.005
 8143SOL     OW25327   0.180   4.694   0.770
 8143SOL    HW125328   0.148   4.604   0.799
 8143SOL    HW225329   0.106   4.761   0.782
 8144SOL     OW25330   6.863   6.371   5.780
 8144SOL    HW125331   6.822   6.308   5.846
 8144SOL    HW225332   6.814   6.364   5.693
 8145SOL     OW25333   5.605   5.625   1.424
 8145SOL    HW125334   5.607   5.699   1.357
 8145SOL    HW225335   5.543   5.553   1.393
 8146SOL     OW25336   4.762   0.742   4.926
 8146SOL    HW125337   4.827   0.682   4.879
 8146SOL    HW225338   4.738   0.819   4.866
 8147SOL     OW25339   6.890   1.375   1.925
 8147SOL    HW125340   6.825   1.310   1.965
 8147SOL    HW225341   6.885   1.369   1.825
 8148SOL     OW25342   5.433   4.475   0.827
 8148SOL    HW125343   5.342   4.496   0.791
 8148SOL    HW225344   5.424   4.423   0.912
 8149SOL     OW25345   2.213   6.117   3.009
 8149SOL    HW125346   2.260   6.177   3.073
 8149SOL    HW225347   2.115   6.118   3.029
 8150SOL     OW25348   1.685   3.779   1.315
 8150SOL    HW125349   1.676   3.700   1.255
 8150SOL    HW225350   1.673   3.863   1.263
 8151SOL     OW25351   5.720   4.569   2.596
 8151SOL    HW125352   5.765   4.485   2.626
 8151SOL    HW225353   5.621   4.554   2.592
 8152SOL     OW25354   5.938   2.108   3.072
 8152SOL    HW125355   6.014   2.083   3.011
 8152SOL    HW225356   5.852   2.077   3.033
 8153SOL     OW25357   1.392   1.929   3.798
 8153SOL    HW125358   1.305   1.896   3.834
 8153SOL    HW225359   1.393   1.920   3.698
 8154SOL     OW25360   3.929   5.756   2.514
 8154SOL    HW125361   4.026   5.750   2.492
 8154SOL    HW225362   3.907   5.847   2.548
 8155SOL     OW25363   1.491   3.192   1.745
 8155SOL    HW125364   1.413   3.179   1.806
 8155SOL    HW225365   1.498   3.114   1.682
 8156SOL     OW25366   4.734   6.273   0.481
 8156SOL    HW125367   4.653   6.271   0.422
 8156SOL    HW225368   4.803   6.334   0.441
 8157SOL     OW25369   6.211   4.877   6.034
 8157SOL    HW125370   6.141   4.869   5.963
 8157SOL    HW225371   6.244   4.786   6.059
 8158SOL     OW25372   4.991   4.630   6.945
 8158SOL    HW125373   4.948   4.702   6.890
 8158SOL    HW225374   4.988   4.655   0.023
 8159SOL     OW25375   2.514   5.750   2.812
 8159SOL    HW125376   2.526   5.811   2.734
 8159SOL    HW225377   2.431   5.695   2.798
 8160SOL     OW25378   5.289   0.442   3.583
 8160SOL    HW125379   5.374   0.394   3.607
 8160SOL    HW225380   5.301   0.540   3.595
 8161SOL     OW25381   6.169   2.430   6.233
 8161SOL    HW125382   6.099   2.466   6.296
 8161SOL    HW225383   6.149   2.461   6.140
 8162SOL     OW25384   6.322   6.577   6.829
 8162SOL    HW125385   6.327   6.487   6.786
 8162SOL    HW225386   6.226   6.597   6.851
 8163SOL     OW25387   2.648   4.418   5.558
 8163SOL    HW125388   2.711   4.359   5.608
 8163SOL    HW225389   2.655   4.400   5.460
 8164SOL     OW25390   4.868   2.478   0.235
 8164SOL    HW125391   4.787   2.533   0.214
 8164SOL    HW225392   4.908   2.443   0.151
 8165SOL     OW25393   0.706   3.909   6.091
 8165SOL    HW125394   0.646   3.843   6.135
 8165SOL    HW225395   0.663   4.000   6.093
 8166SOL     OW25396   1.503   0.693   3.375
 8166SOL    HW125397   1.410   0.689   3.411
 8166SOL    HW225398   1.561   0.742   3.440
 8167SOL     OW25399   0.071   0.241   3.800
 8167SOL    HW125400   7.008   0.185   3.793
 8167SOL    HW225401   0.046   0.336   3.816
 8168SOL     OW25402   2.227   1.633   2.906
 8168SOL    HW125403   2.226   1.534   2.893
 8168SOL    HW225404   2.160   1.658   2.977
 8169SOL     OW25405   4.799   2.215   0.685
 8169SOL    HW125406   4.860   2.138   0.666
 8169SOL    HW225407   4.717   2.207   0.629
 8170SOL     OW25408   1.171   5.288   2.010
 8170SOL    HW125409   1.145   5.195   1.986
 8170SOL    HW225410   1.098   5.351   1.984
 8171SOL     OW25411   1.700   1.590   6.396
 8171SOL    HW125412   1.675   1.517   6.333
 8171SOL    HW225413   1.777   1.641   6.358
 8172SOL     OW25414   0.480   2.160   2.220
 8172SOL    HW125415   0.548   2.138   2.290
 8172SOL    HW225416   0.433   2.245   2.245
 8173SOL     OW25417   5.572   1.591   2.367
 8173SOL    HW125418   5.488   1.629   2.406
 8173SOL    HW225419   5.551   1.547   2.279
 8174SOL     OW25420   6.492   1.304   2.154
 8174SOL    HW125421   6.568   1.310   2.089
 8174SOL    HW225422   6.464   1.209   2.164
 8175SOL     OW25423   0.637   3.079   5.489
 8175SOL    HW125424   0.686   3.166   5.479
 8175SOL    HW225425   0.702   3.003   5.488
 8176SOL     OW25426   1.971   4.754   1.447
 8176SOL    HW125427   1.884   4.787   1.483
 8176SOL    HW225428   1.989   4.798   1.359
 8177SOL     OW25429   3.629   6.446   3.820
 8177SOL    HW125430   3.705   6.403   3.870
 8177SOL    HW225431   3.543   6.403   3.848
 8178SOL     OW25432   2.797   6.381   0.516
 8178SOL    HW125433   2.886   6.337   0.508
 8178SOL    HW225434   2.759   6.397   0.425
 8179SOL     OW25435   4.725   2.071   4.877
 8179SOL    HW125436   4.630   2.076   4.910
 8179SOL    HW225437   4.765   1.984   4.906
 8180SOL     OW25438   6.610   0.615   5.004
 8180SOL    HW125439   6.646   0.566   4.924
 8180SOL    HW225440   6.641   0.570   5.088
 8181SOL     OW25441   2.067   1.270   0.951
 8181SOL    HW125442   2.093   1.318   0.867
 8181SOL    HW225443   1.967   1.263   0.955
 8182SOL     OW25444   3.102   3.653   5.741
 8182SOL    HW125445   3.038   3.629   5.814
 8182SOL    HW225446   3.063   3.727   5.685
 8183SOL     OW25447   6.432   2.172   4.822
 8183SOL    HW125448   6.446   2.117   4.904
 8183SOL    HW225449   6.446   2.268   4.843
 8184SOL     OW25450   6.594   0.897   0.282
 8184SOL    HW125451   6.532   0.820   0.266
 8184SOL    HW225452   6.560   0.952   0.359
 8185SOL     OW25453   2.432   0.404   0.184
 8185SOL    HW125454   2.466   0.397   0.090
 8185SOL    HW225455   2.442   0.316   0.230
 8186SOL     OW25456   3.651   4.820   5.388
 8186SOL    HW125457   3.652   4.856   5.295
 8186SOL    HW225458   3.722   4.865   5.442
 8187SOL     OW25459   1.276   1.887   4.709
 8187SOL    HW125460   1.268   1.978   4.668
 8187SOL    HW225461   1.215   1.882   4.789
 8188SOL     OW25462   5.870   2.676   2.958
 8188SOL    HW125463   5.946   2.732   2.925
 8188SOL    HW225464   5.785   2.708   2.917
 8189SOL     OW25465   4.611   4.568   2.739
 8189SOL    HW125466   4.673   4.634   2.697
 8189SOL    HW225467   4.558   4.522   2.668
 8190SOL     OW25468   4.786   5.194   4.495
 8190SOL    HW125469   4.791   5.122   4.564
 8190SOL    HW225470   4.698   5.188   4.447
 8191SOL     OW25471   3.425   6.323   1.575
 8191SOL    HW125472   3.464   6.318   1.483
 8191SOL    HW225473   3.369   6.242   1.592
 8192SOL     OW25474   3.915   4.915   0.633
 8192SOL    HW125475   3.912   4.979   0.556
 8192SOL    HW225476   3.894   4.963   0.717
 8193SOL     OW25477   6.752   5.801   4.895
 8193SOL    HW125478   6.845   5.784   4.927
 8193SOL    HW225479   6.690   5.805   4.973
 8194SOL     OW25480   5.356   2.464   1.083
 8194SOL    HW125481   5.295   2.388   1.060
 8194SOL    HW225482   5.439   2.459   1.027
 8195SOL     OW25483   1.701   0.344   2.014
 8195SOL    HW125484   1.641   0.294   1.952
 8195SOL    HW225485   1.678   0.322   2.109
 8196SOL     OW25486   3.696   6.064   5.792
 8196SOL    HW125487   3.620   6.032   5.849
 8196SOL    HW225488   3.696   6.013   5.706
 8197SOL     OW25489   4.361   1.981   0.075
 8197SOL    HW125490   4.359   2.059   0.014
 8197SOL    HW225491   4.289   1.916   0.049
 8198SOL     OW25492   3.746   6.782   2.922
 8198SOL    HW125493   3.791   6.848   2.862
 8198SOL    HW225494   3.654   6.762   2.888
 8199SOL     OW25495   6.149   2.761   6.461
 8199SOL    HW125496   6.075   2.822   6.432
 8199SOL    HW225497   6.222   2.814   6.503
 8200SOL     OW25498   5.392   4.490   2.047
 8200SOL    HW125499   5.328   4.436   2.101
 8200SOL    HW225500   5.368   4.587   2.055
 8201SOL     OW25501   5.654   0.469   3.717
 8201SOL    HW125502   5.600   0.453   3.799
 8201SOL    HW225503   5.650   0.388   3.658
 8202SOL     OW25504   0.460   5.755   4.292
 8202SOL    HW125505   0.525   5.799   4.230
 8202SOL    HW225506   0.368   5.761   4.252
 8203SOL     OW25507   3.870   2.630   0.326
 8203SOL    HW125508   3.948   2.652   0.267
 8203SOL    HW225509   3.792   2.688   0.302
 8204SOL     OW25510   2.714   4.954   6.635
 8204SOL    HW125511   2.690   4.867   6.677
 8204SOL    HW225512   2.704   5.027   6.702
 8205SOL     OW25513   0.402   4.636   0.609
 8205SOL    HW125514   0.371   4.659   0.516
 8205SOL    HW225515   0.335   4.669   0.675
 8206SOL     OW25516   4.959   2.740   6.214
 8206SOL    HW125517   4.931   2.782   6.300
 8206SOL    HW225518   4.995   2.810   6.153
 8207SOL     OW25519   3.346   4.054   4.724
 8207SOL    HW125520   3.323   3.958   4.740
 8207SOL    HW225521   3.305   4.084   4.638
 8208SOL     OW25522   2.338   0.235   1.218
 8208SOL    HW125523   2.407   0.290   1.170
 8208SOL    HW225524   2.307   0.286   1.299
 8209SOL     OW25525   0.579   1.230   5.469
 8209SOL    HW125526   0.549   1.293   5.541
 8209SOL    HW225527   0.592   1.282   5.384
 8210SOL     OW25528   2.350   1.471   1.377
 8210SOL    HW125529   2.378   1.379   1.348
 8210SOL    HW225530   2.385   1.489   1.469
 8211SOL     OW25531   3.894   4.005   2.059
 8211SOL    HW125532   3.888   3.992   1.960
 8211SOL    HW225533   3.948   4.087   2.079
 8212SOL     OW25534   1.952   1.887   2.000
 8212SOL    HW125535   2.019   1.930   1.939
 8212SOL    HW225536   1.925   1.953   2.071
 8213SOL     OW25537   6.454   4.670   2.563
 8213SOL    HW125538   6.449   4.755   2.511
 8213SOL    HW225539   6.524   4.611   2.524
 8214SOL     OW25540   0.030   5.442   4.826
 8214SOL    HW125541   7.000   5.506   4.885
 8214SOL    HW225542   6.987   5.370   4.795
 8215SOL     OW25543   2.544   5.937   5.891
 8215SOL    HW125544   2.479   6.007   5.920
 8215SOL    HW225545   2.611   5.922   5.963
 8216SOL     OW25546   5.080   5.241   3.915
 8216SOL    HW125547   5.120   5.192   3.837
 8216SOL    HW225548   5.095   5.189   3.998
 8217SOL     OW25549   2.149   4.087   1.430
 8217SOL    HW125550   2.227   4.147   1.447
 8217SOL    HW225551   2.180   3.993   1.425
 8218SOL     OW25552   0.998   6.305   4.370
 8218SOL    HW125553   1.084   6.269   4.334
 8218SOL    HW225554   0.962   6.242   4.439
 8219SOL     OW25555   4.061   3.064   0.528
 8219SOL    HW125556   4.000   3.111   0.591
 8219SOL    HW225557   4.127   3.129   0.491
 8220SOL     OW25558   3.082   3.967   4.265
 8220SOL    HW125559   3.044   3.877   4.243
 8220SOL    HW225560   3.069   3.986   4.362
 8221SOL     OW25561   6.234   6.003   3.469
 8221SOL    HW125562   6.278   5.955   3.544
 8221SOL    HW225563   6.222   5.941   3.391
 8222SOL     OW25564   5.127   0.954   1.449
 8222SOL    HW125565   5.068   0.954   1.530
 8222SOL    HW225566   5.195   1.027   1.456
 8223SOL     OW25567   1.579   4.480   5.078
 8223SOL    HW125568   1.660   4.499   5.134
 8223SOL    HW225569   1.497   4.486   5.135
 8224SOL     OW25570   5.421   2.746   2.365
 8224SOL    HW125571   5.419   2.735   2.266
 8224SOL    HW225572   5.382   2.834   2.390
 8225SOL     OW25573   4.153   1.455   0.999
 8225SOL    HW125574   4.227   1.517   0.974
 8225SOL    HW225575   4.127   1.399   0.920
 8226SOL     OW25576   3.480   6.240   0.429
 8226SOL    HW125577   3.540   6.163   0.449
 8226SOL    HW225578   3.499   6.314   0.493
 8227SOL     OW25579   0.356   1.532   2.579
 8227SOL    HW125580   0.271   1.563   2.621
 8227SOL    HW225581   0.353   1.433   2.566
 8228SOL     OW25582   7.017   1.856   5.832
 8228SOL    HW125583   6.984   1.950   5.839
 8228SOL    HW225584   7.016   1.827   5.736
 8229SOL     OW25585   4.481   3.728   1.315
 8229SOL    HW125586   4.454   3.786   1.239
 8229SOL    HW225587   4.415   3.654   1.326
 8230SOL     OW25588   3.486   6.681   5.030
 8230SOL    HW125589   3.516   6.646   4.941
 8230SOL    HW225590   3.388   6.704   5.025
 8231SOL     OW25591   2.983   3.111   1.558
 8231SOL    HW125592   2.895   3.063   1.564
 8231SOL    HW225593   3.057   3.045   1.568
 8232SOL     OW25594   5.456   1.894   2.420
 8232SOL    HW125595   5.417   1.880   2.511
 8232SOL    HW225596   5.555   1.903   2.427
 8233SOL     OW25597   1.392   7.017   6.340
 8233SOL    HW125598   1.331   0.076   6.326
 8233SOL    HW225599   1.431   0.002   6.432
 8234SOL     OW25600   2.762   3.899   6.961
 8234SOL    HW125601   2.840   3.897   6.898
 8234SOL    HW225602   2.789   3.861   0.030
 8235SOL     OW25603   0.292   3.363   6.785
 8235SOL    HW125604   0.361   3.435   6.788
 8235SOL    HW225605   0.205   3.402   6.757
 8236SOL     OW25606   0.329   4.863   0.341
 8236SOL    HW125607   0.340   4.777   0.290
 8236SOL    HW225608   0.407   4.923   0.322
 8237SOL     OW25609   4.483   5.867   6.269
 8237SOL    HW125610   4.432   5.953   6.276
 8237SOL    HW225611   4.525   5.861   6.179
 8238SOL     OW25612   0.683   5.382   6.736
 8238SOL    HW125613   0.704   5.398   6.639
 8238SOL    HW225614   0.588   5.408   6.754
 8239SOL     OW25615   0.221   1.003   5.401
 8239SOL    HW125616   0.163   1.059   5.341
 8239SOL    HW225617   0.166   0.970   5.478
 8240SOL     OW25618   3.771   4.058   2.590
 8240SOL    HW125619   3.756   3.979   2.531
 8240SOL    HW225620   3.686   4.080   2.638
 8241SOL     OW25621   2.787   5.617   6.296
 8241SOL    HW125622   2.717   5.549   6.272
 8241SOL    HW225623   2.852   5.576   6.360
 8242SOL     OW25624   0.468   4.061   6.295
 8242SOL    HW125625   0.567   4.063   6.277
 8242SOL    HW225626   0.451   4.088   6.390
 8243SOL     OW25627   6.594   3.070   0.928
 8243SOL    HW125628   6.674   3.037   0.978
 8243SOL    HW225629   6.512   3.056   0.983
 8244SOL     OW25630   0.035   0.836   3.189
 8244SOL    HW125631   0.030   0.929   3.152
 8244SOL    HW225632   6.976   0.820   3.249
 8245SOL     OW25633   3.974   2.152   2.462
 8245SOL    HW125634   3.892   2.099   2.442
 8245SOL    HW225635   3.998   2.207   2.382
 8246SOL     OW25636   0.561   3.754   6.523
 8246SOL    HW125637   0.536   3.713   6.435
 8246SOL    HW225638   0.653   3.725   6.548
 8247SOL     OW25639   2.163   0.501   3.218
 8247SOL    HW125640   2.178   0.482   3.315
 8247SOL    HW225641   2.095   0.574   3.209
 8248SOL     OW25642   0.128   4.768   4.614
 8248SOL    HW125643   0.106   4.840   4.549
 8248SOL    HW225644   0.214   4.790   4.661
 8249SOL     OW25645   1.799   1.544   5.423
 8249SOL    HW125646   1.746   1.488   5.360
 8249SOL    HW225647   1.845   1.617   5.372
 8250SOL     OW25648   2.502   2.338   1.618
 8250SOL    HW125649   2.496   2.388   1.704
 8250SOL    HW225650   2.564   2.261   1.628
 8251SOL     OW25651   4.908   3.134   4.296
 8251SOL    HW125652   4.873   3.050   4.337
 8251SOL    HW225653   4.891   3.211   4.357
 8252SOL     OW25654   3.475   1.938   6.264
 8252SOL    HW125655   3.394   1.954   6.320
 8252SOL    HW225656   3.515   2.025   6.237
 8253SOL     OW25657   3.919   5.346   6.135
 8253SOL    HW125658   3.954   5.403   6.209
 8253SOL    HW225659   3.867   5.401   6.071
 8254SOL     OW25660   4.502   4.600   5.382
 8254SOL    HW125661   4.571   4.604   5.454
 8254SOL    HW225662   4.459   4.510   5.382
 8255SOL     OW25663   1.998   6.196   5.371
 8255SOL    HW125664   2.061   6.254   5.318
 8255SOL    HW225665   2.049   6.123   5.416
 8256SOL     OW25666   6.918   6.407   2.319
 8256SOL    HW125667   6.996   6.461   2.286
 8256SOL    HW225668   6.890   6.441   2.409
 8257SOL     OW25669   5.260   3.523   2.343
 8257SOL    HW125670   5.329   3.548   2.411
 8257SOL    HW225671   5.204   3.604   2.322
 8258SOL     OW25672   5.144   2.516   1.584
 8258SOL    HW125673   5.145   2.519   1.484
 8258SOL    HW225674   5.072   2.454   1.615
 8259SOL     OW25675   3.779   1.651   4.859
 8259SOL    HW125676   3.826   1.570   4.823
 8259SOL    HW225677   3.749   1.709   4.783
 8260SOL     OW25678   2.508   0.020   1.371
 8260SOL    HW125679   2.498   0.118   1.387
 8260SOL    HW225680   2.421   7.002   1.337
 8261SOL     OW25681   5.546   6.534   2.696
 8261SOL    HW125682   5.546   6.438   2.724
 8261SOL    HW225683   5.570   6.540   2.599
 8262SOL     OW25684   1.166   3.507   0.179
 8262SOL    HW125685   1.083   3.460   0.207
 8262SOL    HW225686   1.229   3.514   0.256
 8263SOL     OW25687   0.363   2.452   6.422
 8263SOL    HW125688   0.284   2.481   6.475
 8263SOL    HW225689   0.446   2.466   6.476
 8264SOL     OW25690   1.944   6.565   0.821
 8264SOL    HW125691   1.946   6.644   0.759
 8264SOL    HW225692   1.991   6.488   0.777
 8265SOL     OW25693   6.240   0.317   1.743
 8265SOL    HW125694   6.166   0.358   1.690
 8265SOL    HW225695   6.228   0.218   1.746
 8266SOL     OW25696   2.181   0.904   4.627
 8266SOL    HW125697   2.147   0.991   4.661
 8266SOL    HW225698   2.151   0.891   4.533
 8267SOL     OW25699   1.320   3.829   1.672
 8267SOL    HW125700   1.277   3.775   1.745
 8267SOL    HW225701   1.394   3.776   1.631
 8268SOL     OW25702   2.786   6.611   6.668
 8268SOL    HW125703   2.753   6.705   6.658
 8268SOL    HW225704   2.879   6.613   6.707
 8269SOL     OW25705   4.401   1.986   2.244
 8269SOL    HW125706   4.462   2.050   2.198
 8269SOL    HW225707   4.310   2.027   2.251
 8270SOL     OW25708   2.658   6.480   4.592
 8270SOL    HW125709   2.730   6.455   4.527
 8270SOL    HW225710   2.570   6.484   4.545
 8271SOL     OW25711   0.274   6.963   2.704
 8271SOL    HW125712   0.356   6.929   2.659
 8271SOL    HW225713   0.249   6.903   2.780
 8272SOL     OW25714   6.328   1.863   2.935
 8272SOL    HW125715   6.374   1.837   3.020
 8272SOL    HW225716   6.383   1.932   2.887
 8273SOL     OW25717   2.924   1.854   0.974
 8273SOL    HW125718   2.880   1.772   1.011
 8273SOL    HW225719   2.959   1.909   1.050
 8274SOL     OW25720   3.788   5.507   4.692
 8274SOL    HW125721   3.882   5.481   4.717
 8274SOL    HW225722   3.736   5.525   4.775
 8275SOL     OW25723   5.376   0.228   4.592
 8275SOL    HW125724   5.277   0.237   4.587
 8275SOL    HW225725   5.415   0.235   4.500
 8276SOL     OW25726   0.824   1.868   5.065
 8276SOL    HW125727   0.736   1.842   5.103
 8276SOL    HW225728   0.882   1.787   5.057
 8277SOL     OW25729   1.062   6.202   5.748
 8277SOL    HW125730   1.074   6.272   5.678
 8277SOL    HW225731   1.136   6.135   5.743
 8278SOL     OW25732   3.225   2.116   6.766
 8278SOL    HW125733   3.221   2.214   6.784
 8278SOL    HW225734   3.133   2.080   6.754
 8279SOL     OW25735   0.715   6.288   4.826
 8279SOL    HW125736   0.767   6.313   4.908
 8279SOL    HW225737   0.700   6.370   4.771
 8280SOL     OW25738   2.817   3.020   0.367
 8280SOL    HW125739   2.764   2.971   0.297
 8280SOL    HW225740   2.794   2.984   0.457
 8281SOL     OW25741   2.557   4.807   1.615
 8281SOL    HW125742   2.503   4.739   1.565
 8281SOL    HW225743   2.506   4.893   1.621
 8282SOL     OW25744   4.315   3.786   6.563
 8282SOL    HW125745   4.409   3.756   6.582
 8282SOL    HW225746   4.284   3.746   6.477
 8283SOL     OW25747   1.745   4.941   4.847
 8283SOL    HW125748   1.806   4.963   4.923
 8283SOL    HW225749   1.656   4.911   4.883
 8284SOL     OW25750   1.214   3.753   1.237
 8284SOL    HW125751   1.231   3.688   1.311
 8284SOL    HW225752   1.231   3.846   1.269
 8285SOL     OW25753   3.604   4.180   4.737
 8285SOL    HW125754   3.519   4.129   4.753
 8285SOL    HW225755   3.586   4.278   4.745
 8286SOL     OW25756   5.212   1.930   4.907
 8286SOL    HW125757   5.205   2.030   4.909
 8286SOL    HW225758   5.272   1.900   4.981
 8287SOL     OW25759   1.086   4.832   4.323
 8287SOL    HW125760   1.025   4.766   4.367
 8287SOL    HW225761   1.050   4.924   4.338
 8288SOL     OW25762   2.840   2.297   2.493
 8288SOL    HW125763   2.901   2.287   2.572
 8288SOL    HW225764   2.892   2.284   2.409
 8289SOL     OW25765   0.333   6.342   6.141
 8289SOL    HW125766   0.383   6.409   6.195
 8289SOL    HW225767   0.393   6.266   6.117
 8290SOL     OW25768   5.266   1.694   0.941
 8290SOL    HW125769   5.224   1.603   0.946
 8290SOL    HW225770   5.194   1.763   0.940
 8291SOL     OW25771   4.791   4.724   5.800
 8291SOL    HW125772   4.879   4.770   5.816
 8291SOL    HW225773   4.761   4.680   5.885
 8292SOL     OW25774   3.330   6.375   6.633
 8292SOL    HW125775   3.306   6.284   6.598
 8292SOL    HW225776   3.419   6.371   6.678
 8293SOL     OW25777   1.904   5.462   0.908
 8293SOL    HW125778   1.895   5.417   0.819
 8293SOL    HW225779   1.895   5.561   0.896
 8294SOL     OW25780   5.230   3.770   4.905
 8294SOL    HW125781   5.222   3.848   4.844
 8294SOL    HW225782   5.294   3.792   4.979
 8295SOL     OW25783   4.911   3.496   2.355
 8295SOL    HW125784   4.944   3.587   2.331
 8295SOL    HW225785   4.879   3.495   2.450
 8296SOL     OW25786   2.497   4.919   0.200
 8296SOL    HW125787   2.432   4.966   0.139
 8296SOL    HW225788   2.563   4.868   0.145
 8297SOL     OW25789   0.123   3.459   2.720
 8297SOL    HW125790   0.126   3.503   2.810
 8297SOL    HW225791   0.167   3.370   2.725
 8298SOL     OW25792   6.954   1.520   0.819
 8298SOL    HW125793   6.998   1.493   0.734
 8298SOL    HW225794   6.943   1.619   0.820
 8299SOL     OW25795   0.576   2.854   2.863
 8299SOL    HW125796   0.516   2.907   2.922
 8299SOL    HW225797   0.671   2.864   2.893
 8300SOL     OW25798   0.421   6.191   3.963
 8300SOL    HW125799   0.462   6.235   4.042
 8300SOL    HW225800   0.321   6.205   3.965
 8301SOL     OW25801   4.515   1.229   0.433
 8301SOL    HW125802   4.531   1.199   0.527
 8301SOL    HW225803   4.601   1.224   0.382
 8302SOL     OW25804   5.489   6.531   6.323
 8302SOL    HW125805   5.572   6.560   6.275
 8302SOL    HW225806   5.418   6.508   6.257
 8303SOL     OW25807   5.988   0.367   3.805
 8303SOL    HW125808   5.954   0.450   3.760
 8303SOL    HW225809   5.928   0.343   3.881
 8304SOL     OW25810   5.516   3.855   1.687
 8304SOL    HW125811   5.469   3.853   1.598
 8304SOL    HW225812   5.458   3.902   1.754
 8305SOL     OW25813   4.794   4.618   4.257
 8305SOL    HW125814   4.817   4.690   4.322
 8305SOL    HW225815   4.795   4.655   4.164
 8306SOL     OW25816   6.134   1.354   3.402
 8306SOL    HW125817   6.155   1.325   3.308
 8306SOL    HW225818   6.077   1.436   3.399
 8307SOL     OW25819   3.882   5.538   1.544
 8307SOL    HW125820   3.831   5.460   1.581
 8307SOL    HW225821   3.973   5.541   1.585
 8308SOL     OW25822   2.321   6.049   0.071
 8308SOL    HW125823   2.371   5.989   0.134
 8308SOL    HW225824   2.340   6.022   6.996
 8309SOL     OW25825   6.320   5.879   2.205
 8309SOL    HW125826   6.360   5.924   2.285
 8309SOL    HW225827   6.354   5.923   2.121
 8310SOL     OW25828   0.727   5.724   1.538
 8310SOL    HW125829   0.748   5.657   1.609
 8310SOL    HW225830   0.630   5.718   1.513
 8311SOL     OW25831   6.492   1.555   5.516
 8311SOL    HW125832   6.401   1.567   5.557
 8311SOL    HW225833   6.561   1.594   5.576
 8312SOL     OW25834   4.907   0.907   6.921
 8312SOL    HW125835   4.890   0.967   6.844
 8312SOL    HW225836   4.825   0.853   6.941
 8313SOL     OW25837   5.845   0.097   6.366
 8313SOL    HW125838   5.779   0.131   6.298
 8313SOL    HW225839   5.853   0.163   6.440
 8314SOL     OW25840   6.046   6.632   6.849
 8314SOL    HW125841   5.983   6.709   6.846
 8314SOL    HW225842   6.007   6.560   6.907
 8315SOL     OW25843   3.780   3.104   2.299
 8315SOL    HW125844   3.684   3.132   2.307
 8315SOL    HW225845   3.832   3.141   2.376
 8316SOL     OW25846   1.134   3.026   2.150
 8316SOL    HW125847   1.121   2.927   2.151
 8316SOL    HW225848   1.207   3.049   2.086
 8317SOL     OW25849   1.470   2.528   2.931
 8317SOL    HW125850   1.518   2.472   2.863
 8317SOL    HW225851   1.529   2.603   2.960
 8318SOL     OW25852   3.962   1.621   5.970
 8318SOL    HW125853   3.962   1.524   5.947
 8318SOL    HW225854   3.958   1.632   6.069
 8319SOL     OW25855   0.998   1.345   1.455
 8319SOL    HW125856   0.972   1.253   1.426
 8319SOL    HW225857   1.092   1.344   1.488
 8320SOL     OW25858   2.951   3.776   2.689
 8320SOL    HW125859   2.953   3.799   2.786
 8320SOL    HW225860   2.990   3.851   2.635
 8321SOL     OW25861   6.436   6.845   6.912
 8321SOL    HW125862   6.469   6.850   7.006
 8321SOL    HW225863   6.419   6.750   6.887
 8322SOL     OW25864   6.581   0.621   0.723
 8322SOL    HW125865   6.595   0.591   0.817
 8322SOL    HW225866   6.670   0.636   0.679
 8323SOL     OW25867   4.621   4.627   1.503
 8323SOL    HW125868   4.665   4.680   1.430
 8323SOL    HW225869   4.639   4.530   1.489
 8324SOL     OW25870   5.982   0.001   1.490
 8324SOL    HW125871   5.902   0.034   1.540
 8324SOL    HW225872   5.968   6.923   1.466
 8325SOL     OW25873   1.404   3.489   5.097
 8325SOL    HW125874   1.315   3.535   5.100
 8325SOL    HW225875   1.475   3.554   5.069
 8326SOL     OW25876   4.462   4.308   5.358
 8326SOL    HW125877   4.488   4.215   5.330
 8326SOL    HW225878   4.362   4.311   5.369
 8327SOL     OW25879   6.890   0.162   5.715
 8327SOL    HW125880   6.949   0.110   5.654
 8327SOL    HW225881   6.823   0.101   5.757
 8328SOL     OW25882   2.811   5.908   6.847
 8328SOL    HW125883   2.732   5.848   6.834
 8328SOL    HW225884   2.890   5.871   6.798
 8329SOL     OW25885   0.985   2.924   5.169
 8329SOL    HW125886   1.037   2.975   5.100
 8329SOL    HW225887   1.024   2.941   5.260
 8330SOL     OW25888   2.899   0.753   6.326
 8330SOL    HW125889   2.855   0.702   6.252
 8330SOL    HW225890   2.902   0.851   6.303
 8331SOL     OW25891   3.324   0.647   1.346
 8331SOL    HW125892   3.322   0.587   1.426
 8331SOL    HW225893   3.346   0.593   1.265
 8332SOL     OW25894   6.010   5.494   2.133
 8332SOL    HW125895   6.074   5.444   2.191
 8332SOL    HW225896   6.024   5.592   2.145
 8333SOL     OW25897   0.776   5.408   6.472
 8333SOL    HW125898   0.838   5.349   6.420
 8333SOL    HW225899   0.813   5.501   6.474
 8334SOL     OW25900   3.631   1.764   4.405
 8334SOL    HW125901   3.600   1.669   4.398
 8334SOL    HW225902   3.676   1.777   4.494
 8335SOL     OW25903   4.745   1.210   0.277
 8335SOL    HW125904   4.786   1.199   0.187
 8335SOL    HW225905   4.815   1.198   0.348
 8336SOL     OW25906   0.632   4.841   2.738
 8336SOL    HW125907   0.600   4.766   2.680
 8336SOL    HW225908   0.641   4.924   2.683
 8337SOL     OW25909   0.752   6.144   3.564
 8337SOL    HW125910   0.731   6.198   3.483
 8337SOL    HW225911   0.732   6.198   3.646
 8338SOL     OW25912   4.025   5.043   1.582
 8338SOL    HW125913   3.943   5.100   1.580
 8338SOL    HW225914   4.088   5.078   1.653
 8339SOL     OW25915   6.852   0.569   2.188
 8339SOL    HW125916   6.850   0.651   2.246
 8339SOL    HW225917   6.762   0.553   2.148
 8340SOL     OW25918   4.825   3.892   1.457
 8340SOL    HW125919   4.827   3.917   1.360
 8340SOL    HW225920   4.914   3.856   1.484
 8341SOL     OW25921   2.236   0.022   6.448
 8341SOL    HW125922   2.272   0.034   6.356
 8341SOL    HW225923   2.136   0.028   6.446
 8342SOL     OW25924   4.711   0.020   0.249
 8342SOL    HW125925   4.809   0.036   0.241
 8342SOL    HW225926   4.676   0.066   0.330
 8343SOL     OW25927   0.503   6.025   3.666
 8343SOL    HW125928   0.552   5.943   3.638
 8343SOL    HW225929   0.544   6.105   3.621
 8344SOL     OW25930   6.138   5.706   4.675
 8344SOL    HW125931   6.039   5.713   4.679
 8344SOL    HW225932   6.165   5.652   4.595
 8345SOL     OW25933   4.188   2.085   2.630
 8345SOL    HW125934   4.124   2.135   2.572
 8345SOL    HW225935   4.275   2.135   2.634
 8346SOL     OW25936   3.639   5.098   0.541
 8346SOL    HW125937   3.685   5.080   0.453
 8346SOL    HW225938   3.541   5.106   0.526
 8347SOL     OW25939   3.469   6.770   4.758
 8347SOL    HW125940   3.518   6.692   4.719
 8347SOL    HW225941   3.371   6.752   4.755
 8348SOL     OW25942   2.062   1.437   1.211
 8348SOL    HW125943   2.103   1.381   1.139
 8348SOL    HW225944   2.135   1.473   1.270
 8349SOL     OW25945   0.703   0.171   2.251
 8349SOL    HW125946   0.686   0.124   2.165
 8349SOL    HW225947   0.792   0.143   2.288
 8350SOL     OW25948   2.930   6.036   6.142
 8350SOL    HW125949   2.838   6.034   6.101
 8350SOL    HW225950   2.922   6.027   6.241
 8351SOL     OW25951   5.144   5.624   4.649
 8351SOL    HW125952   5.100   5.537   4.631
 8351SOL    HW225953   5.088   5.678   4.711
 8352SOL     OW25954   0.375   0.019   3.219
 8352SOL    HW125955   0.395   0.067   3.134
 8352SOL    HW225956   0.407   6.944   3.213
 8353SOL     OW25957   0.329   4.032   1.400
 8353SOL    HW125958   0.346   3.947   1.451
 8353SOL    HW225959   0.394   4.102   1.429
 8354SOL     OW25960   3.374   0.331   4.877
 8354SOL    HW125961   3.365   0.243   4.923
 8354SOL    HW225962   3.348   0.323   4.781
 8355SOL     OW25963   2.844   1.359   5.423
 8355SOL    HW125964   2.777   1.387   5.492
 8355SOL    HW225965   2.868   1.263   5.436
 8356SOL     OW25966   0.911   0.184   1.890
 8356SOL    HW125967   0.930   0.278   1.917
 8356SOL    HW225968   0.903   0.178   1.791
 8357SOL     OW25969   3.548   6.910   5.190
 8357SOL    HW125970   3.502   6.855   5.120
 8357SOL    HW225971   3.611   6.853   5.242
 8358SOL     OW25972   1.856   4.097   5.238
 8358SOL    HW125973   1.768   4.106   5.191
 8358SOL    HW225974   1.928   4.136   5.181
 8359SOL     OW25975   3.215   0.602   5.154
 8359SOL    HW125976   3.296   0.652   5.123
 8359SOL    HW225977   3.168   0.655   5.225
 8360SOL     OW25978   4.059   6.864   0.460
 8360SOL    HW125979   4.137   6.927   0.460
 8360SOL    HW225980   3.993   6.892   0.529
 8361SOL     OW25981   3.410   0.559   1.597
 8361SOL    HW125982   3.382   0.579   1.691
 8361SOL    HW225983   3.392   0.463   1.577
 8362SOL     OW25984   4.383   1.319   0.834
 8362SOL    HW125985   4.394   1.283   0.927
 8362SOL    HW225986   4.379   1.418   0.837
 8363SOL     OW25987   4.921   2.913   6.788
 8363SOL    HW125988   4.901   2.824   6.749
 8363SOL    HW225989   5.007   2.909   6.839
 8364SOL     OW25990   0.581   2.280   3.734
 8364SOL    HW125991   0.521   2.210   3.695
 8364SOL    HW225992   0.671   2.274   3.690
 8365SOL     OW25993   1.725   3.022   2.590
 8365SOL    HW125994   1.762   2.977   2.509
 8365SOL    HW225995   1.762   2.979   2.672
 8366SOL     OW25996   2.350   5.510   1.244
 8366SOL    HW125997   2.280   5.526   1.174
 8366SOL    HW225998   2.341   5.416   1.278
 8367SOL     OW25999   4.060   5.730   4.823
 8367SOL    HW126000   4.139   5.756   4.878
 8367SOL    HW226001   3.984   5.705   4.884
 8368SOL     OW26002   0.744   6.751   6.379
 8368SOL    HW126003   0.734   6.743   6.478
 8368SOL    HW226004   0.721   6.663   6.336
 8369SOL     OW26005   0.838   0.486   6.065
 8369SOL    HW126006   0.844   0.404   6.122
 8369SOL    HW226007   0.755   0.537   6.087
 8370SOL     OW26008   2.718   1.636   5.715
 8370SOL    HW126009   2.770   1.717   5.744
 8370SOL    HW226010   2.713   1.634   5.615
 8371SOL     OW26011   1.759   4.461   1.009
 8371SOL    HW126012   1.744   4.374   1.054
 8371SOL    HW226013   1.849   4.462   0.966
 8372SOL     OW26014   1.493   5.473   1.715
 8372SOL    HW126015   1.523   5.432   1.801
 8372SOL    HW226016   1.568   5.470   1.649
 8373SOL     OW26017   2.074   6.848   3.681
 8373SOL    HW126018   2.092   6.871   3.586
 8373SOL    HW226019   2.064   6.749   3.691
 8374SOL     OW26020   0.134   0.453   5.060
 8374SOL    HW126021   0.230   0.442   5.035
 8374SOL    HW226022   0.084   0.494   4.984
 8375SOL     OW26023   3.931   6.363   5.069
 8375SOL    HW126024   3.899   6.427   4.999
 8375SOL    HW226025   3.971   6.283   5.024
 8376SOL     OW26026   0.635   1.366   4.609
 8376SOL    HW126027   0.561   1.421   4.571
 8376SOL    HW226028   0.708   1.427   4.641
 8377SOL     OW26029   5.464   6.085   0.760
 8377SOL    HW126030   5.474   5.996   0.717
 8377SOL    HW226031   5.529   6.092   0.837
 8378SOL     OW26032   3.903   4.807   2.873
 8378SOL    HW126033   3.874   4.754   2.793
 8378SOL    HW226034   3.874   4.902   2.861
 8379SOL     OW26035   5.063   2.836   1.140
 8379SOL    HW126036   5.131   2.819   1.069
 8379SOL    HW226037   5.102   2.814   1.229
 8380SOL     OW26038   0.915   0.430   2.013
 8380SOL    HW126039   0.906   0.441   2.112
 8380SOL    HW226040   0.986   0.491   1.978
 8381SOL     OW26041   0.719   2.620   4.137
 8381SOL    HW126042   0.668   2.682   4.198
 8381SOL    HW226043   0.717   2.656   4.044
 8382SOL     OW26044   2.153   0.081   2.613
 8382SOL    HW126045   2.166   0.054   2.708
 8382SOL    HW226046   2.169   0.003   2.553
 8383SOL     OW26047   3.145   0.046   5.881
 8383SOL    HW126048   3.153   6.967   5.866
 8383SOL    HW226049   3.098   0.088   5.804
 8384SOL     OW26050   6.439   1.486   1.652
 8384SOL    HW126051   6.421   1.476   1.555
 8384SOL    HW226052   6.486   1.405   1.686
 8385SOL     OW26053   4.923   2.898   0.086
 8385SOL    HW126054   4.883   2.928   0.000
 8385SOL    HW226055   4.873   2.818   0.121
 8386SOL     OW26056   1.791   6.408   1.707
 8386SOL    HW126057   1.760   6.459   1.787
 8386SOL    HW226058   1.752   6.316   1.708
 8387SOL     OW26059   1.235   1.537   1.694
 8387SOL    HW126060   1.258   1.476   1.619
 8387SOL    HW226061   1.312   1.541   1.758
 8388SOL     OW26062   2.550   0.461   0.508
 8388SOL    HW126063   2.461   0.415   0.499
 8388SOL    HW226064   2.610   0.407   0.567
 8389SOL     OW26065   6.792   3.713   3.949
 8389SOL    HW126066   6.867   3.728   3.885
 8389SOL    HW226067   6.804   3.625   3.996
 8390SOL     OW26068   4.538   6.823   0.211
 8390SOL    HW126069   4.566   6.730   0.234
 8390SOL    HW226070   4.615   6.885   0.223
 8391SOL     OW26071   6.021   4.625   0.747
 8391SOL    HW126072   6.017   4.684   0.666
 8391SOL    HW226073   6.110   4.633   0.790
 8392SOL     OW26074   0.061   4.865   4.992
 8392SOL    HW126075   0.075   4.780   4.942
 8392SOL    HW226076   7.005   4.854   5.056
 8393SOL     OW26077   0.395   0.371   2.583
 8393SOL    HW126078   0.323   0.333   2.642
 8393SOL    HW226079   0.422   0.303   2.515
 8394SOL     OW26080   0.011   2.843   1.658
 8394SOL    HW126081   7.010   2.807   1.567
 8394SOL    HW226082   0.089   2.794   1.696
 8395SOL     OW26083   2.366   6.406   4.656
 8395SOL    HW126084   2.404   6.429   4.746
 8395SOL    HW226085   2.404   6.319   4.626
 8396SOL     OW26086   4.284   4.946   3.151
 8396SOL    HW126087   4.229   4.980   3.227
 8396SOL    HW226088   4.264   4.849   3.136
 8397SOL     OW26089   2.471   0.709   2.553
 8397SOL    HW126090   2.542   0.676   2.492
 8397SOL    HW226091   2.497   0.799   2.588
 8398SOL     OW26092   4.306   2.484   6.823
 8398SOL    HW126093   4.262   2.417   6.884
 8398SOL    HW226094   4.280   2.576   6.852
 8399SOL     OW26095   6.090   5.956   0.228
 8399SOL    HW126096   6.074   6.055   0.235
 8399SOL    HW226097   6.087   5.915   0.319
 8400SOL     OW26098   1.665   1.009   4.464
 8400SOL    HW126099   1.683   1.078   4.394
 8400SOL    HW226100   1.746   0.952   4.477
 8401SOL     OW26101   3.059   1.522   6.391
 8401SOL    HW126102   2.979   1.581   6.380
 8401SOL    HW226103   3.058   1.451   6.321
 8402SOL     OW26104   3.660   2.209   5.522
 8402SOL    HW126105   3.578   2.165   5.486
 8402SOL    HW226106   3.634   2.294   5.569
 8403SOL     OW26107   1.465   2.442   4.481
 8403SOL    HW126108   1.400   2.421   4.555
 8403SOL    HW226109   1.417   2.491   4.408
 8404SOL     OW26110   4.512   6.766   5.770
 8404SOL    HW126111   4.518   6.682   5.824
 8404SOL    HW226112   4.536   6.845   5.828
 8405SOL     OW26113   2.706   0.020   5.581
 8405SOL    HW126114   2.623   0.014   5.635
 8405SOL    HW226115   2.684   0.051   5.489
 8406SOL     OW26116   6.248   6.990   0.580
 8406SOL    HW126117   6.179   6.976   0.508
 8406SOL    HW226118   6.219   0.046   0.639
 8407SOL     OW26119   3.771   6.138   4.341
 8407SOL    HW126120   3.726   6.181   4.263
 8407SOL    HW226121   3.702   6.112   4.409
 8408SOL     OW26122   5.656   3.785   2.560
 8408SOL    HW126123   5.728   3.838   2.604
 8408SOL    HW226124   5.670   3.688   2.576
 8409SOL     OW26125   5.532   2.970   4.143
 8409SOL    HW126126   5.627   2.999   4.147
 8409SOL    HW226127   5.487   2.992   4.230
 8410SOL     OW26128   5.185   0.988   2.088
 8410SOL    HW126129   5.277   1.029   2.085
 8410SOL    HW226130   5.151   0.977   1.995
 8411SOL     OW26131   0.417   4.624   0.227
 8411SOL    HW126132   0.456   4.551   0.283
 8411SOL    HW226133   0.427   4.601   0.130
 8412SOL     OW26134   3.207   1.874   1.563
 8412SOL    HW126135   3.132   1.925   1.605
 8412SOL    HW226136   3.266   1.937   1.513
 8413SOL     OW26137   4.122   5.700   0.331
 8413SOL    HW126138   4.203   5.641   0.331
 8413SOL    HW226139   4.150   5.795   0.346
 8414SOL     OW26140   3.589   5.177   3.474
 8414SOL    HW126141   3.667   5.117   3.460
 8414SOL    HW226142   3.512   5.145   3.420
 8415SOL     OW26143   6.844   6.231   3.709
 8415SOL    HW126144   6.758   6.185   3.729
 8415SOL    HW226145   6.908   6.166   3.669
 8416SOL     OW26146   5.335   3.836   2.761
 8416SOL    HW126147   5.301   3.930   2.752
 8416SOL    HW226148   5.361   3.819   2.856
 8417SOL     OW26149   1.568   4.195   5.888
 8417SOL    HW126150   1.555   4.117   5.949
 8417SOL    HW226151   1.624   4.167   5.809
 8418SOL     OW26152   5.634   4.551   1.198
 8418SOL    HW126153   5.669   4.461   1.173
 8418SOL    HW226154   5.619   4.605   1.115
 8419SOL     OW26155   5.271   0.061   2.241
 8419SOL    HW126156   5.322   6.994   2.233
 8419SOL    HW226157   5.334   0.134   2.266
 8420SOL     OW26158   4.573   6.532   0.287
 8420SOL    HW126159   4.491   6.495   0.243
 8420SOL    HW226160   4.654   6.495   0.242
 8421SOL     OW26161   1.923   5.706   6.672
 8421SOL    HW126162   1.842   5.693   6.614
 8421SOL    HW226163   1.916   5.648   6.752
 8422SOL     OW26164   3.885   0.899   1.266
 8422SOL    HW126165   3.942   0.934   1.192
 8422SOL    HW226166   3.902   0.951   1.349
 8423SOL     OW26167   3.397   4.640   5.894
 8423SOL    HW126168   3.489   4.673   5.874
 8423SOL    HW226169   3.401   4.545   5.924
 8424SOL     OW26170   2.128   2.486   2.804
 8424SOL    HW126171   2.042   2.476   2.753
 8424SOL    HW226172   2.117   2.446   2.895
 8425SOL     OW26173   5.014   5.295   6.965
 8425SOL    HW126174   5.017   5.219   0.011
 8425SOL    HW226175   4.996   5.260   6.873
 8426SOL     OW26176   3.409   3.639   4.046
 8426SOL    HW126177   3.440   3.668   4.137
 8426SOL    HW226178   3.351   3.558   4.055
 8427SOL     OW26179   3.876   3.603   4.870
 8427SOL    HW126180   3.945   3.539   4.904
 8427SOL    HW226181   3.921   3.681   4.827
 8428SOL     OW26182   0.394   4.468   1.614
 8428SOL    HW126183   0.413   4.391   1.554
 8428SOL    HW226184   0.480   4.505   1.650
 8429SOL     OW26185   1.467   5.793   3.876
 8429SOL    HW126186   1.448   5.778   3.973
 8429SOL    HW226187   1.443   5.887   3.851
 8430SOL     OW26188   3.223   5.208   3.587
 8430SOL    HW126189   3.190   5.127   3.635
 8430SOL    HW226190   3.186   5.291   3.630
 8431SOL     OW26191   3.364   5.073   0.498
 8431SOL    HW126192   3.370   4.999   0.430
 8431SOL    HW226193   3.308   5.043   0.575
 8432SOL     OW26194   5.863   6.926   6.153
 8432SOL    HW126195   5.927   6.850   6.143
 8432SOL    HW226196   5.890   6.982   6.231
 8433SOL     OW26197   5.272   2.732   0.448
 8433SOL    HW126198   5.190   2.727   0.392
 8433SOL    HW226199   5.306   2.639   0.465
 8434SOL     OW26200   2.544   6.715   4.669
 8434SOL    HW126201   2.551   6.616   4.658
 8434SOL    HW226202   2.461   6.736   4.721
 8435SOL     OW26203   5.999   1.130   1.645
 8435SOL    HW126204   5.907   1.091   1.644
 8435SOL    HW226205   6.046   1.107   1.560
 8436SOL     OW26206   3.919   6.992   3.333
 8436SOL    HW126207   3.993   6.990   3.265
 8436SOL    HW226208   3.853   6.921   3.311
 8437SOL     OW26209   2.031   0.333   3.616
 8437SOL    HW126210   2.086   0.270   3.561
 8437SOL    HW226211   2.027   0.422   3.571
 8438SOL     OW26212   2.514   4.690   2.248
 8438SOL    HW126213   2.469   4.772   2.282
 8438SOL    HW226214   2.486   4.611   2.303
 8439SOL     OW26215   6.070   5.107   2.357
 8439SOL    HW126216   6.168   5.120   2.343
 8439SOL    HW226217   6.053   5.014   2.390
 8440SOL     OW26218   0.901   2.529   3.874
 8440SOL    HW126219   0.842   2.453   3.897
 8440SOL    HW226220   0.956   2.507   3.794
 8441SOL     OW26221   5.670   0.070   6.787
 8441SOL    HW126222   5.626   0.040   6.872
 8441SOL    HW226223   5.760   0.108   6.808
 8442SOL     OW26224   3.139   1.458   5.019
 8442SOL    HW126225   3.090   1.464   5.107
 8442SOL    HW226226   3.192   1.373   5.017
 8443SOL     OW26227   2.185   5.587   3.552
 8443SOL    HW126228   2.195   5.622   3.645
 8443SOL    HW226229   2.161   5.661   3.490
 8444SOL     OW26230   2.509   5.956   3.618
 8444SOL    HW126231   2.426   5.995   3.657
 8444SOL    HW226232   2.589   6.006   3.650
 8445SOL     OW26233   3.974   6.578   0.462
 8445SOL    HW126234   3.975   6.544   0.556
 8445SOL    HW226235   4.030   6.660   0.456
 8446SOL     OW26236   4.368   4.898   6.668
 8446SOL    HW126237   4.359   4.997   6.679
 8446SOL    HW226238   4.379   4.855   6.758
 8447SOL     OW26239   4.647   2.034   2.081
 8447SOL    HW126240   4.706   2.056   2.003
 8447SOL    HW226241   4.645   1.935   2.095
 8448SOL     OW26242   4.670   6.026   4.044
 8448SOL    HW126243   4.638   6.064   3.957
 8448SOL    HW226244   4.631   6.078   4.120
 8449SOL     OW26245   6.681   2.847   3.933
 8449SOL    HW126246   6.610   2.916   3.931
 8449SOL    HW226247   6.769   2.889   3.911
 8450SOL     OW26248   0.840   6.624   1.447
 8450SOL    HW126249   0.901   6.581   1.514
 8450SOL    HW226250   0.857   6.586   1.357
 8451SOL     OW26251   3.677   2.279   0.076
 8451SOL    HW126252   3.665   2.376   0.097
 8451SOL    HW226253   3.610   2.226   0.128
 8452SOL     OW26254   6.263   1.318   2.813
 8452SOL    HW126255   6.260   1.218   2.821
 8452SOL    HW226256   6.261   1.359   2.905
 8453SOL     OW26257   0.453   4.410   6.456
 8453SOL    HW126258   0.374   4.349   6.448
 8453SOL    HW226259   0.535   4.356   6.475
 8454SOL     OW26260   0.030   6.998   1.344
 8454SOL    HW126261   6.979   0.042   1.381
 8454SOL    HW226262   7.010   6.945   1.269
 8455SOL     OW26263   6.258   2.788   1.704
 8455SOL    HW126264   6.274   2.884   1.727
 8455SOL    HW226265   6.170   2.779   1.657
 8456SOL     OW26266   4.593   6.475   2.640
 8456SOL    HW126267   4.604   6.403   2.709
 8456SOL    HW226268   4.680   6.524   2.629
 8457SOL     OW26269   6.471   6.334   4.882
 8457SOL    HW126270   6.457   6.407   4.950
 8457SOL    HW226271   6.513   6.255   4.926
 8458SOL     OW26272   3.246   1.627   6.559
 8458SOL    HW126273   3.192   1.579   6.490
 8458SOL    HW226274   3.200   1.712   6.585
 8459SOL     OW26275   3.029   6.315   2.374
 8459SOL    HW126276   2.983   6.348   2.292
 8459SOL    HW226277   2.961   6.282   2.440
 8460SOL     OW26278   4.501   3.614   5.346
 8460SOL    HW126279   4.459   3.704   5.342
 8460SOL    HW226280   4.581   3.612   5.286
 8461SOL     OW26281   0.110   4.496   3.817
 8461SOL    HW126282   0.075   4.429   3.752
 8461SOL    HW226283   0.157   4.449   3.892
 8462SOL     OW26284   3.201   2.433   6.370
 8462SOL    HW126285   3.103   2.410   6.372
 8462SOL    HW226286   3.249   2.372   6.308
 8463SOL     OW26287   6.750   6.945   0.873
 8463SOL    HW126288   6.662   6.905   0.898
 8463SOL    HW226289   6.741   0.026   0.870
 8464SOL     OW26290   5.490   3.517   5.023
 8464SOL    HW126291   5.410   3.467   5.054
 8464SOL    HW226292   5.477   3.615   5.041
 8465SOL     OW26293   1.220   2.576   1.033
 8465SOL    HW126294   1.128   2.572   1.072
 8465SOL    HW226295   1.216   2.620   0.943
 8466SOL     OW26296   0.539   6.585   4.790
 8466SOL    HW126297   0.468   6.635   4.740
 8466SOL    HW226298   0.624   6.585   4.737
 8467SOL     OW26299   4.404   6.630   1.233
 8467SOL    HW126300   4.400   6.573   1.151
 8467SOL    HW226301   4.319   6.682   1.242
 8468SOL     OW26302   3.843   2.201   6.431
 8468SOL    HW126303   3.931   2.242   6.454
 8468SOL    HW226304   3.823   2.214   6.334
 8469SOL     OW26305   3.054   1.325   6.209
 8469SOL    HW126306   2.967   1.285   6.181
 8469SOL    HW226307   3.113   1.254   6.247
 8470SOL     OW26308   1.842   3.911   0.067
 8470SOL    HW126309   1.895   3.887   7.005
 8470SOL    HW226310   1.888   3.983   0.118
 8471SOL     OW26311   3.949   1.080   3.342
 8471SOL    HW126312   3.881   1.035   3.400
 8471SOL    HW226313   3.902   1.124   3.265
 8472SOL     OW26314   0.015   0.805   4.918
 8472SOL    HW126315   6.961   0.843   4.975
 8472SOL    HW226316   7.014   0.709   4.899
 8473SOL     OW26317   6.880   5.945   0.292
 8473SOL    HW126318   6.949   5.991   0.349
 8473SOL    HW226319   6.924   5.871   0.241
 8474SOL     OW26320   3.356   3.033   1.676
 8474SOL    HW126321   3.429   2.981   1.630
 8474SOL    HW226322   3.374   3.035   1.774
 8475SOL     OW26323   6.570   2.609   4.013
 8475SOL    HW126324   6.541   2.568   3.927
 8475SOL    HW226325   6.630   2.687   3.994
 8476SOL     OW26326   6.542   2.112   1.146
 8476SOL    HW126327   6.613   2.043   1.138
 8476SOL    HW226328   6.573   2.185   1.207
 8477SOL     OW26329   5.151   6.794   0.915
 8477SOL    HW126330   5.077   6.770   0.853
 8477SOL    HW226331   5.234   6.813   0.862
 8478SOL     OW26332   1.889   0.067   6.106
 8478SOL    HW126333   1.815   0.067   6.173
 8478SOL    HW226334   1.947   7.006   6.120
 8479SOL     OW26335   1.016   2.931   1.140
 8479SOL    HW126336   0.963   2.895   1.063
 8479SOL    HW226337   1.011   3.031   1.139
 8480SOL     OW26338   4.569   2.130   6.669
 8480SOL    HW126339   4.537   2.221   6.642
 8480SOL    HW226340   4.557   2.118   6.768
 8481SOL     OW26341   4.248   2.266   4.401
 8481SOL    HW126342   4.310   2.226   4.334
 8481SOL    HW226343   4.269   2.363   4.413
 8482SOL     OW26344   4.214   6.010   1.768
 8482SOL    HW126345   4.125   5.996   1.724
 8482SOL    HW226346   4.281   6.039   1.700
 8483SOL     OW26347   4.594   6.061   2.597
 8483SOL    HW126348   4.524   6.129   2.578
 8483SOL    HW226349   4.622   6.018   2.511
 8484SOL     OW26350   0.212   6.568   3.788
 8484SOL    HW126351   0.229   6.507   3.710
 8484SOL    HW226352   0.269   6.649   3.780
 8485SOL     OW26353   3.740   2.727   6.890
 8485SOL    HW126354   3.780   2.661   6.828
 8485SOL    HW226355   3.675   2.785   6.840
 8486SOL     OW26356   3.196   1.429   2.864
 8486SOL    HW126357   3.260   1.353   2.851
 8486SOL    HW226358   3.113   1.412   2.811
 8487SOL     OW26359   6.059   1.347   6.024
 8487SOL    HW126360   6.070   1.391   6.113
 8487SOL    HW226361   6.109   1.398   5.954
 8488SOL     OW26362   5.276   5.739   0.121
 8488SOL    HW126363   5.305   5.745   0.026
 8488SOL    HW226364   5.340   5.680   0.172
 8489SOL     OW26365   6.291   1.978   0.996
 8489SOL    HW126366   6.292   1.982   1.096
 8489SOL    HW226367   6.328   2.063   0.959
 8490SOL     OW26368   4.572   6.463   3.719
 8490SOL    HW126369   4.624   6.443   3.636
 8490SOL    HW226370   4.573   6.382   3.778
 8491SOL     OW26371   2.846   6.171   0.773
 8491SOL    HW126372   2.835   6.270   0.778
 8491SOL    HW226373   2.766   6.127   0.814
 8492SOL     OW26374   5.055   3.780   5.651
 8492SOL    HW126375   5.073   3.835   5.732
 8492SOL    HW226376   4.993   3.829   5.590
 8493SOL     OW26377   1.990   2.596   6.831
 8493SOL    HW126378   1.946   2.628   6.747
 8493SOL    HW226379   2.050   2.668   6.866
 8494SOL     OW26380   3.175   5.281   1.521
 8494SOL    HW126381   3.174   5.294   1.620
 8494SOL    HW226382   3.176   5.184   1.500
 8495SOL     OW26383   6.187   5.317   2.531
 8495SOL    HW126384   6.220   5.280   2.618
 8495SOL    HW226385   6.136   5.246   2.481
 8496SOL     OW26386   1.210   2.981   1.528
 8496SOL    HW126387   1.161   2.894   1.529
 8496SOL    HW226388   1.301   2.968   1.488
 8497SOL     OW26389   6.278   0.840   3.738
 8497SOL    HW126390   6.275   0.937   3.715
 8497SOL    HW226391   6.219   0.822   3.817
 8498SOL     OW26392   6.947   6.486   3.023
 8498SOL    HW126393   6.938   6.505   2.925
 8498SOL    HW226394   6.974   6.390   3.036
 8499SOL     OW26395   1.822   4.885   6.793
 8499SOL    HW126396   1.778   4.919   6.710
 8499SOL    HW226397   1.879   4.806   6.771
 8500SOL     OW26398   1.606   5.963   5.271
 8500SOL    HW126399   1.635   6.044   5.322
 8500SOL    HW226400   1.582   5.990   5.178
 8501SOL     OW26401   0.652   2.132   6.900
 8501SOL    HW126402   0.556   2.135   6.927
 8501SOL    HW226403   0.689   2.040   6.916
 8502SOL     OW26404   1.237   3.902   0.999
 8502SOL    HW126405   1.152   3.906   1.051
 8502SOL    HW226406   1.283   3.815   1.018
 8503SOL     OW26407   1.401   6.204   3.972
 8503SOL    HW126408   1.355   6.128   3.926
 8503SOL    HW226409   1.471   6.242   3.910
 8504SOL     OW26410   2.761   5.088   2.070
 8504SOL    HW126411   2.693   5.093   1.997
 8504SOL    HW226412   2.788   4.993   2.085
 8505SOL     OW26413   4.881   3.534   4.041
 8505SOL    HW126414   4.867   3.585   4.126
 8505SOL    HW226415   4.906   3.439   4.063
 8506SOL     OW26416   0.037   0.585   6.356
 8506SOL    HW126417   0.009   0.574   6.261
 8506SOL    HW226418   6.975   0.577   6.415
 8507SOL     OW26419   3.413   1.103   5.641
 8507SOL    HW126420   3.459   1.110   5.729
 8507SOL    HW226421   3.359   1.185   5.624
 8508SOL     OW26422   5.794   1.655   5.113
 8508SOL    HW126423   5.849   1.738   5.110
 8508SOL    HW226424   5.821   1.600   5.192
 8509SOL     OW26425   4.967   1.790   4.262
 8509SOL    HW126426   5.046   1.783   4.323
 8509SOL    HW226427   4.969   1.715   4.196
 8510SOL     OW26428   5.895   3.888   3.030
 8510SOL    HW126429   5.969   3.945   3.068
 8510SOL    HW226430   5.921   3.858   2.938
 8511SOL     OW26431   6.115   3.504   2.332
 8511SOL    HW126432   6.119   3.481   2.234
 8511SOL    HW226433   6.095   3.421   2.384
 8512SOL     OW26434   3.424   1.980   1.890
 8512SOL    HW126435   3.453   2.040   1.964
 8512SOL    HW226436   3.367   2.030   1.826
 8513SOL     OW26437   5.778   4.320   1.168
 8513SOL    HW126438   5.766   4.234   1.118
 8513SOL    HW226439   5.770   4.302   1.266
 8514SOL     OW26440   2.695   2.416   3.865
 8514SOL    HW126441   2.660   2.464   3.945
 8514SOL    HW226442   2.666   2.464   3.782
 8515SOL     OW26443   5.750   1.755   1.027
 8515SOL    HW126444   5.816   1.716   1.092
 8515SOL    HW226445   5.752   1.702   0.942
 8516SOL     OW26446   5.851   2.289   1.605
 8516SOL    HW126447   5.855   2.385   1.634
 8516SOL    HW226448   5.866   2.230   1.685
 8517SOL     OW26449   1.258   2.674   6.080
 8517SOL    HW126450   1.249   2.752   6.017
 8517SOL    HW226451   1.230   2.702   6.172
 8518SOL     OW26452   4.241   3.731   6.826
 8518SOL    HW126453   4.194   3.644   6.837
 8518SOL    HW226454   4.251   3.752   6.729
 8519SOL     OW26455   1.100   4.138   2.037
 8519SOL    HW126456   1.185   4.102   2.001
 8519SOL    HW226457   1.023   4.094   1.991
 8520SOL     OW26458   3.359   2.438   0.269
 8520SOL    HW126459   3.407   2.361   0.227
 8520SOL    HW226460   3.338   2.416   0.365
 8521SOL     OW26461   2.182   5.464   6.159
 8521SOL    HW126462   2.268   5.466   6.210
 8521SOL    HW226463   2.172   5.549   6.108
 8522SOL     OW26464   1.502   6.262   1.552
 8522SOL    HW126465   1.484   6.219   1.464
 8522SOL    HW226466   1.566   6.206   1.604
 8523SOL     OW26467   2.228   6.623   6.500
 8523SOL    HW126468   2.200   6.677   6.580
 8523SOL    HW226469   2.205   6.527   6.515
 8524SOL     OW26470   0.429   2.660   4.885
 8524SOL    HW126471   0.333   2.638   4.904
 8524SOL    HW226472   0.441   2.671   4.787
 8525SOL     OW26473   6.241   4.153   2.952
 8525SOL    HW126474   6.202   4.080   2.897
 8525SOL    HW226475   6.278   4.116   3.037
 8526SOL     OW26476   3.980   5.701   0.084
 8526SOL    HW126477   4.038   5.705   0.165
 8526SOL    HW226478   3.918   5.779   0.082
 8527SOL     OW26479   2.456   0.559   5.986
 8527SOL    HW126480   2.489   0.626   5.919
 8527SOL    HW226481   2.435   0.473   5.939
 8528SOL     OW26482   3.768   2.416   6.056
 8528SOL    HW126483   3.712   2.496   6.080
 8528SOL    HW226484   3.800   2.426   5.962
 8529SOL     OW26485   0.426   0.334   1.415
 8529SOL    HW126486   0.339   0.285   1.422
 8529SOL    HW226487   0.409   0.431   1.399
 8530SOL     OW26488   3.213   3.589   4.859
 8530SOL    HW126489   3.263   3.569   4.943
 8530SOL    HW226490   3.216   3.510   4.798
 8531SOL     OW26491   6.626   5.238   2.662
 8531SOL    HW126492   6.549   5.185   2.699
 8531SOL    HW226493   6.662   5.191   2.582
 8532SOL     OW26494   3.940   5.134   4.770
 8532SOL    HW126495   3.946   5.203   4.697
 8532SOL    HW226496   3.968   5.175   4.857
 8533SOL     OW26497   2.048   0.158   5.799
 8533SOL    HW126498   2.119   0.190   5.863
 8533SOL    HW226499   1.994   0.086   5.842
 8534SOL     OW26500   6.166   3.226   4.144
 8534SOL    HW126501   6.193   3.250   4.237
 8534SOL    HW226502   6.248   3.200   4.092
 8535SOL     OW26503   6.592   1.395   4.569
 8535SOL    HW126504   6.519   1.458   4.595
 8535SOL    HW226505   6.676   1.419   4.618
 8536SOL     OW26506   6.109   2.683   4.891
 8536SOL    HW126507   6.166   2.602   4.877
 8536SOL    HW226508   6.167   2.764   4.900
 8537SOL     OW26509   5.648   1.692   1.959
 8537SOL    HW126510   5.610   1.744   2.035
 8537SOL    HW226511   5.734   1.734   1.930
 8538SOL     OW26512   0.805   1.109   6.140
 8538SOL    HW126513   0.869   1.171   6.096
 8538SOL    HW226514   0.854   1.028   6.172
 8539SOL     OW26515   5.784   0.902   1.931
 8539SOL    HW126516   5.765   0.999   1.915
 8539SOL    HW226517   5.751   0.876   2.021
 8540SOL     OW26518   4.902   1.133   0.045
 8540SOL    HW126519   4.935   1.193   6.991
 8540SOL    HW226520   4.915   1.038   0.018
 8541SOL     OW26521   2.929   2.263   4.405
 8541SOL    HW126522   2.853   2.320   4.372
 8541SOL    HW226523   2.922   2.251   4.504
 8542SOL     OW26524   3.001   4.992   6.881
 8542SOL    HW126525   2.983   4.924   6.810
 8542SOL    HW226526   3.099   4.997   6.898
 8543SOL     OW26527   2.959   1.064   0.171
 8543SOL    HW126528   2.990   1.083   0.078
 8543SOL    HW226529   3.028   1.094   0.237
 8544SOL     OW26530   5.851   2.910   4.428
 8544SOL    HW126531   5.808   2.861   4.353
 8544SOL    HW226532   5.789   2.914   4.506
 8545SOL     OW26533   4.759   6.472   4.442
 8545SOL    HW126534   4.815   6.514   4.371
 8545SOL    HW226535   4.711   6.543   4.494
 8546SOL     OW26536   0.394   0.536   3.207
 8546SOL    HW126537   0.307   0.500   3.240
 8546SOL    HW226538   0.465   0.466   3.218
 8547SOL     OW26539   1.368   6.749   6.235
 8547SOL    HW126540   1.367   6.681   6.309
 8547SOL    HW226541   1.382   6.840   6.275
 8548SOL     OW26542   6.128   3.172   5.770
 8548SOL    HW126543   6.042   3.147   5.725
 8548SOL    HW226544   6.108   3.207   5.862
 8549SOL     OW26545   1.308   3.079   4.680
 8549SOL    HW126546   1.333   3.126   4.765
 8549SOL    HW226547   1.302   3.146   4.606
 8550SOL     OW26548   1.752   4.923   6.542
 8550SOL    HW126549   1.762   4.840   6.486
 8550SOL    HW226550   1.763   5.003   6.483
 8551SOL     OW26551   2.364   3.509   6.798
 8551SOL    HW126552   2.395   3.447   6.870
 8551SOL    HW226553   2.427   3.587   6.793
 8552SOL     OW26554   2.958   0.356   3.274
 8552SOL    HW126555   2.989   0.356   3.369
 8552SOL    HW226556   2.859   0.371   3.272
 8553SOL     OW26557   3.943   3.747   6.672
 8553SOL    HW126558   4.000   3.827   6.655
 8553SOL    HW226559   3.847   3.772   6.660
 8554SOL     OW26560   0.643   5.246   1.207
 8554SOL    HW126561   0.727   5.223   1.256
 8554SOL    HW226562   0.667   5.288   1.119
 8555SOL     OW26563   2.328   0.761   3.911
 8555SOL    HW126564   2.234   0.781   3.882
 8555SOL    HW226565   2.379   0.847   3.917
 8556SOL     OW26566   1.117   5.901   5.154
 8556SOL    HW126567   1.167   5.951   5.225
 8556SOL    HW226568   1.086   5.965   5.084
 8557SOL     OW26569   6.539   0.093   2.598
 8557SOL    HW126570   6.440   0.079   2.587
 8557SOL    HW226571   6.586   0.064   2.516
 8558SOL     OW26572   2.099   4.507   2.931
 8558SOL    HW126573   2.193   4.537   2.944
 8558SOL    HW226574   2.038   4.562   2.988
 8559SOL     OW26575   1.635   0.663   2.183
 8559SOL    HW126576   1.640   0.759   2.211
 8559SOL    HW226577   1.703   0.610   2.235
 8560SOL     OW26578   6.759   6.655   1.808
 8560SOL    HW126579   6.826   6.645   1.881
 8560SOL    HW226580   6.802   6.701   1.730
 8561SOL     OW26581   3.715   0.216   2.313
 8561SOL    HW126582   3.802   0.231   2.360
 8561SOL    HW226583   3.716   0.265   2.225
 8562SOL     OW26584   3.911   6.116   5.945
 8562SOL    HW126585   3.894   6.208   5.981
 8562SOL    HW226586   3.833   6.086   5.890
 8563SOL     OW26587   1.430   4.210   0.576
 8563SOL    HW126588   1.408   4.297   0.533
 8563SOL    HW226589   1.479   4.225   0.662
 8564SOL     OW26590   3.243   0.920   4.954
 8564SOL    HW126591   3.161   0.903   5.009
 8564SOL    HW226592   3.283   0.832   4.926
 8565SOL     OW26593   3.544   5.342   0.941
 8565SOL    HW126594   3.556   5.281   1.019
 8565SOL    HW226595   3.541   5.437   0.973
 8566SOL     OW26596   1.217   0.229   1.421
 8566SOL    HW126597   1.178   0.143   1.454
 8566SOL    HW226598   1.317   0.224   1.424
 8567SOL     OW26599   0.401   2.658   3.506
 8567SOL    HW126600   0.400   2.559   3.497
 8567SOL    HW226601   0.448   2.699   3.428
 8568SOL     OW26602   5.717   1.381   6.977
 8568SOL    HW126603   5.700   1.477   6.955
 8568SOL    HW226604   5.715   1.369   0.058
 8569SOL     OW26605   4.360   0.985   5.908
 8569SOL    HW126606   4.272   0.967   5.952
 8569SOL    HW226607   4.346   1.045   5.829
 8570SOL     OW26608   1.673   1.759   4.815
 8570SOL    HW126609   1.592   1.715   4.775
 8570SOL    HW226610   1.733   1.792   4.742
 8571SOL     OW26611   1.121   5.530   4.711
 8571SOL    HW126612   1.049   5.599   4.726
 8571SOL    HW226613   1.083   5.439   4.728
 8572SOL     OW26614   3.603   4.963   6.633
 8572SOL    HW126615   3.624   5.022   6.555
 8572SOL    HW226616   3.572   4.874   6.600
 8573SOL     OW26617   3.313   6.615   6.512
 8573SOL    HW126618   3.385   6.642   6.449
 8573SOL    HW226619   3.331   6.522   6.546
 8574SOL     OW26620   0.146   6.221   6.362
 8574SOL    HW126621   0.176   6.306   6.318
 8574SOL    HW226622   0.146   6.147   6.294
 8575SOL     OW26623   2.318   2.762   4.272
 8575SOL    HW126624   2.266   2.681   4.297
 8575SOL    HW226625   2.350   2.808   4.355
 8576SOL     OW26626   1.093   4.436   5.889
 8576SOL    HW126627   1.095   4.455   5.987
 8576SOL    HW226628   1.180   4.394   5.861
 8577SOL     OW26629   1.135   6.208   4.718
 8577SOL    HW126630   1.093   6.127   4.760
 8577SOL    HW226631   1.063   6.273   4.692
 8578SOL     OW26632   5.948   6.366   4.110
 8578SOL    HW126633   5.960   6.333   4.204
 8578SOL    HW226634   5.926   6.288   4.050
 8579SOL     OW26635   2.129   0.291   1.981
 8579SOL    HW126636   2.171   0.233   2.050
 8579SOL    HW226637   2.064   0.352   2.024
 8580SOL     OW26638   2.473   6.034   1.627
 8580SOL    HW126639   2.409   5.998   1.559
 8580SOL    HW226640   2.553   6.072   1.581
 8581SOL     OW26641   3.451   3.916   1.472
 8581SOL    HW126642   3.516   3.841   1.486
 8581SOL    HW226643   3.492   3.986   1.414
 8582SOL     OW26644   4.734   4.178   4.132
 8582SOL    HW126645   4.815   4.234   4.151
 8582SOL    HW226646   4.670   4.185   4.208
 8583SOL     OW26647   5.515   0.471   4.199
 8583SOL    HW126648   5.550   0.508   4.285
 8583SOL    HW226649   5.579   0.494   4.125
 8584SOL     OW26650   0.730   5.000   5.755
 8584SOL    HW126651   0.742   5.089   5.710
 8584SOL    HW226652   0.676   4.940   5.696
 8585SOL     OW26653   0.700   6.694   6.039
 8585SOL    HW126654   0.717   6.624   6.109
 8585SOL    HW226655   0.606   6.687   6.008
 8586SOL     OW26656   3.136   6.574   2.027
 8586SOL    HW126657   3.197   6.555   1.950
 8586SOL    HW226658   3.056   6.625   1.995
 8587SOL     OW26659   0.852   6.891   4.006
 8587SOL    HW126660   0.875   6.989   4.003
 8587SOL    HW226661   0.913   6.845   4.070
 8588SOL     OW26662   2.889   0.839   0.594
 8588SOL    HW126663   2.870   0.839   0.692
 8588SOL    HW226664   2.946   0.918   0.571
 8589SOL     OW26665   5.151   2.937   5.593
 8589SOL    HW126666   5.057   2.909   5.576
 8589SOL    HW226667   5.152   3.011   5.661
 8590SOL     OW26668   6.789   6.157   3.320
 8590SOL    HW126669   6.876   6.183   3.361
 8590SOL    HW226670   6.801   6.073   3.266
 8591SOL     OW26671   0.398   3.981   0.348
 8591SOL    HW126672   0.364   3.907   0.290
 8591SOL    HW226673   0.329   4.002   0.418
 8592SOL     OW26674   6.654   2.898   6.205
 8592SOL    HW126675   6.598   2.918   6.124
 8592SOL    HW226676   6.751   2.911   6.182
 8593SOL     OW26677   1.912   1.958   0.502
 8593SOL    HW126678   1.946   2.003   0.420
 8593SOL    HW226679   1.928   2.016   0.582
 8594SOL     OW26680   4.274   2.425   5.517
 8594SOL    HW126681   4.252   2.374   5.600
 8594SOL    HW226682   4.321   2.510   5.542
 8595SOL     OW26683   0.526   2.400   3.412
 8595SOL    HW126684   0.597   2.466   3.384
 8595SOL    HW226685   0.467   2.380   3.334
 8596SOL     OW26686   1.133   5.175   2.897
 8596SOL    HW126687   1.194   5.106   2.860
 8596SOL    HW226688   1.183   5.233   2.961
 8597SOL     OW26689   4.342   1.980   0.754
 8597SOL    HW126690   4.392   1.924   0.688
 8597SOL    HW226691   4.388   1.978   0.842
 8598SOL     OW26692   5.909   0.242   0.519
 8598SOL    HW126693   5.962   0.192   0.588
 8598SOL    HW226694   5.958   0.240   0.432
 8599SOL     OW26695   1.431   2.622   5.141
 8599SOL    HW126696   1.438   2.523   5.143
 8599SOL    HW226697   1.338   2.650   5.166
 8600SOL     OW26698   5.313   4.707   4.957
 8600SOL    HW126699   5.358   4.663   5.035
 8600SOL    HW226700   5.345   4.801   4.949
 8601SOL     OW26701   1.279   1.193   4.337
 8601SOL    HW126702   1.203   1.249   4.371
 8601SOL    HW226703   1.366   1.234   4.366
 8602SOL     OW26704   3.061   5.708   1.958
 8602SOL    HW126705   3.041   5.611   1.951
 8602SOL    HW226706   3.099   5.729   2.048
 8603SOL     OW26707   4.938   5.723   0.669
 8603SOL    HW126708   5.013   5.783   0.642
 8603SOL    HW226709   4.937   5.714   0.768
 8604SOL     OW26710   0.435   3.378   5.219
 8604SOL    HW126711   0.432   3.395   5.120
 8604SOL    HW226712   0.413   3.282   5.237
 8605SOL     OW26713   2.773   6.123   4.071
 8605SOL    HW126714   2.832   6.065   4.127
 8605SOL    HW226715   2.829   6.169   4.001
 8606SOL     OW26716   1.754   3.354   6.201
 8606SOL    HW126717   1.656   3.350   6.220
 8606SOL    HW226718   1.799   3.273   6.239
 8607SOL     OW26719   3.874   5.892   0.694
 8607SOL    HW126720   3.851   5.976   0.743
 8607SOL    HW226721   3.956   5.908   0.638
 8608SOL     OW26722   3.739   4.877   2.508
 8608SOL    HW126723   3.648   4.861   2.546
 8608SOL    HW226724   3.734   4.874   2.408
 8609SOL     OW26725   5.413   0.659   2.518
 8609SOL    HW126726   5.332   0.712   2.494
 8609SOL    HW226727   5.459   0.701   2.596
 8610SOL     OW26728   1.260   2.083   2.937
 8610SOL    HW126729   1.312   2.050   2.859
 8610SOL    HW226730   1.301   2.168   2.971
 8611SOL     OW26731   2.982   1.299   4.472
 8611SOL    HW126732   2.953   1.209   4.505
 8611SOL    HW226733   3.012   1.355   4.549
 8612SOL     OW26734   2.829   3.784   0.848
 8612SOL    HW126735   2.751   3.813   0.904
 8612SOL    HW226736   2.800   3.774   0.753
 8613SOL     OW26737   2.753   1.937   1.422
 8613SOL    HW126738   2.830   1.988   1.383
 8613SOL    HW226739   2.733   1.858   1.364
 8614SOL     OW26740   1.003   2.928   3.141
 8614SOL    HW126741   1.086   2.980   3.160
 8614SOL    HW226742   0.965   2.957   3.053
 8615SOL     OW26743   4.634   1.054   4.893
 8615SOL    HW126744   4.640   1.124   4.964
 8615SOL    HW226745   4.551   1.000   4.906
 8616SOL     OW26746   3.057   4.611   1.652
 8616SOL    HW126747   3.074   4.580   1.746
 8616SOL    HW226748   2.962   4.639   1.643
 8617SOL     OW26749   6.406   1.590   6.517
 8617SOL    HW126750   6.362   1.503   6.495
 8617SOL    HW226751   6.337   1.663   6.519
 8618SOL     OW26752   6.175   5.149   0.928
 8618SOL    HW126753   6.101   5.116   0.987
 8618SOL    HW226754   6.183   5.089   0.848
 8619SOL     OW26755   3.647   4.900   2.247
 8619SOL    HW126756   3.611   4.847   2.170
 8619SOL    HW226757   3.714   4.966   2.214
 8620SOL     OW26758   1.418   0.182   3.281
 8620SOL    HW126759   1.379   0.191   3.190
 8620SOL    HW226760   1.471   0.264   3.302
 8621SOL     OW26761   5.799   1.755   3.100
 8621SOL    HW126762   5.836   1.814   3.173
 8621SOL    HW226763   5.871   1.693   3.068
 8622SOL     OW26764   5.464   3.395   0.980
 8622SOL    HW126765   5.487   3.462   0.910
 8622SOL    HW226766   5.472   3.303   0.942
 8623SOL     OW26767   0.746   3.692   4.367
 8623SOL    HW126768   0.735   3.682   4.268
 8623SOL    HW226769   0.843   3.700   4.389
 8624SOL     OW26770   1.671   3.974   4.920
 8624SOL    HW126771   1.654   4.036   4.997
 8624SOL    HW226772   1.750   3.916   4.941
 8625SOL     OW26773   4.222   0.482   6.377
 8625SOL    HW126774   4.210   0.526   6.466
 8625SOL    HW226775   4.208   0.384   6.387
 8626SOL     OW26776   3.361   3.091   5.993
 8626SOL    HW126777   3.308   3.020   6.039
 8626SOL    HW226778   3.317   3.114   5.906
 8627SOL     OW26779   1.351   1.868   3.276
 8627SOL    HW126780   1.270   1.900   3.228
 8627SOL    HW226781   1.360   1.769   3.266
 8628SOL     OW26782   6.173   6.324   0.875
 8628SOL    HW126783   6.098   6.306   0.811
 8628SOL    HW226784   6.159   6.412   0.918
 8629SOL     OW26785   0.932   5.299   4.794
 8629SOL    HW126786   0.947   5.251   4.880
 8629SOL    HW226787   0.838   5.333   4.791
 8630SOL     OW26788   5.519   4.376   3.894
 8630SOL    HW126789   5.563   4.454   3.849
 8630SOL    HW226790   5.587   4.325   3.947
 8631SOL     OW26791   0.416   5.115   6.273
 8631SOL    HW126792   0.394   5.141   6.367
 8631SOL    HW226793   0.333   5.087   6.226
 8632SOL     OW26794   3.735   5.156   4.490
 8632SOL    HW126795   3.755   5.071   4.440
 8632SOL    HW226796   3.785   5.231   4.447
 8633SOL     OW26797   5.136   1.571   5.805
 8633SOL    HW126798   5.064   1.597   5.741
 8633SOL    HW226799   5.099   1.566   5.897
 8634SOL     OW26800   4.873   3.354   0.033
 8634SOL    HW126801   4.972   3.355   0.047
 8634SOL    HW226802   4.830   3.292   0.098
 8635SOL     OW26803   5.454   3.577   6.483
 8635SOL    HW126804   5.492   3.550   6.572
 8635SOL    HW226805   5.529   3.588   6.417
 8636SOL     OW26806   5.609   5.568   1.037
 8636SOL    HW126807   5.514   5.552   1.010
 8636SOL    HW226808   5.614   5.651   1.093
 8637SOL     OW26809   2.234   1.254   0.100
 8637SOL    HW126810   2.290   1.237   0.182
 8637SOL    HW226811   2.250   1.347   0.067
 8638SOL     OW26812   3.657   2.606   5.395
 8638SOL    HW126813   3.698   2.518   5.372
 8638SOL    HW226814   3.587   2.629   5.328
 8639SOL     OW26815   5.384   2.937   0.277
 8639SOL    HW126816   5.432   2.993   0.344
 8639SOL    HW226817   5.326   2.871   0.325
 8640SOL     OW26818   4.022   3.550   6.838
 8640SOL    HW126819   3.991   3.629   6.785
 8640SOL    HW226820   3.962   3.537   6.917
 8641SOL     OW26821   4.628   4.814   3.654
 8641SOL    HW126822   4.604   4.911   3.660
 8641SOL    HW226823   4.721   4.806   3.618
 8642SOL     OW26824   1.525   6.168   2.981
 8642SOL    HW126825   1.516   6.266   2.960
 8642SOL    HW226826   1.617   6.150   3.016
 8643SOL     OW26827   2.317   0.171   6.960
 8643SOL    HW126828   2.395   0.116   6.990
 8643SOL    HW226829   2.350   0.249   6.907
 8644SOL     OW26830   5.432   2.504   5.219
 8644SOL    HW126831   5.518   2.527   5.173
 8644SOL    HW226832   5.355   2.518   5.156
 8645SOL     OW26833   4.608   4.360   1.459
 8645SOL    HW126834   4.659   4.274   1.469
 8645SOL    HW226835   4.584   4.374   1.363
 8646SOL     OW26836   6.767   1.943   1.140
 8646SOL    HW126837   6.783   1.982   1.049
 8646SOL    HW226838   6.838   1.876   1.160
 8647SOL     OW26839   2.894   5.159   6.443
 8647SOL    HW126840   2.839   5.110   6.375
 8647SOL    HW226841   2.966   5.099   6.478
 8648SOL     OW26842   6.801   0.559   2.969
 8648SOL    HW126843   6.865   0.629   2.937
 8648SOL    HW226844   6.707   0.590   2.952
 8649SOL     OW26845   5.135   5.395   5.819
 8649SOL    HW126846   5.145   5.495   5.820
 8649SOL    HW226847   5.216   5.353   5.858
 8650SOL     OW26848   2.088   5.355   4.230
 8650SOL    HW126849   2.106   5.405   4.314
 8650SOL    HW226850   1.991   5.335   4.223
 8651SOL     OW26851   4.177   0.234   6.528
 8651SOL    HW126852   4.113   0.179   6.581
 8651SOL    HW226853   4.258   0.179   6.505
 8652SOL     OW26854   1.693   4.638   3.843
 8652SOL    HW126855   1.780   4.682   3.824
 8652SOL    HW226856   1.665   4.659   3.937
 8653SOL     OW26857   5.610   0.486   6.202
 8653SOL    HW126858   5.596   0.571   6.253
 8653SOL    HW226859   5.627   0.508   6.106
 8654SOL     OW26860   1.054   4.755   1.972
 8654SOL    HW126861   0.990   4.710   2.034
 8654SOL    HW226862   1.132   4.790   2.024
 8655SOL     OW26863   0.013   1.332   4.019
 8655SOL    HW126864   7.018   1.407   4.084
 8655SOL    HW226865   0.077   1.362   3.948
 8656SOL     OW26866   6.899   6.961   1.113
 8656SOL    HW126867   6.881   6.936   1.017
 8656SOL    HW226868   6.897   0.042   1.122
 8657SOL     OW26869   5.619   4.288   6.895
 8657SOL    HW126870   5.562   4.211   6.923
 8657SOL    HW226871   5.601   4.309   6.799
 8658SOL     OW26872   6.118   5.885   0.484
 8658SOL    HW126873   6.163   5.972   0.465
 8658SOL    HW226874   6.132   5.861   0.580
 8659SOL     OW26875   4.505   1.826   2.711
 8659SOL    HW126876   4.421   1.773   2.723
 8659SOL    HW226877   4.519   1.884   2.791
 8660SOL     OW26878   6.545   4.034   1.920
 8660SOL    HW126879   6.591   3.959   1.967
 8660SOL    HW226880   6.452   4.044   1.957
 8661SOL     OW26881   6.440   4.299   1.213
 8661SOL    HW126882   6.347   4.294   1.250
 8661SOL    HW226883   6.438   4.344   1.124
 8662SOL     OW26884   4.531   5.555   1.461
 8662SOL    HW126885   4.523   5.565   1.362
 8662SOL    HW226886   4.448   5.513   1.497
 8663SOL     OW26887   3.013   6.097   1.469
 8663SOL    HW126888   2.920   6.133   1.477
 8663SOL    HW226889   3.030   6.071   1.374
 8664SOL     OW26890   1.719   6.306   0.708
 8664SOL    HW126891   1.707   6.397   0.747
 8664SOL    HW226892   1.632   6.273   0.673
 8665SOL     OW26893   5.597   5.931   4.880
 8665SOL    HW126894   5.574   5.921   4.977
 8665SOL    HW226895   5.678   5.988   4.871
 8666SOL     OW26896   5.423   1.326   3.848
 8666SOL    HW126897   5.334   1.325   3.802
 8666SOL    HW226898   5.409   1.331   3.947
 8667SOL     OW26899   3.954   2.114   3.207
 8667SOL    HW126900   3.937   2.115   3.108
 8667SOL    HW226901   3.867   2.099   3.255
 8668SOL     OW26902   4.898   3.207   3.336
 8668SOL    HW126903   4.884   3.122   3.286
 8668SOL    HW226904   4.883   3.191   3.434
 8669SOL     OW26905   1.397   6.519   5.934
 8669SOL    HW126906   1.464   6.459   5.891
 8669SOL    HW226907   1.377   6.486   6.027
 8670SOL     OW26908   3.752   4.367   5.354
 8670SOL    HW126909   3.653   4.368   5.369
 8670SOL    HW226910   3.775   4.435   5.284
 8671SOL     OW26911   5.009   1.623   2.750
 8671SOL    HW126912   4.988   1.539   2.699
 8671SOL    HW226913   5.011   1.602   2.848
 8672SOL     OW26914   0.949   5.519   4.372
 8672SOL    HW126915   0.922   5.547   4.279
 8672SOL    HW226916   0.892   5.443   4.402
 8673SOL     OW26917   6.025   2.711   0.238
 8673SOL    HW126918   6.044   2.618   0.205
 8673SOL    HW226919   5.991   2.707   0.332
 8674SOL     OW26920   5.032   5.984   2.928
 8674SOL    HW126921   4.954   6.014   2.873
 8674SOL    HW226922   5.117   6.021   2.889
 8675SOL     OW26923   3.749   2.159   4.167
 8675SOL    HW126924   3.821   2.197   4.225
 8675SOL    HW226925   3.668   2.140   4.223
 8676SOL     OW26926   5.041   0.255   2.686
 8676SOL    HW126927   4.943   0.247   2.705
 8676SOL    HW226928   5.058   0.237   2.589
 8677SOL     OW26929   2.176   5.187   6.311
 8677SOL    HW126930   2.229   5.264   6.347
 8677SOL    HW226931   2.220   5.150   6.230
 8678SOL     OW26932   0.158   0.380   2.325
 8678SOL    HW126933   0.199   0.379   2.234
 8678SOL    HW226934   0.201   0.310   2.382
 8679SOL     OW26935   0.130   2.199   3.354
 8679SOL    HW126936   0.218   2.153   3.343
 8679SOL    HW226937   0.095   2.225   3.264
 8680SOL     OW26938   0.495   3.596   6.969
 8680SOL    HW126939   0.537   3.506   6.979
 8680SOL    HW226940   0.554   3.666   7.010
 8681SOL     OW26941   5.110   5.057   0.936
 8681SOL    HW126942   5.044   5.129   0.959
 8681SOL    HW226943   5.180   5.094   0.875
 8682SOL     OW26944   5.278   6.465   2.001
 8682SOL    HW126945   5.184   6.499   1.997
 8682SOL    HW226946   5.305   6.431   1.911
 8683SOL     OW26947   1.925   1.760   4.192
 8683SOL    HW126948   1.980   1.729   4.114
 8683SOL    HW226949   1.978   1.750   4.276
 8684SOL     OW26950   6.229   2.913   5.264
 8684SOL    HW126951   6.137   2.954   5.259
 8684SOL    HW226952   6.295   2.983   5.289
 8685SOL     OW26953   0.361   2.198   6.882
 8685SOL    HW126954   0.395   2.189   6.788
 8685SOL    HW226955   0.295   2.124   6.900
 8686SOL     OW26956   0.145   1.534   3.045
 8686SOL    HW126957   0.229   1.521   3.097
 8686SOL    HW226958   0.155   1.494   2.954
 8687SOL     OW26959   5.227   4.666   1.384
 8687SOL    HW126960   5.269   4.579   1.358
 8687SOL    HW226961   5.211   4.666   1.483
 8688SOL     OW26962   1.448   5.356   6.548
 8688SOL    HW126963   1.476   5.449   6.525
 8688SOL    HW226964   1.415   5.310   6.466
 8689SOL     OW26965   3.700   3.728   1.260
 8689SOL    HW126966   3.736   3.685   1.177
 8689SOL    HW226967   3.655   3.658   1.316
 8690SOL     OW26968   1.488   3.802   3.557
 8690SOL    HW126969   1.564   3.751   3.597
 8690SOL    HW226970   1.402   3.754   3.576
 8691SOL     OW26971   3.237   2.021   5.926
 8691SOL    HW126972   3.277   1.952   5.986
 8691SOL    HW226973   3.250   1.993   5.830
 8692SOL     OW26974   2.613   1.260   4.866
 8692SOL    HW126975   2.553   1.181   4.875
 8692SOL    HW226976   2.708   1.229   4.855
 8693SOL     OW26977   5.588   0.569   0.112
 8693SOL    HW126978   5.518   0.610   0.053
 8693SOL    HW226979   5.638   0.641   0.160
 8694SOL     OW26980   4.968   0.599   4.812
 8694SOL    HW126981   4.992   0.511   4.853
 8694SOL    HW226982   4.941   0.585   4.717
 8695SOL     OW26983   4.322   3.404   6.297
 8695SOL    HW126984   4.249   3.367   6.240
 8695SOL    HW226985   4.348   3.337   6.366
 8696SOL     OW26986   2.001   5.023   5.821
 8696SOL    HW126987   2.039   5.046   5.731
 8696SOL    HW226988   2.059   4.953   5.864
 8697SOL     OW26989   0.333   3.156   6.400
 8697SOL    HW126990   0.419   3.106   6.414
 8697SOL    HW226991   0.343   3.217   6.322
 8698SOL     OW26992   4.941   5.738   4.803
 8698SOL    HW126993   4.872   5.736   4.730
 8698SOL    HW226994   4.903   5.696   4.885
 8699SOL     OW26995   1.467   2.329   5.070
 8699SOL    HW126996   1.462   2.231   5.086
 8699SOL    HW226997   1.416   2.352   4.987
 8700SOL     OW26998   1.204   1.603   3.835
 8700SOL    HW126999   1.254   1.586   3.920
 8700SOL    HW227000   1.193   1.701   3.822
 8701SOL     OW27001   1.427   0.883   6.962
 8701SOL    HW127002   1.492   0.904   6.889
 8701SOL    HW227003   1.478   0.859   0.026
 8702SOL     OW27004   5.665   4.654   1.729
 8702SOL    HW127005   5.730   4.726   1.705
 8702SOL    HW227006   5.616   4.625   1.647
 8703SOL     OW27007   2.409   4.549   6.761
 8703SOL    HW127008   2.395   4.552   6.662
 8703SOL    HW227009   2.472   4.623   6.788
 8704SOL     OW27010   0.133   4.269   3.602
 8704SOL    HW127011   0.212   4.214   3.577
 8704SOL    HW227012   0.108   4.329   3.526
 8705SOL     OW27013   5.356   1.125   6.238
 8705SOL    HW127014   5.388   1.159   6.150
 8705SOL    HW227015   5.330   1.029   6.229
 8706SOL     OW27016   5.188   1.958   6.994
 8706SOL    HW127017   5.121   1.884   6.993
 8706SOL    HW227018   5.263   1.934   0.036
 8707SOL     OW27019   6.789   1.320   6.407
 8707SOL    HW127020   6.821   1.409   6.438
 8707SOL    HW227021   6.853   1.283   6.340
 8708SOL     OW27022   4.571   1.748   2.146
 8708SOL    HW127023   4.510   1.751   2.225
 8708SOL    HW227024   4.524   1.705   2.069
 8709SOL     OW27025   0.377   6.617   0.307
 8709SOL    HW127026   0.421   6.665   0.231
 8709SOL    HW227027   0.381   6.519   0.292
 8710SOL     OW27028   2.080   3.133   3.845
 8710SOL    HW127029   2.153   3.073   3.875
 8710SOL    HW227030   2.034   3.093   3.765
 8711SOL     OW27031   2.093   6.733   3.119
 8711SOL    HW127032   2.048   6.698   3.201
 8711SOL    HW227033   2.033   6.797   3.072
 8712SOL     OW27034   3.822   2.113   4.620
 8712SOL    HW127035   3.889   2.127   4.546
 8712SOL    HW227036   3.865   2.133   4.708
 8713SOL     OW27037   6.594   3.237   4.270
 8713SOL    HW127038   6.580   3.277   4.180
 8713SOL    HW227039   6.519   3.174   4.291
 8714SOL     OW27040   0.542   0.631   5.470
 8714SOL    HW127041   0.607   0.566   5.509
 8714SOL    HW227042   0.580   0.724   5.477
 8715SOL     OW27043   4.165   6.523   1.078
 8715SOL    HW127044   4.108   6.455   1.032
 8715SOL    HW227045   4.262   6.500   1.062
 8716SOL     OW27046   6.968   0.167   0.905
 8716SOL    HW127047   0.024   0.177   0.969
 8716SOL    HW227048   6.882   0.191   0.951
 8717SOL     OW27049   2.904   3.330   4.725
 8717SOL    HW127050   2.915   3.413   4.780
 8717SOL    HW227051   2.849   3.263   4.775
 8718SOL     OW27052   1.831   3.592   5.280
 8718SOL    HW127053   1.811   3.682   5.242
 8718SOL    HW227054   1.824   3.523   5.208
 8719SOL     OW27055   3.842   0.065   6.867
 8719SOL    HW127056   3.802   6.995   6.887
 8719SOL    HW227057   3.862   0.113   6.952
 8720SOL     OW27058   7.016   5.145   6.129
 8720SOL    HW127059   6.925   5.128   6.092
 8720SOL    HW227060   0.066   5.130   6.058
 8721SOL     OW27061   6.692   2.508   1.513
 8721SOL    HW127062   6.616   2.497   1.576
 8721SOL    HW227063   6.777   2.478   1.557
 8722SOL     OW27064   3.465   1.296   0.582
 8722SOL    HW127065   3.527   1.341   0.517
 8722SOL    HW227066   3.512   1.287   0.671
 8723SOL     OW27067   4.519   5.996   1.688
 8723SOL    HW127068   4.586   5.984   1.761
 8723SOL    HW227069   4.494   6.093   1.681
 8724SOL     OW27070   4.921   6.796   5.178
 8724SOL    HW127071   4.992   6.752   5.231
 8724SOL    HW227072   4.952   6.886   5.147
 8725SOL     OW27073   1.494   6.348   5.740
 8725SOL    HW127074   1.432   6.296   5.681
 8725SOL    HW227075   1.582   6.358   5.694
 8726SOL     OW27076   0.006   1.691   3.478
 8726SOL    HW127077   6.964   1.770   3.465
 8726SOL    HW227078   0.093   1.723   3.515
 8727SOL     OW27079   6.050   6.966   2.141
 8727SOL    HW127080   6.047   6.960   2.241
 8727SOL    HW227081   5.958   6.989   2.107
 8728SOL     OW27082   6.396   0.600   2.261
 8728SOL    HW127083   6.461   0.547   2.207
 8728SOL    HW227084   6.416   0.589   2.358
 8729SOL     OW27085   3.693   5.333   5.200
 8729SOL    HW127086   3.689   5.408   5.267
 8729SOL    HW227087   3.609   5.333   5.146
 8730SOL     OW27088   6.171   4.613   2.485
 8730SOL    HW127089   6.198   4.601   2.390
 8730SOL    HW227090   6.253   4.620   2.542
 8731SOL     OW27091   1.697   2.667   3.008
 8731SOL    HW127092   1.688   2.709   3.098
 8731SOL    HW227093   1.789   2.684   2.972
 8732SOL     OW27094   6.045   4.627   1.434
 8732SOL    HW127095   5.963   4.675   1.405
 8732SOL    HW227096   6.024   4.568   1.512
 8733SOL     OW27097   2.144   5.181   1.505
 8733SOL    HW127098   2.136   5.087   1.538
 8733SOL    HW227099   2.055   5.212   1.471
 8734SOL     OW27100   0.925   4.306   2.191
 8734SOL    HW127101   0.833   4.290   2.154
 8734SOL    HW227102   0.991   4.248   2.141
 8735SOL     OW27103   0.933   2.516   0.342
 8735SOL    HW127104   0.924   2.600   0.395
 8735SOL    HW227105   0.871   2.447   0.379
 8736SOL     OW27106   0.188   5.481   0.557
 8736SOL    HW127107   0.141   5.396   0.579
 8736SOL    HW227108   0.219   5.478   0.462
 8737SOL     OW27109   1.859   6.718   6.904
 8737SOL    HW127110   1.917   6.766   6.837
 8737SOL    HW227111   1.819   6.784   6.967
 8738SOL     OW27112   2.851   5.215   4.376
 8738SOL    HW127113   2.832   5.136   4.318
 8738SOL    HW227114   2.786   5.289   4.354
 8739SOL     OW27115   6.333   5.904   0.041
 8739SOL    HW127116   6.308   5.912   6.964
 8739SOL    HW227117   6.262   5.947   0.098
 8740SOL     OW27118   4.590   1.314   4.532
 8740SOL    HW127119   4.637   1.397   4.504
 8740SOL    HW227120   4.593   1.247   4.458
 8741SOL     OW27121   2.617   1.136   2.107
 8741SOL    HW127122   2.524   1.107   2.130
 8741SOL    HW227123   2.615   1.228   2.068
 8742SOL     OW27124   4.942   6.420   1.387
 8742SOL    HW127125   5.002   6.365   1.330
 8742SOL    HW227126   4.916   6.368   1.468
 8743SOL     OW27127   1.981   7.013   1.956
 8743SOL    HW127128   1.979   0.021   2.052
 8743SOL    HW227129   1.895   6.969   1.931
 8744SOL     OW27130   4.215   2.886   6.674
 8744SOL    HW127131   4.227   2.981   6.706
 8744SOL    HW227132   4.239   2.881   6.577
 8745SOL     OW27133   6.687   2.214   6.634
 8745SOL    HW127134   6.666   2.159   6.554
 8745SOL    HW227135   6.737   2.159   6.701
 8746SOL     OW27136   4.551   5.408   4.673
 8746SOL    HW127137   4.567   5.315   4.707
 8746SOL    HW227138   4.584   5.474   4.741
 8747SOL     OW27139   0.276   2.433   3.234
 8747SOL    HW127140   0.194   2.394   3.191
 8747SOL    HW227141   0.352   2.428   3.170
 8748SOL     OW27142   6.770   1.355   4.372
 8748SOL    HW127143   6.776   1.428   4.305
 8748SOL    HW227144   6.698   1.375   4.438
 8749SOL     OW27145   2.161   0.132   4.947
 8749SOL    HW127146   2.173   0.042   4.990
 8749SOL    HW227147   2.130   0.120   4.852
 8750SOL     OW27148   3.147   3.821   4.750
 8750SOL    HW127149   3.146   3.732   4.794
 8750SOL    HW227150   3.103   3.889   4.808
 8751SOL     OW27151   5.850   1.600   2.193
 8751SOL    HW127152   5.941   1.639   2.208
 8751SOL    HW227153   5.785   1.642   2.256
 8752SOL     OW27154   3.239   3.412   6.760
 8752SOL    HW127155   3.178   3.491   6.765
 8752SOL    HW227156   3.219   3.350   6.836
 8753SOL     OW27157   3.867   1.686   6.253
 8753SOL    HW127158   3.768   1.697   6.253
 8753SOL    HW227159   3.910   1.776   6.248
 8754SOL     OW27160   2.262   3.561   5.550
 8754SOL    HW127161   2.289   3.489   5.614
 8754SOL    HW227162   2.316   3.643   5.567
 8755SOL     OW27163   2.225   1.088   1.085
 8755SOL    HW127164   2.182   1.154   1.023
 8755SOL    HW227165   2.272   1.138   1.159
 8756SOL     OW27166   0.932   3.207   4.265
 8756SOL    HW127167   0.935   3.116   4.306
 8756SOL    HW227168   1.025   3.237   4.241
 8757SOL     OW27169   3.803   5.986   6.171
 8757SOL    HW127170   3.893   6.030   6.165
 8757SOL    HW227171   3.804   5.918   6.244
 8758SOL     OW27172   4.971   5.915   2.544
 8758SOL    HW127173   4.901   5.878   2.484
 8758SOL    HW227174   4.996   5.847   2.613
 8759SOL     OW27175   5.146   2.904   6.911
 8759SOL    HW127176   5.195   2.989   6.930
 8759SOL    HW227177   5.203   2.844   6.855
 8760SOL     OW27178   2.224   0.604   5.208
 8760SOL    HW127179   2.193   0.511   5.186
 8760SOL    HW227180   2.295   0.632   5.144
 8761SOL     OW27181   6.332   2.271   1.871
 8761SOL    HW127182   6.300   2.332   1.798
 8761SOL    HW227183   6.282   2.184   1.866
 8762SOL     OW27184   1.253   4.008   3.322
 8762SOL    HW127185   1.333   4.002   3.261
 8762SOL    HW227186   1.188   3.936   3.298
 8763SOL     OW27187   6.924   6.477   6.138
 8763SOL    HW127188   6.881   6.562   6.105
 8763SOL    HW227189   6.995   6.500   6.205
 8764SOL     OW27190   5.206   6.876   4.770
 8764SOL    HW127191   5.164   6.949   4.715
 8764SOL    HW227192   5.279   6.833   4.717
 8765SOL     OW27193   5.141   6.875   4.050
 8765SOL    HW127194   5.151   6.797   4.112
 8765SOL    HW227195   5.149   6.844   3.955
 8766SOL     OW27196   4.862   4.867   4.375
 8766SOL    HW127197   4.827   4.933   4.307
 8766SOL    HW227198   4.942   4.906   4.421
 8767SOL     OW27199   5.138   5.279   3.196
 8767SOL    HW127200   5.173   5.205   3.139
 8767SOL    HW227201   5.121   5.244   3.289
 8768SOL     OW27202   1.355   2.419   0.162
 8768SOL    HW127203   1.380   2.461   0.075
 8768SOL    HW227204   1.341   2.321   0.148
 8769SOL     OW27205   0.357   0.571   3.664
 8769SOL    HW127206   0.285   0.639   3.646
 8769SOL    HW227207   0.445   0.606   3.630
 8770SOL     OW27208   4.580   4.380   2.222
 8770SOL    HW127209   4.554   4.363   2.127
 8770SOL    HW227210   4.588   4.479   2.237
 8771SOL     OW27211   1.347   1.827   6.320
 8771SOL    HW127212   1.395   1.754   6.270
 8771SOL    HW227213   1.267   1.856   6.268
 8772SOL     OW27214   4.940   0.598   6.500
 8772SOL    HW127215   4.902   0.507   6.483
 8772SOL    HW227216   5.011   0.617   6.433
 8773SOL     OW27217   5.404   2.297   3.597
 8773SOL    HW127218   5.346   2.351   3.658
 8773SOL    HW227219   5.363   2.295   3.506
 8774SOL     OW27220   1.805   1.183   6.976
 8774SOL    HW127221   1.822   1.104   6.917
 8774SOL    HW227222   1.878   1.191   0.025
 8775SOL     OW27223   5.836   6.728   5.666
 8775SOL    HW127224   5.741   6.751   5.688
 8775SOL    HW227225   5.897   6.794   5.709
 8776SOL     OW27226   3.668   2.785   0.238
 8776SOL    HW127227   3.603   2.835   0.295
 8776SOL    HW227228   3.663   2.818   0.144
 8777SOL     OW27229   6.776   4.384   2.836
 8777SOL    HW127230   6.813   4.472   2.866
 8777SOL    HW227231   6.807   4.312   2.898
 8778SOL     OW27232   5.860   3.235   5.654
 8778SOL    HW127233   5.900   3.299   5.588
 8778SOL    HW227234   5.808   3.165   5.605
 8779SOL     OW27235   2.999   5.100   2.258
 8779SOL    HW127236   2.924   5.119   2.195
 8779SOL    HW227237   3.017   5.002   2.260
 8780SOL     OW27238   0.362   6.352   2.937
 8780SOL    HW127239   0.309   6.386   2.859
 8780SOL    HW227240   0.301   6.335   3.014
 8781SOL     OW27241   5.009   1.084   3.074
 8781SOL    HW127242   5.072   1.114   3.002
 8781SOL    HW227243   4.915   1.089   3.041
 8782SOL     OW27244   6.467   6.558   1.140
 8782SOL    HW127245   6.562   6.582   1.119
 8782SOL    HW227246   6.429   6.504   1.065
 8783SOL     OW27247   6.590   4.603   4.047
 8783SOL    HW127248   6.654   4.574   4.118
 8783SOL    HW227249   6.535   4.679   4.081
 8784SOL     OW27250   6.052   4.452   5.934
 8784SOL    HW127251   6.099   4.487   5.852
 8784SOL    HW227252   6.100   4.371   5.967
 8785SOL     OW27253   5.534   3.945   0.174
 8785SOL    HW127254   5.589   4.004   0.232
 8785SOL    HW227255   5.591   3.870   0.139
 8786SOL     OW27256   2.632   0.695   0.920
 8786SOL    HW127257   2.656   0.599   0.903
 8786SOL    HW227258   2.711   0.743   0.959
 8787SOL     OW27259   3.463   1.569   1.758
 8787SOL    HW127260   3.452   1.655   1.709
 8787SOL    HW227261   3.506   1.502   1.698
 8788SOL     OW27262   6.398   0.831   5.458
 8788SOL    HW127263   6.387   0.804   5.363
 8788SOL    HW227264   6.334   0.905   5.480
 8789SOL     OW27265   6.039   6.305   4.622
 8789SOL    HW127266   5.972   6.232   4.634
 8789SOL    HW227267   6.114   6.292   4.687
 8790SOL     OW27268   0.418   0.263   6.515
 8790SOL    HW127269   0.330   0.312   6.513
 8790SOL    HW227270   0.476   0.301   6.587
 8791SOL     OW27271   4.773   6.207   5.135
 8791SOL    HW127272   4.834   6.283   5.156
 8791SOL    HW227273   4.805   6.161   5.052
 8792SOL     OW27274   2.427   5.941   3.031
 8792SOL    HW127275   2.462   5.880   2.959
 8792SOL    HW227276   2.345   5.988   2.998
 8793SOL     OW27277   1.103   4.494   2.982
 8793SOL    HW127278   1.140   4.422   3.041
 8793SOL    HW227279   1.172   4.522   2.916
 8794SOL     OW27280   4.739   0.127   2.188
 8794SOL    HW127281   4.786   0.141   2.275
 8794SOL    HW227282   4.775   0.045   2.143
 8795SOL     OW27283   1.382   4.653   5.724
 8795SOL    HW127284   1.398   4.703   5.809
 8795SOL    HW227285   1.455   4.674   5.659
 8796SOL     OW27286   4.026   2.120   4.426
 8796SOL    HW127287   4.024   2.052   4.352
 8796SOL    HW227288   4.090   2.193   4.402
 8797SOL     OW27289   0.170   0.351   6.431
 8797SOL    HW127290   0.131   0.438   6.401
 8797SOL    HW227291   0.147   0.280   6.365
 8798SOL     OW27292   5.513   5.232   6.257
 8798SOL    HW127293   5.458   5.290   6.318
 8798SOL    HW227294   5.462   5.148   6.237
 8799SOL     OW27295   2.534   4.535   3.701
 8799SOL    HW127296   2.608   4.556   3.764
 8799SOL    HW227297   2.500   4.443   3.719
 8800SOL     OW27298   6.675   4.188   5.797
 8800SOL    HW127299   6.706   4.273   5.755
 8800SOL    HW227300   6.753   4.140   5.838
 8801SOL     OW27301   0.032   1.074   5.191
 8801SOL    HW127302   6.971   1.023   5.161
 8801SOL    HW227303   0.101   1.074   5.119
 8802SOL     OW27304   2.167   0.113   0.151
 8802SOL    HW127305   2.224   0.146   0.227
 8802SOL    HW227306   2.209   0.139   0.065
 8803SOL     OW27307   7.019   6.235   0.017
 8803SOL    HW127308   0.071   6.251   6.968
 8803SOL    HW227309   6.958   6.314   0.022
 8804SOL     OW27310   2.494   6.896   2.098
 8804SOL    HW127311   2.488   6.862   2.192
 8804SOL    HW227312   2.491   6.996   2.100
 8805SOL     OW27313   3.033   6.124   3.674
 8805SOL    HW127314   3.105   6.100   3.608
 8805SOL    HW227315   3.061   6.097   3.765
 8806SOL     OW27316   3.285   4.825   2.054
 8806SOL    HW127317   3.219   4.805   1.982
 8806SOL    HW227318   3.377   4.799   2.023
 8807SOL     OW27319   4.844   0.682   0.328
 8807SOL    HW127320   4.896   0.768   0.325
 8807SOL    HW227321   4.794   0.671   0.243
 8808SOL     OW27322   6.186   2.527   6.715
 8808SOL    HW127323   6.192   2.436   6.756
 8808SOL    HW227324   6.224   2.525   6.622
 8809SOL     OW27325   4.432   5.229   3.445
 8809SOL    HW127326   4.479   5.164   3.386
 8809SOL    HW227327   4.349   5.261   3.399
 8810SOL     OW27328   6.314   0.543   4.934
 8810SOL    HW127329   6.315   0.613   4.863
 8810SOL    HW227330   6.390   0.559   4.997
 8811SOL     OW27331   3.711   0.684   2.989
 8811SOL    HW127332   3.696   0.592   3.024
 8811SOL    HW227333   3.755   0.740   3.059
 8812SOL     OW27334   1.804   0.812   0.472
 8812SOL    HW127335   1.865   0.804   0.551
 8812SOL    HW227336   1.780   0.908   0.459
 8813SOL     OW27337   2.187   4.954   1.832
 8813SOL    HW127338   2.211   5.049   1.816
 8813SOL    HW227339   2.222   4.924   1.921
 8814SOL     OW27340   6.032   0.098   0.712
 8814SOL    HW127341   6.021   0.003   0.684
 8814SOL    HW227342   6.030   0.104   0.812
 8815SOL     OW27343   5.788   6.935   0.781
 8815SOL    HW127344   5.731   6.863   0.822
 8815SOL    HW227345   5.867   6.893   0.736
 8816SOL     OW27346   1.472   6.520   0.525
 8816SOL    HW127347   1.559   6.502   0.479
 8816SOL    HW227348   1.397   6.475   0.476
 8817SOL     OW27349   0.161   4.948   3.630
 8817SOL    HW127350   0.196   4.855   3.637
 8817SOL    HW227351   0.237   5.013   3.626
 8818SOL     OW27352   0.562   4.467   4.573
 8818SOL    HW127353   0.636   4.452   4.639
 8818SOL    HW227354   0.478   4.425   4.607
 8819SOL     OW27355   5.749   5.300   5.643
 8819SOL    HW127356   5.708   5.211   5.623
 8819SOL    HW227357   5.706   5.339   5.725
 8820SOL     OW27358   2.770   0.357   5.059
 8820SOL    HW127359   2.828   0.361   4.978
 8820SOL    HW227360   2.679   0.391   5.037
 8821SOL     OW27361   1.782   6.071   0.475
 8821SOL    HW127362   1.819   6.103   0.562
 8821SOL    HW227363   1.753   5.976   0.484
 8822SOL     OW27364   0.691   0.410   3.969
 8822SOL    HW127365   0.604   0.457   3.955
 8822SOL    HW227366   0.702   0.389   4.066
 8823SOL     OW27367   2.506   0.954   2.676
 8823SOL    HW127368   2.494   1.035   2.734
 8823SOL    HW227369   2.524   0.983   2.582
 8824SOL     OW27370   1.619   1.866   6.938
 8824SOL    HW127371   1.711   1.901   6.953
 8824SOL    HW227372   1.580   1.908   6.856
 8825SOL     OW27373   2.124   1.126   2.188
 8825SOL    HW127374   2.044   1.072   2.162
 8825SOL    HW227375   2.103   1.180   2.270
 8826SOL     OW27376   0.121   3.915   0.282
 8826SOL    HW127377   0.096   4.006   0.316
 8826SOL    HW227378   0.087   3.845   0.345
 8827SOL     OW27379   4.613   1.494   1.426
 8827SOL    HW127380   4.679   1.421   1.441
 8827SOL    HW227381   4.521   1.461   1.450
 8828SOL     OW27382   3.844   5.774   5.994
 8828SOL    HW127383   3.878   5.778   5.900
 8828SOL    HW227384   3.828   5.867   6.028
 8829SOL     OW27385   4.932   2.836   0.774
 8829SOL    HW127386   4.965   2.888   0.695
 8829SOL    HW227387   4.974   2.872   0.858
 8830SOL     OW27388   1.354   2.301   2.698
 8830SOL    HW127389   1.335   2.346   2.612
 8830SOL    HW227390   1.329   2.204   2.692
 8831SOL     OW27391   4.580   2.488   4.217
 8831SOL    HW127392   4.628   2.401   4.216
 8831SOL    HW227393   4.625   2.552   4.155
 8832SOL     OW27394   0.240   6.734   2.861
 8832SOL    HW127395   0.146   6.748   2.892
 8832SOL    HW227396   0.303   6.762   2.933
 8833SOL     OW27397   2.335   5.119   5.785
 8833SOL    HW127398   2.417   5.094   5.733
 8833SOL    HW227399   2.310   5.213   5.764
 8834SOL     OW27400   5.723   4.299   4.957
 8834SOL    HW127401   5.800   4.239   4.935
 8834SOL    HW227402   5.638   4.254   4.930
 8835SOL     OW27403   4.474   0.423   5.513
 8835SOL    HW127404   4.546   0.487   5.540
 8835SOL    HW227405   4.457   0.431   5.415
 8836SOL     OW27406   4.704   1.950   0.374
 8836SOL    HW127407   4.798   1.979   0.392
 8836SOL    HW227408   4.683   1.960   0.277
 8837SOL     OW27409   0.024   6.240   2.588
 8837SOL    HW127410   0.101   6.298   2.612
 8837SOL    HW227411   0.038   6.202   2.496
 8838SOL     OW27412   2.006   5.393   3.447
 8838SOL    HW127413   1.977   5.424   3.356
 8838SOL    HW227414   2.039   5.471   3.500
 8839SOL     OW27415   5.484   5.354   1.675
 8839SOL    HW127416   5.518   5.431   1.728
 8839SOL    HW227417   5.554   5.323   1.611
 8840SOL     OW27418   0.239   1.914   3.083
 8840SOL    HW127419   0.297   1.895   3.004
 8840SOL    HW227420   0.151   1.868   3.072
 8841SOL     OW27421   0.449   1.139   4.633
 8841SOL    HW127422   0.528   1.193   4.604
 8841SOL    HW227423   0.466   1.103   4.725
 8842SOL     OW27424   3.488   2.847   2.391
 8842SOL    HW127425   3.515   2.890   2.478
 8842SOL    HW227426   3.508   2.749   2.395
 8843SOL     OW27427   2.260   3.401   5.772
 8843SOL    HW127428   2.174   3.418   5.819
 8843SOL    HW227429   2.287   3.305   5.785
 8844SOL     OW27430   0.296   1.589   5.974
 8844SOL    HW127431   0.256   1.667   6.023
 8844SOL    HW227432   0.231   1.556   5.905
 8845SOL     OW27433   3.582   3.981   1.249
 8845SOL    HW127434   3.513   3.960   1.179
 8845SOL    HW227435   3.630   3.898   1.275
 8846SOL     OW27436   3.479   5.463   3.813
 8846SOL    HW127437   3.385   5.459   3.847
 8846SOL    HW227438   3.533   5.523   3.872
 8847SOL     OW27439   2.275   1.032   2.970
 8847SOL    HW127440   2.258   1.117   2.921
 8847SOL    HW227441   2.331   0.971   2.913
 8848SOL     OW27442   3.048   1.918   2.569
 8848SOL    HW127443   2.968   1.978   2.565
 8848SOL    HW227444   3.128   1.970   2.600
 8849SOL     OW27445   2.959   6.310   3.115
 8849SOL    HW127446   2.906   6.297   3.199
 8849SOL    HW227447   3.028   6.238   3.108
 8850SOL     OW27448   1.597   2.051   6.722
 8850SOL    HW127449   1.584   2.149   6.703
 8850SOL    HW227450   1.556   1.997   6.649
 8851SOL     OW27451   1.703   5.625   2.035
 8851SOL    HW127452   1.612   5.641   1.996
 8851SOL    HW227453   1.747   5.549   1.986
 8852SOL     OW27454   5.238   3.316   5.728
 8852SOL    HW127455   5.164   3.369   5.685
 8852SOL    HW227456   5.199   3.237   5.774
 8853SOL     OW27457   3.183   1.625   0.473
 8853SOL    HW127458   3.223   1.694   0.413
 8853SOL    HW227459   3.250   1.600   0.543
 8854SOL     OW27460   3.249   1.308   5.617
 8854SOL    HW127461   3.184   1.289   5.691
 8854SOL    HW227462   3.221   1.390   5.568
 8855SOL     OW27463   0.289   6.165   1.367
 8855SOL    HW127464   0.272   6.076   1.409
 8855SOL    HW227465   0.210   6.224   1.383
 8856SOL     OW27466   0.219   6.376   6.560
 8856SOL    HW127467   0.318   6.385   6.546
 8856SOL    HW227468   0.183   6.303   6.503
 8857SOL     OW27469   6.644   1.887   4.178
 8857SOL    HW127470   6.646   1.836   4.091
 8857SOL    HW227471   6.614   1.981   4.161
 8858SOL     OW27472   0.767   2.644   5.535
 8858SOL    HW127473   0.678   2.665   5.576
 8858SOL    HW227474   0.828   2.605   5.605
 8859SOL     OW27475   0.428   0.525   3.921
 8859SOL    HW127476   0.339   0.525   3.966
 8859SOL    HW227477   0.416   0.510   3.823
 8860SOL     OW27478   0.166   2.966   2.811
 8860SOL    HW127479   0.219   3.049   2.791
 8860SOL    HW227480   0.071   2.981   2.784
 8861SOL     OW27481   4.031   1.816   5.750
 8861SOL    HW127482   4.024   1.746   5.822
 8861SOL    HW227483   4.049   1.905   5.792
 8862SOL     OW27484   5.664   0.588   4.009
 8862SOL    HW127485   5.632   0.643   3.933
 8862SOL    HW227486   5.726   0.642   4.066
 8863SOL     OW27487   1.381   4.931   4.156
 8863SOL    HW127488   1.374   5.021   4.112
 8863SOL    HW227489   1.300   4.915   4.213
 8864SOL     OW27490   3.535   4.735   6.487
 8864SOL    HW127491   3.510   4.640   6.505
 8864SOL    HW227492   3.619   4.737   6.431
 8865SOL     OW27493   2.753   0.592   6.173
 8865SOL    HW127494   2.752   0.673   6.114
 8865SOL    HW227495   2.736   0.510   6.118
 8866SOL     OW27496   5.232   0.282   3.081
 8866SOL    HW127497   5.278   0.232   3.154
 8866SOL    HW227498   5.226   0.224   3.000
 8867SOL     OW27499   5.813   4.363   2.699
 8867SOL    HW127500   5.882   4.332   2.763
 8867SOL    HW227501   5.722   4.339   2.733
 8868SOL     OW27502   6.635   2.495   0.812
 8868SOL    HW127503   6.600   2.588   0.823
 8868SOL    HW227504   6.619   2.464   0.718
 8869SOL     OW27505   4.121   5.870   4.604
 8869SOL    HW127506   4.093   5.824   4.689
 8869SOL    HW227507   4.055   5.850   4.532
 8870SOL     OW27508   3.654   0.598   0.721
 8870SOL    HW127509   3.678   0.681   0.670
 8870SOL    HW227510   3.641   0.522   0.657
 8871SOL     OW27511   1.831   1.001   4.186
 8871SOL    HW127512   1.777   0.931   4.233
 8871SOL    HW227513   1.892   1.045   4.252
 8872SOL     OW27514   1.613   4.167   5.105
 8872SOL    HW127515   1.538   4.144   5.167
 8872SOL    HW227516   1.609   4.264   5.083
 8873SOL     OW27517   1.123   6.841   1.786
 8873SOL    HW127518   1.031   6.822   1.751
 8873SOL    HW227519   1.117   6.887   1.874
 8874SOL     OW27520   1.607   6.274   2.241
 8874SOL    HW127521   1.651   6.226   2.166
 8874SOL    HW227522   1.508   6.278   2.226
 8875SOL     OW27523   0.370   3.973   5.463
 8875SOL    HW127524   0.389   4.032   5.384
 8875SOL    HW227525   0.273   3.980   5.486
 8876SOL     OW27526   2.450   6.467   4.903
 8876SOL    HW127527   2.361   6.500   4.934
 8876SOL    HW227528   2.520   6.533   4.929
 8877SOL     OW27529   3.317   1.672   3.857
 8877SOL    HW127530   3.237   1.628   3.816
 8877SOL    HW227531   3.349   1.746   3.797
 8878SOL     OW27532   6.629   4.576   0.389
 8878SOL    HW127533   6.546   4.586   0.335
 8878SOL    HW227534   6.690   4.653   0.370
 8879SOL     OW27535   5.013   4.781   3.066
 8879SOL    HW127536   4.923   4.739   3.065
 8879SOL    HW227537   5.078   4.722   3.017
 8880SOL     OW27538   5.292   6.049   4.985
 8880SOL    HW127539   5.353   5.991   5.039
 8880SOL    HW227540   5.225   6.092   5.046
 8881SOL     OW27541   5.419   6.661   4.088
 8881SOL    HW127542   5.462   6.571   4.086
 8881SOL    HW227543   5.383   6.682   3.997
 8882SOL     OW27544   5.597   0.917   1.207
 8882SOL    HW127545   5.674   0.960   1.254
 8882SOL    HW227546   5.514   0.928   1.262
 8883SOL     OW27547   1.347   6.351   6.152
 8883SOL    HW127548   1.268   6.364   6.093
 8883SOL    HW227549   1.329   6.275   6.215
 8884SOL     OW27550   6.773   3.946   6.125
 8884SOL    HW127551   6.819   3.902   6.202
 8884SOL    HW227552   6.681   3.974   6.154
 8885SOL     OW27553   6.438   3.540   1.565
 8885SOL    HW127554   6.522   3.578   1.526
 8885SOL    HW227555   6.389   3.613   1.614
 8886SOL     OW27556   2.756   6.868   4.738
 8886SOL    HW127557   2.833   6.849   4.677
 8886SOL    HW227558   2.680   6.807   4.715
 8887SOL     OW27559   4.100   0.590   0.533
 8887SOL    HW127560   4.134   0.602   0.626
 8887SOL    HW227561   4.158   0.641   0.470
 8888SOL     OW27562   1.789   1.672   5.836
 8888SOL    HW127563   1.724   1.746   5.818
 8888SOL    HW227564   1.837   1.648   5.752
 8889SOL     OW27565   6.760   0.222   6.363
 8889SOL    HW127566   6.749   0.321   6.358
 8889SOL    HW227567   6.711   0.187   6.443
 8890SOL     OW27568   6.626   5.889   4.253
 8890SOL    HW127569   6.622   5.967   4.316
 8890SOL    HW227570   6.675   5.814   4.296
 8891SOL     OW27571   4.254   3.392   6.804
 8891SOL    HW127572   4.168   3.431   6.770
 8891SOL    HW227573   4.260   3.407   6.903
 8892SOL     OW27574   3.267   5.406   3.419
 8892SOL    HW127575   3.240   5.384   3.325
 8892SOL    HW227576   3.280   5.322   3.471
 8893SOL     OW27577   0.723   5.685   3.752
 8893SOL    HW127578   0.636   5.637   3.763
 8893SOL    HW227579   0.715   5.749   3.675
 8894SOL     OW27580   4.058   2.307   6.699
 8894SOL    HW127581   4.025   2.369   6.628
 8894SOL    HW227582   3.980   2.264   6.745
 8895SOL     OW27583   6.317   2.761   2.145
 8895SOL    HW127584   6.235   2.817   2.136
 8895SOL    HW227585   6.348   2.733   2.054
 8896SOL     OW27586   2.684   3.163   5.340
 8896SOL    HW127587   2.770   3.126   5.305
 8896SOL    HW227588   2.608   3.128   5.285
 8897SOL     OW27589   2.031   2.945   3.174
 8897SOL    HW127590   1.952   2.974   3.120
 8897SOL    HW227591   2.006   2.942   3.271
 8898SOL     OW27592   5.100   2.920   2.722
 8898SOL    HW127593   5.194   2.954   2.720
 8898SOL    HW227594   5.101   2.821   2.737
 8899SOL     OW27595   1.560   5.705   1.430
 8899SOL    HW127596   1.472   5.718   1.475
 8899SOL    HW227597   1.566   5.612   1.394
 8900SOL     OW27598   5.634   2.966   3.041
 8900SOL    HW127599   5.673   2.923   2.959
 8900SOL    HW227600   5.699   2.958   3.117
 8901SOL     OW27601   1.981   0.553   5.088
 8901SOL    HW127602   1.919   0.481   5.120
 8901SOL    HW227603   2.032   0.519   5.008
 8902SOL     OW27604   1.959   6.766   0.641
 8902SOL    HW127605   1.939   6.859   0.674
 8902SOL    HW227606   1.899   6.744   0.564
 8903SOL     OW27607   0.230   1.828   4.870
 8903SOL    HW127608   0.260   1.855   4.779
 8903SOL    HW227609   0.206   1.731   4.871
 8904SOL     OW27610   6.399   0.016   4.373
 8904SOL    HW127611   6.307   0.017   4.334
 8904SOL    HW227612   6.461   0.066   4.313
 8905SOL     OW27613   1.505   4.016   4.087
 8905SOL    HW127614   1.557   4.067   4.018
 8905SOL    HW227615   1.512   3.918   4.068
 8906SOL     OW27616   0.536   6.353   6.569
 8906SOL    HW127617   0.501   6.267   6.607
 8906SOL    HW227618   0.616   6.383   6.621
 8907SOL     OW27619   2.752   2.437   5.225
 8907SOL    HW127620   2.676   2.475   5.171
 8907SOL    HW227621   2.803   2.373   5.169
 8908SOL     OW27622   1.179   4.919   0.193
 8908SOL    HW127623   1.182   5.016   0.219
 8908SOL    HW227624   1.172   4.911   0.094
 8909SOL     OW27625   2.363   0.768   6.116
 8909SOL    HW127626   2.374   0.681   6.068
 8909SOL    HW227627   2.425   0.771   6.194
 8910SOL     OW27628   0.025   2.429   5.618
 8910SOL    HW127629   7.002   2.430   5.708
 8910SOL    HW227630   6.985   2.476   5.553
 8911SOL     OW27631   4.159   2.231   4.891
 8911SOL    HW127632   4.232   2.256   4.827
 8911SOL    HW227633   4.167   2.289   4.973
 8912SOL     OW27634   3.302   3.528   6.472
 8912SOL    HW127635   3.280   3.512   6.568
 8912SOL    HW227636   3.228   3.492   6.415
 8913SOL     OW27637   4.923   5.068   5.949
 8913SOL    HW127638   4.950   4.973   5.931
 8913SOL    HW227639   4.966   5.128   5.882
 8914SOL     OW27640   4.493   0.636   4.800
 8914SOL    HW127641   4.554   0.636   4.880
 8914SOL    HW227642   4.419   0.571   4.815
 8915SOL     OW27643   0.501   3.050   4.184
 8915SOL    HW127644   0.497   3.001   4.096
 8915SOL    HW227645   0.432   3.122   4.185
 8916SOL     OW27646   6.584   2.806   0.241
 8916SOL    HW127647   6.537   2.735   0.188
 8916SOL    HW227648   6.681   2.785   0.247
 8917SOL     OW27649   6.407   3.302   6.764
 8917SOL    HW127650   6.438   3.307   6.669
 8917SOL    HW227651   6.439   3.217   6.805
 8918SOL     OW27652   6.415   4.046   1.073
 8918SOL    HW127653   6.416   3.997   1.160
 8918SOL    HW227654   6.457   4.137   1.085
 8919SOL     OW27655   3.899   4.039   0.771
 8919SOL    HW127656   3.893   3.944   0.741
 8919SOL    HW227657   3.975   4.085   0.725
 8920SOL     OW27658   0.018   0.894   6.743
 8920SOL    HW127659   0.097   0.922   6.798
 8920SOL    HW227660   0.025   0.932   6.651
 8921SOL     OW27661   2.363   2.267   2.360
 8921SOL    HW127662   2.435   2.255   2.428
 8921SOL    HW227663   2.401   2.307   2.277
 8922SOL     OW27664   4.594   4.713   1.080
 8922SOL    HW127665   4.533   4.681   1.152
 8922SOL    HW227666   4.673   4.653   1.074
 8923SOL     OW27667   1.826   2.294   6.158
 8923SOL    HW127668   1.771   2.336   6.086
 8923SOL    HW227669   1.920   2.327   6.152
 8924SOL     OW27670   3.434   5.344   5.095
 8924SOL    HW127671   3.373   5.276   5.136
 8924SOL    HW227672   3.432   5.334   4.996
 8925SOL     OW27673   0.880   1.911   3.169
 8925SOL    HW127674   0.947   1.921   3.242
 8925SOL    HW227675   0.921   1.943   3.083
 8926SOL     OW27676   6.396   3.095   5.804
 8926SOL    HW127677   6.301   3.089   5.775
 8926SOL    HW227678   6.443   3.165   5.749
 8927SOL     OW27679   6.877   1.339   4.853
 8927SOL    HW127680   6.886   1.316   4.756
 8927SOL    HW227681   6.793   1.392   4.866
 8928SOL     OW27682   0.319   0.110   6.285
 8928SOL    HW127683   0.338   0.183   6.351
 8928SOL    HW227684   0.401   0.054   6.273
 8929SOL     OW27685   5.943   2.525   4.032
 8929SOL    HW127686   6.030   2.520   4.081
 8929SOL    HW227687   5.872   2.482   4.088
 8930SOL     OW27688   1.732   3.392   4.001
 8930SOL    HW127689   1.791   3.320   4.036
 8930SOL    HW227690   1.762   3.480   4.037
 8931SOL     OW27691   2.324   3.389   0.793
 8931SOL    HW127692   2.420   3.411   0.773
 8931SOL    HW227693   2.270   3.473   0.794
 8932SOL     OW27694   6.381   1.486   1.328
 8932SOL    HW127695   6.466   1.531   1.356
 8932SOL    HW227696   6.317   1.555   1.294
 8933SOL     OW27697   2.163   3.051   6.052
 8933SOL    HW127698   2.110   2.976   6.011
 8933SOL    HW227699   2.100   3.123   6.082
 8934SOL     OW27700   3.422   4.891   4.145
 8934SOL    HW127701   3.513   4.932   4.150
 8934SOL    HW227702   3.384   4.884   4.237
 8935SOL     OW27703   6.774   4.404   0.710
 8935SOL    HW127704   6.773   4.403   0.810
 8935SOL    HW227705   6.741   4.317   0.675
 8936SOL     OW27706   1.369   3.127   3.069
 8936SOL    HW127707   1.314   3.095   3.147
 8936SOL    HW227708   1.445   3.063   3.054
 8937SOL     OW27709   0.017   0.167   4.734
 8937SOL    HW127710   6.962   0.163   4.667
 8937SOL    HW227711   0.074   0.247   4.716
 8938SOL     OW27712   0.387   0.202   0.753
 8938SOL    HW127713   0.398   0.192   0.852
 8938SOL    HW227714   0.310   0.264   0.734
 8939SOL     OW27715   6.093   4.503   4.336
 8939SOL    HW127716   6.042   4.497   4.422
 8939SOL    HW227717   6.191   4.505   4.355
 8940SOL     OW27718   6.459   1.013   2.237
 8940SOL    HW127719   6.506   0.953   2.172
 8940SOL    HW227720   6.360   1.001   2.229
 8941SOL     OW27721   5.551   2.526   4.712
 8941SOL    HW127722   5.497   2.610   4.722
 8941SOL    HW227723   5.566   2.507   4.615
 8942SOL     OW27724   6.524   5.321   5.820
 8942SOL    HW127725   6.581   5.395   5.858
 8942SOL    HW227726   6.490   5.264   5.894
 8943SOL     OW27727   3.765   5.313   0.777
 8943SOL    HW127728   3.736   5.304   0.681
 8943SOL    HW227729   3.690   5.349   0.832
 8944SOL     OW27730   5.278   5.312   4.902
 8944SOL    HW127731   5.189   5.354   4.881
 8944SOL    HW227732   5.290   5.310   5.001
 8945SOL     OW27733   1.024   0.876   3.608
 8945SOL    HW127734   1.114   0.833   3.594
 8945SOL    HW227735   0.961   0.809   3.647
 8946SOL     OW27736   2.669   1.552   4.092
 8946SOL    HW127737   2.762   1.574   4.063
 8946SOL    HW227738   2.616   1.637   4.099
 8947SOL     OW27739   2.666   3.353   5.646
 8947SOL    HW127740   2.712   3.440   5.665
 8947SOL    HW227741   2.675   3.294   5.726
 8948SOL     OW27742   6.369   5.788   4.164
 8948SOL    HW127743   6.453   5.839   4.183
 8948SOL    HW227744   6.393   5.704   4.115
 8949SOL     OW27745   3.438   5.937   0.733
 8949SOL    HW127746   3.353   5.889   0.714
 8949SOL    HW227747   3.515   5.886   0.695
 8950SOL     OW27748   4.750   4.415   6.426
 8950SOL    HW127749   4.752   4.513   6.406
 8950SOL    HW227750   4.693   4.368   6.359
 8951SOL     OW27751   1.699   0.596   4.468
 8951SOL    HW127752   1.732   0.587   4.561
 8951SOL    HW227753   1.765   0.556   4.404
 8952SOL     OW27754   0.542   5.647   2.403
 8952SOL    HW127755   0.619   5.607   2.354
 8952SOL    HW227756   0.477   5.576   2.428
 8953SOL     OW27757   1.261   4.036   0.359
 8953SOL    HW127758   1.216   3.963   0.411
 8953SOL    HW227759   1.350   4.056   0.400
 8954SOL     OW27760   6.539   6.816   4.655
 8954SOL    HW127761   6.527   6.803   4.754
 8954SOL    HW227762   6.450   6.809   4.610
 8955SOL     OW27763   6.811   5.935   2.563
 8955SOL    HW127764   6.882   5.931   2.492
 8955SOL    HW227765   6.837   5.877   2.640
 8956SOL     OW27766   2.048   1.468   6.309
 8956SOL    HW127767   2.107   1.387   6.307
 8956SOL    HW227768   2.089   1.541   6.255
 8957SOL     OW27769   1.608   4.619   1.463
 8957SOL    HW127770   1.618   4.639   1.366
 8957SOL    HW227771   1.630   4.523   1.480
 8958SOL     OW27772   0.246   1.899   4.598
 8958SOL    HW127773   0.314   1.970   4.619
 8958SOL    HW227774   0.181   1.935   4.531
 8959SOL     OW27775   1.614   4.078   1.822
 8959SOL    HW127776   1.516   4.060   1.835
 8959SOL    HW227777   1.665   4.039   1.899
 8960SOL     OW27778   4.223   5.852   3.281
 8960SOL    HW127779   4.268   5.840   3.193
 8960SOL    HW227780   4.165   5.933   3.278
 8961SOL     OW27781   3.217   0.775   3.723
 8961SOL    HW127782   3.229   0.678   3.700
 8961SOL    HW227783   3.197   0.826   3.639
 8962SOL     OW27784   6.461   5.900   2.763
 8962SOL    HW127785   6.445   5.866   2.671
 8962SOL    HW227786   6.425   5.993   2.771
 8963SOL     OW27787   4.322   0.240   4.968
 8963SOL    HW127788   4.279   0.162   4.922
 8963SOL    HW227789   4.360   0.210   5.055
 8964SOL     OW27790   5.397   3.652   3.244
 8964SOL    HW127791   5.310   3.624   3.205
 8964SOL    HW227792   5.439   3.575   3.292
 8965SOL     OW27793   2.348   5.574   0.688
 8965SOL    HW127794   2.268   5.607   0.738
 8965SOL    HW227795   2.408   5.651   0.666
 8966SOL     OW27796   6.623   4.081   0.249
 8966SOL    HW127797   6.650   3.993   0.211
 8966SOL    HW227798   6.678   4.153   0.208
 8967SOL     OW27799   4.088   0.594   1.377
 8967SOL    HW127800   4.165   0.532   1.365
 8967SOL    HW227801   4.122   0.686   1.395
 8968SOL     OW27802   4.625   5.555   3.234
 8968SOL    HW127803   4.647   5.520   3.326
 8968SOL    HW227804   4.535   5.520   3.206
 8969SOL     OW27805   6.459   0.656   4.279
 8969SOL    HW127806   6.506   0.573   4.251
 8969SOL    HW227807   6.403   0.638   4.360
 8970SOL     OW27808   2.298   3.080   6.734
 8970SOL    HW127809   2.296   3.098   6.832
 8970SOL    HW227810   2.367   3.010   6.714
 8971SOL     OW27811   5.971   5.011   1.771
 8971SOL    HW127812   6.033   5.079   1.733
 8971SOL    HW227813   6.020   4.952   1.835
 8972SOL     OW27814   5.083   3.168   6.756
 8972SOL    HW127815   5.027   3.148   6.836
 8972SOL    HW227816   5.104   3.266   6.754
 8973SOL     OW27817   0.579   3.712   3.143
 8973SOL    HW127818   0.654   3.766   3.106
 8973SOL    HW227819   0.571   3.728   3.241
 8974SOL     OW27820   1.203   4.292   4.846
 8974SOL    HW127821   1.245   4.207   4.816
 8974SOL    HW227822   1.274   4.358   4.872
 8975SOL     OW27823   1.280   6.118   6.303
 8975SOL    HW127824   1.283   6.098   6.401
 8975SOL    HW227825   1.236   6.042   6.255
 8976SOL     OW27826   0.608   5.695   6.470
 8976SOL    HW127827   0.540   5.730   6.533
 8976SOL    HW227828   0.567   5.684   6.379
 8977SOL     OW27829   0.085   3.055   6.525
 8977SOL    HW127830   0.161   3.090   6.471
 8977SOL    HW227831   0.100   3.074   6.622
 8978SOL     OW27832   5.439   6.403   4.008
 8978SOL    HW127833   5.400   6.360   4.090
 8978SOL    HW227834   5.495   6.337   3.959
 8979SOL     OW27835   1.439   4.082   4.798
 8979SOL    HW127836   1.473   4.024   4.725
 8979SOL    HW227837   1.515   4.112   4.856
 8980SOL     OW27838   4.295   3.003   5.434
 8980SOL    HW127839   4.255   2.962   5.516
 8980SOL    HW227840   4.312   2.931   5.366
 8981SOL     OW27841   4.306   0.757   5.705
 8981SOL    HW127842   4.267   0.674   5.666
 8981SOL    HW227843   4.406   0.752   5.700
 8982SOL     OW27844   1.733   2.092   1.950
 8982SOL    HW127845   1.731   2.187   1.980
 8982SOL    HW227846   1.681   2.036   2.014
 8983SOL     OW27847   0.941   5.818   6.849
 8983SOL    HW127848   0.853   5.771   6.848
 8983SOL    HW227849   0.997   5.782   6.924
 8984SOL     OW27850   6.565   0.173   3.768
 8984SOL    HW127851   6.484   0.117   3.783
 8984SOL    HW227852   6.541   0.252   3.711
 8985SOL     OW27853   2.409   1.785   0.756
 8985SOL    HW127854   2.438   1.880   0.761
 8985SOL    HW227855   2.490   1.726   0.762
 8986SOL     OW27856   4.220   5.091   1.781
 8986SOL    HW127857   4.231   4.996   1.808
 8986SOL    HW227858   4.179   5.142   1.857
 8987SOL     OW27859   5.001   6.711   0.379
 8987SOL    HW127860   5.099   6.711   0.359
 8987SOL    HW227861   4.958   6.793   0.340
 8988SOL     OW27862   1.312   4.041   6.743
 8988SOL    HW127863   1.346   4.132   6.722
 8988SOL    HW227864   1.388   3.976   6.747
 8989SOL     OW27865   5.210   4.393   2.202
 8989SOL    HW127866   5.255   4.328   2.264
 8989SOL    HW227867   5.115   4.364   2.188
 8990SOL     OW27868   2.030   5.765   2.208
 8990SOL    HW127869   1.958   5.828   2.180
 8990SOL    HW227870   2.041   5.695   2.137
 8991SOL     OW27871   2.168   2.313   0.197
 8991SOL    HW127872   2.128   2.224   0.221
 8991SOL    HW227873   2.097   2.371   0.156
 8992SOL     OW27874   6.303   2.034   6.933
 8992SOL    HW127875   6.370   1.961   6.944
 8992SOL    HW227876   6.288   2.078   0.003
 8993SOL     OW27877   4.730   2.634   2.297
 8993SOL    HW127878   4.660   2.580   2.343
 8993SOL    HW227879   4.814   2.580   2.287
 8994SOL     OW27880   0.676   4.973   4.858
 8994SOL    HW127881   0.684   4.891   4.916
 8994SOL    HW227882   0.648   5.051   4.914
 8995SOL     OW27883   1.282   2.528   6.524
 8995SOL    HW127884   1.322   2.533   6.616
 8995SOL    HW227885   1.323   2.452   6.474
 8996SOL     OW27886   6.507   5.367   1.753
 8996SOL    HW127887   6.599   5.370   1.716
 8996SOL    HW227888   6.453   5.442   1.716
 8997SOL     OW27889   4.265   1.393   6.476
 8997SOL    HW127890   4.218   1.317   6.521
 8997SOL    HW227891   4.213   1.477   6.491
 8998SOL     OW27892   6.372   3.573   4.893
 8998SOL    HW127893   6.389   3.548   4.798
 8998SOL    HW227894   6.335   3.666   4.897
 8999SOL     OW27895   5.006   6.685   6.856
 8999SOL    HW127896   5.026   6.776   6.821
 8999SOL    HW227897   5.091   6.631   6.857
 9000SOL     OW27898   2.570   4.557   0.557
 9000SOL    HW127899   2.650   4.570   0.498
 9000SOL    HW227900   2.600   4.554   0.652
 9001SOL     OW27901   1.438   5.716   2.631
 9001SOL    HW127902   1.535   5.712   2.655
 9001SOL    HW227903   1.391   5.777   2.695
 9002SOL     OW27904   6.942   5.107   5.256
 9002SOL    HW127905   6.986   5.197   5.260
 9002SOL    HW227906   7.008   5.036   5.279
 9003SOL     OW27907   5.163   2.795   1.384
 9003SOL    HW127908   5.255   2.757   1.396
 9003SOL    HW227909   5.138   2.850   1.464
 9004SOL     OW27910   5.140   6.417   0.796
 9004SOL    HW127911   5.192   6.496   0.764
 9004SOL    HW227912   5.112   6.432   0.891
 9005SOL     OW27913   4.911   2.218   5.089
 9005SOL    HW127914   4.943   2.306   5.054
 9005SOL    HW227915   4.909   2.152   5.015
 9006SOL     OW27916   3.091   6.559   0.688
 9006SOL    HW127917   3.018   6.627   0.696
 9006SOL    HW227918   3.070   6.496   0.613
 9007SOL     OW27919   4.789   0.366   3.991
 9007SOL    HW127920   4.797   0.314   4.076
 9007SOL    HW227921   4.693   0.389   3.974
 9008SOL     OW27922   0.531   5.973   3.167
 9008SOL    HW127923   0.438   5.955   3.133
 9008SOL    HW227924   0.555   5.904   3.235
 9009SOL     OW27925   2.551   1.051   0.609
 9009SOL    HW127926   2.467   1.080   0.562
 9009SOL    HW227927   2.603   0.989   0.550
 9010SOL     OW27928   0.738   0.010   4.436
 9010SOL    HW127929   0.828   0.053   4.430
 9010SOL    HW227930   0.673   0.075   4.476
 9011SOL     OW27931   4.466   2.534   1.746
 9011SOL    HW127932   4.403   2.601   1.708
 9011SOL    HW227933   4.463   2.538   1.846
 9012SOL     OW27934   3.367   4.622   1.276
 9012SOL    HW127935   3.304   4.568   1.332
 9012SOL    HW227936   3.315   4.684   1.217
 9013SOL     OW27937   0.147   6.267   4.732
 9013SOL    HW127938   0.192   6.271   4.821
 9013SOL    HW227939   0.063   6.321   4.734
 9014SOL     OW27940   0.528   1.457   6.985
 9014SOL    HW127941   0.563   1.414   0.048
 9014SOL    HW227942   0.604   1.492   6.930
 9015SOL     OW27943   5.748   1.344   1.371
 9015SOL    HW127944   5.835   1.373   1.412
 9015SOL    HW227945   5.685   1.315   1.443
 9016SOL     OW27946   0.730   6.281   6.365
 9016SOL    HW127947   0.744   6.202   6.425
 9016SOL    HW227948   0.676   6.350   6.412
 9017SOL     OW27949   4.368   2.070   1.836
 9017SOL    HW127950   4.442   2.083   1.770
 9017SOL    HW227951   4.301   2.006   1.800
 9018SOL     OW27952   4.504   1.668   6.157
 9018SOL    HW127953   4.583   1.714   6.117
 9018SOL    HW227954   4.438   1.645   6.086
 9019SOL     OW27955   0.817   0.523   1.715
 9019SOL    HW127956   0.768   0.610   1.710
 9019SOL    HW227957   0.835   0.501   1.811
 9020SOL     OW27958   1.214   3.578   1.467
 9020SOL    HW127959   1.135   3.529   1.430
 9020SOL    HW227960   1.273   3.514   1.516
 9021SOL     OW27961   6.731   0.171   4.017
 9021SOL    HW127962   6.673   0.236   3.968
 9021SOL    HW227963   6.797   0.130   3.954
 9022SOL     OW27964   2.707   1.637   0.408
 9022SOL    HW127965   2.773   1.709   0.387
 9022SOL    HW227966   2.743   1.549   0.378
 9023SOL     OW27967   3.377   3.764   2.195
 9023SOL    HW127968   3.405   3.836   2.258
 9023SOL    HW227969   3.321   3.697   2.243
 9024SOL     OW27970   0.170   5.395   4.333
 9024SOL    HW127971   0.223   5.374   4.251
 9024SOL    HW227972   0.191   5.327   4.404
 9025SOL     OW27973   0.856   5.346   0.271
 9025SOL    HW127974   0.884   5.256   0.305
 9025SOL    HW227975   0.765   5.369   0.308
 9026SOL     OW27976   4.014   3.236   1.188
 9026SOL    HW127977   4.016   3.179   1.270
 9026SOL    HW227978   3.947   3.309   1.201
 9027SOL     OW27979   1.071   1.953   4.085
 9027SOL    HW127980   1.042   1.869   4.130
 9027SOL    HW227981   1.022   2.031   4.123
 9028SOL     OW27982   2.556   4.037   5.702
 9028SOL    HW127983   2.652   4.027   5.675
 9028SOL    HW227984   2.510   4.100   5.639
 9029SOL     OW27985   2.816   5.539   4.575
 9029SOL    HW127986   2.763   5.622   4.556
 9029SOL    HW227987   2.906   5.546   4.532
 9030SOL     OW27988   2.125   2.288   3.649
 9030SOL    HW127989   2.112   2.286   3.748
 9030SOL    HW227990   2.202   2.348   3.626
 9031SOL     OW27991   4.572   6.129   4.291
 9031SOL    HW127992   4.650   6.191   4.304
 9031SOL    HW227993   4.571   6.061   4.365
 9032SOL     OW27994   3.592   3.316   0.710
 9032SOL    HW127995   3.621   3.385   0.776
 9032SOL    HW227996   3.565   3.361   0.625
 9033SOL     OW27997   1.390   5.185   4.070
 9033SOL    HW127998   1.467   5.219   4.016
 9033SOL    HW227999   1.313   5.248   4.062
 9034SOL     OW28000   3.149   0.093   5.551
 9034SOL    HW128001   3.156   0.146   5.466
 9034SOL    HW228002   3.240   0.069   5.583
 9035SOL     OW28003   1.464   4.433   6.252
 9035SOL    HW128004   1.517   4.463   6.172
 9035SOL    HW228005   1.486   4.338   6.273
 9036SOL     OW28006   2.451   0.661   5.076
 9036SOL    HW128007   2.404   0.670   4.989
 9036SOL    HW228008   2.517   0.735   5.086
 9037SOL     OW28009   1.357   3.751   5.884
 9037SOL    HW128010   1.260   3.744   5.906
 9037SOL    HW228011   1.396   3.660   5.875
 9038SOL     OW28012   4.809   6.143   6.358
 9038SOL    HW128013   4.724   6.195   6.351
 9038SOL    HW228014   4.801   6.060   6.303
 9039SOL     OW28015   2.853   4.966   4.643
 9039SOL    HW128016   2.784   4.963   4.570
 9039SOL    HW228017   2.845   5.052   4.693
 9040SOL     OW28018   2.981   2.109   3.010
 9040SOL    HW128019   2.908   2.052   2.973
 9040SOL    HW228020   3.070   2.067   2.993
 9041SOL     OW28021   1.772   2.378   2.053
 9041SOL    HW128022   1.826   2.459   2.033
 9041SOL    HW228023   1.699   2.400   2.117
 9042SOL     OW28024   2.791   0.109   4.020
 9042SOL    HW128025   2.812   0.172   4.095
 9042SOL    HW228026   2.718   0.148   3.963
 9043SOL     OW28027   2.279   1.816   6.918
 9043SOL    HW128028   2.233   1.905   6.921
 9043SOL    HW228029   2.291   1.789   6.822
 9044SOL     OW28030   5.694   1.159   1.903
 9044SOL    HW128031   5.759   1.234   1.912
 9044SOL    HW228032   5.602   1.197   1.890
 9045SOL     OW28033   2.797   0.934   2.631
 9045SOL    HW128034   2.849   0.980   2.559
 9045SOL    HW228035   2.731   0.872   2.589
 9046SOL     OW28036   3.640   4.181   4.339
 9046SOL    HW128037   3.655   4.271   4.379
 9046SOL    HW228038   3.541   4.165   4.331
 9047SOL     OW28039   1.208   3.448   5.838
 9047SOL    HW128040   1.296   3.414   5.805
 9047SOL    HW228041   1.185   3.532   5.790
 9048SOL     OW28042   5.830   1.642   5.848
 9048SOL    HW128043   5.833   1.599   5.758
 9048SOL    HW228044   5.750   1.702   5.854
 9049SOL     OW28045   3.596   0.090   6.667
 9049SOL    HW128046   3.513   0.111   6.615
 9049SOL    HW228047   3.586   0.122   6.761
 9050SOL     OW28048   0.052   3.474   6.735
 9050SOL    HW128049   0.012   3.566   6.743
 9050SOL    HW228050   7.009   3.416   6.682
 9051SOL     OW28051   4.658   6.577   0.818
 9051SOL    HW128052   4.725   6.533   0.758
 9051SOL    HW228053   4.610   6.648   0.767
 9052SOL     OW28054   1.828   2.080   3.868
 9052SOL    HW128055   1.738   2.119   3.847
 9052SOL    HW228056   1.824   1.980   3.859
 9053SOL     OW28057   1.814   1.694   3.130
 9053SOL    HW128058   1.791   1.617   3.189
 9053SOL    HW228059   1.731   1.729   3.086
 9054SOL     OW28060   1.751   6.907   1.881
 9054SOL    HW128061   1.723   7.001   1.860
 9054SOL    HW228062   1.747   6.892   1.979
 9055SOL     OW28063   6.099   3.024   3.767
 9055SOL    HW128064   6.176   3.089   3.768
 9055SOL    HW228065   6.133   2.934   3.737
 9056SOL     OW28066   0.608   1.449   1.929
 9056SOL    HW128067   0.631   1.511   2.005
 9056SOL    HW228068   0.540   1.383   1.958
 9057SOL     OW28069   5.513   5.015   5.770
 9057SOL    HW128070   5.471   4.981   5.686
 9057SOL    HW228071   5.471   4.969   5.849
 9058SOL     OW28072   2.548   1.714   3.153
 9058SOL    HW128073   2.547   1.754   3.061
 9058SOL    HW228074   2.463   1.664   3.168
 9059SOL     OW28075   1.116   1.867   4.923
 9059SOL    HW128076   1.079   1.787   4.970
 9059SOL    HW228077   1.092   1.950   4.973
 9060SOL     OW28078   6.175   3.126   2.608
 9060SOL    HW128079   6.097   3.120   2.670
 9060SOL    HW228080   6.255   3.159   2.658
 9061SOL     OW28081   2.799   5.544   2.044
 9061SOL    HW128082   2.882   5.522   1.993
 9061SOL    HW228083   2.822   5.568   2.138
 9062SOL     OW28084   1.917   6.051   1.778
 9062SOL    HW128085   1.966   6.115   1.838
 9062SOL    HW228086   1.976   6.023   1.703
 9063SOL     OW28087   2.404   0.420   2.898
 9063SOL    HW128088   2.323   0.448   2.847
 9063SOL    HW228089   2.433   0.494   2.958
 9064SOL     OW28090   6.115   2.174   5.747
 9064SOL    HW128091   6.084   2.084   5.716
 9064SOL    HW228092   6.053   2.244   5.711
 9065SOL     OW28093   3.031   6.504   6.095
 9065SOL    HW128094   3.112   6.562   6.095
 9065SOL    HW228095   3.023   6.459   6.006
 9066SOL     OW28096   5.762   6.227   0.214
 9066SOL    HW128097   5.701   6.298   0.180
 9066SOL    HW228098   5.741   6.208   0.310
 9067SOL     OW28099   5.979   0.576   4.648
 9067SOL    HW128100   6.009   0.482   4.633
 9067SOL    HW228101   6.011   0.634   4.574
 9068SOL     OW28102   3.039   6.728   5.606
 9068SOL    HW128103   2.980   6.661   5.651
 9068SOL    HW228104   2.982   6.799   5.564
 9069SOL     OW28105   2.459   2.485   1.858
 9069SOL    HW128106   2.436   2.579   1.882
 9069SOL    HW228107   2.481   2.434   1.941
 9070SOL     OW28108   1.506   3.835   5.415
 9070SOL    HW128109   1.420   3.794   5.385
 9070SOL    HW228110   1.496   3.867   5.510
 9071SOL     OW28111   5.734   0.738   1.026
 9071SOL    HW128112   5.684   0.810   1.073
 9071SOL    HW228113   5.677   0.700   0.954
 9072SOL     OW28114   6.779   0.945   1.997
 9072SOL    HW128115   6.860   0.969   2.051
 9072SOL    HW228116   6.727   0.873   2.044
 9073SOL     OW28117   3.061   6.930   1.135
 9073SOL    HW128118   3.028   6.929   1.040
 9073SOL    HW228119   3.006   6.868   1.190
 9074SOL     OW28120   2.164   1.854   1.795
 9074SOL    HW128121   2.112   1.887   1.717
 9074SOL    HW228122   2.136   1.761   1.816
 9075SOL     OW28123   1.308   1.289   2.772
 9075SOL    HW128124   1.364   1.236   2.709
 9075SOL    HW228125   1.216   1.250   2.777
 9076SOL     OW28126   5.563   2.012   4.743
 9076SOL    HW128127   5.537   2.107   4.764
 9076SOL    HW228128   5.485   1.965   4.702
 9077SOL     OW28129   5.411   6.863   6.865
 9077SOL    HW128130   5.392   6.851   6.962
 9077SOL    HW228131   5.369   6.949   6.833
 9078SOL     OW28132   4.231   3.653   6.333
 9078SOL    HW128133   4.131   3.642   6.334
 9078SOL    HW228134   4.274   3.564   6.318
 9079SOL     OW28135   2.955   6.794   4.031
 9079SOL    HW128136   2.903   6.743   3.963
 9079SOL    HW228137   2.965   6.889   4.001
 9080SOL     OW28138   5.078   2.616   0.038
 9080SOL    HW128139   5.089   2.711   0.068
 9080SOL    HW228140   5.161   2.585   7.012
 9081SOL     OW28141   4.134   5.721   3.028
 9081SOL    HW128142   4.220   5.737   2.981
 9081SOL    HW228143   4.149   5.660   3.106
 9082SOL     OW28144   2.709   6.752   5.486
 9082SOL    HW128145   2.628   6.803   5.514
 9082SOL    HW228146   2.790   6.793   5.529
 9083SOL     OW28147   2.781   5.253   6.062
 9083SOL    HW128148   2.776   5.344   6.104
 9083SOL    HW228149   2.753   5.258   5.967
 9084SOL     OW28150   3.093   3.917   5.624
 9084SOL    HW128151   3.123   3.958   5.710
 9084SOL    HW228152   3.140   3.961   5.547
 9085SOL     OW28153   2.433   4.569   1.546
 9085SOL    HW128154   2.427   4.489   1.486
 9085SOL    HW228155   2.363   4.564   1.617
 9086SOL     OW28156   1.184   4.871   0.553
 9086SOL    HW128157   1.208   4.782   0.516
 9086SOL    HW228158   1.267   4.928   0.560
 9087SOL     OW28159   4.777   2.893   1.694
 9087SOL    HW128160   4.756   2.937   1.781
 9087SOL    HW228161   4.834   2.953   1.638
 9088SOL     OW28162   5.338   6.034   0.390
 9088SOL    HW128163   5.345   6.133   0.379
 9088SOL    HW228164   5.285   5.995   0.314
 9089SOL     OW28165   4.972   6.016   5.978
 9089SOL    HW128166   5.001   6.112   5.986
 9089SOL    HW228167   4.925   6.002   5.891
 9090SOL     OW28168   6.987   0.335   3.359
 9090SOL    HW128169   6.966   0.241   3.385
 9090SOL    HW228170   6.912   0.372   3.305
 9091SOL     OW28171   3.273   4.958   0.728
 9091SOL    HW128172   3.192   4.968   0.786
 9091SOL    HW228173   3.275   4.867   0.687
 9092SOL     OW28174   0.895   1.142   0.900
 9092SOL    HW128175   0.952   1.111   0.824
 9092SOL    HW228176   0.934   1.109   0.986
 9093SOL     OW28177   1.156   6.750   6.034
 9093SOL    HW128178   1.242   6.735   6.083
 9093SOL    HW228179   1.173   6.808   5.954
 9094SOL     OW28180   6.205   5.254   2.815
 9094SOL    HW128181   6.286   5.210   2.775
 9094SOL    HW228182   6.153   5.186   2.868
 9095SOL     OW28183   5.046   4.432   5.896
 9095SOL    HW128184   5.027   4.513   5.953
 9095SOL    HW228185   4.980   4.428   5.822
 9096SOL     OW28186   5.633   4.087   2.274
 9096SOL    HW128187   5.667   4.179   2.293
 9096SOL    HW228188   5.663   4.060   2.182
 9097SOL     OW28189   1.398   1.825   1.117
 9097SOL    HW128190   1.409   1.834   1.018
 9097SOL    HW228191   1.472   1.769   1.155
 9098SOL     OW28192   3.675   1.503   5.821
 9098SOL    HW128193   3.613   1.520   5.898
 9098SOL    HW228194   3.729   1.421   5.840
 9099SOL     OW28195   3.211   2.305   5.704
 9099SOL    HW128196   3.172   2.310   5.796
 9099SOL    HW228197   3.231   2.210   5.681
 9100SOL     OW28198   0.265   3.786   3.991
 9100SOL    HW128199   0.313   3.699   3.996
 9100SOL    HW228200   0.299   3.847   4.063
 9101SOL     OW28201   2.132   2.300   3.006
 9101SOL    HW128202   2.140   2.220   2.946
 9101SOL    HW228203   2.184   2.283   3.090
 9102SOL     OW28204   2.757   0.250   1.989
 9102SOL    HW128205   2.803   0.199   1.916
 9102SOL    HW228206   2.771   0.348   1.973
 9103SOL     OW28207   6.399   2.845   6.595
 9103SOL    HW128208   6.490   2.818   6.563
 9103SOL    HW228209   6.369   2.782   6.667
 9104SOL     OW28210   0.624   6.286   2.557
 9104SOL    HW128211   0.547   6.228   2.533
 9104SOL    HW228212   0.663   6.326   2.474
 9105SOL     OW28213   1.177   1.565   6.356
 9105SOL    HW128214   1.223   1.609   6.433
 9105SOL    HW228215   1.243   1.510   6.305
 9106SOL     OW28216   0.288   2.919   1.202
 9106SOL    HW128217   0.302   2.843   1.265
 9106SOL    HW228218   0.252   2.998   1.252
 9107SOL     OW28219   3.333   0.732   6.554
 9107SOL    HW128220   3.310   0.665   6.624
 9107SOL    HW228221   3.432   0.737   6.543
 9108SOL     OW28222   5.123   4.380   5.577
 9108SOL    HW128223   5.178   4.341   5.503
 9108SOL    HW228224   5.130   4.322   5.658
 9109SOL     OW28225   6.605   3.345   3.732
 9109SOL    HW128226   6.640   3.261   3.691
 9109SOL    HW228227   6.680   3.395   3.774
 9110SOL     OW28228   1.717   4.791   4.465
 9110SOL    HW128229   1.678   4.773   4.556
 9110SOL    HW228230   1.733   4.705   4.418
 9111SOL     OW28231   5.251   1.888   0.613
 9111SOL    HW128232   5.327   1.892   0.678
 9111SOL    HW228233   5.256   1.801   0.563
 9112SOL     OW28234   1.003   5.357   2.556
 9112SOL    HW128235   1.100   5.369   2.533
 9112SOL    HW228236   0.970   5.270   2.519
 9113SOL     OW28237   4.584   2.425   3.223
 9113SOL    HW128238   4.664   2.438   3.282
 9113SOL    HW228239   4.608   2.449   3.129
 9114SOL     OW28240   0.762   4.864   2.972
 9114SOL    HW128241   0.705   4.848   2.892
 9114SOL    HW228242   0.857   4.839   2.950
 9115SOL     OW28243   6.592   6.089   4.490
 9115SOL    HW128244   6.648   6.168   4.467
 9115SOL    HW228245   6.623   6.049   4.576
 9116SOL     OW28246   0.080   6.898   2.514
 9116SOL    HW128247   0.165   6.882   2.563
 9116SOL    HW228248   0.031   6.812   2.501
 9117SOL     OW28249   4.270   2.765   6.929
 9117SOL    HW128250   4.295   2.849   6.978
 9117SOL    HW228251   4.270   2.783   6.831
 9118SOL     OW28252   6.960   2.968   0.983
 9118SOL    HW128253   0.024   2.916   0.963
 9118SOL    HW228254   6.985   3.056   1.024
 9119SOL     OW28255   4.285   0.825   2.677
 9119SOL    HW128256   4.289   0.908   2.732
 9119SOL    HW228257   4.367   0.770   2.695
 9120SOL     OW28258   6.466   1.269   5.508
 9120SOL    HW128259   6.502   1.205   5.576
 9120SOL    HW228260   6.506   1.359   5.522
 9121SOL     OW28261   4.072   0.064   5.170
 9121SOL    HW128262   4.135   0.035   5.241
 9121SOL    HW228263   3.979   0.063   5.206
 9122SOL     OW28264   2.392   4.596   2.024
 9122SOL    HW128265   2.442   4.581   1.939
 9122SOL    HW228266   2.453   4.639   2.091
 9123SOL     OW28267   2.119   0.900   4.359
 9123SOL    HW128268   2.164   0.817   4.327
 9123SOL    HW228269   2.172   0.980   4.331
 9124SOL     OW28270   4.578   5.239   0.282
 9124SOL    HW128271   4.600   5.234   0.380
 9124SOL    HW228272   4.494   5.187   0.265
 9125SOL     OW28273   4.419   4.127   0.626
 9125SOL    HW128274   4.411   4.075   0.542
 9125SOL    HW228275   4.330   4.167   0.649
 9126SOL     OW28276   5.868   3.231   1.121
 9126SOL    HW128277   5.809   3.187   1.188
 9126SOL    HW228278   5.941   3.169   1.094
 9127SOL     OW28279   6.399   1.264   5.943
 9127SOL    HW128280   6.482   1.310   5.912
 9127SOL    HW228281   6.422   1.172   5.977
 9128SOL     OW28282   5.584   2.284   5.330
 9128SOL    HW128283   5.610   2.299   5.426
 9128SOL    HW228284   5.531   2.362   5.298
 9129SOL     OW28285   6.985   2.765   6.728
 9129SOL    HW128286   0.063   2.742   6.736
 9129SOL    HW228287   6.932   2.682   6.715
 9130SOL     OW28288   1.206   3.588   6.205
 9130SOL    HW128289   1.196   3.656   6.132
 9130SOL    HW228290   1.294   3.601   6.250
 9131SOL     OW28291   5.419   2.850   5.905
 9131SOL    HW128292   5.453   2.856   5.811
 9131SOL    HW228293   5.362   2.930   5.925
 9132SOL     OW28294   0.168   5.813   4.027
 9132SOL    HW128295   0.174   5.881   4.100
 9132SOL    HW228296   0.231   5.838   3.954
 9133SOL     OW28297   3.796   6.215   1.151
 9133SOL    HW128298   3.835   6.223   1.242
 9133SOL    HW228299   3.772   6.119   1.133
 9134SOL     OW28300   3.452   5.557   1.517
 9134SOL    HW128301   3.433   5.533   1.612
 9134SOL    HW228302   3.531   5.619   1.513
 9135SOL     OW28303   0.405   0.686   1.530
 9135SOL    HW128304   0.362   0.625   1.597
 9135SOL    HW228305   0.384   0.653   1.438
 9136SOL     OW28306   4.749   5.598   6.909
 9136SOL    HW128307   4.840   5.558   6.919
 9136SOL    HW228308   4.680   5.527   6.918
 9137SOL     OW28309   4.118   0.982   6.906
 9137SOL    HW128310   4.148   0.943   6.993
 9137SOL    HW228311   4.195   1.029   6.862
 9138SOL     OW28312   0.189   5.286   6.544
 9138SOL    HW128313   0.170   5.207   6.485
 9138SOL    HW228314   0.231   5.358   6.490
 9139SOL     OW28315   1.985   1.836   2.831
 9139SOL    HW128316   2.064   1.826   2.771
 9139SOL    HW228317   2.014   1.835   2.926
 9140SOL     OW28318   0.065   3.947   2.686
 9140SOL    HW128319   7.009   3.883   2.666
 9140SOL    HW228320   0.026   4.035   2.715
 9141SOL     OW28321   5.483   6.532   1.280
 9141SOL    HW128322   5.394   6.576   1.271
 9141SOL    HW228323   5.480   6.466   1.355
 9142SOL     OW28324   1.008   3.927   1.611
 9142SOL    HW128325   1.105   3.948   1.616
 9142SOL    HW228326   0.996   3.830   1.588
 9143SOL     OW28327   6.070   2.451   0.124
 9143SOL    HW128328   6.138   2.448   0.198
 9143SOL    HW228329   6.031   2.360   0.112
 9144SOL     OW28330   2.677   5.416   4.373
 9144SOL    HW128331   2.587   5.381   4.400
 9144SOL    HW228332   2.718   5.466   4.449
 9145SOL     OW28333   0.508   5.834   6.711
 9145SOL    HW128334   0.470   5.763   6.769
 9145SOL    HW228335   0.589   5.874   6.755
 9146SOL     OW28336   5.245   2.916   3.385
 9146SOL    HW128337   5.311   2.841   3.375
 9146SOL    HW228338   5.208   2.915   3.478
 9147SOL     OW28339   5.913   0.349   5.272
 9147SOL    HW128340   5.886   0.421   5.208
 9147SOL    HW228341   6.009   0.359   5.295
 9148SOL     OW28342   5.155   6.117   2.239
 9148SOL    HW128343   5.185   6.022   2.234
 9148SOL    HW228344   5.060   6.120   2.272
 9149SOL     OW28345   4.906   3.232   2.523
 9149SOL    HW128346   4.828   3.274   2.476
 9149SOL    HW228347   4.991   3.254   2.474
 9150SOL     OW28348   3.063   5.084   1.177
 9150SOL    HW128349   2.982   5.127   1.217
 9150SOL    HW228350   3.091   5.007   1.235
 9151SOL     OW28351   1.689   4.389   3.958
 9151SOL    HW128352   1.698   4.464   3.892
 9151SOL    HW228353   1.593   4.378   3.983
 9152SOL     OW28354   2.072   4.323   4.357
 9152SOL    HW128355   2.015   4.401   4.381
 9152SOL    HW228356   2.072   4.311   4.258
 9153SOL     OW28357   0.504   2.978   0.115
 9153SOL    HW128358   0.452   2.977   0.200
 9153SOL    HW228359   0.532   2.884   0.093
 9154SOL     OW28360   5.505   4.626   5.131
 9154SOL    HW128361   5.497   4.687   5.210
 9154SOL    HW228362   5.552   4.543   5.159
 9155SOL     OW28363   2.061   4.395   2.679
 9155SOL    HW128364   2.057   4.458   2.758
 9155SOL    HW228365   2.147   4.346   2.681
 9156SOL     OW28366   6.805   1.991   0.844
 9156SOL    HW128367   6.874   1.919   0.845
 9156SOL    HW228368   6.795   2.026   0.751
 9157SOL     OW28369   2.557   4.212   0.160
 9157SOL    HW128370   2.511   4.294   0.125
 9157SOL    HW228371   2.552   4.139   0.091
 9158SOL     OW28372   6.566   3.910   4.649
 9158SOL    HW128373   6.571   3.998   4.696
 9158SOL    HW228374   6.598   3.920   4.555
 9159SOL     OW28375   1.937   0.692   3.174
 9159SOL    HW128376   1.921   0.660   3.081
 9159SOL    HW228377   1.935   0.792   3.176
 9160SOL     OW28378   0.459   6.093   6.336
 9160SOL    HW128379   0.423   6.158   6.403
 9160SOL    HW228380   0.480   6.142   6.251
 9161SOL     OW28381   5.747   4.815   3.208
 9161SOL    HW128382   5.818   4.870   3.165
 9161SOL    HW228383   5.753   4.721   3.173
 9162SOL     OW28384   4.304   0.408   2.824
 9162SOL    HW128385   4.349   0.451   2.902
 9162SOL    HW228386   4.226   0.354   2.856
 9163SOL     OW28387   0.082   3.539   3.899
 9163SOL    HW128388   0.031   3.463   3.858
 9163SOL    HW228389   0.055   3.624   3.855
 9164SOL     OW28390   2.151   0.812   6.905
 9164SOL    HW128391   2.150   0.860   6.993
 9164SOL    HW228392   2.151   0.879   6.831
 9165SOL     OW28393   5.337   1.832   5.831
 9165SOL    HW128394   5.291   1.744   5.818
 9165SOL    HW228395   5.308   1.872   5.918
 9166SOL     OW28396   4.234   4.899   0.477
 9166SOL    HW128397   4.259   4.918   0.572
 9166SOL    HW228398   4.148   4.849   0.475
 9167SOL     OW28399   1.945   1.987   5.478
 9167SOL    HW128400   1.887   1.997   5.398
 9167SOL    HW228401   1.893   2.009   5.561
 9168SOL     OW28402   0.017   6.082   6.565
 9168SOL    HW128403   0.064   6.045   6.485
 9168SOL    HW228404   6.938   6.064   6.558
 9169SOL     OW28405   0.215   6.636   6.381
 9169SOL    HW128406   0.195   6.703   6.309
 9169SOL    HW228407   0.129   6.598   6.415
 9170SOL     OW28408   1.826   0.366   6.080
 9170SOL    HW128409   1.775   0.379   5.995
 9170SOL    HW228410   1.882   0.284   6.072
 9171SOL     OW28411   3.548   6.016   0.975
 9171SOL    HW128412   3.495   6.004   0.892
 9171SOL    HW228413   3.627   5.954   0.974
 9172SOL     OW28414   4.548   0.907   3.807
 9172SOL    HW128415   4.596   0.975   3.862
 9172SOL    HW228416   4.529   0.946   3.717
 9173SOL     OW28417   6.308   3.625   5.531
 9173SOL    HW128418   6.342   3.711   5.567
 9173SOL    HW228419   6.385   3.572   5.493
 9174SOL     OW28420   0.520   5.728   0.237
 9174SOL    HW128421   0.505   5.651   0.175
 9174SOL    HW228422   0.554   5.693   0.325
 9175SOL     OW28423   1.194   0.036   6.647
 9175SOL    HW128424   1.272   0.035   6.709
 9175SOL    HW228425   1.146   6.968   6.652
 9176SOL     OW28426   3.170   0.622   2.297
 9176SOL    HW128427   3.104   0.594   2.366
 9176SOL    HW228428   3.260   0.585   2.320
 9177SOL     OW28429   0.969   2.943   4.099
 9177SOL    HW128430   0.950   2.850   4.067
 9177SOL    HW228431   0.905   2.967   4.171
 9178SOL     OW28432   2.140   5.659   6.528
 9178SOL    HW128433   2.078   5.697   6.597
 9178SOL    HW228434   2.088   5.633   6.447
 9179SOL     OW28435   1.660   5.486   4.946
 9179SOL    HW128436   1.732   5.511   4.880
 9179SOL    HW228437   1.599   5.419   4.904
 9180SOL     OW28438   6.213   2.658   3.186
 9180SOL    HW128439   6.252   2.629   3.273
 9180SOL    HW228440   6.212   2.581   3.123
 9181SOL     OW28441   5.076   2.253   3.861
 9181SOL    HW128442   4.986   2.248   3.817
 9181SOL    HW228443   5.135   2.315   3.809
 9182SOL     OW28444   3.219   0.167   2.941
 9182SOL    HW128445   3.158   0.245   2.953
 9182SOL    HW228446   3.165   0.087   2.915
 9183SOL     OW28447   4.737   4.783   6.480
 9183SOL    HW128448   4.739   4.839   6.562
 9183SOL    HW228449   4.831   4.763   6.451
 9184SOL     OW28450   3.997   2.367   1.210
 9184SOL    HW128451   4.065   2.432   1.245
 9184SOL    HW228452   4.030   2.329   1.123
 9185SOL     OW28453   6.790   7.011   4.832
 9185SOL    HW128454   6.754   0.078   4.868
 9185SOL    HW228455   6.798   7.016   4.733
 9186SOL     OW28456   5.372   0.421   5.405
 9186SOL    HW128457   5.409   0.500   5.454
 9186SOL    HW228458   5.401   0.425   5.309
 9187SOL     OW28459   3.817   2.083   0.379
 9187SOL    HW128460   3.901   2.043   0.415
 9187SOL    HW228461   3.790   2.161   0.435
 9188SOL     OW28462   1.986   0.685   1.842
 9188SOL    HW128463   2.074   0.667   1.798
 9188SOL    HW228464   1.912   0.668   1.777
 9189SOL     OW28465   3.553   6.201   2.413
 9189SOL    HW128466   3.594   6.284   2.375
 9189SOL    HW228467   3.556   6.205   2.513
 9190SOL     OW28468   0.859   3.596   5.244
 9190SOL    HW128469   0.879   3.502   5.217
 9190SOL    HW228470   0.865   3.605   5.343
 9191SOL     OW28471   5.653   1.008   6.316
 9191SOL    HW128472   5.562   1.047   6.303
 9191SOL    HW228473   5.705   1.065   6.380
 9192SOL     OW28474   6.671   2.580   6.175
 9192SOL    HW128475   6.676   2.679   6.182
 9192SOL    HW228476   6.596   2.546   6.233
 9193SOL     OW28477   3.999   3.828   4.682
 9193SOL    HW128478   4.021   3.851   4.776
 9193SOL    HW228479   3.939   3.898   4.643
 9194SOL     OW28480   3.323   6.545   2.253
 9194SOL    HW128481   3.265   6.590   2.321
 9194SOL    HW228482   3.275   6.540   2.165
 9195SOL     OW28483   1.836   3.146   3.364
 9195SOL    HW128484   1.844   3.164   3.462
 9195SOL    HW228485   1.742   3.164   3.334
 9196SOL     OW28486   5.702   6.704   3.507
 9196SOL    HW128487   5.736   6.613   3.484
 9196SOL    HW228488   5.704   6.762   3.426
 9197SOL     OW28489   2.867   5.409   0.929
 9197SOL    HW128490   2.809   5.429   1.008
 9197SOL    HW228491   2.952   5.367   0.960
 9198SOL     OW28492   6.299   4.383   6.587
 9198SOL    HW128493   6.245   4.423   6.662
 9198SOL    HW228494   6.393   4.367   6.617
 9199SOL     OW28495   0.296   3.044   6.059
 9199SOL    HW128496   0.215   3.028   6.115
 9199SOL    HW228497   0.326   3.139   6.071
 9200SOL     OW28498   2.199   5.902   5.837
 9200SOL    HW128499   2.255   5.828   5.800
 9200SOL    HW228500   2.251   5.987   5.834
 9201SOL     OW28501   0.699   2.976   0.972
 9201SOL    HW128502   0.683   3.002   0.877
 9201SOL    HW228503   0.723   2.879   0.976
 9202SOL     OW28504   0.679   6.069   3.960
 9202SOL    HW128505   0.678   6.128   4.041
 9202SOL    HW228506   0.593   6.078   3.910
 9203SOL     OW28507   5.747   2.723   5.764
 9203SOL    HW128508   5.709   2.670   5.839
 9203SOL    HW228509   5.840   2.753   5.787
 9204SOL     OW28510   4.922   3.721   4.248
 9204SOL    HW128511   4.903   3.744   4.343
 9204SOL    HW228512   4.938   3.804   4.196
 9205SOL     OW28513   5.018   5.751   2.766
 9205SOL    HW128514   4.995   5.668   2.817
 9205SOL    HW228515   5.052   5.820   2.830
 9206SOL     OW28516   3.676   6.730   3.867
 9206SOL    HW128517   3.645   6.650   3.816
 9206SOL    HW228518   3.776   6.731   3.870
 9207SOL     OW28519   3.683   5.147   6.973
 9207SOL    HW128520   3.668   5.049   6.985
 9207SOL    HW228521   3.710   5.166   6.879
 9208SOL     OW28522   5.410   3.832   2.248
 9208SOL    HW128523   5.388   3.796   2.338
 9208SOL    HW228524   5.463   3.916   2.257
 9209SOL     OW28525   4.459   0.108   1.295
 9209SOL    HW128526   4.453   0.027   1.237
 9209SOL    HW228527   4.442   0.190   1.241
 9210SOL     OW28528   0.573   0.266   1.666
 9210SOL    HW128529   0.522   0.275   1.580
 9210SOL    HW228530   0.635   0.344   1.676
 9211SOL     OW28531   5.563   3.075   6.701
 9211SOL    HW128532   5.483   3.029   6.661
 9211SOL    HW228533   5.533   3.154   6.755
 9212SOL     OW28534   5.115   4.287   4.921
 9212SOL    HW128535   5.040   4.347   4.949
 9212SOL    HW228536   5.079   4.199   4.892
 9213SOL     OW28537   4.812   5.702   4.561
 9213SOL    HW128538   4.837   5.784   4.510
 9213SOL    HW228539   4.722   5.670   4.533
 9214SOL     OW28540   0.078   2.892   4.998
 9214SOL    HW128541   0.067   2.990   5.015
 9214SOL    HW228542   0.056   2.871   4.903
 9215SOL     OW28543   1.629   4.889   2.540
 9215SOL    HW128544   1.707   4.832   2.516
 9215SOL    HW228545   1.660   4.984   2.553
 9216SOL     OW28546   2.251   6.728   4.039
 9216SOL    HW128547   2.260   6.651   4.102
 9216SOL    HW228548   2.322   6.722   3.969
 9217SOL     OW28549   5.546   2.176   0.594
 9217SOL    HW128550   5.592   2.253   0.550
 9217SOL    HW228551   5.591   2.156   0.681
 9218SOL     OW28552   3.881   0.475   0.158
 9218SOL    HW128553   3.922   0.492   0.068
 9218SOL    HW228554   3.954   0.462   0.226
 9219SOL     OW28555   4.206   3.433   5.840
 9219SOL    HW128556   4.266   3.503   5.801
 9219SOL    HW228557   4.153   3.474   5.914
 9220SOL     OW28558   1.977   6.717   2.240
 9220SOL    HW128559   1.955   6.671   2.326
 9220SOL    HW228560   1.921   6.679   2.167
 9221SOL     OW28561   2.584   6.929   4.073
 9221SOL    HW128562   2.617   6.839   4.043
 9221SOL    HW228563   2.654   6.998   4.052
 9222SOL     OW28564   2.544   5.337   4.770
 9222SOL    HW128565   2.457   5.299   4.802
 9222SOL    HW228566   2.565   5.420   4.822
 9223SOL     OW28567   0.996   2.648   4.108
 9223SOL    HW128568   0.931   2.606   4.045
 9223SOL    HW228569   0.957   2.647   4.200
 9224SOL     OW28570   1.376   4.535   3.287
 9224SOL    HW128571   1.425   4.511   3.370
 9224SOL    HW228572   1.327   4.622   3.301
 9225SOL     OW28573   3.637   5.553   5.716
 9225SOL    HW128574   3.574   5.490   5.671
 9225SOL    HW228575   3.587   5.634   5.748
 9226SOL     OW28576   0.637   0.311   1.223
 9226SOL    HW128577   0.538   0.311   1.238
 9226SOL    HW228578   0.667   0.404   1.200
 9227SOL     OW28579   1.971   5.934   1.296
 9227SOL    HW128580   1.968   5.855   1.357
 9227SOL    HW228581   1.905   6.003   1.327
 9228SOL     OW28582   2.277   2.305   0.461
 9228SOL    HW128583   2.258   2.316   0.364
 9228SOL    HW228584   2.344   2.232   0.474
 9229SOL     OW28585   1.366   5.127   5.873
 9229SOL    HW128586   1.449   5.172   5.840
 9229SOL    HW228587   1.336   5.169   5.958
 9230SOL     OW28588   4.862   3.622   2.901
 9230SOL    HW128589   4.887   3.570   2.819
 9230SOL    HW228590   4.882   3.567   2.982
 9231SOL     OW28591   0.977   3.163   5.723
 9231SOL    HW128592   0.905   3.194   5.785
 9231SOL    HW228593   0.947   3.081   5.675
 9232SOL     OW28594   2.757   5.179   0.753
 9232SOL    HW128595   2.665   5.163   0.789
 9232SOL    HW228596   2.811   5.230   0.821
 9233SOL     OW28597   0.397   6.682   0.811
 9233SOL    HW128598   0.455   6.648   0.885
 9233SOL    HW228599   0.432   6.648   0.724
 9234SOL     OW28600   2.331   5.832   1.018
 9234SOL    HW128601   2.246   5.819   1.070
 9234SOL    HW228602   2.400   5.767   1.051
 9235SOL     OW28603   1.991   3.351   3.233
 9235SOL    HW128604   2.043   3.298   3.166
 9235SOL    HW228605   1.947   3.288   3.298
 9236SOL     OW28606   2.669   3.627   6.817
 9236SOL    HW128607   2.661   3.722   6.786
 9236SOL    HW228608   2.648   3.622   6.915
 9237SOL     OW28609   0.658   5.768   3.307
 9237SOL    HW128610   0.722   5.813   3.245
 9237SOL    HW228611   0.667   5.669   3.298
 9238SOL     OW28612   2.967   2.344   6.088
 9238SOL    HW128613   2.983   2.435   6.051
 9238SOL    HW228614   2.876   2.340   6.129
 9239SOL     OW28615   6.953   3.990   0.035
 9239SOL    HW128616   6.981   4.046   6.976
 9239SOL    HW228617   6.970   4.040   0.120
 9240SOL     OW28618   5.165   3.102   2.222
 9240SOL    HW128619   5.071   3.121   2.192
 9240SOL    HW228620   5.229   3.134   2.153
 9241SOL     OW28621   0.065   5.614   1.259
 9241SOL    HW128622   0.053   5.650   1.167
 9241SOL    HW228623   6.995   5.588   1.297
 9242SOL     OW28624   1.728   3.612   1.768
 9242SOL    HW128625   1.702   3.556   1.689
 9242SOL    HW228626   1.811   3.664   1.747
 9243SOL     OW28627   6.831   0.727   1.708
 9243SOL    HW128628   6.873   0.643   1.740
 9243SOL    HW228629   6.750   0.748   1.762
 9244SOL     OW28630   2.689   5.704   5.775
 9244SOL    HW128631   2.635   5.747   5.849
 9244SOL    HW228632   2.775   5.753   5.764
 9245SOL     OW28633   0.655   4.795   3.574
 9245SOL    HW128634   0.660   4.868   3.506
 9245SOL    HW228635   0.723   4.811   3.645
 9246SOL     OW28636   5.564   0.256   3.213
 9246SOL    HW128637   5.544   0.200   3.293
 9246SOL    HW228638   5.636   0.322   3.234
 9247SOL     OW28639   2.616   6.175   2.717
 9247SOL    HW128640   2.663   6.091   2.745
 9247SOL    HW228641   2.660   6.213   2.636
 9248SOL     OW28642   3.179   2.011   4.603
 9248SOL    HW128643   3.249   1.970   4.545
 9248SOL    HW228644   3.222   2.050   4.685
 9249SOL     OW28645   4.587   5.143   1.309
 9249SOL    HW128646   4.504   5.178   1.352
 9249SOL    HW228647   4.631   5.079   1.371
 9250SOL     OW28648   6.437   3.030   4.321
 9250SOL    HW128649   6.433   2.968   4.243
 9250SOL    HW228650   6.412   2.981   4.404
 9251SOL     OW28651   3.774   1.394   2.513
 9251SOL    HW128652   3.789   1.423   2.608
 9251SOL    HW228653   3.718   1.463   2.466
 9252SOL     OW28654   5.294   0.529   4.889
 9252SOL    HW128655   5.356   0.486   4.955
 9252SOL    HW228656   5.284   0.626   4.911
 9253SOL     OW28657   5.331   4.859   5.603
 9253SOL    HW128658   5.323   4.762   5.625
 9253SOL    HW228659   5.241   4.898   5.586
 9254SOL     OW28660   4.500   4.919   2.967
 9254SOL    HW128661   4.454   4.836   2.936
 9254SOL    HW228662   4.452   4.957   3.046
 9255SOL     OW28663   4.896   4.122   0.043
 9255SOL    HW128664   4.916   4.200   7.002
 9255SOL    HW228665   4.950   4.043   0.013
 9256SOL     OW28666   2.712   0.679   2.374
 9256SOL    HW128667   2.650   0.710   2.302
 9256SOL    HW228668   2.742   0.586   2.354
 9257SOL     OW28669   6.105   5.131   3.406
 9257SOL    HW128670   6.056   5.046   3.425
 9257SOL    HW228671   6.193   5.131   3.453
 9258SOL     OW28672   4.078   2.957   1.703
 9258SOL    HW128673   4.046   3.046   1.672
 9258SOL    HW228674   4.002   2.907   1.746
 9259SOL     OW28675   1.602   1.906   0.732
 9259SOL    HW128676   1.613   1.905   0.633
 9259SOL    HW228677   1.577   1.814   0.764
 9260SOL     OW28678   6.087   1.943   5.547
 9260SOL    HW128679   5.998   1.918   5.509
 9260SOL    HW228680   6.139   1.994   5.478
 9261SOL     OW28681   4.014   1.512   6.967
 9261SOL    HW128682   3.948   1.541   0.017
 9261SOL    HW228683   3.985   1.545   6.877
 9262SOL     OW28684   0.544   6.009   5.217
 9262SOL    HW128685   0.470   6.063   5.257
 9262SOL    HW228686   0.505   5.934   5.164
 9263SOL     OW28687   2.758   5.949   2.781
 9263SOL    HW128688   2.854   5.975   2.782
 9263SOL    HW228689   2.738   5.890   2.859
 9264SOL     OW28690   4.746   4.471   6.696
 9264SOL    HW128691   4.770   4.568   6.685
 9264SOL    HW228692   4.747   4.427   6.606
 9265SOL     OW28693   2.915   2.652   0.372
 9265SOL    HW128694   2.964   2.564   0.378
 9265SOL    HW228695   2.819   2.634   0.349
 9266SOL     OW28696   1.455   6.167   0.891
 9266SOL    HW128697   1.372   6.202   0.935
 9266SOL    HW228698   1.535   6.209   0.933
 9267SOL     OW28699   0.117   1.782   4.359
 9267SOL    HW128700   0.062   1.855   4.317
 9267SOL    HW228701   0.213   1.795   4.333
 9268SOL     OW28702   1.661   0.258   2.310
 9268SOL    HW128703   1.667   0.209   2.396
 9268SOL    HW228704   1.566   0.259   2.278
 9269SOL     OW28705   3.756   0.315   6.259
 9269SOL    HW128706   3.764   0.256   6.339
 9269SOL    HW228707   3.661   0.319   6.230
 9270SOL     OW28708   4.271   6.757   5.563
 9270SOL    HW128709   4.310   6.804   5.643
 9270SOL    HW228710   4.213   6.682   5.594
 9271SOL     OW28711   6.441   6.937   0.392
 9271SOL    HW128712   6.376   6.929   0.467
 9271SOL    HW228713   6.531   6.906   0.423
 9272SOL     OW28714   1.128   5.453   5.936
 9272SOL    HW128715   1.069   5.381   5.899
 9272SOL    HW228716   1.154   5.516   5.863
 9273SOL     OW28717   6.292   6.375   3.156
 9273SOL    HW128718   6.343   6.324   3.225
 9273SOL    HW228719   6.347   6.452   3.125
 9274SOL     OW28720   0.077   1.535   0.397
 9274SOL    HW128721   0.068   1.496   0.305
 9274SOL    HW228722   0.170   1.566   0.411
 9275SOL     OW28723   6.713   1.020   0.021
 9275SOL    HW128724   6.641   1.024   0.091
 9275SOL    HW228725   6.687   0.954   6.970
 9276SOL     OW28726   1.532   4.821   0.656
 9276SOL    HW128727   1.512   4.774   0.742
 9276SOL    HW228728   1.480   4.906   0.651
 9277SOL     OW28729   4.646   4.516   1.805
 9277SOL    HW128730   4.701   4.569   1.870
 9277SOL    HW228731   4.591   4.449   1.855
 9278SOL     OW28732   1.706   0.400   5.509
 9278SOL    HW128733   1.756   0.357   5.583
 9278SOL    HW228734   1.653   0.331   5.460
 9279SOL     OW28735   2.892   0.154   1.776
 9279SOL    HW128736   2.975   0.194   1.737
 9279SOL    HW228737   2.821   0.149   1.706
 9280SOL     OW28738   2.750   1.121   2.817
 9280SOL    HW128739   2.663   1.167   2.799
 9280SOL    HW228740   2.770   1.058   2.742
 9281SOL     OW28741   3.180   3.956   6.895
 9281SOL    HW128742   3.103   3.910   6.850
 9281SOL    HW228743   3.207   4.035   6.841
 9282SOL     OW28744   4.909   0.949   4.137
 9282SOL    HW128745   4.990   0.940   4.080
 9282SOL    HW228746   4.932   0.999   4.220
 9283SOL     OW28747   5.365   0.620   4.630
 9283SOL    HW128748   5.331   0.583   4.716
 9283SOL    HW228749   5.448   0.571   4.602
 9284SOL     OW28750   3.009   2.542   5.374
 9284SOL    HW128751   3.055   2.471   5.322
 9284SOL    HW228752   2.915   2.514   5.394
 9285SOL     OW28753   5.031   3.757   1.560
 9285SOL    HW128754   5.072   3.782   1.648
 9285SOL    HW228755   5.016   3.659   1.557
 9286SOL     OW28756   5.290   5.210   0.793
 9286SOL    HW128757   5.234   5.290   0.772
 9286SOL    HW228758   5.355   5.194   0.718
 9287SOL     OW28759   3.661   5.143   6.412
 9287SOL    HW128760   3.644   5.126   6.315
 9287SOL    HW228761   3.638   5.238   6.434
 9288SOL     OW28762   4.721   2.128   2.722
 9288SOL    HW128763   4.743   2.052   2.660
 9288SOL    HW228764   4.623   2.146   2.718
 9289SOL     OW28765   5.009   6.857   1.124
 9289SOL    HW128766   5.078   6.867   1.052
 9289SOL    HW228767   4.949   6.780   1.102
 9290SOL     OW28768   5.741   0.784   3.751
 9290SOL    HW128769   5.799   0.705   3.734
 9290SOL    HW228770   5.648   0.766   3.719
 9291SOL     OW28771   1.189   5.156   5.670
 9291SOL    HW128772   1.231   5.179   5.758
 9291SOL    HW228773   1.126   5.079   5.682
 9292SOL     OW28774   2.564   2.405   6.590
 9292SOL    HW128775   2.574   2.336   6.519
 9292SOL    HW228776   2.540   2.360   6.676
 9293SOL     OW28777   6.190   3.646   6.568
 9293SOL    HW128778   6.217   3.636   6.663
 9293SOL    HW228779   6.212   3.563   6.518
 9294SOL     OW28780   5.407   1.159   5.963
 9294SOL    HW128781   5.484   1.184   5.904
 9294SOL    HW228782   5.392   1.060   5.958
 9295SOL     OW28783   5.666   0.178   5.721
 9295SOL    HW128784   5.635   0.271   5.742
 9295SOL    HW228785   5.711   0.178   5.632
 9296SOL     OW28786   2.021   5.092   0.048
 9296SOL    HW128787   2.020   5.140   6.979
 9296SOL    HW228788   1.960   5.139   0.112
 9297SOL     OW28789   0.999   0.120   2.479
 9297SOL    HW128790   1.056   0.122   2.561
 9297SOL    HW228791   0.940   0.040   2.482
 9298SOL     OW28792   1.070   6.528   6.233
 9298SOL    HW128793   1.108   6.458   6.172
 9298SOL    HW228794   1.102   6.618   6.205
 9299SOL     OW28795   1.242   2.171   3.946
 9299SOL    HW128796   1.333   2.211   3.956
 9299SOL    HW228797   1.225   2.108   4.022
 9300SOL     OW28798   0.551   4.580   5.808
 9300SOL    HW128799   0.643   4.588   5.767
 9300SOL    HW228800   0.525   4.484   5.814
 9301SOL     OW28801   5.532   5.343   4.376
 9301SOL    HW128802   5.498   5.343   4.282
 9301SOL    HW228803   5.517   5.433   4.417
 9302SOL     OW28804   2.079   3.435   4.188
 9302SOL    HW128805   2.000   3.462   4.242
 9302SOL    HW228806   2.101   3.339   4.205
 9303SOL     OW28807   3.204   3.661   0.726
 9303SOL    HW128808   3.130   3.622   0.781
 9303SOL    HW228809   3.166   3.728   0.662
 9304SOL     OW28810   4.545   4.732   0.610
 9304SOL    HW128811   4.464   4.674   0.596
 9304SOL    HW228812   4.519   4.812   0.664
 9305SOL     OW28813   3.928   0.425   0.788
 9305SOL    HW128814   3.889   0.516   0.780
 9305SOL    HW228815   3.913   0.390   0.881
 9306SOL     OW28816   1.240   3.640   5.616
 9306SOL    HW128817   1.184   3.710   5.660
 9306SOL    HW228818   1.256   3.665   5.521
 9307SOL     OW28819   1.123   4.052   0.771
 9307SOL    HW128820   1.212   4.070   0.730
 9307SOL    HW228821   1.135   4.034   0.869
 9308SOL     OW28822   1.617   3.469   2.112
 9308SOL    HW128823   1.562   3.547   2.081
 9308SOL    HW228824   1.691   3.453   2.047
 9309SOL     OW28825   3.357   5.625   5.714
 9309SOL    HW128826   3.283   5.583   5.662
 9309SOL    HW228827   3.318   5.679   5.789
 9310SOL     OW28828   5.339   6.024   5.667
 9310SOL    HW128829   5.338   5.967   5.750
 9310SOL    HW228830   5.257   6.082   5.666
 9311SOL     OW28831   5.282   4.428   1.252
 9311SOL    HW128832   5.238   4.387   1.332
 9311SOL    HW228833   5.299   4.356   1.183
 9312SOL     OW28834   2.242   2.698   1.101
 9312SOL    HW128835   2.287   2.734   1.183
 9312SOL    HW228836   2.182   2.768   1.062
 9313SOL     OW28837   0.059   0.669   1.622
 9313SOL    HW128838   0.089   0.721   1.542
 9313SOL    HW228839   6.980   0.685   1.637
 9314SOL     OW28840   6.908   3.410   6.507
 9314SOL    HW128841   6.816   3.447   6.509
 9314SOL    HW228842   6.904   3.310   6.504
 9315SOL     OW28843   6.528   6.800   5.762
 9315SOL    HW128844   6.625   6.815   5.778
 9315SOL    HW228845   6.490   6.879   5.713
 9316SOL     OW28846   6.128   6.424   5.487
 9316SOL    HW128847   6.037   6.447   5.451
 9316SOL    HW228848   6.162   6.500   5.542
 9317SOL     OW28849   4.534   5.691   4.442
 9317SOL    HW128850   4.461   5.672   4.507
 9317SOL    HW228851   4.577   5.605   4.413
 9318SOL     OW28852   6.328   0.388   6.843
 9318SOL    HW128853   6.408   0.330   6.827
 9318SOL    HW228854   6.255   0.333   6.885
 9319SOL     OW28855   2.424   2.947   1.102
 9319SOL    HW128856   2.521   2.971   1.112
 9319SOL    HW228857   2.383   2.936   1.193
 9320SOL     OW28858   4.005   0.510   5.426
 9320SOL    HW128859   4.061   0.529   5.345
 9320SOL    HW228860   3.948   0.430   5.409
 9321SOL     OW28861   0.874   1.032   5.017
 9321SOL    HW128862   0.792   0.982   4.989
 9321SOL    HW228863   0.867   1.127   4.985
 9322SOL     OW28864   0.133   4.442   6.890
 9322SOL    HW128865   0.071   4.513   6.924
 9322SOL    HW228866   0.138   4.367   6.957
 9323SOL     OW28867   1.029   1.020   4.608
 9323SOL    HW128868   1.108   0.959   4.599
 9323SOL    HW228869   1.058   1.109   4.642
 9324SOL     OW28870   1.972   4.002   2.668
 9324SOL    HW128871   1.936   3.918   2.708
 9324SOL    HW228872   1.925   4.081   2.708
 9325SOL     OW28873   6.892   0.236   0.245
 9325SOL    HW128874   6.898   0.187   0.158
 9325SOL    HW228875   6.971   0.211   0.302
 9326SOL     OW28876   2.548   5.134   0.387
 9326SOL    HW128877   2.504   5.075   0.319
 9326SOL    HW228878   2.478   5.186   0.436
 9327SOL     OW28879   4.273   6.609   2.201
 9327SOL    HW128880   4.329   6.658   2.134
 9327SOL    HW228881   4.230   6.531   2.156
 9328SOL     OW28882   1.823   0.381   4.752
 9328SOL    HW128883   1.739   0.421   4.790
 9328SOL    HW228884   1.834   0.288   4.787
 9329SOL     OW28885   6.259   4.591   0.867
 9329SOL    HW128886   6.253   4.494   0.846
 9329SOL    HW228887   6.354   4.622   0.855
 9330SOL     OW28888   6.692   0.053   5.829
 9330SOL    HW128889   6.666   0.049   5.925
 9330SOL    HW228890   6.612   0.036   5.772
 9331SOL     OW28891   2.259   1.379   5.841
 9331SOL    HW128892   2.165   1.406   5.863
 9331SOL    HW228893   2.307   1.457   5.800
 9332SOL     OW28894   3.621   5.533   0.478
 9332SOL    HW128895   3.585   5.498   0.565
 9332SOL    HW228896   3.591   5.474   0.404
 9333SOL     OW28897   3.980   5.555   6.347
 9333SOL    HW128898   3.949   5.602   6.429
 9333SOL    HW228899   4.005   5.461   6.370
 9334SOL     OW28900   4.896   6.138   4.892
 9334SOL    HW128901   4.922   6.229   4.860
 9334SOL    HW228902   4.926   6.070   4.826
 9335SOL     OW28903   2.025   1.628   6.873
 9335SOL    HW128904   2.096   1.589   6.931
 9335SOL    HW228905   1.941   1.573   6.880
 9336SOL     OW28906   4.573   6.699   4.384
 9336SOL    HW128907   4.618   6.772   4.332
 9336SOL    HW228908   4.564   6.618   4.326
 9337SOL     OW28909   4.590   1.239   5.585
 9337SOL    HW128910   4.678   1.227   5.630
 9337SOL    HW228911   4.564   1.336   5.586
 9338SOL     OW28912   6.182   6.852   0.861
 9338SOL    HW128913   6.161   6.893   0.950
 9338SOL    HW228914   6.281   6.857   0.845
 9339SOL     OW28915   6.018   5.734   0.093
 9339SOL    HW128916   6.019   5.832   0.115
 9339SOL    HW228917   6.099   5.691   0.133
 9340SOL     OW28918   3.413   5.008   2.997
 9340SOL    HW128919   3.388   4.985   2.903
 9340SOL    HW228920   3.334   4.994   3.057
 9341SOL     OW28921   5.841   4.706   0.938
 9341SOL    HW128922   5.898   4.673   0.863
 9341SOL    HW228923   5.879   4.675   1.025
 9342SOL     OW28924   2.225   0.180   4.515
 9342SOL    HW128925   2.132   0.147   4.501
 9342SOL    HW228926   2.290   0.110   4.486
 9343SOL     OW28927   4.946   3.982   2.252
 9343SOL    HW128928   5.002   4.026   2.322
 9343SOL    HW228929   4.923   4.048   2.181
 9344SOL     OW28930   4.995   5.987   0.609
 9344SOL    HW128931   5.028   5.985   0.515
 9344SOL    HW228932   5.053   6.046   0.664
 9345SOL     OW28933   6.444   4.679   2.090
 9345SOL    HW128934   6.453   4.610   2.018
 9345SOL    HW228935   6.377   4.648   2.157
 9346SOL     OW28936   4.267   0.324   1.822
 9346SOL    HW128937   4.314   0.412   1.815
 9346SOL    HW228938   4.194   0.320   1.754
 9347SOL     OW28939   3.141   6.017   0.372
 9347SOL    HW128940   3.138   5.924   0.334
 9347SOL    HW228941   3.069   6.028   0.440
 9348SOL     OW28942   2.734   5.603   2.795
 9348SOL    HW128943   2.653   5.660   2.799
 9348SOL    HW228944   2.711   5.514   2.755
 9349SOL     OW28945   6.702   5.462   2.320
 9349SOL    HW128946   6.788   5.484   2.274
 9349SOL    HW228947   6.714   5.473   2.419
 9350SOL     OW28948   6.381   1.726   4.225
 9350SOL    HW128949   6.337   1.783   4.294
 9350SOL    HW228950   6.479   1.720   4.244
 9351SOL     OW28951   3.373   0.055   6.492
 9351SOL    HW128952   3.275   0.041   6.505
 9351SOL    HW228953   3.391   0.152   6.475
 9352SOL     OW28954   3.339   2.639   6.284
 9352SOL    HW128955   3.289   2.555   6.304
 9352SOL    HW228956   3.351   2.648   6.185
 9353SOL     OW28957   1.277   4.487   0.811
 9353SOL    HW128958   1.376   4.500   0.815
 9353SOL    HW228959   1.243   4.520   0.723
 9354SOL     OW28960   0.040   2.074   6.188
 9354SOL    HW128961   6.979   2.129   6.212
 9354SOL    HW228962   0.074   2.027   6.269
 9355SOL     OW28963   6.928   1.748   4.523
 9355SOL    HW128964   6.965   1.745   4.616
 9355SOL    HW228965   7.002   1.759   4.458
 9356SOL     OW28966   4.846   5.676   1.892
 9356SOL    HW128967   4.925   5.636   1.845
 9356SOL    HW228968   4.763   5.660   1.837
 9357SOL     OW28969   3.211   2.921   6.484
 9357SOL    HW128970   3.202   2.822   6.499
 9357SOL    HW228971   3.298   2.952   6.522
 9358SOL     OW28972   6.460   3.097   2.759
 9358SOL    HW128973   6.512   3.077   2.675
 9358SOL    HW228974   6.480   3.190   2.790
 9359SOL     OW28975   1.067   3.824   5.715
 9359SOL    HW128976   1.103   3.906   5.760
 9359SOL    HW228977   0.973   3.808   5.745
 9360SOL     OW28978   1.769   6.185   6.416
 9360SOL    HW128979   1.736   6.183   6.321
 9360SOL    HW228980   1.867   6.166   6.417
 9361SOL     OW28981   1.286   6.402   2.980
 9361SOL    HW128982   1.310   6.363   2.892
 9361SOL    HW228983   1.320   6.496   2.986
 9362SOL     OW28984   1.920   2.719   2.485
 9362SOL    HW128985   1.987   2.781   2.525
 9362SOL    HW228986   1.952   2.687   2.396
 9363SOL     OW28987   3.666   6.389   1.690
 9363SOL    HW128988   3.737   6.319   1.676
 9363SOL    HW228989   3.585   6.365   1.637
 9364SOL     OW28990   3.603   3.047   5.865
 9364SOL    HW128991   3.668   2.997   5.923
 9364SOL    HW228992   3.522   3.069   5.918
 9365SOL     OW28993   2.504   2.204   4.993
 9365SOL    HW128994   2.415   2.165   5.016
 9365SOL    HW228995   2.505   2.302   5.015
 9366SOL     OW28996   3.252   6.962   0.052
 9366SOL    HW128997   3.307   7.007   0.123
 9366SOL    HW228998   3.198   6.889   0.093
 9367SOL     OW28999   6.757   6.212   2.637
 9367SOL    HW129000   6.846   6.253   2.621
 9367SOL    HW229001   6.754   6.121   2.595
 9368SOL     OW29002   2.740   1.442   3.699
 9368SOL    HW129003   2.786   1.404   3.619
 9368SOL    HW229004   2.728   1.541   3.687
 9369SOL     OW29005   6.648   6.791   4.935
 9369SOL    HW129006   6.687   6.862   4.877
 9369SOL    HW229007   6.711   6.713   4.940
 9370SOL     OW29008   5.092   0.317   2.126
 9370SOL    HW129009   4.998   0.293   2.152
 9370SOL    HW229010   5.110   0.282   2.034
 9371SOL     OW29011   1.773   4.871   0.585
 9371SOL    HW129012   1.678   4.856   0.610
 9371SOL    HW229013   1.815   4.936   0.648
 9372SOL     OW29014   5.482   6.173   2.496
 9372SOL    HW129015   5.570   6.149   2.536
 9372SOL    HW229016   5.488   6.263   2.452
 9373SOL     OW29017   4.620   1.702   1.624
 9373SOL    HW129018   4.592   1.633   1.558
 9373SOL    HW229019   4.641   1.659   1.712
 9374SOL     OW29020   0.768   3.446   0.533
 9374SOL    HW129021   0.743   3.405   0.620
 9374SOL    HW229022   0.866   3.465   0.532
 9375SOL     OW29023   6.553   1.380   3.247
 9375SOL    HW129024   6.611   1.335   3.315
 9375SOL    HW229025   6.468   1.330   3.236
 9376SOL     OW29026   3.167   4.787   1.145
 9376SOL    HW129027   3.218   4.852   1.089
 9376SOL    HW229028   3.144   4.707   1.090
 9377SOL     OW29029   2.057   5.609   3.975
 9377SOL    HW129030   2.117   5.620   4.054
 9377SOL    HW229031   1.964   5.589   4.005
 9378SOL     OW29032   1.579   1.100   5.167
 9378SOL    HW129033   1.518   1.176   5.186
 9378SOL    HW229034   1.546   1.018   5.214
 9379SOL     OW29035   3.596   5.518   5.364
 9379SOL    HW129036   3.554   5.501   5.453
 9379SOL    HW229037   3.678   5.575   5.376
 9380SOL     OW29038   5.764   5.104   4.826
 9380SOL    HW129039   5.782   5.021   4.774
 9380SOL    HW229040   5.677   5.095   4.875
 9381SOL     OW29041   3.644   2.683   5.956
 9381SOL    HW129042   3.631   2.641   5.866
 9381SOL    HW229043   3.685   2.773   5.945
 9382SOL     OW29044   3.674   0.674   3.412
 9382SOL    HW129045   3.643   0.636   3.499
 9382SOL    HW229046   3.713   0.602   3.356
 9383SOL     OW29047   1.333   5.678   4.562
 9383SOL    HW129048   1.301   5.587   4.589
 9383SOL    HW229049   1.299   5.699   4.471
 9384SOL     OW29050   3.523   0.004   2.199
 9384SOL    HW129051   3.524   0.048   2.109
 9384SOL    HW229052   3.608   0.026   2.247
 9385SOL     OW29053   4.225   0.316   3.263
 9385SOL    HW129054   4.270   0.269   3.338
 9385SOL    HW229055   4.166   0.388   3.299
 9386SOL     OW29056   1.862   6.311   4.903
 9386SOL    HW129057   1.783   6.294   4.962
 9386SOL    HW229058   1.946   6.296   4.955
 9387SOL     OW29059   2.498   1.630   6.784
 9387SOL    HW129060   2.439   1.668   6.855
 9387SOL    HW229061   2.560   1.562   6.825
 9388SOL     OW29062   2.336   5.518   2.806
 9388SOL    HW129063   2.331   5.480   2.714
 9388SOL    HW229064   2.397   5.461   2.861
 9389SOL     OW29065   1.417   6.793   3.844
 9389SOL    HW129066   1.503   6.842   3.832
 9389SOL    HW229067   1.392   6.748   3.758
 9390SOL     OW29068   4.489   4.821   5.046
 9390SOL    HW129069   4.558   4.851   4.980
 9390SOL    HW229070   4.400   4.816   5.002
 9391SOL     OW29071   2.220   1.413   4.626
 9391SOL    HW129072   2.288   1.425   4.698
 9391SOL    HW229073   2.266   1.408   4.537
 9392SOL     OW29074   6.344   0.249   5.802
 9392SOL    HW129075   6.342   0.338   5.756
 9392SOL    HW229076   6.435   0.232   5.837
 9393SOL     OW29077   3.606   6.827   6.148
 9393SOL    HW129078   3.681   6.884   6.181
 9393SOL    HW229079   3.518   6.869   6.174
 9394SOL     OW29080   0.559   1.676   2.379
 9394SOL    HW129081   0.514   1.621   2.450
 9394SOL    HW229082   0.577   1.767   2.414
 9395SOL     OW29083   3.005   1.990   1.201
 9395SOL    HW129084   3.078   2.026   1.142
 9395SOL    HW229085   2.963   2.066   1.251
 9396SOL     OW29086   1.891   4.940   4.028
 9396SOL    HW129087   1.935   5.028   4.009
 9396SOL    HW229088   1.814   4.954   4.089
 9397SOL     OW29089   4.444   0.234   6.393
 9397SOL    HW129090   4.470   0.170   6.321
 9397SOL    HW229091   4.516   0.240   6.461
 9398SOL     OW29092   6.979   0.541   4.849
 9398SOL    HW129093   0.022   0.507   4.778
 9398SOL    HW229094   6.886   0.511   4.829
 9399SOL     OW29095   0.438   1.974   5.391
 9399SOL    HW129096   0.348   1.999   5.355
 9399SOL    HW229097   0.443   1.875   5.402
 9400SOL     OW29098   4.034   1.117   1.913
 9400SOL    HW129099   4.056   1.111   2.010
 9400SOL    HW229100   4.018   1.212   1.888
 9401SOL     OW29101   6.044   0.505   3.184
 9401SOL    HW129102   6.038   0.407   3.197
 9401SOL    HW229103   5.976   0.534   3.116
 9402SOL     OW29104   1.459   5.109   3.636
 9402SOL    HW129105   1.551   5.130   3.671
 9402SOL    HW229106   1.423   5.029   3.684
 9403SOL     OW29107   6.181   1.490   3.013
 9403SOL    HW129108   6.137   1.566   2.965
 9403SOL    HW229109   6.117   1.449   3.077
 9404SOL     OW29110   1.256   3.703   6.889
 9404SOL    HW129111   1.331   3.658   6.939
 9404SOL    HW229112   1.271   3.696   6.791
 9405SOL     OW29113   1.593   5.371   3.055
 9405SOL    HW129114   1.642   5.323   2.982
 9405SOL    HW229115   1.601   5.318   3.140
 9406SOL     OW29116   6.405   3.258   6.076
 9406SOL    HW129117   6.444   3.349   6.063
 9406SOL    HW229118   6.376   3.221   5.988
 9407SOL     OW29119   2.516   5.329   2.943
 9407SOL    HW129120   2.538   5.333   2.846
 9407SOL    HW229121   2.598   5.352   2.997
 9408SOL     OW29122   5.768   1.851   6.234
 9408SOL    HW129123   5.707   1.927   6.211
 9408SOL    HW229124   5.791   1.801   6.150
 9409SOL     OW29125   6.230   5.574   0.212
 9409SOL    HW129126   6.212   5.490   0.263
 9409SOL    HW229127   6.320   5.609   0.237
 9410SOL     OW29128   3.008   0.538   1.540
 9410SOL    HW129129   3.055   0.515   1.625
 9410SOL    HW229130   2.950   0.619   1.554
 9411SOL     OW29131   3.113   3.024   2.081
 9411SOL    HW129132   3.156   3.111   2.059
 9411SOL    HW229133   3.094   2.974   1.997
 9412SOL     OW29134   6.786   2.169   2.545
 9412SOL    HW129135   6.842   2.143   2.623
 9412SOL    HW229136   6.692   2.184   2.574
 9413SOL     OW29137   3.303   6.204   3.358
 9413SOL    HW129138   3.359   6.162   3.287
 9413SOL    HW229139   3.293   6.140   3.435
 9414SOL     OW29140   2.855   0.509   3.713
 9414SOL    HW129141   2.847   0.463   3.801
 9414SOL    HW229142   2.889   0.602   3.725
 9415SOL     OW29143   2.932   6.870   1.650
 9415SOL    HW129144   2.889   6.941   1.706
 9415SOL    HW229145   2.977   6.911   1.571
 9416SOL     OW29146   0.469   2.645   0.755
 9416SOL    HW129147   0.428   2.702   0.684
 9416SOL    HW229148   0.397   2.610   0.815
 9417SOL     OW29149   4.014   0.573   6.955
 9417SOL    HW129150   4.051   0.587   6.863
 9417SOL    HW229151   4.079   0.610   0.003
 9418SOL     OW29152   3.654   6.620   0.942
 9418SOL    HW129153   3.700   6.698   0.986
 9418SOL    HW229154   3.600   6.653   0.864
 9419SOL     OW29155   3.428   5.129   5.757
 9419SOL    HW129156   3.482   5.076   5.822
 9419SOL    HW229157   3.420   5.079   5.671
 9420SOL     OW29158   6.896   3.665   5.953
 9420SOL    HW129159   6.914   3.696   6.047
 9420SOL    HW229160   6.927   3.735   5.889
 9421SOL     OW29161   2.144   6.638   4.402
 9421SOL    HW129162   2.171   6.659   4.496
 9421SOL    HW229163   2.045   6.650   4.392
 9422SOL     OW29164   3.433   5.761   3.391
 9422SOL    HW129165   3.451   5.682   3.450
 9422SOL    HW229166   3.353   5.742   3.334
 9423SOL     OW29167   3.261   6.990   3.963
 9423SOL    HW129168   3.320   6.961   3.887
 9423SOL    HW229169   3.165   6.983   3.935
 9424SOL     OW29170   5.254   1.035   4.595
 9424SOL    HW129171   5.337   1.010   4.543
 9424SOL    HW229172   5.178   0.978   4.564
 9425SOL     OW29173   6.468   3.028   6.855
 9425SOL    HW129174   6.418   2.971   6.790
 9425SOL    HW229175   6.566   3.015   6.841
 9426SOL     OW29176   3.436   1.465   6.290
 9426SOL    HW129177   3.506   1.402   6.323
 9426SOL    HW229178   3.448   1.554   6.335
 9427SOL     OW29179   2.332   4.764   3.338
 9427SOL    HW129180   2.359   4.836   3.403
 9427SOL    HW229181   2.375   4.678   3.364
 9428SOL     OW29182   6.541   0.827   1.084
 9428SOL    HW129183   6.464   0.876   1.044
 9428SOL    HW229184   6.509   0.775   1.163
 9429SOL     OW29185   2.110   3.682   2.436
 9429SOL    HW129186   2.047   3.688   2.359
 9429SOL    HW229187   2.176   3.609   2.420
 9430SOL     OW29188   0.443   4.001   3.029
 9430SOL    HW129189   0.397   4.025   3.114
 9430SOL    HW229190   0.541   4.019   3.039
 9431SOL     OW29191   6.329   3.463   1.220
 9431SOL    HW129192   6.269   3.520   1.277
 9431SOL    HW229193   6.286   3.373   1.207
 9432SOL     OW29194   4.990   0.453   3.121
 9432SOL    HW129195   5.082   0.421   3.100
 9432SOL    HW229196   4.957   0.409   3.205
 9433SOL     OW29197   2.898   5.726   2.517
 9433SOL    HW129198   2.895   5.742   2.616
 9433SOL    HW229199   2.856   5.804   2.470
 9434SOL     OW29200   5.346   4.951   2.986
 9434SOL    HW129201   5.385   5.037   2.955
 9434SOL    HW229202   5.366   4.879   2.920
 9435SOL     OW29203   0.108   2.702   4.566
 9435SOL    HW129204   0.025   2.659   4.531
 9435SOL    HW229205   0.180   2.697   4.496
 9436SOL     OW29206   1.749   2.791   1.135
 9436SOL    HW129207   1.730   2.695   1.155
 9436SOL    HW229208   1.669   2.831   1.089
 9437SOL     OW29209   1.371   5.730   3.287
 9437SOL    HW129210   1.296   5.778   3.242
 9437SOL    HW229211   1.390   5.773   3.375
 9438SOL     OW29212   0.161   0.331   1.648
 9438SOL    HW129213   0.112   0.367   1.568
 9438SOL    HW229214   0.239   0.390   1.668
 9439SOL     OW29215   1.168   3.578   0.991
 9439SOL    HW129216   1.151   3.631   0.908
 9439SOL    HW229217   1.173   3.640   1.070
 9440SOL     OW29218   3.992   4.780   3.444
 9440SOL    HW129219   4.084   4.746   3.423
 9440SOL    HW229220   3.932   4.703   3.465
 9441SOL     OW29221   0.136   3.342   5.229
 9441SOL    HW129222   0.232   3.366   5.242
 9441SOL    HW229223   0.079   3.419   5.257
 9442SOL     OW29224   4.677   2.933   0.702
 9442SOL    HW129225   4.772   2.900   0.702
 9442SOL    HW229226   4.620   2.868   0.651
 9443SOL     OW29227   2.021   5.429   0.615
 9443SOL    HW129228   2.045   5.425   0.518
 9443SOL    HW229229   2.090   5.379   0.668
 9444SOL     OW29230   1.394   3.675   0.291
 9444SOL    HW129231   1.448   3.758   0.278
 9444SOL    HW229232   1.311   3.698   0.343
 9445SOL     OW29233   6.032   3.347   3.596
 9445SOL    HW129234   6.092   3.289   3.652
 9445SOL    HW229235   6.030   3.439   3.635
 9446SOL     OW29236   6.450   5.478   3.758
 9446SOL    HW129237   6.494   5.533   3.830
 9446SOL    HW229238   6.352   5.495   3.759
 9447SOL     OW29239   5.789   3.971   4.046
 9447SOL    HW129240   5.876   4.020   4.051
 9447SOL    HW229241   5.784   3.903   4.119
 9448SOL     OW29242   0.449   6.958   6.665
 9448SOL    HW129243   0.499   6.945   6.750
 9448SOL    HW229244   0.496   0.006   6.608
 9449SOL     OW29245   6.347   6.099   0.404
 9449SOL    HW129246   6.388   6.187   0.428
 9449SOL    HW229247   6.405   6.053   0.337
 9450SOL     OW29248   2.391   5.697   4.754
 9450SOL    HW129249   2.412   5.721   4.849
 9450SOL    HW229250   2.316   5.631   4.753
 9451SOL     OW29251   4.122   6.964   6.037
 9451SOL    HW129252   4.095   6.872   6.007
 9451SOL    HW229253   4.177   7.008   5.965
 9452SOL     OW29254   1.846   4.228   0.519
 9452SOL    HW129255   1.785   4.290   0.470
 9452SOL    HW229256   1.941   4.244   0.490
 9453SOL     OW29257   1.965   5.146   3.552
 9453SOL    HW129258   2.029   5.104   3.617
 9453SOL    HW229259   1.999   5.237   3.527
 9454SOL     OW29260   3.752   2.814   6.350
 9454SOL    HW129261   3.673   2.771   6.393
 9454SOL    HW229262   3.759   2.909   6.382
 9455SOL     OW29263   3.054   1.922   3.307
 9455SOL    HW129264   3.065   2.016   3.275
 9455SOL    HW229265   3.052   1.860   3.229
 9456SOL     OW29266   0.600   3.321   1.038
 9456SOL    HW129267   0.548   3.263   1.101
 9456SOL    HW229268   0.649   3.391   1.090
 9457SOL     OW29269   2.308   3.575   5.271
 9457SOL    HW129270   2.367   3.511   5.320
 9457SOL    HW229271   2.338   3.668   5.289
 9458SOL     OW29272   1.043   3.332   6.850
 9458SOL    HW129273   0.989   3.416   6.844
 9458SOL    HW229274   1.013   3.269   6.778
 9459SOL     OW29275   4.969   4.567   3.825
 9459SOL    HW129276   4.936   4.572   3.919
 9459SOL    HW229277   5.062   4.531   3.824
 9460SOL     OW29278   0.693   3.251   4.153
 9460SOL    HW129279   0.631   3.172   4.155
 9460SOL    HW229280   0.781   3.225   4.193
 9461SOL     OW29281   0.172   1.987   1.747
 9461SOL    HW129282   0.176   1.949   1.840
 9461SOL    HW229283   0.080   1.972   1.709
 9462SOL     OW29284   2.231   4.099   3.364
 9462SOL    HW129285   2.207   4.181   3.312
 9462SOL    HW229286   2.221   4.019   3.305
 9463SOL     OW29287   6.595   0.437   2.135
 9463SOL    HW129288   6.630   0.354   2.091
 9463SOL    HW229289   6.594   0.424   2.234
 9464SOL     OW29290   6.312   0.457   0.918
 9464SOL    HW129291   6.266   0.384   0.866
 9464SOL    HW229292   6.407   0.463   0.889
 9465SOL     OW29293   1.683   4.574   2.764
 9465SOL    HW129294   1.700   4.568   2.666
 9465SOL    HW229295   1.638   4.490   2.795
 9466SOL     OW29296   4.183   4.678   5.998
 9466SOL    HW129297   4.167   4.580   5.983
 9466SOL    HW229298   4.227   4.717   5.917
 9467SOL     OW29299   1.569   2.475   2.187
 9467SOL    HW129300   1.511   2.436   2.259
 9467SOL    HW229301   1.620   2.552   2.224
 9468SOL     OW29302   5.762   3.107   5.914
 9468SOL    HW129303   5.723   3.067   5.831
 9468SOL    HW229304   5.813   3.190   5.891
 9469SOL     OW29305   6.555   6.008   1.741
 9469SOL    HW129306   6.531   6.079   1.675
 9469SOL    HW229307   6.622   5.946   1.701
 9470SOL     OW29308   4.892   2.906   5.545
 9470SOL    HW129309   4.814   2.906   5.482
 9470SOL    HW229310   4.887   2.987   5.604
 9471SOL     OW29311   6.887   1.713   4.812
 9471SOL    HW129312   6.833   1.640   4.770
 9471SOL    HW229313   6.952   1.673   4.876
 9472SOL     OW29314   6.472   3.492   5.375
 9472SOL    HW129315   6.424   3.492   5.287
 9472SOL    HW229316   6.532   3.412   5.380
 9473SOL     OW29317   2.464   5.223   6.503
 9473SOL    HW129318   2.446   5.209   6.600
 9473SOL    HW229319   2.499   5.139   6.463
 9474SOL     OW29320   0.413   2.529   6.956
 9474SOL    HW129321   0.380   2.468   0.009
 9474SOL    HW229322   0.478   2.480   6.898
 9475SOL     OW29323   3.110   3.425   6.319
 9475SOL    HW129324   3.124   3.327   6.331
 9475SOL    HW229325   3.108   3.447   6.222
 9476SOL     OW29326   3.785   3.971   4.622
 9476SOL    HW129327   3.721   4.044   4.646
 9476SOL    HW229328   3.734   3.887   4.602
 9477SOL     OW29329   0.415   3.306   1.486
 9477SOL    HW129330   0.331   3.255   1.505
 9477SOL    HW229331   0.477   3.297   1.564
 9478SOL     OW29332   4.563   3.298   6.956
 9478SOL    HW129333   4.583   3.312   6.859
 9478SOL    HW229334   4.627   3.230   6.993
 9479SOL     OW29335   3.987   6.266   6.783
 9479SOL    HW129336   3.939   6.270   6.871
 9479SOL    HW229337   4.082   6.294   6.795
 9480SOL     OW29338   4.880   3.660   0.716
 9480SOL    HW129339   4.895   3.751   0.678
 9480SOL    HW229340   4.940   3.594   0.670
 9481SOL     OW29341   4.834   2.903   2.295
 9481SOL    HW129342   4.764   2.970   2.320
 9481SOL    HW229343   4.790   2.815   2.275
 9482SOL     OW29344   0.203   1.451   3.527
 9482SOL    HW129345   0.244   1.400   3.451
 9482SOL    HW229346   0.162   1.535   3.493
 9483SOL     OW29347   1.641   1.820   1.843
 9483SOL    HW129348   1.645   1.834   1.745
 9483SOL    HW229349   1.721   1.861   1.887
 9484SOL     OW29350   4.234   0.953   3.543
 9484SOL    HW129351   4.330   0.957   3.517
 9484SOL    HW229352   4.219   1.014   3.622
 9485SOL     OW29353   0.225   0.613   0.376
 9485SOL    HW129354   0.191   0.616   0.469
 9485SOL    HW229355   0.162   0.662   0.315
 9486SOL     OW29356   3.397   6.650   0.770
 9486SOL    HW129357   3.386   6.749   0.780
 9486SOL    HW229358   3.328   6.603   0.825
 9487SOL     OW29359   3.764   3.568   3.839
 9487SOL    HW129360   3.683   3.625   3.851
 9487SOL    HW229361   3.846   3.625   3.843
 9488SOL     OW29362   2.290   0.077   1.006
 9488SOL    HW129363   2.238   7.012   1.015
 9488SOL    HW229364   2.315   0.111   1.097
 9489SOL     OW29365   4.361   4.391   1.639
 9489SOL    HW129366   4.412   4.380   1.554
 9489SOL    HW229367   4.395   4.327   1.708
 9490SOL     OW29368   6.884   5.188   1.765
 9490SOL    HW129369   6.852   5.218   1.855
 9490SOL    HW229370   6.984   5.183   1.765
 9491SOL     OW29371   6.255   4.975   3.977
 9491SOL    HW129372   6.155   4.982   3.978
 9491SOL    HW229373   6.292   5.007   4.064
 9492SOL     OW29374   3.522   2.923   3.452
 9492SOL    HW129375   3.545   3.019   3.470
 9492SOL    HW229376   3.469   2.887   3.529
 9493SOL     OW29377   2.950   5.352   3.813
 9493SOL    HW129378   2.937   5.434   3.757
 9493SOL    HW229379   2.869   5.338   3.871
 9494SOL     OW29380   4.957   3.658   1.917
 9494SOL    HW129381   4.881   3.665   1.852
 9494SOL    HW229382   5.036   3.709   1.882
 9495SOL     OW29383   6.488   2.178   3.447
 9495SOL    HW129384   6.535   2.090   3.448
 9495SOL    HW229385   6.471   2.208   3.541
 9496SOL     OW29386   6.327   3.958   1.499
 9496SOL    HW129387   6.413   3.978   1.452
 9496SOL    HW229388   6.309   4.027   1.568
 9497SOL     OW29389   5.506   5.990   6.357
 9497SOL    HW129390   5.529   6.086   6.341
 9497SOL    HW229391   5.547   5.960   6.443
 9498SOL     OW29392   4.320   6.905   4.185
 9498SOL    HW129393   4.334   6.819   4.135
 9498SOL    HW229394   4.304   6.885   4.282
 9499SOL     OW29395   1.986   5.615   6.310
 9499SOL    HW129396   2.053   5.572   6.250
 9499SOL    HW229397   1.895   5.608   6.268
 9500SOL     OW29398   4.993   0.094   0.740
 9500SOL    HW129399   5.014   0.085   0.837
 9500SOL    HW229400   5.070   0.136   0.693
 9501SOL     OW29401   2.993   1.034   4.553
 9501SOL    HW129402   2.974   0.939   4.578
 9501SOL    HW229403   3.088   1.056   4.573
 9502SOL     OW29404   5.274   2.306   5.406
 9502SOL    HW129405   5.256   2.243   5.331
 9502SOL    HW229406   5.340   2.375   5.377
 9503SOL     OW29407   0.292   1.603   1.454
 9503SOL    HW129408   0.331   1.520   1.413
 9503SOL    HW229409   0.215   1.578   1.513
 9504SOL     OW29410   0.640   2.448   0.817
 9504SOL    HW129411   0.589   2.534   0.820
 9504SOL    HW229412   0.650   2.412   0.910
 9505SOL     OW29413   4.924   4.541   3.244
 9505SOL    HW129414   4.874   4.625   3.264
 9505SOL    HW229415   5.021   4.554   3.263
 9506SOL     OW29416   0.611   2.165   6.444
 9506SOL    HW129417   0.653   2.078   6.418
 9506SOL    HW229418   0.584   2.216   6.362
 9507SOL     OW29419   0.973   2.523   3.584
 9507SOL    HW129420   1.064   2.517   3.544
 9507SOL    HW229421   0.911   2.568   3.519
 9508SOL     OW29422   6.107   2.508   0.692
 9508SOL    HW129423   6.077   2.533   0.784
 9508SOL    HW229424   6.175   2.434   0.698
 9509SOL     OW29425   1.028   1.346   3.732
 9509SOL    HW129426   1.040   1.266   3.674
 9509SOL    HW229427   1.117   1.375   3.767
 9510SOL     OW29428   1.201   3.279   2.933
 9510SOL    HW129429   1.145   3.319   3.006
 9510SOL    HW229430   1.272   3.222   2.974
 9511SOL     OW29431   0.926   0.738   0.688
 9511SOL    HW129432   0.879   0.660   0.727
 9511SOL    HW229433   1.020   0.712   0.665
 9512SOL     OW29434   5.760   1.682   1.461
 9512SOL    HW129435   5.691   1.612   1.442
 9512SOL    HW229436   5.812   1.656   1.543
 9513SOL     OW29437   2.144   3.766   6.341
 9513SOL    HW129438   2.225   3.708   6.349
 9513SOL    HW229439   2.123   3.779   6.244
 9514SOL     OW29440   2.271   5.105   6.061
 9514SOL    HW129441   2.303   5.120   5.968
 9514SOL    HW229442   2.342   5.059   6.114
 9515SOL     OW29443   1.868   5.761   0.908
 9515SOL    HW129444   1.803   5.779   0.982
 9515SOL    HW229445   1.829   5.792   0.821
 9516SOL     OW29446   5.342   4.345   5.073
 9516SOL    HW129447   5.263   4.312   5.021
 9516SOL    HW229448   5.369   4.435   5.039
 9517SOL     OW29449   1.426   5.281   1.036
 9517SOL    HW129450   1.396   5.376   1.045
 9517SOL    HW229451   1.489   5.260   1.111
 9518SOL     OW29452   2.285   2.427   6.997
 9518SOL    HW129453   2.336   2.512   7.005
 9518SOL    HW229454   2.258   2.395   0.068
 9519SOL     OW29455   4.106   3.464   4.917
 9519SOL    HW129456   4.122   3.373   4.954
 9519SOL    HW229457   4.137   3.533   4.984
 9520SOL     OW29458   1.430   1.317   3.687
 9520SOL    HW129459   1.394   1.399   3.643
 9520SOL    HW229460   1.503   1.279   3.631
 9521SOL     OW29461   5.097   5.099   1.389
 9521SOL    HW129462   5.044   5.184   1.392
 9521SOL    HW229463   5.117   5.069   1.482
 9522SOL     OW29464   3.563   5.327   1.378
 9522SOL    HW129465   3.649   5.285   1.407
 9522SOL    HW229466   3.542   5.404   1.438
 9523SOL     OW29467   2.688   4.698   5.261
 9523SOL    HW129468   2.608   4.688   5.202
 9523SOL    HW229469   2.766   4.651   5.220
 9524SOL     OW29470   3.891   3.235   0.635
 9524SOL    HW129471   3.959   3.297   0.596
 9524SOL    HW229472   3.799   3.273   0.620
 9525SOL     OW29473   2.477   2.326   5.292
 9525SOL    HW129474   2.408   2.254   5.287
 9525SOL    HW229475   2.562   2.288   5.330
 9526SOL     OW29476   6.914   5.107   1.429
 9526SOL    HW129477   6.982   5.108   1.501
 9526SOL    HW229478   6.950   5.060   1.349
 9527SOL     OW29479   0.085   0.699   4.210
 9527SOL    HW129480   0.022   0.673   4.283
 9527SOL    HW229481   0.163   0.748   4.250
 9528SOL     OW29482   7.004   1.364   0.595
 9528SOL    HW129483   0.027   1.426   0.529
 9528SOL    HW229484   6.929   1.314   0.550
 9529SOL     OW29485   6.443   3.333   6.494
 9529SOL    HW129486   6.362   3.369   6.448
 9529SOL    HW229487   6.488   3.267   6.435
 9530SOL     OW29488   2.019   3.556   2.908
 9530SOL    HW129489   2.084   3.618   2.864
 9530SOL    HW229490   1.976   3.603   2.986
 9531SOL     OW29491   4.476   5.135   2.555
 9531SOL    HW129492   4.379   5.158   2.552
 9531SOL    HW229493   4.516   5.167   2.641
 9532SOL     OW29494   6.641   6.680   1.462
 9532SOL    HW129495   6.644   6.759   1.399
 9532SOL    HW229496   6.553   6.679   1.509
 9533SOL     OW29497   0.030   6.066   5.442
 9533SOL    HW129498   0.104   6.050   5.376
 9533SOL    HW229499   0.069   6.070   5.534
 9534SOL     OW29500   0.220   3.898   4.809
 9534SOL    HW129501   0.172   3.811   4.816
 9534SOL    HW229502   0.172   3.967   4.861
 9535SOL     OW29503   2.206   1.222   6.368
 9535SOL    HW129504   2.231   1.165   6.289
 9535SOL    HW229505   2.280   1.219   6.436
 9536SOL     OW29506   2.806   4.036   5.579
 9536SOL    HW129507   2.898   4.035   5.540
 9536SOL    HW229508   2.742   4.075   5.513
 9537SOL     OW29509   2.860   6.631   3.467
 9537SOL    HW129510   2.830   6.726   3.469
 9537SOL    HW229511   2.809   6.582   3.396
 9538SOL     OW29512   5.793   1.916   3.674
 9538SOL    HW129513   5.728   1.990   3.657
 9538SOL    HW229514   5.752   1.850   3.737
 9539SOL     OW29515   3.139   3.825   5.108
 9539SOL    HW129516   3.154   3.922   5.126
 9539SOL    HW229517   3.210   3.791   5.046
 9540SOL     OW29518   5.829   4.150   4.337
 9540SOL    HW129519   5.845   4.230   4.279
 9540SOL    HW229520   5.893   4.078   4.313
 9541SOL     OW29521   3.822   0.724   5.433
 9541SOL    HW129522   3.753   0.702   5.364
 9541SOL    HW229523   3.873   0.642   5.457
 9542SOL     OW29524   5.013   4.587   4.669
 9542SOL    HW129525   5.045   4.634   4.751
 9542SOL    HW229526   5.077   4.603   4.594
 9543SOL     OW29527   3.644   0.698   5.761
 9543SOL    HW129528   3.729   0.694   5.813
 9543SOL    HW229529   3.581   0.762   5.804
 9544SOL     OW29530   6.874   2.135   3.646
 9544SOL    HW129531   6.870   2.152   3.547
 9544SOL    HW229532   6.780   2.130   3.682
 9545SOL     OW29533   6.004   5.354   4.107
 9545SOL    HW129534   5.964   5.443   4.086
 9545SOL    HW229535   5.952   5.311   4.181
 9546SOL     OW29536   3.730   2.353   5.298
 9546SOL    HW129537   3.827   2.370   5.309
 9546SOL    HW229538   3.699   2.288   5.368
 9547SOL     OW29539   1.909   6.487   4.666
 9547SOL    HW129540   1.894   6.430   4.747
 9547SOL    HW229541   1.920   6.428   4.586
 9548SOL     OW29542   6.216   5.537   6.403
 9548SOL    HW129543   6.271   5.546   6.321
 9548SOL    HW229544   6.210   5.440   6.429
 9549SOL     OW29545   2.552   2.720   1.415
 9549SOL    HW129546   2.496   2.672   1.482
 9549SOL    HW229547   2.649   2.711   1.439
 9550SOL     OW29548   0.763   1.645   0.267
 9550SOL    HW129549   0.740   1.548   0.266
 9550SOL    HW229550   0.859   1.657   0.242
 9551SOL     OW29551   5.437   1.212   4.738
 9551SOL    HW129552   5.432   1.221   4.837
 9551SOL    HW229553   5.365   1.150   4.706
 9552SOL     OW29554   1.305   6.858   3.588
 9552SOL    HW129555   1.216   6.829   3.623
 9552SOL    HW229556   1.293   6.931   3.521
 9553SOL     OW29557   6.399   3.751   6.250
 9553SOL    HW129558   6.326   3.796   6.301
 9553SOL    HW229559   6.427   3.808   6.173
 9554SOL     OW29560   1.661   0.008   0.990
 9554SOL    HW129561   1.671   6.987   1.081
 9554SOL    HW229562   1.630   0.103   0.999
 9555SOL     OW29563   1.267   0.607   2.819
 9555SOL    HW129564   1.200   0.671   2.856
 9555SOL    HW229565   1.319   0.652   2.746
 9556SOL     OW29566   1.669   2.794   1.991
 9556SOL    HW129567   1.710   2.743   2.067
 9556SOL    HW229568   1.584   2.749   1.963
 9557SOL     OW29569   1.134   0.079   2.709
 9557SOL    HW129570   1.209   0.129   2.752
 9557SOL    HW229571   1.089   0.021   2.777
 9558SOL     OW29572   6.168   6.567   4.925
 9558SOL    HW129573   6.257   6.608   4.943
 9558SOL    HW229574   6.178   6.470   4.905
 9559SOL     OW29575   0.279   4.489   1.012
 9559SOL    HW129576   0.223   4.461   0.935
 9559SOL    HW229577   0.266   4.426   1.088
 9560SOL     OW29578   1.650   1.986   3.334
 9560SOL    HW129579   1.626   1.962   3.240
 9560SOL    HW229580   1.734   1.939   3.360
 9561SOL     OW29581   1.674   6.926   0.008
 9561SOL    HW129582   1.716   6.949   6.939
 9561SOL    HW229583   1.662   7.009   0.062
 9562SOL     OW29584   3.325   0.226   5.799
 9562SOL    HW129585   3.306   0.316   5.838
 9562SOL    HW229586   3.269   0.156   5.844
 9563SOL     OW29587   6.015   6.780   0.660
 9563SOL    HW129588   6.023   6.681   0.669
 9563SOL    HW229589   6.097   6.824   0.696
 9564SOL     OW29590   2.885   0.019   0.132
 9564SOL    HW129591   2.873   6.965   0.065
 9564SOL    HW229592   2.968   0.002   0.185
 9565SOL     OW29593   4.073   0.052   4.607
 9565SOL    HW129594   4.091   0.007   4.519
 9565SOL    HW229595   4.130   0.011   4.678
 9566SOL     OW29596   1.715   5.291   0.009
 9566SOL    HW129597   1.754   5.356   0.074
 9566SOL    HW229598   1.755   5.305   6.938
 9567SOL     OW29599   5.564   4.925   0.019
 9567SOL    HW129600   5.501   4.860   6.994
 9567SOL    HW229601   5.625   4.875   0.080
 9568SOL     OW29602   4.854   2.509   6.419
 9568SOL    HW129603   4.875   2.570   6.343
 9568SOL    HW229604   4.758   2.482   6.414
 9569SOL     OW29605   0.858   1.627   3.185
 9569SOL    HW129606   0.886   1.618   3.281
 9569SOL    HW229607   0.832   1.722   3.166
 9570SOL     OW29608   1.028   3.403   2.384
 9570SOL    HW129609   1.096   3.474   2.401
 9570SOL    HW229610   0.942   3.426   2.429
 9571SOL     OW29611   2.957   3.884   6.773
 9571SOL    HW129612   3.003   3.843   6.694
 9571SOL    HW229613   2.919   3.973   6.746
 9572SOL     OW29614   1.850   5.318   1.735
 9572SOL    HW129615   1.861   5.392   1.668
 9572SOL    HW229616   1.939   5.295   1.773
 9573SOL     OW29617   1.041   1.150   6.584
 9573SOL    HW129618   1.091   1.071   6.622
 9573SOL    HW229619   0.957   1.118   6.541
 9574SOL     OW29620   4.129   3.630   4.251
 9574SOL    HW129621   4.116   3.542   4.297
 9574SOL    HW229622   4.222   3.635   4.215
 9575SOL     OW29623   6.471   1.140   1.480
 9575SOL    HW129624   6.389   1.152   1.425
 9575SOL    HW229625   6.547   1.113   1.420
 9576SOL     OW29626   2.251   0.564   2.016
 9576SOL    HW129627   2.175   0.503   2.035
 9576SOL    HW229628   2.335   0.529   2.059
 9577SOL     OW29629   1.338   0.561   5.150
 9577SOL    HW129630   1.328   0.650   5.107
 9577SOL    HW229631   1.435   0.539   5.160
 9578SOL     OW29632   0.816   3.780   3.497
 9578SOL    HW129633   0.779   3.849   3.559
 9578SOL    HW229634   0.815   3.817   3.403
 9579SOL     OW29635   1.809   5.256   2.864
 9579SOL    HW129636   1.801   5.164   2.824
 9579SOL    HW229637   1.897   5.264   2.911
 9580SOL     OW29638   3.878   3.172   0.945
 9580SOL    HW129639   3.930   3.188   1.029
 9580SOL    HW229640   3.908   3.237   0.875
 9581SOL     OW29641   0.784   5.136   6.810
 9581SOL    HW129642   0.770   5.086   6.725
 9581SOL    HW229643   0.742   5.227   6.802
 9582SOL     OW29644   4.961   4.985   5.344
 9582SOL    HW129645   4.864   4.982   5.367
 9582SOL    HW229646   4.980   5.067   5.290
 9583SOL     OW29647   4.274   4.624   1.212
 9583SOL    HW129648   4.317   4.557   1.152
 9583SOL    HW229649   4.245   4.579   1.297
 9584SOL     OW29650   6.680   6.304   6.629
 9584SOL    HW129651   6.604   6.304   6.564
 9584SOL    HW229652   6.660   6.367   6.704
 9585SOL     OW29653   5.994   6.913   4.397
 9585SOL    HW129654   5.936   6.976   4.345
 9585SOL    HW229655   6.074   6.888   4.343
 9586SOL     OW29656   6.018   4.340   2.507
 9586SOL    HW129657   6.054   4.433   2.515
 9586SOL    HW229658   5.950   4.324   2.579
 9587SOL     OW29659   0.154   1.219   2.131
 9587SOL    HW129660   0.223   1.151   2.158
 9587SOL    HW229661   0.137   1.282   2.207
 9588SOL     OW29662   0.691   1.863   2.542
 9588SOL    HW129663   0.627   1.899   2.610
 9588SOL    HW229664   0.705   1.765   2.559
 9589SOL     OW29665   2.282   5.402   5.746
 9589SOL    HW129666   2.341   5.430   5.670
 9589SOL    HW229667   2.194   5.449   5.739
 9590SOL     OW29668   0.213   3.578   1.955
 9590SOL    HW129669   0.209   3.620   2.046
 9590SOL    HW229670   0.302   3.535   1.942
 9591SOL     OW29671   3.142   6.112   6.791
 9591SOL    HW129672   3.159   6.149   6.883
 9591SOL    HW229673   3.072   6.167   6.745
 9592SOL     OW29674   3.675   4.414   0.993
 9592SOL    HW129675   3.681   4.316   1.010
 9592SOL    HW229676   3.597   4.434   0.934
 9593SOL     OW29677   6.433   0.103   4.676
 9593SOL    HW129678   6.484   0.018   4.690
 9593SOL    HW229679   6.424   0.120   4.578
 9594SOL     OW29680   1.511   6.550   2.733
 9594SOL    HW129681   1.535   6.567   2.638
 9594SOL    HW229682   1.462   6.463   2.740
 9595SOL     OW29683   2.122   4.528   5.368
 9595SOL    HW129684   2.098   4.532   5.271
 9595SOL    HW229685   2.214   4.490   5.378
 9596SOL     OW29686   0.280   6.324   0.564
 9596SOL    HW129687   0.257   6.228   0.573
 9596SOL    HW229688   0.368   6.342   0.609
 9597SOL     OW29689   0.582   4.975   0.827
 9597SOL    HW129690   0.533   4.901   0.874
 9597SOL    HW229691   0.672   4.942   0.797
 9598SOL     OW29692   1.363   3.744   4.825
 9598SOL    HW129693   1.318   3.810   4.886
 9598SOL    HW229694   1.294   3.684   4.785
 9599SOL     OW29695   3.579   0.535   5.506
 9599SOL    HW129696   3.520   0.576   5.436
 9599SOL    HW229697   3.594   0.601   5.580
 9600SOL     OW29698   2.449   0.141   0.324
 9600SOL    HW129699   2.480   0.053   0.361
 9600SOL    HW229700   2.419   0.200   0.399
 9601SOL     OW29701   6.588   3.783   0.686
 9601SOL    HW129702   6.523   3.859   0.673
 9601SOL    HW229703   6.541   3.696   0.670
 9602SOL     OW29704   6.921   4.533   6.502
 9602SOL    HW129705   6.828   4.559   6.477
 9602SOL    HW229706   6.958   4.601   6.566
 9603SOL     OW29707   3.240   1.246   5.258
 9603SOL    HW129708   3.318   1.206   5.210
 9603SOL    HW229709   3.270   1.325   5.311
 9604SOL     OW29710   4.363   0.276   0.287
 9604SOL    HW129711   4.431   0.349   0.293
 9604SOL    HW229712   4.393   0.208   0.220
 9605SOL     OW29713   0.491   4.865   4.257
 9605SOL    HW129714   0.422   4.838   4.190
 9605SOL    HW229715   0.511   4.787   4.317
 9606SOL     OW29716   1.283   6.041   5.642
 9606SOL    HW129717   1.376   6.056   5.677
 9606SOL    HW229718   1.277   5.948   5.606
 9607SOL     OW29719   1.437   2.229   1.755
 9607SOL    HW129720   1.427   2.305   1.691
 9607SOL    HW229721   1.513   2.171   1.727
 9608SOL     OW29722   6.635   6.946   1.893
 9608SOL    HW129723   6.679   6.887   1.961
 9608SOL    HW229724   6.668   6.921   1.802
 9609SOL     OW29725   2.079   3.407   6.541
 9609SOL    HW129726   2.057   3.313   6.568
 9609SOL    HW229727   2.177   3.415   6.524
 9610SOL     OW29728   1.654   4.985   4.140
 9610SOL    HW129729   1.650   4.976   4.239
 9610SOL    HW229730   1.563   4.968   4.101
 9611SOL     OW29731   0.279   0.203   6.936
 9611SOL    HW129732   0.307   0.296   6.959
 9611SOL    HW229733   0.251   0.200   6.840
 9612SOL     OW29734   6.855   3.434   1.772
 9612SOL    HW129735   6.877   3.454   1.868
 9612SOL    HW229736   6.756   3.442   1.758
 9613SOL     OW29737   3.924   6.419   3.147
 9613SOL    HW129738   3.882   6.392   3.233
 9613SOL    HW229739   3.853   6.448   3.083
 9614SOL     OW29740   3.872   2.897   0.876
 9614SOL    HW129741   3.875   2.997   0.882
 9614SOL    HW229742   3.938   2.858   0.941
 9615SOL     OW29743   0.710   6.849   2.101
 9615SOL    HW129744   0.735   6.802   2.017
 9615SOL    HW229745   0.616   6.824   2.126
 9616SOL     OW29746   4.426   3.564   0.991
 9616SOL    HW129747   4.473   3.560   0.903
 9616SOL    HW229748   4.429   3.657   1.027
 9617SOL     OW29749   1.088   3.714   4.322
 9617SOL    HW129750   1.180   3.748   4.340
 9617SOL    HW229751   1.057   3.748   4.233
 9618SOL     OW29752   4.041   0.029   6.381
 9618SOL    HW129753   4.038   0.095   6.306
 9618SOL    HW229754   4.017   0.074   6.467
 9619SOL     OW29755   1.012   0.273   0.340
 9619SOL    HW129756   1.004   0.255   0.242
 9619SOL    HW229757   0.936   0.331   0.370
 9620SOL     OW29758   5.632   1.640   6.926
 9620SOL    HW129759   5.608   1.665   6.832
 9620SOL    HW229760   5.686   1.714   6.967
 9621SOL     OW29761   1.352   1.227   3.124
 9621SOL    HW129762   1.317   1.164   3.055
 9621SOL    HW229763   1.430   1.278   3.087
 9622SOL     OW29764   5.664   0.855   0.228
 9622SOL    HW129765   5.639   0.945   0.191
 9622SOL    HW229766   5.582   0.810   0.263
 9623SOL     OW29767   3.651   5.147   5.455
 9623SOL    HW129768   3.661   5.240   5.419
 9623SOL    HW229769   3.554   5.120   5.452
 9624SOL     OW29770   5.887   4.053   3.703
 9624SOL    HW129771   5.845   4.131   3.749
 9624SOL    HW229772   5.816   3.990   3.672
 9625SOL     OW29773   5.278   5.138   6.751
 9625SOL    HW129774   5.183   5.155   6.777
 9625SOL    HW229775   5.340   5.188   6.811
 9626SOL     OW29776   2.321   6.173   6.291
 9626SOL    HW129777   2.385   6.180   6.215
 9626SOL    HW229778   2.273   6.085   6.286
 9627SOL     OW29779   6.827   4.212   4.672
 9627SOL    HW129780   6.790   4.279   4.608
 9627SOL    HW229781   6.752   4.169   4.723
 9628SOL     OW29782   6.264   4.193   0.464
 9628SOL    HW129783   6.195   4.125   0.440
 9628SOL    HW229784   6.267   4.263   0.392
 9629SOL     OW29785   6.621   6.458   2.668
 9629SOL    HW129786   6.646   6.362   2.679
 9629SOL    HW229787   6.553   6.467   2.595
 9630SOL     OW29788   6.516   6.418   5.257
 9630SOL    HW129789   6.492   6.470   5.175
 9630SOL    HW229790   6.516   6.478   5.336
 9631SOL     OW29791   5.324   1.353   0.121
 9631SOL    HW129792   5.327   1.306   0.210
 9631SOL    HW229793   5.229   1.369   0.095
 9632SOL     OW29794   2.389   5.447   1.819
 9632SOL    HW129795   2.315   5.496   1.773
 9632SOL    HW229796   2.454   5.513   1.857
 9633SOL     OW29797   3.776   4.450   0.167
 9633SOL    HW129798   3.720   4.430   0.247
 9633SOL    HW229799   3.729   4.418   0.084
 9634SOL     OW29800   6.630   6.862   3.943
 9634SOL    HW129801   6.636   6.961   3.930
 9634SOL    HW229802   6.700   6.832   4.008
 9635SOL     OW29803   2.529   4.677   5.499
 9635SOL    HW129804   2.580   4.690   5.414
 9635SOL    HW229805   2.569   4.603   5.551
 9636SOL     OW29806   4.770   2.125   6.453
 9636SOL    HW129807   4.739   2.053   6.392
 9636SOL    HW229808   4.695   2.151   6.514
 9637SOL     OW29809   3.479   2.141   0.227
 9637SOL    HW129810   3.486   2.062   0.166
 9637SOL    HW229811   3.495   2.112   0.321
 9638SOL     OW29812   6.915   3.324   5.565
 9638SOL    HW129813   6.845   3.395   5.574
 9638SOL    HW229814   6.887   3.243   5.617
 9639SOL     OW29815   4.281   1.700   2.109
 9639SOL    HW129816   4.244   1.793   2.099
 9639SOL    HW229817   4.281   1.674   2.205
 9640SOL     OW29818   3.058   0.646   2.976
 9640SOL    HW129819   3.149   0.681   2.998
 9640SOL    HW229820   3.054   0.620   2.879
 9641SOL     OW29821   5.528   5.226   1.298
 9641SOL    HW129822   5.582   5.212   1.381
 9641SOL    HW229823   5.473   5.309   1.307
 9642SOL     OW29824   2.114   5.434   4.489
 9642SOL    HW129825   2.048   5.504   4.462
 9642SOL    HW229826   2.072   5.372   4.555
 9643SOL     OW29827   5.208   4.670   3.603
 9643SOL    HW129828   5.193   4.575   3.578
 9643SOL    HW229829   5.279   4.676   3.673
 9644SOL     OW29830   0.803   5.127   5.324
 9644SOL    HW129831   0.879   5.188   5.303
 9644SOL    HW229832   0.737   5.128   5.250
 9645SOL     OW29833   2.889   4.785   4.043
 9645SOL    HW129834   2.969   4.836   4.074
 9645SOL    HW229835   2.816   4.793   4.110
 9646SOL     OW29836   2.346   4.926   2.299
 9646SOL    HW129837   2.308   4.893   2.385
 9646SOL    HW229838   2.274   4.928   2.229
 9647SOL     OW29839   0.438   5.800   2.845
 9647SOL    HW129840   0.413   5.808   2.748
 9647SOL    HW229841   0.494   5.879   2.871
 9648SOL     OW29842   3.489   1.909   0.056
 9648SOL    HW129843   3.494   1.930   6.978
 9648SOL    HW229844   3.580   1.885   0.090
 9649SOL     OW29845   1.950   4.656   6.726
 9649SOL    HW129846   1.981   4.661   6.631
 9649SOL    HW229847   1.922   4.562   6.746
 9650SOL     OW29848   4.543   4.630   3.177
 9650SOL    HW129849   4.603   4.553   3.154
 9650SOL    HW229850   4.479   4.602   3.248
 9651SOL     OW29851   5.492   1.514   0.743
 9651SOL    HW129852   5.511   1.417   0.761
 9651SOL    HW229853   5.573   1.569   0.765
 9652SOL     OW29854   1.166   4.884   1.210
 9652SOL    HW129855   1.166   4.791   1.173
 9652SOL    HW229856   1.087   4.934   1.175
 9653SOL     OW29857   5.003   5.197   5.164
 9653SOL    HW129858   5.085   5.221   5.216
 9653SOL    HW229859   5.010   5.234   5.071
 9654SOL     OW29860   3.427   3.195   2.850
 9654SOL    HW129861   3.466   3.104   2.864
 9654SOL    HW229862   3.500   3.259   2.826
 9655SOL     OW29863   0.420   1.774   0.571
 9655SOL    HW129864   0.501   1.720   0.546
 9655SOL    HW229865   0.433   1.869   0.541
 9656SOL     OW29866   4.262   2.204   0.591
 9656SOL    HW129867   4.302   2.284   0.635
 9656SOL    HW229868   4.286   2.122   0.643
 9657SOL     OW29869   5.777   2.913   3.296
 9657SOL    HW129870   5.713   2.894   3.371
 9657SOL    HW229871   5.835   2.832   3.280
 9658SOL     OW29872   5.279   2.113   2.402
 9658SOL    HW129873   5.323   2.024   2.412
 9658SOL    HW229874   5.182   2.106   2.425
 9659SOL     OW29875   0.165   3.090   0.534
 9659SOL    HW129876   0.207   3.031   0.603
 9659SOL    HW229877   0.234   3.151   0.495
 9660SOL     OW29878   0.592   0.004   2.823
 9660SOL    HW129879   0.662   0.072   2.799
 9660SOL    HW229880   0.560   6.977   2.740
 9661SOL     OW29881   3.385   6.041   1.191
 9661SOL    HW129882   3.344   6.132   1.195
 9661SOL    HW229883   3.442   6.033   1.109
 9662SOL     OW29884   3.875   3.242   5.588
 9662SOL    HW129885   3.846   3.199   5.502
 9662SOL    HW229886   3.974   3.254   5.587
 9663SOL     OW29887   6.539   6.776   2.508
 9663SOL    HW129888   6.636   6.775   2.483
 9663SOL    HW229889   6.491   6.842   2.450
 9664SOL     OW29890   5.681   5.567   4.620
 9664SOL    HW129891   5.704   5.469   4.614
 9664SOL    HW229892   5.582   5.577   4.628
 9665SOL     OW29893   5.726   5.836   6.454
 9665SOL    HW129894   5.719   5.896   6.375
 9665SOL    HW229895   5.662   5.760   6.444
 9666SOL     OW29896   6.660   3.553   2.134
 9666SOL    HW129897   6.607   3.473   2.160
 9666SOL    HW229898   6.749   3.550   2.181
 9667SOL     OW29899   4.263   3.225   6.538
 9667SOL    HW129900   4.291   3.180   6.623
 9667SOL    HW229901   4.176   3.273   6.554
 9668SOL     OW29902   6.792   0.623   6.042
 9668SOL    HW129903   6.729   0.551   6.072
 9668SOL    HW229904   6.886   0.587   6.044
 9669SOL     OW29905   2.192   6.988   2.211
 9669SOL    HW129906   2.141   6.905   2.235
 9669SOL    HW229907   2.267   6.965   2.150
 9670SOL     OW29908   6.923   4.896   5.996
 9670SOL    HW129909   6.843   4.956   5.995
 9670SOL    HW229910   6.956   4.885   6.090
 9671SOL     OW29911   6.784   4.246   0.083
 9671SOL    HW129912   6.864   4.246   0.023
 9671SOL    HW229913   6.810   4.281   0.173
 9672SOL     OW29914   1.703   5.756   3.592
 9672SOL    HW129915   1.636   5.696   3.636
 9672SOL    HW229916   1.757   5.803   3.661
 9673SOL     OW29917   4.882   3.579   1.108
 9673SOL    HW129918   4.835   3.637   1.041
 9673SOL    HW229919   4.835   3.584   1.195
 9674SOL     OW29920   3.346   6.842   3.233
 9674SOL    HW129921   3.299   6.833   3.321
 9674SOL    HW229922   3.330   6.933   3.196
 9675SOL     OW29923   5.302   2.564   6.933
 9675SOL    HW129924   5.345   2.477   6.958
 9675SOL    HW229925   5.368   2.639   6.946
 9676SOL     OW29926   1.747   3.539   5.730
 9676SOL    HW129927   1.764   3.477   5.654
 9676SOL    HW229928   1.777   3.631   5.705
 9677SOL     OW29929   6.797   5.615   4.667
 9677SOL    HW129930   6.728   5.592   4.735
 9677SOL    HW229931   6.818   5.534   4.612
 9678SOL     OW29932   2.947   3.691   3.537
 9678SOL    HW129933   2.909   3.698   3.630
 9678SOL    HW229934   2.959   3.783   3.499
 9679SOL     OW29935   3.404   0.742   2.994
 9679SOL    HW129936   3.485   0.699   3.033
 9679SOL    HW229937   3.406   0.736   2.894
 9680SOL     OW29938   4.699   1.095   3.021
 9680SOL    HW129939   4.694   1.192   3.041
 9680SOL    HW229940   4.611   1.063   2.987
 9681SOL     OW29941   2.929   1.872   0.682
 9681SOL    HW129942   2.931   1.772   0.675
 9681SOL    HW229943   2.930   1.898   0.778
 9682SOL     OW29944   4.704   4.201   3.828
 9682SOL    HW129945   4.715   4.173   3.924
 9682SOL    HW229946   4.699   4.301   3.823
 9683SOL     OW29947   3.014   5.849   1.603
 9683SOL    HW129948   3.016   5.935   1.552
 9683SOL    HW229949   2.991   5.868   1.699
 9684SOL     OW29950   0.659   3.122   6.431
 9684SOL    HW129951   0.749   3.165   6.423
 9684SOL    HW229952   0.621   3.141   6.522
 9685SOL     OW29953   3.920   4.689   1.017
 9685SOL    HW129954   3.969   4.755   1.074
 9685SOL    HW229955   3.950   4.597   1.039
 9686SOL     OW29956   0.041   2.397   0.214
 9686SOL    HW129957   0.005   2.372   0.304
 9686SOL    HW229958   6.998   2.463   0.171
 9687SOL     OW29959   1.409   0.753   4.306
 9687SOL    HW129960   1.489   0.786   4.255
 9687SOL    HW229961   1.407   0.653   4.304
 9688SOL     OW29962   1.037   3.324   1.987
 9688SOL    HW129963   0.989   3.244   2.021
 9688SOL    HW229964   1.124   3.335   2.035
 9689SOL     OW29965   0.805   4.688   6.004
 9689SOL    HW129966   0.817   4.699   5.905
 9689SOL    HW229967   0.799   4.590   6.026
 9690SOL     OW29968   6.185   5.191   6.908
 9690SOL    HW129969   6.120   5.116   6.908
 9690SOL    HW229970   6.203   5.221   7.002
 9691SOL     OW29971   3.085   5.300   1.037
 9691SOL    HW129972   3.106   5.382   1.091
 9691SOL    HW229973   3.086   5.220   1.097
 9692SOL     OW29974   3.543   5.924   2.400
 9692SOL    HW129975   3.551   6.024   2.396
 9692SOL    HW229976   3.564   5.885   2.311
 9693SOL     OW29977   5.601   4.402   2.292
 9693SOL    HW129978   5.568   4.493   2.267
 9693SOL    HW229979   5.700   4.397   2.277
 9694SOL     OW29980   2.575   0.973   0.856
 9694SOL    HW129981   2.526   0.890   0.883
 9694SOL    HW229982   2.549   0.998   0.763
 9695SOL     OW29983   6.709   3.455   3.304
 9695SOL    HW129984   6.665   3.488   3.388
 9695SOL    HW229985   6.693   3.356   3.295
 9696SOL     OW29986   5.265   3.440   1.200
 9696SOL    HW129987   5.315   3.433   1.113
 9696SOL    HW229988   5.282   3.358   1.255
 9697SOL     OW29989   0.409   4.689   6.976
 9697SOL    HW129990   0.408   4.668   6.878
 9697SOL    HW229991   0.316   4.678   7.013
 9698SOL     OW29992   4.716   1.789   6.122
 9698SOL    HW129993   4.736   1.886   6.139
 9698SOL    HW229994   4.756   1.734   6.195
 9699SOL     OW29995   6.302   5.512   6.953
 9699SOL    HW129996   6.238   5.522   0.010
 9699SOL    HW229997   6.255   5.469   6.876
 9700SOL     OW29998   4.984   5.383   4.904
 9700SOL    HW129999   4.976   5.462   4.964
 9700SOL    HW230000   4.962   5.410   4.810
 9701SOL     OW30001   4.551   4.865   5.863
 9701SOL    HW130002   4.600   4.855   5.776
 9701SOL    HW230003   4.616   4.857   5.938
 9702SOL     OW30004   4.760   0.376   6.530
 9702SOL    HW130005   4.711   0.396   6.616
 9702SOL    HW230006   4.750   0.279   6.509
 9703SOL     OW30007   4.860   3.721   3.842
 9703SOL    HW130008   4.880   3.634   3.887
 9703SOL    HW230009   4.810   3.780   3.904
 9704SOL     OW30010   3.537   0.142   1.959
 9704SOL    HW130011   3.622   0.185   1.990
 9704SOL    HW230012   3.533   0.144   1.859
 9705SOL     OW30013   5.282   4.593   5.682
 9705SOL    HW130014   5.368   4.549   5.705
 9705SOL    HW230015   5.216   4.524   5.653
 9706SOL     OW30016   1.900   3.702   0.382
 9706SOL    HW130017   1.829   3.767   0.355
 9706SOL    HW230018   1.877   3.611   0.348
 9707SOL     OW30019   6.309   5.121   2.276
 9707SOL    HW130020   6.383   5.185   2.257
 9707SOL    HW230021   6.313   5.045   2.210
 9708SOL     OW30022   1.471   1.768   4.400
 9708SOL    HW130023   1.473   1.733   4.494
 9708SOL    HW230024   1.556   1.742   4.354
 9709SOL     OW30025   5.028   6.489   2.939
 9709SOL    HW130026   5.126   6.474   2.927
 9709SOL    HW230027   5.009   6.587   2.937
 9710SOL     OW30028   6.982   1.751   1.154
 9710SOL    HW130029   6.967   1.670   1.210
 9710SOL    HW230030   0.034   1.732   1.086
 9711SOL     OW30031   3.138   5.616   6.219
 9711SOL    HW130032   3.221   5.572   6.187
 9711SOL    HW230033   3.082   5.551   6.270
 9712SOL     OW30034   5.443   3.922   6.767
 9712SOL    HW130035   5.401   3.916   6.677
 9712SOL    HW230036   5.526   3.867   6.769
 9713SOL     OW30037   1.358   5.020   3.176
 9713SOL    HW130038   1.264   4.993   3.194
 9713SOL    HW230039   1.372   5.025   3.077
 9714SOL     OW30040   4.335   6.105   6.280
 9714SOL    HW130041   4.362   6.201   6.292
 9714SOL    HW230042   4.310   6.090   6.184
 9715SOL     OW30043   5.778   3.915   6.487
 9715SOL    HW130044   5.831   3.852   6.543
 9715SOL    HW230045   5.764   3.877   6.396
 9716SOL     OW30046   3.761   4.465   6.577
 9716SOL    HW130047   3.664   4.460   6.554
 9716SOL    HW230048   3.780   4.551   6.625
 9717SOL     OW30049   5.375   5.981   5.930
 9717SOL    HW130050   5.437   5.903   5.933
 9717SOL    HW230051   5.319   5.982   6.012
 9718SOL     OW30052   4.332   3.401   0.046
 9718SOL    HW130053   4.424   3.372   0.020
 9718SOL    HW230054   4.280   3.321   0.076
 9719SOL     OW30055   6.281   1.073   5.509
 9719SOL    HW130056   6.348   1.145   5.488
 9719SOL    HW230057   6.211   1.109   5.570
 9720SOL     OW30058   0.111   5.214   1.992
 9720SOL    HW130059   0.209   5.205   1.978
 9720SOL    HW230060   0.093   5.270   2.073
 9721SOL     OW30061   0.167   1.855   0.558
 9721SOL    HW130062   0.252   1.804   0.568
 9721SOL    HW230063   0.168   1.932   0.621
 9722SOL     OW30064   5.568   0.828   4.244
 9722SOL    HW130065   5.531   0.860   4.157
 9722SOL    HW230066   5.661   0.792   4.230
 9723SOL     OW30067   2.833   6.917   2.693
 9723SOL    HW130068   2.910   6.974   2.723
 9723SOL    HW230069   2.771   6.972   2.638
 9724SOL     OW30070   1.671   4.336   0.302
 9724SOL    HW130071   1.743   4.392   0.262
 9724SOL    HW230072   1.604   4.313   0.232
 9725SOL     OW30073   4.534   4.772   6.269
 9725SOL    HW130074   4.590   4.775   6.352
 9725SOL    HW230075   4.441   4.801   6.291
 9726SOL     OW30076   5.149   1.158   4.113
 9726SOL    HW130077   5.235   1.186   4.157
 9726SOL    HW230078   5.160   1.067   4.074
 9727SOL     OW30079   1.100   2.679   6.864
 9727SOL    HW130080   1.192   2.682   6.823
 9727SOL    HW230081   1.072   2.583   6.874
 9728SOL     OW30082   0.751   0.797   5.835
 9728SOL    HW130083   0.653   0.805   5.815
 9728SOL    HW230084   0.770   0.708   5.877
 9729SOL     OW30085   0.740   4.159   3.348
 9729SOL    HW130086   0.798   4.234   3.381
 9729SOL    HW230087   0.681   4.128   3.423
 9730SOL     OW30088   0.867   4.098   3.957
 9730SOL    HW130089   0.793   4.150   3.999
 9730SOL    HW230090   0.950   4.154   3.953
 9731SOL     OW30091   4.970   4.709   0.637
 9731SOL    HW130092   4.966   4.735   0.540
 9731SOL    HW230093   4.879   4.678   0.667
 9732SOL     OW30094   6.813   5.526   2.904
 9732SOL    HW130095   6.734   5.584   2.924
 9732SOL    HW230096   6.896   5.569   2.940
 9733SOL     OW30097   6.123   5.041   0.455
 9733SOL    HW130098   6.138   5.139   0.451
 9733SOL    HW230099   6.175   4.996   0.382
 9734SOL     OW30100   6.716   1.717   1.583
 9734SOL    HW130101   6.731   1.800   1.529
 9734SOL    HW230102   6.680   1.644   1.525
 9735SOL     OW30103   2.155   3.699   4.161
 9735SOL    HW130104   2.151   3.600   4.149
 9735SOL    HW230105   2.186   3.743   4.077
 9736SOL     OW30106   6.419   1.941   6.638
 9736SOL    HW130107   6.424   1.929   6.737
 9736SOL    HW230108   6.374   1.862   6.597
 9737SOL     OW30109   5.065   3.011   3.597
 9737SOL    HW130110   5.101   3.059   3.676
 9737SOL    HW230111   4.972   3.043   3.578
 9738SOL     OW30112   1.800   0.434   0.834
 9738SOL    HW130113   1.832   0.391   0.919
 9738SOL    HW230114   1.711   0.396   0.809
 9739SOL     OW30115   5.961   5.302   1.749
 9739SOL    HW130116   5.969   5.301   1.649
 9739SOL    HW230117   5.925   5.390   1.778
 9740SOL     OW30118   6.861   1.888   3.402
 9740SOL    HW130119   6.823   1.865   3.312
 9740SOL    HW230120   6.786   1.898   3.467
 9741SOL     OW30121   4.058   1.225   2.645
 9741SOL    HW130122   4.034   1.271   2.560
 9741SOL    HW230123   4.006   1.140   2.654
 9742SOL     OW30124   4.252   0.619   0.814
 9742SOL    HW130125   4.302   0.533   0.800
 9742SOL    HW230126   4.189   0.609   0.890
 9743SOL     OW30127   0.451   2.783   4.623
 9743SOL    HW130128   0.539   2.830   4.631
 9743SOL    HW230129   0.381   2.849   4.594
 9744SOL     OW30130   1.702   6.758   2.420
 9744SOL    HW130131   1.736   6.718   2.505
 9744SOL    HW230132   1.681   6.684   2.355
 9745SOL     OW30133   5.274   3.041   6.227
 9745SOL    HW130134   5.264   3.124   6.280
 9745SOL    HW230135   5.371   3.024   6.207
 9746SOL     OW30136   6.550   0.345   5.344
 9746SOL    HW130137   6.462   0.305   5.319
 9746SOL    HW230138   6.535   0.430   5.394
 9747SOL     OW30139   2.756   0.923   1.964
 9747SOL    HW130140   2.715   0.835   1.989
 9747SOL    HW230141   2.710   0.997   2.014
 9748SOL     OW30142   0.100   1.141   3.512
 9748SOL    HW130143   0.037   1.188   3.451
 9748SOL    HW230144   0.103   1.189   3.600
 9749SOL     OW30145   2.547   0.234   4.393
 9749SOL    HW130146   2.467   0.188   4.354
 9749SOL    HW230147   2.574   0.310   4.333
 9750SOL     OW30148   5.415   4.179   2.977
 9750SOL    HW130149   5.473   4.219   2.906
 9750SOL    HW230150   5.472   4.127   3.041
 9751SOL     OW30151   1.594   0.825   0.795
 9751SOL    HW130152   1.525   0.898   0.787
 9751SOL    HW230153   1.587   0.765   0.715
 9752SOL     OW30154   4.367   1.973   5.330
 9752SOL    HW130155   4.465   1.970   5.353
 9752SOL    HW230156   4.348   1.907   5.257
 9753SOL     OW30157   6.037   5.690   6.233
 9753SOL    HW130158   6.092   5.645   6.304
 9753SOL    HW230159   6.084   5.683   6.145
 9754SOL     OW30160   1.510   1.354   6.796
 9754SOL    HW130161   1.588   1.331   6.739
 9754SOL    HW230162   1.515   1.450   6.823
 9755SOL     OW30163   3.278   3.634   4.497
 9755SOL    HW130164   3.214   3.557   4.491
 9755SOL    HW230165   3.285   3.664   4.592
 9756SOL     OW30166   6.399   3.573   0.631
 9756SOL    HW130167   6.489   3.530   0.618
 9756SOL    HW230168   6.348   3.522   0.699
 9757SOL     OW30169   5.462   3.781   3.783
 9757SOL    HW130170   5.445   3.697   3.833
 9757SOL    HW230171   5.472   3.761   3.685
 9758SOL     OW30172   2.586   0.111   0.065
 9758SOL    HW130173   2.537   0.117   0.152
 9758SOL    HW230174   2.672   0.062   0.079
 9759SOL     OW30175   1.312   0.267   0.364
 9759SOL    HW130176   1.220   0.269   0.403
 9759SOL    HW230177   1.376   0.310   0.428
 9760SOL     OW30178   4.618   2.679   4.853
 9760SOL    HW130179   4.564   2.596   4.869
 9760SOL    HW230180   4.590   2.750   4.918
 9761SOL     OW30181   6.445   1.353   2.429
 9761SOL    HW130182   6.464   1.352   2.330
 9761SOL    HW230183   6.357   1.309   2.446
 9762SOL     OW30184   3.265   1.134   4.529
 9762SOL    HW130185   3.261   1.154   4.431
 9762SOL    HW230186   3.355   1.099   4.553
 9763SOL     OW30187   5.237   1.934   2.061
 9763SOL    HW130188   5.205   1.842   2.083
 9763SOL    HW230189   5.319   1.928   2.005
 9764SOL     OW30190   0.128   2.942   3.076
 9764SOL    HW130191   0.040   2.978   3.107
 9764SOL    HW230192   0.127   2.933   2.976
 9765SOL     OW30193   6.688   0.507   3.559
 9765SOL    HW130194   6.649   0.419   3.531
 9765SOL    HW230195   6.672   0.574   3.487
 9766SOL     OW30196   3.117   6.936   2.067
 9766SOL    HW130197   3.203   6.892   2.092
 9766SOL    HW230198   3.094   7.005   2.136
 9767SOL     OW30199   4.845   0.429   4.506
 9767SOL    HW130200   4.867   0.525   4.527
 9767SOL    HW230201   4.750   0.412   4.531
 9768SOL     OW30202   6.220   1.247   2.549
 9768SOL    HW130203   6.140   1.193   2.524
 9768SOL    HW230204   6.200   1.299   2.632
 9769SOL     OW30205   4.148   1.145   3.120
 9769SOL    HW130206   4.090   1.088   3.179
 9769SOL    HW230207   4.240   1.150   3.159
 9770SOL     OW30208   5.153   0.868   6.617
 9770SOL    HW130209   5.183   0.940   6.681
 9770SOL    HW230210   5.059   0.886   6.588
 9771SOL     OW30211   2.659   6.037   0.413
 9771SOL    HW130212   2.564   6.067   0.419
 9771SOL    HW230213   2.705   6.086   0.338
 9772SOL     OW30214   2.111   6.311   1.983
 9772SOL    HW130215   2.135   6.408   1.989
 9772SOL    HW230216   2.132   6.277   1.891
 9773SOL     OW30217   5.232   5.465   3.970
 9773SOL    HW130218   5.195   5.557   3.956
 9773SOL    HW230219   5.162   5.397   3.950
 9774SOL     OW30220   0.334   4.891   2.076
 9774SOL    HW130221   0.255   4.925   2.127
 9774SOL    HW230222   0.312   4.802   2.037
 9775SOL     OW30223   2.677   0.399   3.116
 9775SOL    HW130224   2.673   0.322   3.180
 9775SOL    HW230225   2.604   0.464   3.137
 9776SOL     OW30226   1.906   4.381   4.977
 9776SOL    HW130227   1.865   4.331   4.901
 9776SOL    HW230228   1.966   4.319   5.028
 9777SOL     OW30229   6.699   5.975   6.870
 9777SOL    HW130230   6.658   6.060   6.901
 9777SOL    HW230231   6.799   5.985   6.868
 9778SOL     OW30232   0.062   1.147   3.798
 9778SOL    HW130233   0.032   1.188   3.884
 9778SOL    HW230234   0.124   1.071   3.817
 9779SOL     OW30235   1.409   1.373   4.552
 9779SOL    HW130236   1.457   1.306   4.609
 9779SOL    HW230237   1.468   1.403   4.478
 9780SOL     OW30238   2.593   1.903   1.636
 9780SOL    HW130239   2.602   1.976   1.704
 9780SOL    HW230240   2.654   1.921   1.559
 9781SOL     OW30241   2.126   3.919   4.323
 9781SOL    HW130242   2.137   4.003   4.269
 9781SOL    HW230243   2.112   3.842   4.261
 9782SOL     OW30244   6.757   1.466   1.041
 9782SOL    HW130245   6.824   1.446   0.970
 9782SOL    HW230246   6.752   1.389   1.105
 9783SOL     OW30247   4.455   2.198   3.063
 9783SOL    HW130248   4.524   2.251   3.112
 9783SOL    HW230249   4.364   2.235   3.083
 9784SOL     OW30250   3.610   1.194   4.340
 9784SOL    HW130251   3.582   1.236   4.253
 9784SOL    HW230252   3.709   1.184   4.341
 9785SOL     OW30253   0.815   3.104   6.125
 9785SOL    HW130254   0.850   3.198   6.114
 9785SOL    HW230255   0.829   3.074   6.219
 9786SOL     OW30256   2.274   4.626   0.130
 9786SOL    HW130257   2.226   4.631   0.043
 9786SOL    HW230258   2.313   4.715   0.153
 9787SOL     OW30259   4.693   4.191   1.786
 9787SOL    HW130260   4.723   4.285   1.769
 9787SOL    HW230261   4.599   4.191   1.820
 9788SOL     OW30262   0.586   0.735   3.639
 9788SOL    HW130263   0.646   0.814   3.648
 9788SOL    HW230264   0.611   0.666   3.707
 9789SOL     OW30265   1.060   5.676   0.961
 9789SOL    HW130266   1.005   5.645   0.884
 9789SOL    HW230267   1.127   5.743   0.929
 9790SOL     OW30268   6.195   4.537   6.786
 9790SOL    HW130269   6.268   4.606   6.784
 9790SOL    HW230270   6.116   4.574   6.834
 9791SOL     OW30271   0.944   1.541   2.403
 9791SOL    HW130272   1.028   1.516   2.451
 9791SOL    HW230273   0.965   1.558   2.307
 9792SOL     OW30274   4.342   4.966   0.721
 9792SOL    HW130275   4.432   4.998   0.749
 9792SOL    HW230276   4.272   5.009   0.778
 9793SOL     OW30277   4.530   6.255   2.826
 9793SOL    HW130278   4.571   6.246   2.916
 9793SOL    HW230279   4.442   6.209   2.825
 9794SOL     OW30280   0.408   4.784   0.916
 9794SOL    HW130281   0.318   4.752   0.887
 9794SOL    HW230282   0.407   4.803   1.014
 9795SOL     OW30283   2.160   1.619   4.433
 9795SOL    HW130284   2.234   1.577   4.382
 9795SOL    HW230285   2.140   1.565   4.514
 9796SOL     OW30286   3.759   2.278   1.308
 9796SOL    HW130287   3.858   2.281   1.293
 9796SOL    HW230288   3.741   2.244   1.400
 9797SOL     OW30289   2.475   5.692   6.434
 9797SOL    HW130290   2.486   5.790   6.447
 9797SOL    HW230291   2.436   5.652   6.517
 9798SOL     OW30292   3.387   0.646   1.860
 9798SOL    HW130293   3.359   0.702   1.939
 9798SOL    HW230294   3.446   0.572   1.891
 9799SOL     OW30295   4.156   3.471   4.649
 9799SOL    HW130296   4.111   3.554   4.618
 9799SOL    HW230297   4.153   3.466   4.749
 9800SOL     OW30298   3.963   6.211   4.652
 9800SOL    HW130299   3.910   6.166   4.725
 9800SOL    HW230300   4.008   6.141   4.597
 9801SOL     OW30301   4.772   3.998   6.762
 9801SOL    HW130302   4.703   3.926   6.758
 9801SOL    HW230303   4.756   4.054   6.843
 9802SOL     OW30304   7.017   3.528   1.048
 9802SOL    HW130305   6.947   3.490   1.108
 9802SOL    HW230306   0.076   3.465   1.044
 9803SOL     OW30307   0.770   1.901   7.004
 9803SOL    HW130308   0.753   1.958   0.066
 9803SOL    HW230309   0.864   1.869   7.005
 9804SOL     OW30310   1.679   0.027   2.498
 9804SOL    HW130311   1.596   0.051   2.547
 9804SOL    HW230312   1.685   6.946   2.490
 9805SOL     OW30313   1.369   0.315   4.821
 9805SOL    HW130314   1.314   0.268   4.890
 9805SOL    HW230315   1.312   0.341   4.744
 9806SOL     OW30316   1.421   0.916   0.572
 9806SOL    HW130317   1.457   0.839   0.519
 9806SOL    HW230318   1.391   0.987   0.509
 9807SOL     OW30319   2.809   4.212   0.397
 9807SOL    HW130320   2.829   4.221   0.300
 9807SOL    HW230321   2.710   4.223   0.412
 9808SOL     OW30322   4.434   0.163   5.214
 9808SOL    HW130323   4.394   0.102   5.282
 9808SOL    HW230324   4.533   0.165   5.226
 9809SOL     OW30325   0.667   2.501   6.835
 9809SOL    HW130326   0.736   2.432   6.813
 9809SOL    HW230327   0.704   2.592   6.813
 9810SOL     OW30328   2.018   2.908   3.462
 9810SOL    HW130329   2.038   3.001   3.492
 9810SOL    HW230330   1.936   2.875   3.510
 9811SOL     OW30331   5.603   4.714   3.527
 9811SOL    HW130332   5.555   4.769   3.459
 9811SOL    HW230333   5.648   4.774   3.593
 9812SOL     OW30334   3.465   2.212   5.961
 9812SOL    HW130335   3.548   2.225   5.905
 9812SOL    HW230336   3.418   2.130   5.930
 9813SOL     OW30337   5.570   1.055   0.464
 9813SOL    HW130338   5.665   1.074   0.489
 9813SOL    HW230339   5.524   1.006   0.538
 9814SOL     OW30340   0.035   0.508   0.107
 9814SOL    HW130341   0.058   0.587   0.164
 9814SOL    HW230342   6.955   0.495   0.104
 9815SOL     OW30343   6.031   4.065   3.192
 9815SOL    HW130344   6.016   4.019   3.280
 9815SOL    HW230345   6.128   4.086   3.182
 9816SOL     OW30346   6.787   1.105   6.047
 9816SOL    HW130347   6.879   1.140   6.062
 9816SOL    HW230348   6.761   1.121   5.952
 9817SOL     OW30349   3.107   6.727   2.785
 9817SOL    HW130350   3.058   6.641   2.771
 9817SOL    HW230351   3.131   6.737   2.881
 9818SOL     OW30352   1.356   1.279   4.992
 9818SOL    HW130353   1.268   1.278   5.041
 9818SOL    HW230354   1.384   1.185   4.973
 9819SOL     OW30355   4.825   2.790   3.723
 9819SOL    HW130356   4.796   2.824   3.633
 9819SOL    HW230357   4.923   2.807   3.735
 9820SOL     OW30358   4.023   3.383   6.236
 9820SOL    HW130359   4.006   3.378   6.334
 9820SOL    HW230360   3.958   3.324   6.188
 9821SOL     OW30361   5.468   0.412   0.293
 9821SOL    HW130362   5.368   0.421   0.298
 9821SOL    HW230363   5.503   0.468   0.218
 9822SOL     OW30364   2.782   6.083   3.684
 9822SOL    HW130365   2.783   6.007   3.749
 9822SOL    HW230366   2.875   6.116   3.669
 9823SOL     OW30367   2.464   0.692   0.682
 9823SOL    HW130368   2.521   0.721   0.759
 9823SOL    HW230369   2.514   0.625   0.627
 9824SOL     OW30370   2.007   5.170   4.010
 9824SOL    HW130371   2.025   5.240   3.940
 9824SOL    HW230372   2.057   5.194   4.094
 9825SOL     OW30373   5.464   6.007   4.361
 9825SOL    HW130374   5.386   6.021   4.422
 9825SOL    HW230375   5.546   5.987   4.415
 9826SOL     OW30376   3.913   5.479   5.558
 9826SOL    HW130377   3.895   5.425   5.640
 9826SOL    HW230378   3.845   5.551   5.550
 9827SOL     OW30379   1.887   3.941   4.102
 9827SOL    HW130380   1.849   3.982   4.019
 9827SOL    HW230381   1.834   3.971   4.181
 9828SOL     OW30382   2.929   2.150   5.622
 9828SOL    HW130383   2.992   2.189   5.555
 9828SOL    HW230384   2.964   2.168   5.714
 9829SOL     OW30385   4.559   5.089   6.491
 9829SOL    HW130386   4.535   5.094   6.394
 9829SOL    HW230387   4.477   5.071   6.546
 9830SOL     OW30388   5.273   1.479   1.956
 9830SOL    HW130389   5.227   1.556   1.999
 9830SOL    HW230390   5.259   1.483   1.857
 9831SOL     OW30391   1.246   4.842   2.168
 9831SOL    HW130392   1.301   4.891   2.236
 9831SOL    HW230393   1.306   4.790   2.108
 9832SOL     OW30394   5.289   5.223   2.641
 9832SOL    HW130395   5.279   5.322   2.634
 9832SOL    HW230396   5.360   5.192   2.577
 9833SOL     OW30397   3.375   3.262   4.284
 9833SOL    HW130398   3.458   3.303   4.247
 9833SOL    HW230399   3.379   3.163   4.274
 9834SOL     OW30400   2.341   4.253   5.270
 9834SOL    HW130401   2.360   4.248   5.368
 9834SOL    HW230402   2.374   4.171   5.225
 9835SOL     OW30403   3.508   3.759   4.626
 9835SOL    HW130404   3.532   3.662   4.628
 9835SOL    HW230405   3.533   3.797   4.538
 9836SOL     OW30406   0.015   4.196   3.835
 9836SOL    HW130407   0.030   4.098   3.852
 9836SOL    HW230408   0.048   4.220   3.744
 9837SOL     OW30409   4.128   0.784   2.457
 9837SOL    HW130410   4.180   0.812   2.537
 9837SOL    HW230411   4.061   0.855   2.435
 9838SOL     OW30412   1.682   6.472   0.352
 9838SOL    HW130413   1.773   6.436   0.372
 9838SOL    HW230414   1.690   6.562   0.310
 9839SOL     OW30415   5.857   6.593   3.808
 9839SOL    HW130416   5.818   6.683   3.787
 9839SOL    HW230417   5.847   6.574   3.906
 9840SOL     OW30418   6.023   1.534   0.792
 9840SOL    HW130419   6.087   1.523   0.716
 9840SOL    HW230420   6.069   1.581   0.868
 9841SOL     OW30421   1.451   4.064   5.302
 9841SOL    HW130422   1.481   3.984   5.354
 9841SOL    HW230423   1.362   4.095   5.337
 9842SOL     OW30424   3.677   3.145   1.280
 9842SOL    HW130425   3.608   3.172   1.346
 9842SOL    HW230426   3.751   3.213   1.278
 9843SOL     OW30427   0.130   0.723   2.664
 9843SOL    HW130428   0.192   0.671   2.605
 9843SOL    HW230429   0.173   0.736   2.753
 9844SOL     OW30430   6.362   1.188   3.195
 9844SOL    HW130431   6.384   1.145   3.283
 9844SOL    HW230432   6.291   1.135   3.149
 9845SOL     OW30433   2.047   2.686   3.747
 9845SOL    HW130434   1.998   2.709   3.663
 9845SOL    HW230435   2.028   2.591   3.772
 9846SOL     OW30436   3.569   2.459   1.378
 9846SOL    HW130437   3.516   2.432   1.458
 9846SOL    HW230438   3.648   2.399   1.368
 9847SOL     OW30439   3.821   2.962   3.048
 9847SOL    HW130440   3.726   2.933   3.057
 9847SOL    HW230441   3.863   2.967   3.138
 9848SOL     OW30442   3.886   4.154   5.248
 9848SOL    HW130443   3.838   4.229   5.293
 9848SOL    HW230444   3.856   4.147   5.153
 9849SOL     OW30445   0.908   0.237   6.139
 9849SOL    HW130446   0.987   0.182   6.111
 9849SOL    HW230447   0.824   0.184   6.125
 9850SOL     OW30448   6.373   0.316   4.069
 9850SOL    HW130449   6.343   0.313   3.974
 9850SOL    HW230450   6.297   0.347   4.127
 9851SOL     OW30451   0.670   0.129   4.142
 9851SOL    HW130452   0.618   0.104   4.060
 9851SOL    HW230453   0.684   0.047   4.198
 9852SOL     OW30454   2.920   1.632   4.149
 9852SOL    HW130455   2.961   1.594   4.066
 9852SOL    HW230456   2.930   1.732   4.149
 9853SOL     OW30457   5.611   3.033   5.025
 9853SOL    HW130458   5.532   3.049   4.966
 9853SOL    HW230459   5.695   3.054   4.974
 9854SOL     OW30460   6.838   6.423   4.245
 9854SOL    HW130461   6.836   6.403   4.147
 9854SOL    HW230462   6.751   6.463   4.273
 9855SOL     OW30463   1.762   3.278   1.846
 9855SOL    HW130464   1.798   3.199   1.896
 9855SOL    HW230465   1.663   3.283   1.859
 9856SOL     OW30466   4.732   4.306   4.461
 9856SOL    HW130467   4.674   4.261   4.529
 9856SOL    HW230468   4.682   4.382   4.419
 9857SOL     OW30469   4.729   2.624   2.671
 9857SOL    HW130470   4.796   2.689   2.635
 9857SOL    HW230471   4.771   2.533   2.680
 9858SOL     OW30472   6.671   6.930   1.326
 9858SOL    HW130473   6.655   0.009   1.328
 9858SOL    HW230474   6.716   6.905   1.240
 9859SOL     OW30475   5.951   6.009   2.499
 9859SOL    HW130476   6.028   5.963   2.543
 9859SOL    HW230477   5.879   5.943   2.479
 9860SOL     OW30478   2.203   2.201   4.160
 9860SOL    HW130479   2.115   2.203   4.114
 9860SOL    HW230480   2.222   2.108   4.192
 9861SOL     OW30481   3.020   0.495   2.492
 9861SOL    HW130482   3.095   0.506   2.559
 9861SOL    HW230483   2.934   0.483   2.541
 9862SOL     OW30484   2.541   3.277   0.195
 9862SOL    HW130485   2.504   3.192   0.230
 9862SOL    HW230486   2.639   3.281   0.213
 9863SOL     OW30487   3.240   6.063   1.855
 9863SOL    HW130488   3.147   6.029   1.849
 9863SOL    HW230489   3.303   5.988   1.873
 9864SOL     OW30490   3.340   0.233   3.847
 9864SOL    HW130491   3.305   0.153   3.896
 9864SOL    HW230492   3.440   0.235   3.853
 9865SOL     OW30493   1.408   6.813   4.715
 9865SOL    HW130494   1.500   6.836   4.681
 9865SOL    HW230495   1.340   6.841   4.648
 9866SOL     OW30496   5.371   5.030   6.110
 9866SOL    HW130497   5.378   4.943   6.061
 9866SOL    HW230498   5.275   5.048   6.131
 9867SOL     OW30499   6.707   1.954   1.442
 9867SOL    HW130500   6.738   1.980   1.350
 9867SOL    HW230501   6.616   1.914   1.436
 9868SOL     OW30502   0.604   2.996   4.686
 9868SOL    HW130503   0.554   3.012   4.771
 9868SOL    HW230504   0.582   3.069   4.620
 9869SOL     OW30505   0.280   2.320   1.334
 9869SOL    HW130506   0.258   2.316   1.431
 9869SOL    HW230507   0.376   2.294   1.321
 9870SOL     OW30508   4.318   5.302   2.867
 9870SOL    HW130509   4.242   5.238   2.884
 9870SOL    HW230510   4.405   5.257   2.891
 9871SOL     OW30511   6.464   4.683   5.892
 9871SOL    HW130512   6.365   4.680   5.873
 9871SOL    HW230513   6.482   4.642   5.981
 9872SOL     OW30514   3.357   5.911   5.096
 9872SOL    HW130515   3.398   5.975   5.162
 9872SOL    HW230516   3.372   5.817   5.127
 9873SOL     OW30517   2.298   2.556   0.813
 9873SOL    HW130518   2.351   2.622   0.865
 9873SOL    HW230519   2.216   2.531   0.864
 9874SOL     OW30520   6.494   3.091   5.387
 9874SOL    HW130521   6.539   3.014   5.433
 9874SOL    HW230522   6.548   3.174   5.400
 9875SOL     OW30523   6.048   5.771   2.093
 9875SOL    HW130524   6.091   5.741   2.008
 9875SOL    HW230525   6.116   5.812   2.153
 9876SOL     OW30526   5.168   6.615   4.150
 9876SOL    HW130527   5.172   6.517   4.130
 9876SOL    HW230528   5.261   6.652   4.154
 9877SOL     OW30529   6.721   4.910   3.869
 9877SOL    HW130530   6.718   4.929   3.967
 9877SOL    HW230531   6.810   4.869   3.845
 9878SOL     OW30532   2.941   3.121   6.168
 9878SOL    HW130533   2.994   3.133   6.252
 9878SOL    HW230534   3.004   3.115   6.090
 9879SOL     OW30535   4.989   5.203   5.731
 9879SOL    HW130536   4.906   5.239   5.686
 9879SOL    HW230537   5.049   5.279   5.755
 9880SOL     OW30538   3.290   0.906   1.020
 9880SOL    HW130539   3.275   0.808   1.005
 9880SOL    HW230540   3.378   0.933   0.980
 9881SOL     OW30541   0.027   1.554   4.955
 9881SOL    HW130542   6.998   1.466   4.960
 9881SOL    HW230543   0.049   1.584   5.048
 9882SOL     OW30544   2.404   3.807   5.619
 9882SOL    HW130545   2.397   3.820   5.520
 9882SOL    HW230546   2.461   3.879   5.658
 9883SOL     OW30547   1.040   6.528   1.001
 9883SOL    HW130548   1.094   6.612   0.988
 9883SOL    HW230549   0.990   6.507   0.917
 9884SOL     OW30550   4.417   1.611   0.703
 9884SOL    HW130551   4.516   1.626   0.716
 9884SOL    HW230552   4.373   1.603   0.793
 9885SOL     OW30553   0.314   3.144   4.665
 9885SOL    HW130554   0.290   3.087   4.586
 9885SOL    HW230555   0.354   3.230   4.633
 9886SOL     OW30556   0.924   5.816   1.168
 9886SOL    HW130557   0.956   5.786   1.078
 9886SOL    HW230558   0.862   5.747   1.206
 9887SOL     OW30559   4.164   6.755   6.965
 9887SOL    HW130560   4.195   6.727   0.037
 9887SOL    HW230561   4.072   6.794   6.971
 9888SOL     OW30562   5.501   5.124   3.247
 9888SOL    HW130563   5.459   5.215   3.241
 9888SOL    HW230564   5.586   5.124   3.195
 9889SOL     OW30565   6.692   4.134   1.710
 9889SOL    HW130566   6.611   4.115   1.765
 9889SOL    HW230567   6.694   4.073   1.631
 9890SOL     OW30568   0.735   2.077   1.191
 9890SOL    HW130569   0.777   1.988   1.179
 9890SOL    HW230570   0.786   2.129   1.259
 9891SOL     OW30571   6.063   3.633   1.320
 9891SOL    HW130572   6.012   3.581   1.388
 9891SOL    HW230573   6.014   3.631   1.233
 9892SOL     OW30574   1.605   5.273   3.305
 9892SOL    HW130575   1.581   5.351   3.363
 9892SOL    HW230576   1.598   5.189   3.358
 9893SOL     OW30577   6.854   0.141   2.123
 9893SOL    HW130578   6.848   0.177   2.216
 9893SOL    HW230579   6.842   0.042   2.125
 9894SOL     OW30580   2.895   1.819   6.134
 9894SOL    HW130581   2.958   1.895   6.146
 9894SOL    HW230582   2.834   1.838   6.056
 9895SOL     OW30583   5.636   2.997   5.626
 9895SOL    HW130584   5.566   3.067   5.645
 9895SOL    HW230585   5.608   2.911   5.668
 9896SOL     OW30586   5.152   1.559   0.451
 9896SOL    HW130587   5.105   1.561   0.363
 9896SOL    HW230588   5.251   1.549   0.435
 9897SOL     OW30589   5.148   6.797   2.621
 9897SOL    HW130590   5.166   6.698   2.620
 9897SOL    HW230591   5.074   6.818   2.557
 9898SOL     OW30592   0.570   4.807   5.567
 9898SOL    HW130593   0.517   4.785   5.649
 9898SOL    HW230594   0.623   4.726   5.540
 9899SOL     OW30595   0.510   5.377   2.488
 9899SOL    HW130596   0.549   5.298   2.441
 9899SOL    HW230597   0.480   5.350   2.580
 9900SOL     OW30598   2.123   3.088   2.811
 9900SOL    HW130599   2.070   3.142   2.745
 9900SOL    HW230600   2.151   3.146   2.887
 9901SOL     OW30601   2.449   0.917   0.163
 9901SOL    HW130602   2.486   0.900   0.254
 9901SOL    HW230603   2.350   0.932   0.170
 9902SOL     OW30604   4.497   3.833   1.035
 9902SOL    HW130605   4.480   3.923   1.075
 9902SOL    HW230606   4.474   3.834   0.938
 9903SOL     OW30607   5.321   0.451   1.396
 9903SOL    HW130608   5.363   0.447   1.487
 9903SOL    HW230609   5.388   0.422   1.328
 9904SOL     OW30610   0.373   3.778   6.051
 9904SOL    HW130611   0.325   3.857   6.015
 9904SOL    HW230612   0.417   3.727   5.977
 9905SOL     OW30613   1.558   0.397   6.326
 9905SOL    HW130614   1.525   0.468   6.387
 9905SOL    HW230615   1.555   0.430   6.231
 9906SOL     OW30616   2.314   3.751   6.968
 9906SOL    HW130617   2.244   3.709   0.006
 9906SOL    HW230618   2.277   3.767   6.876
 9907SOL     OW30619   1.586   0.871   2.684
 9907SOL    HW130620   1.563   0.907   2.774
 9907SOL    HW230621   1.678   0.901   2.659
 9908SOL     OW30622   0.961   3.378   5.967
 9908SOL    HW130623   1.033   3.367   5.899
 9908SOL    HW230624   0.872   3.387   5.921
 9909SOL     OW30625   3.999   0.910   2.986
 9909SOL    HW130626   3.947   0.927   2.902
 9909SOL    HW230627   3.941   0.861   3.051
 9910SOL     OW30628   1.119   5.264   1.555
 9910SOL    HW130629   1.027   5.301   1.567
 9910SOL    HW230630   1.113   5.168   1.527
 9911SOL     OW30631   3.976   5.618   2.126
 9911SOL    HW130632   3.955   5.553   2.053
 9911SOL    HW230633   3.973   5.711   2.090
 9912SOL     OW30634   4.480   1.254   1.617
 9912SOL    HW130635   4.539   1.291   1.688
 9912SOL    HW230636   4.414   1.324   1.588
 9913SOL     OW30637   6.230   3.201   1.166
 9913SOL    HW130638   6.321   3.171   1.196
 9913SOL    HW230639   6.189   3.131   1.107
 9914SOL     OW30640   0.262   6.804   4.934
 9914SOL    HW130641   0.285   6.746   4.855
 9914SOL    HW230642   0.164   6.821   4.936
 9915SOL     OW30643   5.486   2.620   3.917
 9915SOL    HW130644   5.544   2.688   3.871
 9915SOL    HW230645   5.412   2.667   3.964
 9916SOL     OW30646   2.021   2.154   3.413
 9916SOL    HW130647   1.958   2.214   3.363
 9916SOL    HW230648   2.030   2.187   3.507
 9917SOL     OW30649   3.597   3.544   4.878
 9917SOL    HW130650   3.678   3.602   4.887
 9917SOL    HW230651   3.614   3.474   4.809
 9918SOL     OW30652   0.947   2.464   1.852
 9918SOL    HW130653   0.994   2.545   1.816
 9918SOL    HW230654   0.865   2.447   1.797
 9919SOL     OW30655   2.373   5.908   2.072
 9919SOL    HW130656   2.337   5.941   2.159
 9919SOL    HW230657   2.365   5.981   2.003
 9920SOL     OW30658   3.979   6.809   2.501
 9920SOL    HW130659   4.061   6.753   2.511
 9920SOL    HW230660   3.997   6.883   2.436
 9921SOL     OW30661   4.570   0.002   4.696
 9921SOL    HW130662   4.544   7.007   4.791
 9921SOL    HW230663   4.665   0.034   4.691
 9922SOL     OW30664   4.829   4.557   0.975
 9922SOL    HW130665   4.897   4.483   0.977
 9922SOL    HW230666   4.795   4.567   0.881
 9923SOL     OW30667   6.467   3.029   0.091
 9923SOL    HW130668   6.442   3.012   7.015
 9923SOL    HW230669   6.515   2.949   0.128
 9924SOL     OW30670   4.638   1.753   3.336
 9924SOL    HW130671   4.722   1.767   3.285
 9924SOL    HW230672   4.560   1.785   3.282
 9925SOL     OW30673   1.577   4.792   3.648
 9925SOL    HW130674   1.645   4.863   3.631
 9925SOL    HW230675   1.620   4.717   3.699
 9926SOL     OW30676   3.318   2.569   0.686
 9926SOL    HW130677   3.417   2.558   0.681
 9926SOL    HW230678   3.296   2.666   0.692
 9927SOL     OW30679   1.020   1.442   1.192
 9927SOL    HW130680   1.007   1.415   1.288
 9927SOL    HW230681   1.073   1.526   1.188
 9928SOL     OW30682   5.082   4.014   3.001
 9928SOL    HW130683   5.176   3.993   3.026
 9928SOL    HW230684   5.020   3.956   3.053
 9929SOL     OW30685   2.977   3.987   4.853
 9929SOL    HW130686   2.885   3.950   4.838
 9929SOL    HW230687   2.985   4.020   4.947
 9930SOL     OW30688   0.917   0.440   6.355
 9930SOL    HW130689   1.007   0.478   6.375
 9930SOL    HW230690   0.926   0.367   6.287
 9931SOL     OW30691   6.748   5.618   3.816
 9931SOL    HW130692   6.815   5.659   3.878
 9931SOL    HW230693   6.662   5.670   3.821
 9932SOL     OW30694   2.512   1.842   6.201
 9932SOL    HW130695   2.525   1.844   6.300
 9932SOL    HW230696   2.446   1.771   6.177
 9933SOL     OW30697   1.677   0.776   4.247
 9933SOL    HW130698   1.656   0.747   4.340
 9933SOL    HW230699   1.760   0.730   4.216
 9934SOL     OW30700   6.324   1.832   0.263
 9934SOL    HW130701   6.309   1.781   0.179
 9934SOL    HW230702   6.246   1.892   0.280
 9935SOL     OW30703   3.279   0.650   0.915
 9935SOL    HW130704   3.309   0.556   0.898
 9935SOL    HW230705   3.179   0.652   0.920
 9936SOL     OW30706   7.004   4.981   0.561
 9936SOL    HW130707   0.009   4.918   0.635
 9936SOL    HW230708   6.917   4.954   0.520
 9937SOL     OW30709   1.447   1.150   2.601
 9937SOL    HW130710   1.451   1.052   2.619
 9937SOL    HW230711   1.421   1.165   2.505
 9938SOL     OW30712   5.985   6.252   4.343
 9938SOL    HW130713   5.922   6.182   4.310
 9938SOL    HW230714   5.953   6.287   4.431
 9939SOL     OW30715   2.554   2.921   0.743
 9939SOL    HW130716   2.483   2.958   0.684
 9939SOL    HW230717   2.520   2.839   0.790
 9940SOL     OW30718   1.192   0.320   2.405
 9940SOL    HW130719   1.201   0.412   2.444
 9940SOL    HW230720   1.123   0.269   2.455
 9941SOL     OW30721   2.830   5.707   5.498
 9941SOL    HW130722   2.750   5.740   5.548
 9941SOL    HW230723   2.833   5.607   5.504
 9942SOL     OW30724   4.608   5.557   2.289
 9942SOL    HW130725   4.562   5.630   2.238
 9942SOL    HW230726   4.554   5.473   2.283
 9943SOL     OW30727   0.971   4.292   6.749
 9943SOL    HW130728   0.974   4.208   6.804
 9943SOL    HW230729   0.984   4.270   6.653
 9944SOL     OW30730   0.485   4.824   6.247
 9944SOL    HW130731   0.476   4.922   6.265
 9944SOL    HW230732   0.471   4.807   6.149
 9945SOL     OW30733   5.646   4.110   6.648
 9945SOL    HW130734   5.617   4.049   6.721
 9945SOL    HW230735   5.691   4.058   6.576
 9946SOL     OW30736   6.233   0.278   3.326
 9946SOL    HW130737   6.237   0.181   3.302
 9946SOL    HW230738   6.159   0.293   3.391
 9947SOL     OW30739   3.350   1.854   4.446
 9947SOL    HW130740   3.441   1.818   4.429
 9947SOL    HW230741   3.281   1.792   4.407
 9948SOL     OW30742   6.955   5.574   5.078
 9948SOL    HW130743   6.870   5.565   5.130
 9948SOL    HW230744   6.978   5.671   5.068
 9949SOL     OW30745   0.083   5.164   3.449
 9949SOL    HW130746   0.171   5.179   3.404
 9949SOL    HW230747   0.095   5.103   3.526
 9950SOL     OW30748   0.270   5.763   6.514
 9950SOL    HW130749   0.339   5.803   6.574
 9950SOL    HW230750   0.209   5.705   6.568
 9951SOL     OW30751   1.841   2.319   3.312
 9951SOL    HW130752   1.808   2.343   3.221
 9951SOL    HW230753   1.765   2.287   3.369
 9952SOL     OW30754   1.459   3.832   0.633
 9952SOL    HW130755   1.524   3.906   0.648
 9952SOL    HW230756   1.496   3.747   0.670
 9953SOL     OW30757   5.875   2.904   3.976
 9953SOL    HW130758   5.834   2.978   3.923
 9953SOL    HW230759   5.908   2.833   3.914
 9954SOL     OW30760   1.049   0.191   4.488
 9954SOL    HW130761   1.077   0.277   4.531
 9954SOL    HW230762   1.111   0.118   4.517
 9955SOL     OW30763   3.537   3.331   6.757
 9955SOL    HW130764   3.461   3.395   6.748
 9955SOL    HW230765   3.556   3.315   6.854
 9956SOL     OW30766   0.547   3.723   2.835
 9956SOL    HW130767   0.580   3.814   2.861
 9956SOL    HW230768   0.455   3.732   2.795
 9957SOL     OW30769   6.114   0.164   2.743
 9957SOL    HW130770   6.161   0.201   2.823
 9957SOL    HW230771   6.171   0.092   2.702
 9958SOL     OW30772   2.930   5.999   6.405
 9958SOL    HW130773   2.929   6.081   6.463
 9958SOL    HW230774   2.870   5.929   6.445
 9959SOL     OW30775   4.129   3.626   3.258
 9959SOL    HW130776   4.190   3.703   3.276
 9959SOL    HW230777   4.136   3.600   3.162
 9960SOL     OW30778   0.544   6.436   2.125
 9960SOL    HW130779   0.525   6.512   2.063
 9960SOL    HW230780   0.570   6.355   2.073
 9961SOL     OW30781   1.834   5.009   3.304
 9961SOL    HW130782   1.751   4.973   3.346
 9961SOL    HW230783   1.890   5.054   3.374
 9962SOL     OW30784   4.479   0.554   2.308
 9962SOL    HW130785   4.522   0.576   2.395
 9962SOL    HW230786   4.382   0.581   2.310
 9963SOL     OW30787   2.539   2.535   5.638
 9963SOL    HW130788   2.576   2.575   5.554
 9963SOL    HW230789   2.596   2.458   5.667
 9964SOL     OW30790   4.241   5.064   6.018
 9964SOL    HW130791   4.252   4.968   6.043
 9964SOL    HW230792   4.144   5.082   6.001
 9965SOL     OW30793   3.667   5.011   5.171
 9965SOL    HW130794   3.696   5.010   5.075
 9965SOL    HW230795   3.695   5.098   5.212
 9966SOL     OW30796   2.079   5.296   1.881
 9966SOL    HW130797   2.161   5.269   1.832
 9966SOL    HW230798   2.094   5.288   1.979
 9967SOL     OW30799   4.853   5.148   2.120
 9967SOL    HW130800   4.870   5.162   2.218
 9967SOL    HW230801   4.921   5.199   2.067
 9968SOL     OW30802   3.176   5.540   6.571
 9968SOL    HW130803   3.217   5.526   6.661
 9968SOL    HW230804   3.228   5.609   6.522
 9969SOL     OW30805   1.234   3.009   4.027
 9969SOL    HW130806   1.171   2.959   4.087
 9969SOL    HW230807   1.206   3.105   4.021
 9970SOL     OW30808   6.873   4.414   2.227
 9970SOL    HW130809   6.799   4.386   2.165
 9970SOL    HW230810   6.940   4.468   2.176
 9971SOL     OW30811   2.354   4.401   0.474
 9971SOL    HW130812   2.424   4.455   0.521
 9971SOL    HW230813   2.305   4.458   0.409
 9972SOL     OW30814   3.828   4.562   0.758
 9972SOL    HW130815   3.859   4.584   0.850
 9972SOL    HW230816   3.800   4.646   0.711
 9973SOL     OW30817   3.971   1.464   4.800
 9973SOL    HW130818   3.985   1.367   4.781
 9973SOL    HW230819   4.057   1.505   4.830
 9974SOL     OW30820   6.648   3.999   2.891
 9974SOL    HW130821   6.647   4.080   2.949
 9974SOL    HW230822   6.742   3.970   2.875
 9975SOL     OW30823   6.969   4.701   6.716
 9975SOL    HW130824   6.975   4.693   6.815
 9975SOL    HW230825   6.960   4.797   6.690
 9976SOL     OW30826   6.390   5.017   5.627
 9976SOL    HW130827   6.297   5.052   5.623
 9976SOL    HW230828   6.429   5.014   5.535
 9977SOL     OW30829   6.711   5.073   6.057
 9977SOL    HW130830   6.628   5.045   6.008
 9977SOL    HW230831   6.689   5.087   6.154
 9978SOL     OW30832   5.949   1.284   4.403
 9978SOL    HW130833   5.984   1.369   4.364
 9978SOL    HW230834   5.988   1.271   4.494
 9979SOL     OW30835   6.834   4.688   6.277
 9979SOL    HW130836   6.774   4.636   6.216
 9979SOL    HW230837   6.930   4.672   6.251
 9980SOL     OW30838   1.678   0.925   0.106
 9980SOL    HW130839   1.766   0.927   0.057
 9980SOL    HW230840   1.692   0.960   0.199
 9981SOL     OW30841   2.481   2.056   0.784
 9981SOL    HW130842   2.413   2.124   0.812
 9981SOL    HW230843   2.551   2.048   0.855
 9982SOL     OW30844   1.314   1.586   3.193
 9982SOL    HW130845   1.243   1.549   3.253
 9982SOL    HW230846   1.291   1.567   3.098
 9983SOL     OW30847   1.254   1.078   1.534
 9983SOL    HW130848   1.165   1.038   1.513
 9983SOL    HW230849   1.324   1.036   1.477
 9984SOL     OW30850   0.646   0.200   0.715
 9984SOL    HW130851   0.547   0.195   0.728
 9984SOL    HW230852   0.667   0.182   0.619
 9985SOL     OW30853   3.560   0.118   1.336
 9985SOL    HW130854   3.650   0.159   1.352
 9985SOL    HW230855   3.567   0.019   1.341
 9986SOL     OW30856   4.887   4.048   6.533
 9986SOL    HW130857   4.863   4.015   6.624
 9986SOL    HW230858   4.808   4.037   6.472
 9987SOL     OW30859   5.799   2.168   2.226
 9987SOL    HW130860   5.779   2.088   2.283
 9987SOL    HW230861   5.895   2.167   2.199
 9988SOL     OW30862   6.925   5.210   4.753
 9988SOL    HW130863   6.998   5.145   4.775
 9988SOL    HW230864   6.847   5.195   4.814
 9989SOL     OW30865   5.793   3.429   3.071
 9989SOL    HW130866   5.813   3.355   3.006
 9989SOL    HW230867   5.700   3.418   3.105
 9990SOL     OW30868   2.416   6.900   3.313
 9990SOL    HW130869   2.327   6.923   3.352
 9990SOL    HW230870   2.474   6.860   3.385
 9991SOL     OW30871   1.127   3.043   4.954
 9991SOL    HW130872   1.073   3.097   4.890
 9991SOL    HW230873   1.140   2.951   4.916
 9992SOL     OW30874   4.114   3.350   0.493
 9992SOL    HW130875   4.141   3.408   0.417
 9992SOL    HW230876   4.181   3.357   0.566
 9993SOL     OW30877   3.904   6.286   2.493
 9993SOL    HW130878   3.898   6.187   2.508
 9993SOL    HW230879   3.842   6.332   2.556
 9994SOL     OW30880   6.624   4.153   4.163
 9994SOL    HW130881   6.607   4.058   4.137
 9994SOL    HW230882   6.719   4.163   4.192
 9995SOL     OW30883   3.263   0.093   3.225
 9995SOL    HW130884   3.350   0.133   3.255
 9995SOL    HW230885   3.245   0.122   3.131
 9996SOL     OW30886   2.837   2.748   0.948
 9996SOL    HW130887   2.816   2.845   0.959
 9996SOL    HW230888   2.757   2.693   0.973
 9997SOL     OW30889   4.671   1.590   1.003
 9997SOL    HW130890   4.728   1.671   1.007
 9997SOL    HW230891   4.684   1.545   0.915
 9998SOL     OW30892   5.649   3.664   2.900
 9998SOL    HW130893   5.705   3.592   2.943
 9998SOL    HW230894   5.661   3.661   2.801
 9999SOL     OW30895   6.510   5.733   5.044
 9999SOL    HW130896   6.411   5.729   5.033
 9999SOL    HW230897   6.533   5.725   5.141
10000SOL     OW30898   6.239   1.677   0.040
10000SOL    HW130899   6.168   1.707   6.995
10000SOL    HW230900   6.278   1.590   0.008
10001SOL     OW30901   5.055   0.413   1.600
10001SOL    HW130902   5.150   0.438   1.581
10001SOL    HW230903   4.998   0.495   1.597
10002SOL     OW30904   1.265   1.376   1.488
10002SOL    HW130905   1.309   1.287   1.498
10002SOL    HW230906   1.297   1.421   1.405
10003SOL     OW30907   3.909   2.057   2.947
10003SOL    HW130908   3.896   2.122   2.872
10003SOL    HW230909   3.990   2.001   2.929
10004SOL     OW30910   5.684   2.895   4.728
10004SOL    HW130911   5.642   2.984   4.747
10004SOL    HW230912   5.612   2.829   4.707
10005SOL     OW30913   4.401   5.399   3.143
10005SOL    HW130914   4.339   5.361   3.212
10005SOL    HW230915   4.363   5.384   3.052
10006SOL     OW30916   4.984   1.292   4.971
10006SOL    HW130917   4.920   1.278   4.896
10006SOL    HW230918   5.042   1.371   4.951
10007SOL     OW30919   1.031   4.026   5.004
10007SOL    HW130920   1.113   3.996   4.956
10007SOL    HW230921   1.051   4.109   5.056
10008SOL     OW30922   4.396   1.131   3.218
10008SOL    HW130923   4.411   1.168   3.310
10008SOL    HW230924   4.393   1.031   3.223
10009SOL     OW30925   1.641   3.650   2.418
10009SOL    HW130926   1.698   3.680   2.342
10009SOL    HW230927   1.653   3.552   2.432
10010SOL     OW30928   2.281   6.618   0.195
10010SOL    HW130929   2.194   6.659   0.168
10010SOL    HW230930   2.321   6.570   0.117
10011SOL     OW30931   0.890   3.354   6.238
10011SOL    HW130932   0.933   3.384   6.322
10011SOL    HW230933   0.946   3.382   6.160
10012SOL     OW30934   4.980   6.809   2.391
10012SOL    HW130935   4.962   6.890   2.336
10012SOL    HW230936   4.895   6.774   2.429
10013SOL     OW30937   2.023   1.994   4.845
10013SOL    HW130938   2.044   1.958   4.754
10013SOL    HW230939   2.103   2.044   4.880
10014SOL     OW30940   0.170   1.921   1.304
10014SOL    HW130941   0.258   1.884   1.274
10014SOL    HW230942   0.096   1.870   1.260
10015SOL     OW30943   3.509   4.840   0.777
10015SOL    HW130944   3.538   4.840   0.873
10015SOL    HW230945   3.438   4.909   0.764
10016SOL     OW30946   1.922   6.813   5.054
10016SOL    HW130947   1.823   6.807   5.066
10016SOL    HW230948   1.966   6.745   5.113
10017SOL     OW30949   2.310   1.637   2.578
10017SOL    HW130950   2.357   1.559   2.619
10017SOL    HW230951   2.273   1.695   2.651
10018SOL     OW30952   5.803   4.968   5.958
10018SOL    HW130953   5.858   5.046   5.992
10018SOL    HW230954   5.724   5.003   5.908
10019SOL     OW30955   0.712   2.185   3.441
10019SOL    HW130956   0.783   2.192   3.511
10019SOL    HW230957   0.647   2.260   3.453
10020SOL     OW30958   0.479   1.314   0.945
10020SOL    HW130959   0.387   1.309   0.906
10020SOL    HW230960   0.488   1.398   0.999
10021SOL     OW30961   1.121   2.769   2.040
10021SOL    HW130962   1.031   2.731   2.062
10021SOL    HW230963   1.146   2.742   1.947
10022SOL     OW30964   3.767   6.833   1.087
10022SOL    HW130965   3.847   6.891   1.104
10022SOL    HW230966   3.718   6.818   1.173
10023SOL     OW30967   2.079   5.660   5.499
10023SOL    HW130968   2.149   5.671   5.570
10023SOL    HW230969   2.041   5.568   5.504
10024SOL     OW30970   2.242   6.442   1.622
10024SOL    HW130971   2.163   6.503   1.619
10024SOL    HW230972   2.317   6.482   1.569
10025SOL     OW30973   1.408   1.917   1.418
10025SOL    HW130974   1.368   2.003   1.449
10025SOL    HW230975   1.349   1.876   1.349
10026SOL     OW30976   4.140   6.181   3.649
10026SOL    HW130977   4.148   6.265   3.701
10026SOL    HW230978   4.051   6.178   3.603
10027SOL     OW30979   0.986   5.121   4.989
10027SOL    HW130980   1.038   5.061   4.928
10027SOL    HW230981   0.971   5.074   5.076
10028SOL     OW30982   1.384   2.177   2.006
10028SOL    HW130983   1.435   2.101   2.046
10028SOL    HW230984   1.391   2.173   1.906
10029SOL     OW30985   2.991   1.878   4.022
10029SOL    HW130986   3.035   1.875   3.932
10029SOL    HW230987   2.902   1.921   4.015
10030SOL     OW30988   2.301   6.898   4.483
10030SOL    HW130989   2.390   6.879   4.443
10030SOL    HW230990   2.236   6.921   4.410
10031SOL     OW30991   5.944   4.585   3.841
10031SOL    HW130992   5.999   4.606   3.922
10031SOL    HW230993   5.896   4.498   3.855
10032SOL     OW30994   3.670   0.687   5.185
10032SOL    HW130995   3.651   0.785   5.194
10032SOL    HW230996   3.628   0.652   5.102
10033SOL     OW30997   4.825   2.445   3.991
10033SOL    HW130998   4.919   2.480   3.985
10033SOL    HW230999   4.804   2.392   3.909
10034SOL     OW31000   3.898   0.198   3.751
10034SOL    HW131001   3.961   0.236   3.818
10034SOL    HW231002   3.911   0.099   3.746
10035SOL     OW31003   0.340   4.420   2.181
10035SOL    HW131004   0.386   4.507   2.197
10035SOL    HW231005   0.265   4.434   2.116
10036SOL     OW31006   5.812   1.088   1.274
10036SOL    HW131007   5.765   1.176   1.264
10036SOL    HW231008   5.905   1.096   1.239
10037SOL     OW31009   6.362   1.710   1.048
10037SOL    HW131010   6.462   1.702   1.054
10037SOL    HW231011   6.336   1.806   1.055
10038SOL     OW31012   4.113   1.202   6.600
10038SOL    HW131013   4.062   1.176   6.518
10038SOL    HW231014   4.051   1.204   6.678
10039SOL     OW31015   3.764   0.590   4.553
10039SOL    HW131016   3.841   0.648   4.579
10039SOL    HW231017   3.751   0.520   4.623
10040SOL     OW31018   4.195   5.788   5.871
10040SOL    HW131019   4.126   5.779   5.800
10040SOL    HW231020   4.271   5.725   5.853
10041SOL     OW31021   4.043   5.849   6.484
10041SOL    HW131022   4.104   5.802   6.420
10041SOL    HW231023   4.091   5.926   6.525
10042SOL     OW31024   1.022   1.687   4.117
10042SOL    HW131025   1.006   1.623   4.042
10042SOL    HW231026   1.012   1.640   4.204
10043SOL     OW31027   6.151   2.123   4.742
10043SOL    HW131028   6.244   2.143   4.775
10043SOL    HW231029   6.084   2.161   4.806
10044SOL     OW31030   3.426   1.293   4.912
10044SOL    HW131031   3.434   1.389   4.884
10044SOL    HW231032   3.356   1.248   4.857
10045SOL     OW31033   4.474   6.904   3.788
10045SOL    HW131034   4.471   6.971   3.862
10045SOL    HW231035   4.565   6.862   3.784
10046SOL     OW31036   2.239   3.823   1.405
10046SOL    HW131037   2.141   3.809   1.389
10046SOL    HW231038   2.271   3.758   1.474
10047SOL     OW31039   6.688   3.723   5.366
10047SOL    HW131040   6.763   3.751   5.307
10047SOL    HW231041   6.602   3.727   5.315
10048SOL     OW31042   6.533   0.622   2.996
10048SOL    HW131043   6.471   0.611   2.919
10048SOL    HW231044   6.518   0.547   3.061
10049SOL     OW31045   0.522   0.401   6.759
10049SOL    HW131046   0.481   0.421   6.848
10049SOL    HW231047   0.521   0.484   6.703
10050SOL     OW31048   5.295   3.450   5.371
10050SOL    HW131049   5.391   3.476   5.372
10050SOL    HW231050   5.263   3.442   5.276
10051SOL     OW31051   5.715   2.961   5.356
10051SOL    HW131052   5.643   3.007   5.304
10051SOL    HW231053   5.720   3.001   5.448
10052SOL     OW31054   2.092   1.778   3.110
10052SOL    HW131055   2.118   1.870   3.141
10052SOL    HW231056   1.998   1.758   3.137
10053SOL     OW31057   4.043   5.507   2.793
10053SOL    HW131058   3.960   5.494   2.738
10053SOL    HW231059   4.110   5.560   2.740
10054SOL     OW31060   5.357   5.640   6.376
10054SOL    HW131061   5.273   5.599   6.411
10054SOL    HW231062   5.426   5.640   6.448
10055SOL     OW31063   5.481   1.728   4.861
10055SOL    HW131064   5.412   1.757   4.795
10055SOL    HW231065   5.557   1.793   4.861
10056SOL     OW31066   5.438   4.178   3.401
10056SOL    HW131067   5.441   4.161   3.500
10056SOL    HW231068   5.468   4.272   3.383
10057SOL     OW31069   4.234   2.244   5.738
10057SOL    HW131070   4.270   2.152   5.751
10057SOL    HW231071   4.135   2.243   5.749
10058SOL     OW31072   0.020   3.621   5.179
10058SOL    HW131073   6.974   3.687   5.216
10058SOL    HW231074   0.021   3.628   5.079
10059SOL     OW31075   6.985   0.596   0.981
10059SOL    HW131076   6.967   0.585   0.883
10059SOL    HW231077   0.060   0.627   0.993
10060SOL     OW31078   1.889   2.606   1.929
10060SOL    HW131079   1.907   2.684   1.989
10060SOL    HW231080   1.835   2.635   1.851
10061SOL     OW31081   4.490   0.834   4.080
10061SOL    HW131082   4.498   0.846   3.981
10061SOL    HW231083   4.576   0.862   4.123
10062SOL     OW31084   6.143   0.435   4.160
10062SOL    HW131085   6.160   0.523   4.115
10062SOL    HW231086   6.048   0.429   4.188
10063SOL     OW31087   2.515   0.995   4.060
10063SOL    HW131088   2.562   1.004   3.973
10063SOL    HW231089   2.498   1.085   4.099
10064SOL     OW31090   5.050   0.041   6.963
10064SOL    HW131091   4.951   0.053   6.954
10064SOL    HW231092   5.084   7.003   6.889
10065SOL     OW31093   3.462   0.287   2.473
10065SOL    HW131094   3.466   0.284   2.573
10065SOL    HW231095   3.548   0.251   2.435
10066SOL     OW31096   0.313   2.452   4.086
10066SOL    HW131097   0.294   2.518   4.013
10066SOL    HW231098   0.367   2.377   4.049
10067SOL     OW31099   0.235   4.342   5.179
10067SOL    HW131100   0.299   4.275   5.217
10067SOL    HW231101   0.278   4.433   5.180
10068SOL     OW31102   0.147   3.639   3.485
10068SOL    HW131103   0.155   3.540   3.502
10068SOL    HW231104   0.094   3.654   3.401
10069SOL     OW31105   2.708   5.475   2.426
10069SOL    HW131106   2.784   5.540   2.418
10069SOL    HW231107   2.708   5.415   2.346
10070SOL     OW31108   0.206   6.396   5.429
10070SOL    HW131109   0.118   6.367   5.465
10070SOL    HW231110   0.256   6.317   5.394
10071SOL     OW31111   6.241   5.777   5.111
10071SOL    HW131112   6.236   5.771   5.211
10071SOL    HW231113   6.235   5.873   5.083
10072SOL     OW31114   6.366   6.565   4.315
10072SOL    HW131115   6.399   6.535   4.225
10072SOL    HW231116   6.437   6.549   4.383
10073SOL     OW31117   6.229   5.128   4.807
10073SOL    HW131118   6.173   5.046   4.821
10073SOL    HW231119   6.277   5.121   4.720
10074SOL     OW31120   1.834   0.092   5.105
10074SOL    HW131121   1.920   0.057   5.143
10074SOL    HW231122   1.779   0.015   5.073
10075SOL     OW31123   1.469   2.627   2.533
10075SOL    HW131124   1.511   2.708   2.491
10075SOL    HW231125   1.370   2.630   2.519
10076SOL     OW31126   6.245   6.377   3.887
10076SOL    HW131127   6.219   6.298   3.942
10076SOL    HW231128   6.227   6.461   3.938
10077SOL     OW31129   4.302   3.136   6.800
10077SOL    HW131130   4.263   3.224   6.828
10077SOL    HW231131   4.353   3.097   6.877
10078SOL     OW31132   0.299   5.787   3.392
10078SOL    HW131133   0.358   5.851   3.441
10078SOL    HW231134   0.209   5.829   3.378
10079SOL     OW31135   5.498   3.087   3.627
10079SOL    HW131136   5.411   3.038   3.631
10079SOL    HW231137   5.488   3.176   3.673
10080SOL     OW31138   4.234   0.500   5.620
10080SOL    HW131139   4.151   0.508   5.564
10080SOL    HW231140   4.307   0.459   5.565
10081SOL     OW31141   6.854   1.019   0.421
10081SOL    HW131142   6.811   0.986   0.337
10081SOL    HW231143   6.800   1.094   0.459
10082SOL     OW31144   6.744   5.375   1.584
10082SOL    HW131145   6.793   5.322   1.654
10082SOL    HW231146   6.709   5.312   1.515
10083SOL     OW31147   3.814   0.255   3.346
10083SOL    HW131148   3.772   0.231   3.259
10083SOL    HW231149   3.878   0.184   3.373
10084SOL     OW31150   2.075   0.843   6.218
10084SOL    HW131151   2.163   0.834   6.170
10084SOL    HW231152   2.033   0.753   6.228
10085SOL     OW31153   2.671   5.762   0.884
10085SOL    HW131154   2.614   5.708   0.946
10085SOL    HW231155   2.765   5.730   0.890
10086SOL     OW31156   4.774   6.160   2.083
10086SOL    HW131157   4.691   6.197   2.124
10086SOL    HW231158   4.845   6.150   2.153
10087SOL     OW31159   6.511   6.451   4.109
10087SOL    HW131160   6.572   6.469   4.031
10087SOL    HW231161   6.511   6.352   4.127
10088SOL     OW31162   6.660   0.404   2.391
10088SOL    HW131163   6.743   0.347   2.397
10088SOL    HW231164   6.679   0.494   2.429
10089SOL     OW31165   2.580   1.946   3.312
10089SOL    HW131166   2.539   1.868   3.264
10089SOL    HW231167   2.637   1.912   3.387
10090SOL     OW31168   0.551   4.902   1.891
10090SOL    HW131169   0.633   4.935   1.937
10090SOL    HW231170   0.476   4.896   1.957
10091SOL     OW31171   6.896   4.961   6.649
10091SOL    HW131172   6.835   4.946   6.570
10091SOL    HW231173   6.958   5.037   6.629
10092SOL     OW31174   2.363   2.825   5.686
10092SOL    HW131175   2.423   2.755   5.649
10092SOL    HW231176   2.381   2.838   5.783
10093SOL     OW31177   4.843   3.149   5.719
10093SOL    HW131178   4.828   3.199   5.634
10093SOL    HW231179   4.757   3.144   5.770
10094SOL     OW31180   3.540   5.598   1.025
10094SOL    HW131181   3.548   5.683   0.974
10094SOL    HW231182   3.468   5.607   1.095
10095SOL     OW31183   5.559   1.709   4.052
10095SOL    HW131184   5.628   1.700   4.124
10095SOL    HW231185   5.602   1.698   3.963
10096SOL     OW31186   4.103   5.542   3.233
10096SOL    HW131187   4.045   5.584   3.303
10096SOL    HW231188   4.047   5.488   3.171
10097SOL     OW31189   1.209   2.122   6.900
10097SOL    HW131190   1.279   2.120   6.971
10097SOL    HW231191   1.128   2.171   6.933
10098SOL     OW31192   3.185   0.388   5.331
10098SOL    HW131193   3.232   0.452   5.270
10098SOL    HW231194   3.236   0.378   5.416
10099SOL     OW31195   0.894   5.174   1.326
10099SOL    HW131196   0.953   5.110   1.377
10099SOL    HW231197   0.943   5.209   1.247
10100SOL     OW31198   4.509   6.064   5.845
10100SOL    HW131199   4.486   6.090   5.751
10100SOL    HW231200   4.510   6.146   5.903
10101SOL     OW31201   6.475   3.090   1.822
10101SOL    HW131202   6.392   3.094   1.766
10101SOL    HW231203   6.547   3.143   1.778
10102SOL     OW31204   7.005   1.000   2.166
10102SOL    HW131205   0.016   1.095   2.157
10102SOL    HW231206   0.038   0.955   2.238
10103SOL     OW31207   3.335   0.379   5.568
10103SOL    HW131208   3.307   0.318   5.642
10103SOL    HW231209   3.422   0.422   5.590
10104SOL     OW31210   0.999   2.090   5.053
10104SOL    HW131211   0.972   2.169   4.999
10104SOL    HW231212   0.919   2.035   5.075
10105SOL     OW31213   1.799   0.970   6.819
10105SOL    HW131214   1.773   0.874   6.831
10105SOL    HW231215   1.893   0.974   6.783
10106SOL     OW31216   3.997   6.484   0.711
10106SOL    HW131217   4.073   6.445   0.763
10106SOL    HW231218   3.922   6.418   0.708
10107SOL     OW31219   4.912   1.466   5.403
10107SOL    HW131220   4.865   1.401   5.342
10107SOL    HW231221   4.972   1.416   5.465
10108SOL     OW31222   0.227   0.914   0.434
10108SOL    HW131223   0.321   0.946   0.448
10108SOL    HW231224   0.166   0.993   0.430
10109SOL     OW31225   6.405   1.178   0.018
10109SOL    HW131226   6.373   1.087   7.009
10109SOL    HW231227   6.381   1.193   0.114
10110SOL     OW31228   5.133   5.055   4.164
10110SOL    HW131229   5.134   4.979   4.229
10110SOL    HW231230   5.092   5.136   4.208
10111SOL     OW31231   6.020   3.482   4.155
10111SOL    HW131232   6.059   3.396   4.123
10111SOL    HW231233   5.993   3.473   4.250
10112SOL     OW31234   5.771   3.657   3.698
10112SOL    HW131235   5.706   3.709   3.754
10112SOL    HW231236   5.799   3.713   3.620
10113SOL     OW31237   4.046   0.045   6.699
10113SOL    HW131238   4.058   6.968   6.675
10113SOL    HW231239   3.959   0.057   6.747
10114SOL     OW31240   4.027   2.156   2.166
10114SOL    HW131241   3.942   2.178   2.120
10114SOL    HW231242   4.064   2.071   2.130
10115SOL     OW31243   3.891   1.168   5.264
10115SOL    HW131244   3.874   1.153   5.167
10115SOL    HW231245   3.815   1.218   5.304
10116SOL     OW31246   1.211   0.664   0.254
10116SOL    HW131247   1.188   0.585   0.198
10116SOL    HW231248   1.308   0.686   0.242
10117SOL     OW31249   6.700   6.208   6.251
10117SOL    HW131250   6.678   6.303   6.274
10117SOL    HW231251   6.725   6.159   6.335
10118SOL     OW31252   1.772   4.311   3.234
10118SOL    HW131253   1.728   4.244   3.295
10118SOL    HW231254   1.709   4.334   3.160
10119SOL     OW31255   6.605   5.047   4.807
10119SOL    HW131256   6.623   4.957   4.767
10119SOL    HW231257   6.518   5.046   4.855
10120SOL     OW31258   2.153   3.050   4.484
10120SOL    HW131259   2.197   2.961   4.498
10120SOL    HW231260   2.183   3.113   4.556
10121SOL     OW31261   5.894   4.287   6.810
10121SOL    HW131262   5.798   4.277   6.836
10121SOL    HW231263   5.915   4.224   6.735
10122SOL     OW31264   5.387   3.084   3.030
10122SOL    HW131265   5.461   3.017   3.040
10122SOL    HW231266   5.305   3.052   3.076
10123SOL     OW31267   5.447   5.870   0.584
10123SOL    HW131268   5.405   5.781   0.563
10123SOL    HW231269   5.413   5.938   0.519
10124SOL     OW31270   1.446   5.280   0.594
10124SOL    HW131271   1.513   5.299   0.665
10124SOL    HW231272   1.492   5.268   0.506
10125SOL     OW31273   2.024   1.695   1.095
10125SOL    HW131274   2.071   1.681   1.008
10125SOL    HW231275   2.047   1.619   1.157
10126SOL     OW31276   6.970   6.950   0.228
10126SOL    HW131277   6.870   6.956   0.226
10126SOL    HW231278   7.000   6.930   0.321
10127SOL     OW31279   2.528   4.204   0.423
10127SOL    HW131280   2.536   4.195   0.324
10127SOL    HW231281   2.459   4.272   0.446
10128SOL     OW31282   3.120   0.903   6.609
10128SOL    HW131283   3.032   0.856   6.607
10128SOL    HW231284   3.191   0.844   6.569
10129SOL     OW31285   6.467   1.535   3.010
10129SOL    HW131286   6.497   1.493   3.096
10129SOL    HW231287   6.367   1.539   3.008
10130SOL     OW31288   1.424   3.426   1.306
10130SOL    HW131289   1.358   3.494   1.339
10130SOL    HW231290   1.392   3.389   1.218
10131SOL     OW31291   1.696   6.954   3.860
10131SOL    HW131292   1.650   6.941   3.948
10131SOL    HW231293   1.642   7.015   3.802
10132SOL     OW31294   2.657   0.217   3.301
10132SOL    HW131295   2.697   0.127   3.283
10132SOL    HW231296   2.693   0.253   3.387
10133SOL     OW31297   4.753   6.063   0.686
10133SOL    HW131298   4.845   6.024   0.681
10133SOL    HW231299   4.739   6.125   0.608
10134SOL     OW31300   6.339   0.999   2.645
10134SOL    HW131301   6.294   0.939   2.579
10134SOL    HW231302   6.332   1.094   2.614
10135SOL     OW31303   5.109   2.722   3.841
10135SOL    HW131304   5.079   2.657   3.911
10135SOL    HW231305   5.076   2.813   3.864
10136SOL     OW31306   5.187   1.674   2.127
10136SOL    HW131307   5.241   1.693   2.208
10136SOL    HW231308   5.115   1.607   2.148
10137SOL     OW31309   0.313   4.329   4.604
10137SOL    HW131310   0.219   4.321   4.570
10137SOL    HW231311   0.315   4.308   4.702
10138SOL     OW31312   5.715   3.548   0.654
10138SOL    HW131313   5.796   3.597   0.624
10138SOL    HW231314   5.662   3.518   0.575
10139SOL     OW31315   3.127   3.047   3.766
10139SOL    HW131316   3.081   3.117   3.820
10139SOL    HW231317   3.153   3.085   3.677
10140SOL     OW31318   6.967   6.003   6.839
10140SOL    HW131319   7.005   6.020   6.748
10140SOL    HW231320   6.989   6.079   6.900
10141SOL     OW31321   4.231   0.960   5.522
10141SOL    HW131322   4.231   0.904   5.605
10141SOL    HW231323   4.148   0.943   5.470
10142SOL     OW31324   5.985   6.462   5.920
10142SOL    HW131325   5.998   6.427   5.827
10142SOL    HW231326   6.036   6.547   5.931
10143SOL     OW31327   5.760   1.634   0.785
10143SOL    HW131328   5.734   1.655   0.691
10143SOL    HW231329   5.854   1.600   0.786
10144SOL     OW31330   3.756   0.097   6.435
10144SOL    HW131331   3.698   0.063   6.509
10144SOL    HW231332   3.786   0.020   6.378
10145SOL     OW31333   3.343   5.527   2.972
10145SOL    HW131334   3.326   5.476   2.888
10145SOL    HW231335   3.256   5.560   3.009
10146SOL     OW31336   5.335   4.550   4.741
10146SOL    HW131337   5.346   4.611   4.820
10146SOL    HW231338   5.424   4.508   4.719
10147SOL     OW31339   5.043   3.822   6.450
10147SOL    HW131340   5.040   3.922   6.447
10147SOL    HW231341   5.083   3.788   6.365
10148SOL     OW31342   5.525   4.986   6.732
10148SOL    HW131343   5.550   4.959   6.826
10148SOL    HW231344   5.442   5.041   6.734
10149SOL     OW31345   5.490   3.313   1.594
10149SOL    HW131346   5.432   3.272   1.524
10149SOL    HW231347   5.448   3.301   1.684
10150SOL     OW31348   3.524   2.894   1.518
10150SOL    HW131349   3.603   2.948   1.485
10150SOL    HW231350   3.550   2.798   1.522
10151SOL     OW31351   0.987   6.569   6.803
10151SOL    HW131352   0.952   6.519   6.882
10151SOL    HW231353   1.070   6.619   6.829
10152SOL     OW31354   6.976   6.461   3.797
10152SOL    HW131355   6.941   6.381   3.748
10152SOL    HW231356   0.055   6.453   3.810
10153SOL     OW31357   4.410   6.102   3.646
10153SOL    HW131358   4.473   6.158   3.593
10153SOL    HW231359   4.316   6.130   3.627
10154SOL     OW31360   3.642   6.288   4.599
10154SOL    HW131361   3.733   6.328   4.605
10154SOL    HW231362   3.645   6.193   4.631
10155SOL     OW31363   4.898   2.049   6.704
10155SOL    HW131364   4.846   2.071   6.621
10155SOL    HW231365   4.982   2.104   6.705
10156SOL     OW31366   5.664   0.414   2.096
10156SOL    HW131367   5.585   0.473   2.079
10156SOL    HW231368   5.727   0.460   2.158
10157SOL     OW31369   0.250   2.277   0.606
10157SOL    HW131370   0.255   2.371   0.574
10157SOL    HW231371   0.339   2.233   0.593
10158SOL     OW31372   6.644   5.981   0.884
10158SOL    HW131373   6.645   6.077   0.912
10158SOL    HW231374   6.573   5.968   0.814
10159SOL     OW31375   3.476   2.366   1.728
10159SOL    HW131376   3.568   2.339   1.756
10159SOL    HW231377   3.463   2.464   1.744
10160SOL     OW31378   1.245   3.021   3.292
10160SOL    HW131379   1.175   3.071   3.343
10160SOL    HW231380   1.281   2.946   3.347
10161SOL     OW31381   3.181   4.207   0.178
10161SOL    HW131382   3.202   4.109   0.188
10161SOL    HW231383   3.221   4.257   0.255
10162SOL     OW31384   2.997   5.176   0.465
10162SOL    HW131385   2.915   5.232   0.477
10162SOL    HW231386   3.060   5.193   0.540
10163SOL     OW31387   0.190   3.834   0.004
10163SOL    HW131388   0.211   3.737   0.019
10163SOL    HW231389   0.154   3.874   0.088
10164SOL     OW31390   6.304   3.917   5.064
10164SOL    HW131391   6.313   3.865   4.979
10164SOL    HW231392   6.291   4.014   5.042
10165SOL     OW31393   6.803   2.166   3.375
10165SOL    HW131394   6.728   2.182   3.311
10165SOL    HW231395   6.842   2.076   3.359
10166SOL     OW31396   2.697   1.634   1.612
10166SOL    HW131397   2.790   1.667   1.597
10166SOL    HW231398   2.632   1.698   1.571
10167SOL     OW31399   0.620   5.456   0.348
10167SOL    HW131400   0.620   5.513   0.430
10167SOL    HW231401   0.527   5.448   0.313
10168SOL     OW31402   6.621   2.109   6.047
10168SOL    HW131403   6.526   2.134   6.032
10168SOL    HW231404   6.668   2.101   5.959
10169SOL     OW31405   0.453   4.454   3.854
10169SOL    HW131406   0.465   4.355   3.848
10169SOL    HW231407   0.439   4.492   3.763
10170SOL     OW31408   6.633   5.133   6.316
10170SOL    HW131409   6.684   5.064   6.367
10170SOL    HW231410   6.562   5.173   6.375
10171SOL     OW31411   0.720   2.949   5.107
10171SOL    HW131412   0.803   2.947   5.163
10171SOL    HW231413   0.705   2.859   5.066
10172SOL     OW31414   0.890   5.970   4.300
10172SOL    HW131415   0.947   5.927   4.370
10172SOL    HW231416   0.858   6.059   4.333
10173SOL     OW31417   1.787   2.575   0.772
10173SOL    HW131418   1.843   2.559   0.854
10173SOL    HW231419   1.813   2.510   0.701
10174SOL     OW31420   5.059   4.753   3.394
10174SOL    HW131421   5.130   4.744   3.465
10174SOL    HW231422   5.094   4.810   3.320
10175SOL     OW31423   5.107   2.413   3.216
10175SOL    HW131424   5.092   2.436   3.120
10175SOL    HW231425   5.030   2.358   3.249
10176SOL     OW31426   0.068   3.124   5.413
10176SOL    HW131427   7.005   3.165   5.452
10176SOL    HW231428   0.118   3.193   5.360
10177SOL     OW31429   1.843   0.958   0.752
10177SOL    HW131430   1.772   0.888   0.753
10177SOL    HW231431   1.891   0.959   0.840
10178SOL     OW31432   0.446   0.755   0.120
10178SOL    HW131433   0.516   0.684   0.126
10178SOL    HW231434   0.363   0.724   0.167
10179SOL     OW31435   0.327   2.915   6.736
10179SOL    HW131436   0.349   2.886   6.643
10179SOL    HW231437   0.288   2.839   6.787
10180SOL     OW31438   4.518   0.672   0.158
10180SOL    HW131439   4.535   0.615   0.238
10180SOL    HW231440   4.430   0.647   0.118
10181SOL     OW31441   0.194   2.543   1.209
10181SOL    HW131442   0.232   2.608   1.275
10181SOL    HW231443   0.222   2.450   1.234
10182SOL     OW31444   5.059   0.542   0.414
10182SOL    HW131445   5.057   0.531   0.513
10182SOL    HW231446   4.974   0.586   0.383
10183SOL     OW31447   5.940   2.374   5.667
10183SOL    HW131448   5.853   2.422   5.656
10183SOL    HW231449   6.004   2.432   5.717
10184SOL     OW31450   4.303   2.407   6.353
10184SOL    HW131451   4.223   2.441   6.304
10184SOL    HW231452   4.274   2.345   6.425
10185SOL     OW31453   6.214   6.341   2.016
10185SOL    HW131454   6.278   6.409   2.053
10185SOL    HW231455   6.140   6.327   2.082
10186SOL     OW31456   5.189   4.153   4.313
10186SOL    HW131457   5.205   4.224   4.244
10186SOL    HW231458   5.130   4.189   4.385
10187SOL     OW31459   0.761   4.109   6.302
10187SOL    HW131460   0.722   4.160   6.379
10187SOL    HW231461   0.834   4.163   6.261
10188SOL     OW31462   3.257   5.085   7.017
10188SOL    HW131463   3.233   5.175   6.982
10188SOL    HW231464   3.221   5.074   0.091
10189SOL     OW31465   0.474   0.938   6.437
10189SOL    HW131466   0.382   0.899   6.432
10189SOL    HW231467   0.508   0.930   6.531
10190SOL     OW31468   3.921   2.950   1.446
10190SOL    HW131469   3.899   2.975   1.540
10190SOL    HW231470   4.017   2.975   1.427
10191SOL     OW31471   4.725   4.982   6.686
10191SOL    HW131472   4.665   5.028   6.621
10191SOL    HW231473   4.765   5.049   6.748
10192SOL     OW31474   4.070   1.094   5.033
10192SOL    HW131475   4.074   1.150   4.950
10192SOL    HW231476   3.996   1.027   5.025
10193SOL     OW31477   3.194   3.294   2.750
10193SOL    HW131478   3.278   3.246   2.776
10193SOL    HW231479   3.149   3.331   2.831
10194SOL     OW31480   5.079   0.292   4.576
10194SOL    HW131481   5.098   0.306   4.673
10194SOL    HW231482   4.986   0.321   4.556
10195SOL     OW31483   6.595   6.680   0.120
10195SOL    HW131484   6.648   6.764   0.106
10195SOL    HW231485   6.629   6.633   0.202
10196SOL     OW31486   4.216   1.944   3.951
10196SOL    HW131487   4.194   2.036   3.921
10196SOL    HW231488   4.283   1.948   4.025
10197SOL     OW31489   5.127   2.190   4.113
10197SOL    HW131490   5.219   2.157   4.093
10197SOL    HW231491   5.091   2.237   4.033
10198SOL     OW31492   3.899   6.855   1.927
10198SOL    HW131493   3.998   6.843   1.916
10198SOL    HW231494   3.862   6.776   1.977
10199SOL     OW31495   0.899   2.024   0.634
10199SOL    HW131496   0.882   1.977   0.547
10199SOL    HW231497   0.948   2.109   0.618
10200SOL     OW31498   4.955   3.007   5.263
10200SOL    HW131499   4.964   3.060   5.347
10200SOL    HW231500   4.958   3.069   5.184
10201SOL     OW31501   0.926   6.368   0.464
10201SOL    HW131502   0.924   6.282   0.516
10201SOL    HW231503   0.975   6.354   0.378
10202SOL     OW31504   2.191   4.705   6.898
10202SOL    HW131505   2.265   4.721   6.833
10202SOL    HW231506   2.108   4.678   6.849
10203SOL     OW31507   0.064   2.537   2.161
10203SOL    HW131508   0.042   2.572   2.070
10203SOL    HW231509   0.037   2.441   2.167
10204SOL     OW31510   3.884   5.609   6.869
10204SOL    HW131511   3.930   5.574   6.788
10204SOL    HW231512   3.948   5.609   6.946
10205SOL     OW31513   3.307   1.105   2.387
10205SOL    HW131514   3.319   1.158   2.470
10205SOL    HW231515   3.218   1.126   2.347
10206SOL     OW31516   6.718   6.613   6.310
10206SOL    HW131517   6.812   6.598   6.343
10206SOL    HW231518   6.666   6.661   6.381
10207SOL     OW31519   1.947   1.818   0.060
10207SOL    HW131520   2.019   1.765   0.015
10207SOL    HW231521   1.872   1.758   0.087
10208SOL     OW31522   6.523   4.937   3.375
10208SOL    HW131523   6.564   4.976   3.292
10208SOL    HW231524   6.571   4.852   3.399
10209SOL     OW31525   0.006   0.010   6.398
10209SOL    HW131526   6.967   0.070   6.343
10209SOL    HW231527   0.081   0.063   6.436
10210SOL     OW31528   5.201   6.171   0.720
10210SOL    HW131529   5.171   6.251   0.771
10210SOL    HW231530   5.291   6.142   0.754
10211SOL     OW31531   3.946   6.110   4.984
10211SOL    HW131532   3.908   6.069   4.901
10211SOL    HW231533   4.037   6.073   5.001
10212SOL     OW31534   6.661   7.013   5.153
10212SOL    HW131535   6.705   0.074   5.114
10212SOL    HW231536   6.612   6.963   5.081
10213SOL     OW31537   5.409   2.957   2.669
10213SOL    HW131538   5.431   3.054   2.681
10213SOL    HW231539   5.380   2.941   2.575
10214SOL     OW31540   0.909   1.435   1.696
10214SOL    HW131541   0.825   1.487   1.683
10214SOL    HW231542   0.952   1.419   1.607
10215SOL     OW31543   3.210   3.149   3.531
10215SOL    HW131544   3.144   3.209   3.485
10215SOL    HW231545   3.241   3.079   3.467
10216SOL     OW31546   0.690   0.612   1.181
10216SOL    HW131547   0.771   0.603   1.123
10216SOL    HW231548   0.648   0.702   1.167
10217SOL     OW31549   2.014   2.608   3.220
10217SOL    HW131550   2.029   2.521   3.267
10217SOL    HW231551   1.986   2.678   3.286
10218SOL     OW31552   1.700   1.031   1.569
10218SOL    HW131553   1.733   0.947   1.610
10218SOL    HW231554   1.758   1.107   1.597
10219SOL     OW31555   0.579   2.891   2.599
10219SOL    HW131556   0.480   2.885   2.585
10219SOL    HW231557   0.600   2.872   2.694
10220SOL     OW31558   3.715   1.297   0.806
10220SOL    HW131559   3.783   1.236   0.764
10220SOL    HW231560   3.719   1.386   0.762
10221SOL     OW31561   1.859   3.835   4.453
10221SOL    HW131562   1.936   3.782   4.418
10221SOL    HW231563   1.894   3.913   4.506
10222SOL     OW31564   2.632   3.211   5.853
10222SOL    HW131565   2.662   3.142   5.918
10222SOL    HW231566   2.533   3.205   5.840
10223SOL     OW31567   2.012   6.043   6.910
10223SOL    HW131568   2.009   6.120   6.974
10223SOL    HW231569   1.981   6.074   6.820
10224SOL     OW31570   6.535   2.082   5.351
10224SOL    HW131571   6.550   1.995   5.398
10224SOL    HW231572   6.568   2.157   5.408
10225SOL     OW31573   1.825   6.452   6.091
10225SOL    HW131574   1.884   6.387   6.042
10225SOL    HW231575   1.835   6.543   6.050
10226SOL     OW31576   2.395   0.923   6.681
10226SOL    HW131577   2.337   0.897   6.758
10226SOL    HW231578   2.392   0.851   6.611
10227SOL     OW31579   5.146   4.209   0.675
10227SOL    HW131580   5.073   4.250   0.730
10227SOL    HW231581   5.188   4.278   0.617
10228SOL     OW31582   1.056   6.181   1.585
10228SOL    HW131583   1.003   6.140   1.660
10228SOL    HW231584   1.139   6.223   1.621
10229SOL     OW31585   1.422   1.579   4.016
10229SOL    HW131586   1.450   1.671   4.043
10229SOL    HW231587   1.503   1.525   3.991
10230SOL     OW31588   6.608   6.638   2.899
10230SOL    HW131589   6.677   6.696   2.856
10230SOL    HW231590   6.605   6.550   2.853
10231SOL     OW31591   6.473   5.332   5.567
10231SOL    HW131592   6.496   5.323   5.663
10231SOL    HW231593   6.523   5.265   5.513
10232SOL     OW31594   2.600   0.874   4.275
10232SOL    HW131595   2.551   0.907   4.194
10232SOL    HW231596   2.544   0.806   4.322
10233SOL     OW31597   4.687   3.339   5.321
10233SOL    HW131598   4.601   3.289   5.328
10233SOL    HW231599   4.671   3.426   5.275
10234SOL     OW31600   5.587   0.072   0.030
10234SOL    HW131601   5.495   0.069   0.068
10234SOL    HW231602   5.654   0.065   0.103
10235SOL     OW31603   3.283   2.333   0.498
10235SOL    HW131604   3.313   2.401   0.566
10235SOL    HW231605   3.313   2.242   0.526
10236SOL     OW31606   2.094   1.049   1.796
10236SOL    HW131607   2.156   0.978   1.764
10236SOL    HW231608   2.001   1.029   1.764
10237SOL     OW31609   6.791   4.324   0.346
10237SOL    HW131610   6.738   4.408   0.336
10237SOL    HW231611   6.885   4.346   0.372
10238SOL     OW31612   3.397   4.121   2.588
10238SOL    HW131613   3.451   4.137   2.670
10238SOL    HW231614   3.407   4.199   2.526
10239SOL     OW31615   2.192   4.417   5.671
10239SOL    HW131616   2.209   4.402   5.768
10239SOL    HW231617   2.134   4.498   5.659
10240SOL     OW31618   1.719   4.556   2.469
10240SOL    HW131619   1.794   4.622   2.478
10240SOL    HW231620   1.666   4.576   2.387
10241SOL     OW31621   6.643   0.035   2.851
10241SOL    HW131622   6.576   6.984   2.874
10241SOL    HW231623   6.620   0.077   2.763
10242SOL     OW31624   6.999   1.664   1.580
10242SOL    HW131625   6.911   1.711   1.591
10242SOL    HW231626   0.044   1.697   1.649
10243SOL     OW31627   1.018   4.908   1.738
10243SOL    HW131628   1.095   4.971   1.728
10243SOL    HW231629   1.004   4.887   1.835
10244SOL     OW31630   1.583   4.238   0.798
10244SOL    HW131631   1.557   4.181   0.875
10244SOL    HW231632   1.569   4.335   0.822
10245SOL     OW31633   2.787   4.955   0.504
10245SOL    HW131634   2.732   5.009   0.440
10245SOL    HW231635   2.823   5.015   0.576
10246SOL     OW31636   3.099   3.976   3.199
10246SOL    HW131637   3.150   3.891   3.186
10246SOL    HW231638   3.072   3.985   3.295
10247SOL     OW31639   6.631   4.889   5.719
10247SOL    HW131640   6.622   4.828   5.798
10247SOL    HW231641   6.547   4.942   5.709
10248SOL     OW31642   1.881   0.091   2.672
10248SOL    HW131643   1.968   0.120   2.633
10248SOL    HW231644   1.814   0.079   2.599
10249SOL     OW31645   3.000   0.210   6.774
10249SOL    HW131646   3.058   0.275   6.724
10249SOL    HW231647   3.044   0.186   6.860
10250SOL     OW31648   6.277   3.080   1.637
10250SOL    HW131649   6.311   3.022   1.562
10250SOL    HW231650   6.178   3.087   1.631
10251SOL     OW31651   2.929   1.207   4.868
10251SOL    HW131652   2.963   1.243   4.955
10251SOL    HW231653   3.001   1.216   4.798
10252SOL     OW31654   4.073   4.724   0.071
10252SOL    HW131655   4.100   4.684   7.002
10252SOL    HW231656   4.146   4.710   0.138
10253SOL     OW31657   2.528   5.779   0.653
10253SOL    HW131658   2.594   5.789   0.728
10253SOL    HW231659   2.576   5.766   0.567
10254SOL     OW31660   4.853   0.688   4.572
10254SOL    HW131661   4.936   0.704   4.519
10254SOL    HW231662   4.834   0.767   4.630
10255SOL     OW31663   1.730   6.517   0.988
10255SOL    HW131664   1.645   6.546   0.945
10255SOL    HW231665   1.807   6.551   0.935
10256SOL     OW31666   6.484   0.958   1.841
10256SOL    HW131667   6.487   0.861   1.863
10256SOL    HW231668   6.389   0.989   1.838
10257SOL     OW31669   2.280   4.881   4.867
10257SOL    HW131670   2.218   4.958   4.876
10257SOL    HW231671   2.372   4.915   4.845
10258SOL     OW31672   3.034   1.306   3.972
10258SOL    HW131673   2.972   1.230   3.957
10258SOL    HW231674   2.992   1.391   3.941
10259SOL     OW31675   0.827   4.412   2.963
10259SOL    HW131676   0.921   4.443   2.978
10259SOL    HW231677   0.800   4.432   2.868
10260SOL     OW31678   0.545   1.224   3.414
10260SOL    HW131679   0.470   1.287   3.399
10260SOL    HW231680   0.573   1.183   3.327
10261SOL     OW31681   0.011   5.946   3.170
10261SOL    HW131682   6.953   5.887   3.146
10261SOL    HW231683   0.036   5.931   3.266
10262SOL     OW31684   1.492   6.494   5.101
10262SOL    HW131685   1.474   6.537   5.190
10262SOL    HW231686   1.508   6.565   5.033
10263SOL     OW31687   5.320   0.888   5.986
10263SOL    HW131688   5.242   0.879   5.924
10263SOL    HW231689   5.294   0.859   6.078
10264SOL     OW31690   6.011   1.692   6.288
10264SOL    HW131691   5.919   1.714   6.321
10264SOL    HW231692   6.006   1.665   6.192
10265SOL     OW31693   2.735   2.371   3.054
10265SOL    HW131694   2.820   2.392   3.103
10265SOL    HW231695   2.685   2.300   3.103
10266SOL     OW31696   3.500   2.891   4.067
10266SOL    HW131697   3.503   2.889   4.167
10266SOL    HW231698   3.594   2.895   4.031
10267SOL     OW31699   6.635   2.039   6.437
10267SOL    HW131700   6.625   1.989   6.351
10267SOL    HW231701   6.558   2.017   6.498
10268SOL     OW31702   5.866   5.298   2.299
10268SOL    HW131703   5.938   5.232   2.318
10268SOL    HW231704   5.904   5.376   2.248
10269SOL     OW31705   0.687   3.366   6.996
10269SOL    HW131706   0.727   3.281   6.962
10269SOL    HW231707   0.592   3.349   0.004
10270SOL     OW31708   2.742   4.731   3.123
10270SOL    HW131709   2.776   4.754   3.215
10270SOL    HW231710   2.661   4.786   3.103
10271SOL     OW31711   3.520   2.362   6.845
10271SOL    HW131712   3.548   2.421   6.921
10271SOL    HW231713   3.510   2.268   6.878
10272SOL     OW31714   0.640   0.916   4.881
10272SOL    HW131715   0.592   0.850   4.938
10272SOL    HW231716   0.647   0.882   4.787
10273SOL     OW31717   3.173   5.671   2.676
10273SOL    HW131718   3.209   5.748   2.729
10273SOL    HW231719   3.117   5.614   2.736
10274SOL     OW31720   6.836   5.522   4.316
10274SOL    HW131721   6.932   5.545   4.331
10274SOL    HW231722   6.799   5.478   4.397
10275SOL     OW31723   1.084   6.994   2.009
10275SOL    HW131724   1.056   6.947   2.093
10275SOL    HW231725   1.025   0.054   1.994
10276SOL     OW31726   6.117   5.080   5.628
10276SOL    HW131727   6.054   5.090   5.551
10276SOL    HW231728   6.100   4.993   5.674
10277SOL     OW31729   2.250   5.675   3.822
10277SOL    HW131730   2.178   5.648   3.886
10277SOL    HW231731   2.338   5.675   3.869
10278SOL     OW31732   6.925   1.397   4.588
10278SOL    HW131733   6.879   1.374   4.503
10278SOL    HW231734   0.004   1.376   4.580
10279SOL     OW31735   3.037   5.129   3.998
10279SOL    HW131736   2.948   5.171   3.985
10279SOL    HW231737   3.105   5.199   4.019
10280SOL     OW31738   0.436   3.435   0.860
10280SOL    HW131739   0.431   3.528   0.895
10280SOL    HW231740   0.514   3.388   0.902
10281SOL     OW31741   5.778   1.085   2.316
10281SOL    HW131742   5.698   1.024   2.325
10281SOL    HW231743   5.853   1.050   2.372
10282SOL     OW31744   5.639   4.593   4.066
10282SOL    HW131745   5.681   4.680   4.093
10282SOL    HW231746   5.636   4.587   3.966
10283SOL     OW31747   0.814   4.016   0.817
10283SOL    HW131748   0.884   3.956   0.855
10283SOL    HW231749   0.834   4.111   0.842
10284SOL     OW31750   5.267   2.839   5.203
10284SOL    HW131751   5.187   2.789   5.237
10284SOL    HW231752   5.308   2.891   5.278
10285SOL     OW31753   5.463   0.612   2.009
10285SOL    HW131754   5.495   0.680   1.943
10285SOL    HW231755   5.365   0.597   1.995
10286SOL     OW31756   2.897   1.937   3.532
10286SOL    HW131757   2.947   1.924   3.446
10286SOL    HW231758   2.827   1.866   3.542
10287SOL     OW31759   2.607   6.773   1.038
10287SOL    HW131760   2.541   6.749   0.967
10287SOL    HW231761   2.698   6.783   0.997
10288SOL     OW31762   4.790   5.754   3.162
10288SOL    HW131763   4.762   5.826   3.225
10288SOL    HW231764   4.737   5.671   3.182
10289SOL     OW31765   2.183   6.703   1.946
10289SOL    HW131766   2.087   6.686   1.924
10289SOL    HW231767   2.209   6.793   1.913
10290SOL     OW31768   2.860   3.423   2.237
10290SOL    HW131769   2.852   3.353   2.308
10290SOL    HW231770   2.854   3.514   2.278
10291SOL     OW31771   3.515   1.586   3.028
10291SOL    HW131772   3.497   1.657   3.095
10291SOL    HW231773   3.476   1.500   3.059
10292SOL     OW31774   1.253   0.113   5.259
10292SOL    HW131775   1.287   0.020   5.272
10292SOL    HW231776   1.269   0.167   5.342
10293SOL     OW31777   1.499   4.442   3.491
10293SOL    HW131778   1.508   4.359   3.435
10293SOL    HW231779   1.548   4.429   3.577
10294SOL     OW31780   5.649   3.490   2.651
10294SOL    HW131781   5.549   3.499   2.657
10294SOL    HW231782   5.673   3.398   2.621
10295SOL     OW31783   5.297   4.499   5.983
10295SOL    HW131784   5.207   4.475   5.948
10295SOL    HW231785   5.298   4.493   6.083
10296SOL     OW31786   4.855   2.722   0.510
10296SOL    HW131787   4.912   2.707   0.591
10296SOL    HW231788   4.910   2.708   0.427
10297SOL     OW31789   2.436   7.018   6.600
10297SOL    HW131790   2.500   0.076   6.595
10297SOL    HW231791   2.353   0.022   6.550
10298SOL     OW31792   3.537   4.865   1.691
10298SOL    HW131793   3.569   4.798   1.758
10298SOL    HW231794   3.601   4.867   1.614
10299SOL     OW31795   4.865   5.016   3.206
10299SOL    HW131796   4.828   5.025   3.114
10299SOL    HW231797   4.863   4.920   3.234
10300SOL     OW31798   0.758   3.908   3.003
10300SOL    HW131799   0.795   3.858   2.924
10300SOL    HW231800   0.756   4.006   2.982
10301SOL     OW31801   5.767   2.340   4.171
10301SOL    HW131802   5.752   2.290   4.257
10301SOL    HW231803   5.798   2.276   4.101
10302SOL     OW31804   1.672   6.575   3.777
10302SOL    HW131805   1.752   6.626   3.808
10302SOL    HW231806   1.620   6.631   3.713
10303SOL     OW31807   1.720   5.851   2.701
10303SOL    HW131808   1.724   5.950   2.688
10303SOL    HW231809   1.761   5.827   2.789
10304SOL     OW31810   5.026   0.259   1.823
10304SOL    HW131811   5.045   0.311   1.741
10304SOL    HW231812   4.948   0.299   1.872
10305SOL     OW31813   0.815   4.486   0.192
10305SOL    HW131814   0.788   4.522   0.102
10305SOL    HW231815   0.890   4.422   0.181
10306SOL     OW31816   4.336   6.414   6.340
10306SOL    HW131817   4.355   6.508   6.311
10306SOL    HW231818   4.276   6.415   6.420
10307SOL     OW31819   2.451   1.960   5.250
10307SOL    HW131820   2.515   1.895   5.207
10307SOL    HW231821   2.430   1.929   5.343
10308SOL     OW31822   2.409   4.697   4.032
10308SOL    HW131823   2.426   4.607   4.072
10308SOL    HW231824   2.317   4.699   3.993
10309SOL     OW31825   5.699   1.523   4.597
10309SOL    HW131826   5.737   1.531   4.690
10309SOL    HW231827   5.661   1.611   4.569
10310SOL     OW31828   3.512   3.279   1.453
10310SOL    HW131829   3.526   3.269   1.551
10310SOL    HW231830   3.424   3.237   1.427
10311SOL     OW31831   1.294   6.356   6.955
10311SOL    HW131832   1.327   6.292   0.005
10311SOL    HW231833   1.332   6.447   6.972
10312SOL     OW31834   2.610   6.369   1.596
10312SOL    HW131835   2.667   6.428   1.653
10312SOL    HW231836   2.516   6.369   1.630
10313SOL     OW31837   4.969   0.037   1.338
10313SOL    HW131838   4.876   0.059   1.309
10313SOL    HW231839   5.010   6.992   1.274
10314SOL     OW31840   6.710   0.041   2.376
10314SOL    HW131841   6.646   0.056   2.300
10314SOL    HW231842   6.773   0.119   2.382
10315SOL     OW31843   6.175   6.007   4.762
10315SOL    HW131844   6.245   6.034   4.695
10315SOL    HW231845   6.144   5.914   4.742
10316SOL     OW31846   6.200   2.934   4.975
10316SOL    HW131847   6.177   2.956   5.070
10316SOL    HW231848   6.299   2.943   4.961
10317SOL     OW31849   3.224   5.806   5.889
10317SOL    HW131850   3.194   5.874   5.821
10317SOL    HW231851   3.154   5.800   5.961
10318SOL     OW31852   5.886   5.325   6.504
10318SOL    HW131853   5.855   5.310   6.410
10318SOL    HW231854   5.879   5.423   6.526
10319SOL     OW31855   1.323   2.292   5.508
10319SOL    HW131856   1.362   2.234   5.437
10319SOL    HW231857   1.230   2.261   5.529
10320SOL     OW31858   0.844   0.536   2.773
10320SOL    HW131859   0.778   0.608   2.794
10320SOL    HW231860   0.857   0.478   2.854
10321SOL     OW31861   4.949   0.531   2.679
10321SOL    HW131862   4.956   0.598   2.605
10321SOL    HW231863   4.884   0.459   2.653
10322SOL     OW31864   6.534   5.634   6.500
10322SOL    HW131865   6.564   5.540   6.519
10322SOL    HW231866   6.459   5.657   6.562
10323SOL     OW31867   6.607   3.464   6.065
10323SOL    HW131868   6.612   3.535   6.136
10323SOL    HW231869   6.698   3.446   6.029
10324SOL     OW31870   3.484   2.898   2.918
10324SOL    HW131871   3.388   2.927   2.909
10324SOL    HW231872   3.497   2.857   3.008
10325SOL     OW31873   0.254   3.767   3.027
10325SOL    HW131874   0.333   3.785   3.086
10325SOL    HW231875   0.254   3.831   2.950
10326SOL     OW31876   3.824   3.461   0.469
10326SOL    HW131877   3.853   3.545   0.516
10326SOL    HW231878   3.745   3.482   0.411
10327SOL     OW31879   2.639   2.346   2.052
10327SOL    HW131880   2.738   2.346   2.040
10327SOL    HW231881   2.615   2.403   2.131
10328SOL     OW31882   6.318   2.581   1.464
10328SOL    HW131883   6.402   2.614   1.421
10328SOL    HW231884   6.248   2.652   1.461
10329SOL     OW31885   3.685   0.387   2.643
10329SOL    HW131886   3.707   0.483   2.658
10329SOL    HW231887   3.748   0.349   2.576
10330SOL     OW31888   3.954   5.852   1.932
10330SOL    HW131889   3.862   5.891   1.935
10330SOL    HW231890   4.020   5.920   1.962
10331SOL     OW31891   6.992   0.989   4.487
10331SOL    HW131892   6.958   0.928   4.559
10331SOL    HW231893   6.914   1.020   4.431
10332SOL     OW31894   6.262   1.173   0.999
10332SOL    HW131895   6.328   1.200   0.929
10332SOL    HW231896   6.253   1.074   1.000
10333SOL     OW31897   6.724   4.604   4.560
10333SOL    HW131898   6.689   4.526   4.507
10333SOL    HW231899   6.673   4.686   4.536
10334SOL     OW31900   2.907   6.321   4.288
10334SOL    HW131901   2.958   6.250   4.239
10334SOL    HW231902   2.964   6.358   4.361
10335SOL     OW31903   2.591   4.615   6.504
10335SOL    HW131904   2.607   4.672   6.586
10335SOL    HW231905   2.498   4.579   6.506
10336SOL     OW31906   5.933   0.213   3.048
10336SOL    HW131907   5.865   0.283   3.067
10336SOL    HW231908   6.008   0.253   2.996
10337SOL     OW31909   6.715   6.736   5.487
10337SOL    HW131910   6.675   6.824   5.459
10337SOL    HW231911   6.771   6.749   5.568
10338SOL     OW31912   2.298   6.539   1.187
10338SOL    HW131913   2.257   6.588   1.110
10338SOL    HW231914   2.390   6.573   1.204
10339SOL     OW31915   2.357   5.355   0.251
10339SOL    HW131916   2.307   5.379   0.169
10339SOL    HW231917   2.454   5.344   0.229
10340SOL     OW31918   0.854   5.904   0.637
10340SOL    HW131919   0.844   5.824   0.696
10340SOL    HW231920   0.857   5.876   0.542
10341SOL     OW31921   2.097   3.262   1.958
10341SOL    HW131922   2.134   3.350   1.990
10341SOL    HW231923   2.112   3.255   1.859
10342SOL     OW31924   1.055   6.241   5.073
10342SOL    HW131925   1.019   6.204   4.987
10342SOL    HW231926   1.149   6.211   5.085
10343SOL     OW31927   1.588   4.461   0.532
10343SOL    HW131928   1.601   4.409   0.448
10343SOL    HW231929   1.547   4.550   0.511
10344SOL     OW31930   4.075   3.716   1.607
10344SOL    HW131931   4.039   3.712   1.514
10344SOL    HW231932   4.162   3.667   1.611
10345SOL     OW31933   1.804   1.319   6.276
10345SOL    HW131934   1.884   1.380   6.270
10345SOL    HW231935   1.752   1.325   6.191
10346SOL     OW31936   6.016   0.520   1.322
10346SOL    HW131937   5.980   0.432   1.352
10346SOL    HW231938   6.064   0.509   1.235
10347SOL     OW31939   5.289   2.561   2.564
10347SOL    HW131940   5.316   2.466   2.575
10347SOL    HW231941   5.363   2.612   2.521
10348SOL     OW31942   6.414   1.416   0.708
10348SOL    HW131943   6.392   1.475   0.785
10348SOL    HW231944   6.512   1.400   0.704
10349SOL     OW31945   6.630   1.713   1.019
10349SOL    HW131946   6.684   1.630   1.034
10349SOL    HW231947   6.677   1.791   1.061
10350SOL     OW31948   2.150   5.927   5.404
10350SOL    HW131949   2.221   5.953   5.469
10350SOL    HW231950   2.108   5.840   5.433
10351SOL     OW31951   5.294   5.088   6.496
10351SOL    HW131952   5.278   5.107   6.593
10351SOL    HW231953   5.378   5.036   6.485
10352SOL     OW31954   5.163   2.207   6.895
10352SOL    HW131955   5.173   2.113   6.927
10352SOL    HW231956   5.226   2.266   6.945
10353SOL     OW31957   6.036   2.587   5.335
10353SOL    HW131958   6.118   2.644   5.331
10353SOL    HW231959   5.972   2.625   5.402
10354SOL     OW31960   6.634   2.104   1.800
10354SOL    HW131961   6.691   2.182   1.827
10354SOL    HW231962   6.583   2.127   1.717
10355SOL     OW31963   1.786   0.236   1.302
10355SOL    HW131964   1.765   0.294   1.381
10355SOL    HW231965   1.810   0.293   1.224
10356SOL     OW31966   0.109   4.071   5.648
10356SOL    HW131967   0.208   4.066   5.666
10356SOL    HW231968   0.061   4.012   5.712
10357SOL     OW31969   3.510   2.706   6.507
10357SOL    HW131970   3.471   2.776   6.567
10357SOL    HW231971   3.451   2.694   6.427
10358SOL     OW31972   6.545   3.352   4.036
10358SOL    HW131973   6.487   3.426   4.071
10358SOL    HW231974   6.631   3.391   4.002
10359SOL     OW31975   5.532   1.846   2.146
10359SOL    HW131976   5.486   1.904   2.079
10359SOL    HW231977   5.492   1.862   2.236
10360SOL     OW31978   4.541   5.651   1.764
10360SOL    HW131979   4.602   5.700   1.702
10360SOL    HW231980   4.448   5.653   1.728
10361SOL     OW31981   2.702   1.156   3.084
10361SOL    HW131982   2.677   1.067   3.123
10361SOL    HW231983   2.715   1.147   2.985
10362SOL     OW31984   0.379   5.402   2.739
10362SOL    HW131985   0.336   5.454   2.813
10362SOL    HW231986   0.308   5.362   2.681
10363SOL     OW31987   4.959   2.550   1.168
10363SOL    HW131988   4.975   2.529   1.072
10363SOL    HW231989   4.927   2.644   1.177
10364SOL     OW31990   3.803   4.215   1.440
10364SOL    HW131991   3.808   4.244   1.536
10364SOL    HW231992   3.792   4.116   1.436
10365SOL     OW31993   5.081   3.962   5.846
10365SOL    HW131994   4.990   4.003   5.853
10365SOL    HW231995   5.151   4.033   5.851
10366SOL     OW31996   3.779   6.592   4.173
10366SOL    HW131997   3.782   6.679   4.124
10366SOL    HW231998   3.689   6.580   4.214
10367SOL     OW31999   6.891   2.634   1.927
10367SOL    HW132000   6.890   2.734   1.925
10367SOL    HW232001   6.933   2.599   1.843
10368SOL     OW32002   2.514   1.228   2.768
10368SOL    HW132003   2.445   1.255   2.836
10368SOL    HW232004   2.484   1.256   2.677
10369SOL     OW32005   2.636   0.121   5.330
10369SOL    HW132006   2.646   0.083   5.238
10369SOL    HW232007   2.671   0.215   5.331
10370SOL     OW32008   6.150   1.070   5.264
10370SOL    HW132009   6.194   1.063   5.354
10370SOL    HW232010   6.186   1.150   5.216
10371SOL     OW32011   1.927   6.257   4.500
10371SOL    HW132012   1.904   6.204   4.581
10371SOL    HW232013   1.963   6.197   4.429
10372SOL     OW32014   2.249   1.744   6.605
10372SOL    HW132015   2.153   1.745   6.577
10372SOL    HW232016   2.301   1.685   6.543
10373SOL     OW32017   1.652   6.261   5.091
10373SOL    HW132018   1.588   6.336   5.104
10373SOL    HW232019   1.691   6.234   5.180
10374SOL     OW32020   3.098   0.867   3.952
10374SOL    HW132021   3.153   0.841   3.872
10374SOL    HW232022   3.157   0.876   4.032
10375SOL     OW32023   2.129   2.090   5.854
10375SOL    HW132024   2.189   2.090   5.774
10375SOL    HW232025   2.037   2.061   5.827
10376SOL     OW32026   0.994   5.637   3.771
10376SOL    HW132027   1.022   5.603   3.861
10376SOL    HW232028   0.900   5.671   3.776
10377SOL     OW32029   0.266   1.036   2.945
10377SOL    HW132030   0.291   1.085   3.028
10377SOL    HW232031   0.176   1.067   2.915
10378SOL     OW32032   5.800   5.766   5.869
10378SOL    HW132033   5.885   5.723   5.838
10378SOL    HW232034   5.792   5.757   5.968
10379SOL     OW32035   3.001   6.261   3.962
10379SOL    HW132036   2.980   6.308   3.877
10379SOL    HW232037   3.077   6.307   4.007
10380SOL     OW32038   0.698   2.711   4.979
10380SOL    HW132039   0.607   2.675   4.960
10380SOL    HW232040   0.765   2.661   4.925
10381SOL     OW32041   4.231   4.171   1.011
10381SOL    HW132042   4.158   4.148   1.076
10381SOL    HW232043   4.193   4.177   0.919
10382SOL     OW32044   1.703   5.176   1.529
10382SOL    HW132045   1.770   5.143   1.462
10382SOL    HW232046   1.751   5.205   1.612
10383SOL     OW32047   1.090   4.079   1.225
10383SOL    HW132048   1.108   4.175   1.205
10383SOL    HW232049   1.132   4.054   1.312
10384SOL     OW32050   6.787   0.215   1.110
10384SOL    HW132051   6.716   0.169   1.164
10384SOL    HW232052   6.817   0.297   1.158
10385SOL     OW32053   4.176   6.058   6.034
10385SOL    HW132054   4.079   6.074   6.015
10385SOL    HW232055   4.211   5.989   5.970
10386SOL     OW32056   6.642   1.858   5.507
10386SOL    HW132057   6.592   1.810   5.580
10386SOL    HW232058   6.725   1.900   5.544
10387SOL     OW32059   4.422   1.733   2.357
10387SOL    HW132060   4.402   1.829   2.338
10387SOL    HW232061   4.353   1.695   2.418
10388SOL     OW32062   1.907   5.746   1.830
10388SOL    HW132063   1.834   5.740   1.762
10388SOL    HW232064   1.923   5.842   1.853
10389SOL     OW32065   6.110   5.736   1.333
10389SOL    HW132066   6.184   5.788   1.377
10389SOL    HW232067   6.022   5.773   1.361
10390SOL     OW32068   2.001   2.862   1.219
10390SOL    HW132069   1.912   2.826   1.189
10390SOL    HW232070   2.055   2.888   1.140
10391SOL     OW32071   6.840   6.541   3.416
10391SOL    HW132072   6.885   6.452   3.419
10391SOL    HW232073   6.813   6.562   3.322
10392SOL     OW32074   6.211   4.549   5.706
10392SOL    HW132075   6.204   4.630   5.648
10392SOL    HW232076   6.286   4.491   5.673
10393SOL     OW32077   2.306   2.518   3.352
10393SOL    HW132078   2.386   2.524   3.293
10393SOL    HW232079   2.287   2.608   3.392
10394SOL     OW32080   2.456   5.708   5.052
10394SOL    HW132081   2.366   5.663   5.059
10394SOL    HW232082   2.453   5.795   5.100
10395SOL     OW32083   0.254   0.759   2.896
10395SOL    HW132084   0.274   0.849   2.934
10395SOL    HW232085   0.337   0.704   2.895
10396SOL     OW32086   3.646   1.030   3.252
10396SOL    HW132087   3.647   1.092   3.330
10396SOL    HW232088   3.613   1.079   3.171
10397SOL     OW32089   2.437   1.263   4.441
10397SOL    HW132090   2.457   1.202   4.517
10397SOL    HW232091   2.523   1.289   4.396
10398SOL     OW32092   5.062   2.562   0.400
10398SOL    HW132093   4.995   2.536   0.330
10398SOL    HW232094   5.037   2.522   0.488
10399SOL     OW32095   4.661   2.331   4.510
10399SOL    HW132096   4.695   2.318   4.417
10399SOL    HW232097   4.596   2.407   4.511
10400SOL     OW32098   4.453   5.673   6.879
10400SOL    HW132099   4.468   5.623   6.794
10400SOL    HW232100   4.542   5.692   6.922
10401SOL     OW32101   0.299   6.940   2.072
10401SOL    HW132102   0.217   6.998   2.077
10401SOL    HW232103   0.362   6.979   2.005
10402SOL     OW32104   6.706   1.754   5.254
10402SOL    HW132105   6.734   1.834   5.202
10402SOL    HW232106   6.660   1.783   5.339
10403SOL     OW32107   4.284   1.587   2.518
10403SOL    HW132108   4.330   1.498   2.519
10403SOL    HW232109   4.266   1.617   2.611
10404SOL     OW32110   6.528   6.203   4.237
10404SOL    HW132111   6.430   6.200   4.259
10404SOL    HW232112   6.581   6.191   4.321
10405SOL     OW32113   0.777   5.840   4.574
10405SOL    HW132114   0.688   5.842   4.530
10405SOL    HW232115   0.793   5.749   4.614
10406SOL     OW32116   2.202   2.954   5.257
10406SOL    HW132117   2.289   2.966   5.209
10406SOL    HW232118   2.172   3.041   5.296
10407SOL     OW32119   2.587   0.350   6.959
10407SOL    HW132120   2.593   0.252   6.974
10407SOL    HW232121   2.508   0.371   6.901
10408SOL     OW32122   4.272   6.873   1.542
10408SOL    HW132123   4.354   6.839   1.496
10408SOL    HW232124   4.274   6.973   1.545
10409SOL     OW32125   0.191   4.073   0.613
10409SOL    HW132126   0.167   3.981   0.643
10409SOL    HW232127   0.223   4.126   0.691
10410SOL     OW32128   5.988   2.960   1.857
10410SOL    HW132129   5.996   3.019   1.777
10410SOL    HW232130   5.891   2.945   1.878
10411SOL     OW32131   3.238   6.204   4.368
10411SOL    HW132132   3.243   6.108   4.394
10411SOL    HW232133   3.311   6.255   4.415
10412SOL     OW32134   0.002   1.014   6.465
10412SOL    HW132135   0.020   1.087   6.399
10412SOL    HW232136   6.927   0.981   6.454
10413SOL     OW32137   6.532   2.454   1.723
10413SOL    HW132138   6.473   2.514   1.778
10413SOL    HW232139   6.476   2.385   1.677
10414SOL     OW32140   3.636   5.581   6.026
10414SOL    HW132141   3.653   5.531   5.941
10414SOL    HW232142   3.689   5.666   6.025
10415SOL     OW32143   1.621   4.441   4.446
10415SOL    HW132144   1.543   4.487   4.489
10415SOL    HW232145   1.701   4.448   4.506
10416SOL     OW32146   5.858   6.460   5.624
10416SOL    HW132147   5.859   6.557   5.647
10416SOL    HW232148   5.804   6.446   5.541
10417SOL     OW32149   4.536   5.158   4.791
10417SOL    HW132150   4.449   5.128   4.751
10417SOL    HW232151   4.525   5.173   4.889
10418SOL     OW32152   0.130   3.964   6.068
10418SOL    HW132153   0.109   3.893   6.135
10418SOL    HW232154   0.113   4.054   6.109
10419SOL     OW32155   3.374   6.927   6.260
10419SOL    HW132156   3.283   6.923   6.218
10419SOL    HW232157   3.369   6.974   6.347
10420SOL     OW32158   0.026   4.354   4.470
10420SOL    HW132159   7.008   4.440   4.435
10420SOL    HW232160   7.006   4.278   4.418
10421SOL     OW32161   1.837   3.669   4.120
10421SOL    HW132162   1.835   3.612   4.202
10421SOL    HW232163   1.890   3.752   4.138
10422SOL     OW32164   6.625   3.332   5.744
10422SOL    HW132165   6.686   3.331   5.824
10422SOL    HW232166   6.534   3.362   5.772
10423SOL     OW32167   5.455   5.413   5.580
10423SOL    HW132168   5.473   5.389   5.676
10423SOL    HW232169   5.365   5.379   5.553
10424SOL     OW32170   3.800   2.950   0.597
10424SOL    HW132171   3.859   2.919   0.671
10424SOL    HW232172   3.854   3.002   0.531
10425SOL     OW32173   0.872   6.123   2.637
10425SOL    HW132174   0.928   6.172   2.704
10425SOL    HW232175   0.813   6.188   2.590
10426SOL     OW32176   5.451   4.726   6.871
10426SOL    HW132177   5.516   4.709   6.796
10426SOL    HW232178   5.398   4.643   6.888
10427SOL     OW32179   5.063   0.771   0.069
10427SOL    HW132180   4.999   0.825   0.013
10427SOL    HW232181   5.022   0.682   0.089
10428SOL     OW32182   3.360   1.239   3.662
10428SOL    HW132183   3.273   1.191   3.654
10428SOL    HW232184   3.377   1.263   3.758
10429SOL     OW32185   0.132   4.302   2.866
10429SOL    HW132186   0.067   4.229   2.845
10429SOL    HW232187   0.203   4.305   2.795
10430SOL     OW32188   3.789   6.550   4.852
10430SOL    HW132189   3.703   6.500   4.837
10430SOL    HW232190   3.841   6.552   4.767
10431SOL     OW32191   2.187   6.413   3.969
10431SOL    HW132192   2.157   6.318   3.981
10431SOL    HW232193   2.233   6.444   4.052
10432SOL     OW32194   6.368   0.734   4.752
10432SOL    HW132195   6.316   0.807   4.709
10432SOL    HW232196   6.466   0.747   4.733
10433SOL     OW32197   0.706   6.658   2.669
10433SOL    HW132198   0.642   6.614   2.731
10433SOL    HW232199   0.741   6.591   2.604
10434SOL     OW32200   3.144   6.415   3.359
10434SOL    HW132201   3.187   6.325   3.358
10434SOL    HW232202   3.115   6.439   3.267
10435SOL     OW32203   1.604   1.929   5.149
10435SOL    HW132204   1.528   1.930   5.083
10435SOL    HW232205   1.687   1.963   5.105
10436SOL     OW32206   5.892   4.307   5.329
10436SOL    HW132207   5.831   4.242   5.375
10436SOL    HW232208   5.959   4.341   5.394
10437SOL     OW32209   5.623   4.598   6.195
10437SOL    HW132210   5.661   4.649   6.119
10437SOL    HW232211   5.694   4.580   6.263
10438SOL     OW32212   0.608   5.933   5.971
10438SOL    HW132213   0.702   5.916   6.002
10438SOL    HW232214   0.593   5.885   5.884
10439SOL     OW32215   4.564   1.408   4.955
10439SOL    HW132216   4.524   1.342   4.891
10439SOL    HW232217   4.497   1.429   5.026
10440SOL     OW32218   0.488   6.632   0.566
10440SOL    HW132219   0.510   6.724   0.598
10440SOL    HW232220   0.433   6.637   0.483
10441SOL     OW32221   3.471   1.616   0.987
10441SOL    HW132222   3.534   1.666   0.928
10441SOL    HW232223   3.512   1.528   1.012
10442SOL     OW32224   4.254   6.669   5.314
10442SOL    HW132225   4.301   6.688   5.401
10442SOL    HW232226   4.236   6.571   5.307
10443SOL     OW32227   5.282   2.632   3.246
10443SOL    HW132228   5.208   2.566   3.237
10443SOL    HW232229   5.340   2.629   3.165
10444SOL     OW32230   4.210   5.309   3.342
10444SOL    HW132231   4.137   5.263   3.393
10444SOL    HW232232   4.203   5.408   3.356
10445SOL     OW32233   0.364   4.920   3.284
10445SOL    HW132234   0.428   4.852   3.248
10445SOL    HW232235   0.283   4.874   3.320
10446SOL     OW32236   1.899   2.878   6.336
10446SOL    HW132237   1.994   2.886   6.306
10446SOL    HW232238   1.850   2.814   6.276
10447SOL     OW32239   0.698   1.105   3.127
10447SOL    HW132240   0.703   1.205   3.135
10447SOL    HW232241   0.754   1.064   3.198
10448SOL     OW32242   4.650   0.602   2.553
10448SOL    HW132243   4.607   0.594   2.643
10448SOL    HW232244   4.686   0.513   2.526
10449SOL     OW32245   1.416   5.878   6.012
10449SOL    HW132246   1.390   5.800   6.068
10449SOL    HW232247   1.462   5.947   6.069
10450SOL     OW32248   0.524   1.078   6.862
10450SOL    HW132249   0.485   1.139   6.931
10450SOL    HW232250   0.577   1.132   6.796
10451SOL     OW32251   1.937   6.036   3.017
10451SOL    HW132252   1.853   6.089   3.030
10451SOL    HW232253   1.915   5.939   3.011
10452SOL     OW32254   5.931   3.106   3.191
10452SOL    HW132255   5.956   3.192   3.237
10452SOL    HW232256   5.858   3.061   3.242
10453SOL     OW32257   5.926   6.761   1.426
10453SOL    HW132258   5.985   6.749   1.506
10453SOL    HW232259   5.888   6.673   1.399
10454SOL     OW32260   5.085   2.991   0.278
10454SOL    HW132261   5.168   3.036   0.246
10454SOL    HW232262   5.039   2.946   0.201
10455SOL     OW32263   7.016   6.286   3.467
10455SOL    HW132264   0.023   6.265   3.561
10455SOL    HW232265   0.064   6.347   3.426
10456SOL     OW32266   1.303   5.735   0.647
10456SOL    HW132267   1.368   5.699   0.581
10456SOL    HW232268   1.261   5.818   0.611
10457SOL     OW32269   3.577   3.062   0.543
10457SOL    HW132270   3.654   3.010   0.581
10457SOL    HW232271   3.563   3.145   0.598
10458SOL     OW32272   6.465   0.255   6.212
10458SOL    HW132273   6.534   0.302   6.266
10458SOL    HW232274   6.379   0.307   6.215
10459SOL     OW32275   4.379   5.887   0.927
10459SOL    HW132276   4.286   5.850   0.927
10459SOL    HW232277   4.439   5.828   0.872
10460SOL     OW32278   1.175   4.459   1.611
10460SOL    HW132279   1.175   4.553   1.646
10460SOL    HW232280   1.125   4.456   1.524
10461SOL     OW32281   5.912   5.214   5.046
10461SOL    HW132282   5.881   5.199   4.952
10461SOL    HW232283   5.913   5.312   5.065
10462SOL     OW32284   5.113   2.073   3.135
10462SOL    HW132285   5.054   2.125   3.197
10462SOL    HW232286   5.125   1.981   3.170
10463SOL     OW32287   4.274   2.427   6.032
10463SOL    HW132288   4.228   2.451   5.946
10463SOL    HW232289   4.333   2.349   6.016
10464SOL     OW32290   6.731   6.942   1.642
10464SOL    HW132291   6.821   6.903   1.661
10464SOL    HW232292   6.706   6.922   1.547
10465SOL     OW32293   6.407   5.528   1.127
10465SOL    HW132294   6.477   5.469   1.166
10465SOL    HW232295   6.447   5.583   1.053
10466SOL     OW32296   4.519   5.069   5.567
10466SOL    HW132297   4.432   5.062   5.519
10466SOL    HW232298   4.505   5.058   5.665
10467SOL     OW32299   2.544   1.976   0.098
10467SOL    HW132300   2.481   1.911   0.140
10467SOL    HW232301   2.492   2.051   0.058
10468SOL     OW32302   3.639   5.325   3.200
10468SOL    HW132303   3.660   5.262   3.125
10468SOL    HW232304   3.635   5.274   3.286
10469SOL     OW32305   3.985   4.234   5.762
10469SOL    HW132306   4.039   4.229   5.678
10469SOL    HW232307   3.949   4.143   5.783
10470SOL     OW32308   2.062   2.459   3.955
10470SOL    HW132309   2.052   2.497   4.047
10470SOL    HW232310   2.153   2.419   3.945
10471SOL     OW32311   2.997   0.668   0.944
10471SOL    HW132312   2.951   0.739   0.890
10471SOL    HW232313   2.996   0.695   1.040
10472SOL     OW32314   3.627   5.777   0.639
10472SOL    HW132315   3.613   5.697   0.582
10472SOL    HW232316   3.725   5.792   0.653
10473SOL     OW32317   6.150   0.124   6.954
10473SOL    HW132318   6.195   0.103   0.022
10473SOL    HW232319   6.213   0.103   6.879
10474SOL     OW32320   4.306   1.352   4.140
10474SOL    HW132321   4.371   1.421   4.171
10474SOL    HW232322   4.287   1.288   4.214
10475SOL     OW32323   4.710   6.651   1.219
10475SOL    HW132324   4.610   6.658   1.215
10475SOL    HW232325   4.745   6.713   1.289
10476SOL     OW32326   0.130   6.683   0.029
10476SOL    HW132327   0.202   6.622   7.018
10476SOL    HW232328   0.159   6.778   0.018
10477SOL     OW32329   6.614   0.850   4.388
10477SOL    HW132330   6.574   0.779   4.330
10477SOL    HW232331   6.699   0.882   4.346
10478SOL     OW32332   6.307   0.701   0.748
10478SOL    HW132333   6.404   0.680   0.737
10478SOL    HW232334   6.253   0.618   0.737
10479SOL     OW32335   6.860   1.711   2.747
10479SOL    HW132336   6.860   1.786   2.681
10479SOL    HW232337   6.773   1.711   2.797
10480SOL     OW32338   0.682   0.765   1.680
10480SOL    HW132339   0.583   0.773   1.683
10480SOL    HW232340   0.720   0.835   1.619
10481SOL     OW32341   1.891   6.650   4.380
10481SOL    HW132342   1.808   6.615   4.423
10481SOL    HW232343   1.868   6.708   4.302
10482SOL     OW32344   6.403   4.997   4.303
10482SOL    HW132345   6.443   5.079   4.262
10482SOL    HW232346   6.304   4.998   4.288
10483SOL     OW32347   6.729   4.931   0.505
10483SOL    HW132348   6.767   4.872   0.434
10483SOL    HW232349   6.629   4.932   0.499
10484SOL     OW32350   5.944   1.652   1.670
10484SOL    HW132351   5.976   1.561   1.696
10484SOL    HW232352   5.897   1.694   1.748
10485SOL     OW32353   3.296   3.758   0.399
10485SOL    HW132354   3.251   3.710   0.324
10485SOL    HW232355   3.228   3.797   0.460
10486SOL     OW32356   0.382   1.028   0.113
10486SOL    HW132357   0.320   1.056   0.186
10486SOL    HW232358   0.431   0.945   0.141
10487SOL     OW32359   4.742   0.751   0.887
10487SOL    HW132360   4.726   0.848   0.874
10487SOL    HW232361   4.662   0.699   0.856
10488SOL     OW32362   2.801   0.938   5.791
10488SOL    HW132363   2.829   0.857   5.739
10488SOL    HW232364   2.872   1.008   5.785
10489SOL     OW32365   0.508   6.911   5.307
10489SOL    HW132366   0.550   6.997   5.336
10489SOL    HW232367   0.412   6.910   5.336
10490SOL     OW32368   5.874   1.812   1.253
10490SOL    HW132369   5.831   1.746   1.314
10490SOL    HW232370   5.815   1.893   1.244
10491SOL     OW32371   2.113   2.335   6.822
10491SOL    HW132372   2.181   2.369   6.887
10491SOL    HW232373   2.040   2.403   6.811
10492SOL     OW32374   5.960   4.974   6.868
10492SOL    HW132375   5.932   4.885   6.831
10492SOL    HW232376   5.909   5.046   6.821
10493SOL     OW32377   3.452   0.618   2.440
10493SOL    HW132378   3.489   0.558   2.510
10493SOL    HW232379   3.511   0.614   2.359
10494SOL     OW32380   5.181   4.216   5.799
10494SOL    HW132381   5.280   4.208   5.800
10494SOL    HW232382   5.153   4.295   5.853
10495SOL     OW32383   1.964   0.038   1.049
10495SOL    HW132384   1.867   0.018   1.061
10495SOL    HW232385   2.017   6.972   1.060
10496SOL     OW32386   0.059   3.848   5.806
10496SOL    HW132387   0.078   3.899   5.890
10496SOL    HW232388   0.123   3.772   5.798
10497SOL     OW32389   1.864   6.392   2.044
10497SOL    HW132390   1.788   6.332   2.019
10497SOL    HW232391   1.950   6.352   2.012
10498SOL     OW32392   4.585   5.344   0.755
10498SOL    HW132393   4.504   5.288   0.774
10498SOL    HW232394   4.563   5.440   0.772
10499SOL     OW32395   4.196   6.833   1.831
10499SOL    HW132396   4.253   6.914   1.845
10499SOL    HW232397   4.190   6.813   1.733
10500SOL     OW32398   6.332   1.354   6.450
10500SOL    HW132399   6.416   1.341   6.399
10500SOL    HW232400   6.314   1.274   6.506
10501SOL     OW32401   2.290   5.617   2.134
10501SOL    HW132402   2.216   5.595   2.070
10501SOL    HW232403   2.353   5.681   2.091
10502SOL     OW32404   2.695   1.114   1.770
10502SOL    HW132405   2.614   1.169   1.789
10502SOL    HW232406   2.732   1.077   1.856
10503SOL     OW32407   4.179   2.460   0.990
10503SOL    HW132408   4.133   2.486   0.906
10503SOL    HW232409   4.202   2.542   1.043
10504SOL     OW32410   0.923   1.941   5.688
10504SOL    HW132411   0.957   1.873   5.753
10504SOL    HW232412   0.897   1.896   5.603
10505SOL     OW32413   5.371   5.141   0.522
10505SOL    HW132414   5.374   5.232   0.481
10505SOL    HW232415   5.382   5.072   0.450
10506SOL     OW32416   6.928   4.867   0.862
10506SOL    HW132417   6.981   4.873   0.947
10506SOL    HW232418   6.836   4.903   0.878
10507SOL     OW32419   2.008   6.870   0.138
10507SOL    HW132420   2.043   6.859   0.045
10507SOL    HW232421   2.054   6.947   0.182
10508SOL     OW32422   6.440   6.026   4.984
10508SOL    HW132423   6.503   6.063   5.052
10508SOL    HW232424   6.347   6.052   5.007
10509SOL     OW32425   0.421   5.531   4.439
10509SOL    HW132426   0.430   5.605   4.372
10509SOL    HW232427   0.347   5.552   4.503
10510SOL     OW32428   4.290   5.465   6.534
10510SOL    HW132429   4.364   5.417   6.488
10510SOL    HW232430   4.233   5.511   6.466
10511SOL     OW32431   3.565   1.006   2.296
10511SOL    HW132432   3.640   1.071   2.308
10511SOL    HW232433   3.477   1.052   2.309
10512SOL     OW32434   3.844   0.258   6.655
10512SOL    HW132435   3.845   0.192   6.730
10512SOL    HW232436   3.804   0.215   6.574
10513SOL     OW32437   5.969   2.422   4.720
10513SOL    HW132438   6.063   2.455   4.723
10513SOL    HW232439   5.915   2.480   4.660
10514SOL     OW32440   0.367   3.509   1.305
10514SOL    HW132441   0.396   3.443   1.374
10514SOL    HW232442   0.440   3.575   1.290
10515SOL     OW32443   0.604   3.597   3.465
10515SOL    HW132444   0.675   3.665   3.485
10515SOL    HW232445   0.532   3.603   3.534
10516SOL     OW32446   4.058   1.382   0.528
10516SOL    HW132447   4.050   1.289   0.564
10516SOL    HW232448   4.149   1.395   0.489
10517SOL     OW32449   0.692   3.048   2.156
10517SOL    HW132450   0.683   3.054   2.056
10517SOL    HW232451   0.770   3.102   2.186
10518SOL     OW32452   0.809   6.125   0.281
10518SOL    HW132453   0.906   6.138   0.264
10518SOL    HW232454   0.756   6.165   0.206
10519SOL     OW32455   2.819   3.754   0.151
10519SOL    HW132456   2.852   3.673   0.104
10519SOL    HW232457   2.729   3.736   0.191
10520SOL     OW32458   0.483   2.677   6.155
10520SOL    HW132459   0.482   2.770   6.191
10520SOL    HW232460   0.543   2.672   6.075
10521SOL     OW32461   6.128   5.959   1.726
10521SOL    HW132462   6.082   6.048   1.734
10521SOL    HW232463   6.187   5.945   1.805
10522SOL     OW32464   0.816   1.104   5.461
10522SOL    HW132465   0.874   1.181   5.489
10522SOL    HW232466   0.722   1.137   5.447
10523SOL     OW32467   0.983   4.690   3.125
10523SOL    HW132468   1.028   4.778   3.136
10523SOL    HW232469   1.037   4.632   3.064
10524SOL     OW32470   1.646   0.029   4.393
10524SOL    HW132471   1.672   0.125   4.399
10524SOL    HW232472   1.619   0.007   4.299
10525SOL     OW32473   3.925   6.397   6.347
10525SOL    HW132474   3.837   6.367   6.385
10525SOL    HW232475   3.975   6.317   6.314
10526SOL     OW32476   1.962   0.011   3.870
10526SOL    HW132477   1.870   6.990   3.872
10526SOL    HW232478   2.021   6.975   3.812
10527SOL     OW32479   0.776   1.458   5.361
10527SOL    HW132480   0.758   1.375   5.308
10527SOL    HW232481   0.708   1.466   5.433
10528SOL     OW32482   1.809   3.054   5.925
10528SOL    HW132483   1.869   3.101   5.860
10528SOL    HW232484   1.729   3.018   5.876
10529SOL     OW32485   3.214   5.893   4.095
10529SOL    HW132486   3.206   5.793   4.086
10529SOL    HW232487   3.310   5.919   4.096
10530SOL     OW32488   1.830   0.295   6.815
10530SOL    HW132489   1.742   0.302   6.770
10530SOL    HW232490   1.901   0.276   6.747
10531SOL     OW32491   0.979   2.602   4.547
10531SOL    HW132492   0.888   2.566   4.527
10531SOL    HW232493   1.015   2.649   4.466
10532SOL     OW32494   1.107   6.321   6.044
10532SOL    HW132495   1.123   6.301   5.947
10532SOL    HW232496   1.022   6.278   6.074
10533SOL     OW32497   3.238   6.635   4.047
10533SOL    HW132498   3.327   6.680   4.058
10533SOL    HW232499   3.168   6.703   4.026
10534SOL     OW32500   6.306   6.152   1.337
10534SOL    HW132501   6.324   6.201   1.252
10534SOL    HW232502   6.207   6.150   1.355
10535SOL     OW32503   1.562   2.275   1.485
10535SOL    HW132504   1.470   2.250   1.457
10535SOL    HW232505   1.621   2.194   1.483
10536SOL     OW32506   4.425   0.506   3.746
10536SOL    HW132507   4.341   0.554   3.770
10536SOL    HW232508   4.462   0.543   3.661
10537SOL     OW32509   3.796   5.976   4.118
10537SOL    HW132510   3.716   5.972   4.058
10537SOL    HW232511   3.766   5.988   4.213
10538SOL     OW32512   5.447   2.746   1.176
10538SOL    HW132513   5.465   2.692   1.259
10538SOL    HW232514   5.367   2.709   1.129
10539SOL     OW32515   0.772   4.819   0.127
10539SOL    HW132516   0.679   4.836   0.093
10539SOL    HW232517   0.837   4.873   0.074
10540SOL     OW32518   1.525   1.506   5.074
10540SOL    HW132519   1.492   1.412   5.068
10540SOL    HW232520   1.624   1.508   5.057
10541SOL     OW32521   3.459   4.127   1.901
10541SOL    HW132522   3.485   4.034   1.876
10541SOL    HW232523   3.360   4.133   1.914
10542SOL     OW32524   6.814   0.187   5.383
10542SOL    HW132525   6.718   0.199   5.356
10542SOL    HW232526   6.851   0.275   5.414
10543SOL     OW32527   0.388   1.032   4.091
10543SOL    HW132528   0.364   1.081   4.175
10543SOL    HW232529   0.309   0.978   4.061
10544SOL     OW32530   2.642   6.820   1.644
10544SOL    HW132531   2.735   6.786   1.627
10544SOL    HW232532   2.623   6.814   1.742
10545SOL     OW32533   0.207   2.231   1.935
10545SOL    HW132534   0.237   2.141   1.967
10545SOL    HW232535   0.120   2.221   1.886
10546SOL     OW32536   2.125   1.055   0.716
10546SOL    HW132537   2.041   1.023   0.672
10546SOL    HW232538   2.103   1.127   0.782
10547SOL     OW32539   5.629   2.801   2.812
10547SOL    HW132540   5.560   2.851   2.759
10547SOL    HW232541   5.654   2.717   2.763
10548SOL     OW32542   5.595   4.605   3.788
10548SOL    HW132543   5.523   4.663   3.828
10548SOL    HW232544   5.592   4.612   3.689
10549SOL     OW32545   0.954   6.900   2.246
10549SOL    HW132546   0.932   6.880   2.341
10549SOL    HW232547   0.879   6.869   2.188
10550SOL     OW32548   4.554   6.273   3.479
10550SOL    HW132549   4.475   6.309   3.429
10550SOL    HW232550   4.637   6.288   3.426
10551SOL     OW32551   1.672   2.526   6.552
10551SOL    HW132552   1.611   2.466   6.604
10551SOL    HW232553   1.619   2.582   6.489
10552SOL     OW32554   3.273   0.460   5.920
10552SOL    HW132555   3.174   0.461   5.906
10552SOL    HW232556   3.296   0.516   5.999
10553SOL     OW32557   0.710   4.280   2.034
10553SOL    HW132558   0.689   4.375   2.011
10553SOL    HW232559   0.652   4.219   1.981
10554SOL     OW32560   5.737   4.609   0.001
10554SOL    HW132561   5.715   4.653   0.088
10554SOL    HW232562   5.657   4.559   6.986
10555SOL     OW32563   1.433   2.815   0.199
10555SOL    HW132564   1.465   2.745   0.264
10555SOL    HW232565   1.476   2.798   0.110
10556SOL     OW32566   2.144   1.787   5.562
10556SOL    HW132567   2.234   1.832   5.560
10556SOL    HW232568   2.073   1.855   5.542
10557SOL     OW32569   2.272   2.865   3.209
10557SOL    HW132570   2.182   2.910   3.205
10557SOL    HW232571   2.280   2.799   3.135
10558SOL     OW32572   4.067   0.785   3.331
10558SOL    HW132573   3.989   0.819   3.279
10558SOL    HW232574   4.097   0.854   3.396
10559SOL     OW32575   4.757   0.478   1.234
10559SOL    HW132576   4.835   0.540   1.234
10559SOL    HW232577   4.790   0.384   1.221
10560SOL     OW32578   3.858   6.139   2.871
10560SOL    HW132579   3.891   6.046   2.883
10560SOL    HW232580   3.929   6.204   2.897
10561SOL     OW32581   2.995   3.783   1.958
10561SOL    HW132582   2.900   3.786   1.924
10561SOL    HW232583   3.022   3.875   1.988
10562SOL     OW32584   4.822   5.008   0.229
10562SOL    HW132585   4.805   5.102   0.198
10562SOL    HW232586   4.740   4.974   0.275
10563SOL     OW32587   0.410   2.113   3.609
10563SOL    HW132588   0.393   2.102   3.511
10563SOL    HW232589   0.322   2.123   3.657
10564SOL     OW32590   5.636   5.823   2.242
10564SOL    HW132591   5.559   5.760   2.253
10564SOL    HW232592   5.678   5.810   2.152
10565SOL     OW32593   0.639   0.041   5.653
10565SOL    HW132594   0.581   6.980   5.667
10565SOL    HW232595   0.625   0.077   5.561
10566SOL     OW32596   3.237   1.985   6.365
10566SOL    HW132597   3.183   1.944   6.439
10566SOL    HW232598   3.175   2.022   6.296
10567SOL     OW32599   3.276   2.138   4.831
10567SOL    HW132600   3.362   2.190   4.829
10567SOL    HW232601   3.222   2.168   4.910
10568SOL     OW32602   5.990   3.140   1.653
10568SOL    HW132603   5.961   3.105   1.564
10568SOL    HW232604   6.018   3.236   1.643
10569SOL     OW32605   5.893   1.797   1.898
10569SOL    HW132606   5.932   1.750   1.977
10569SOL    HW232607   5.900   1.896   1.910
10570SOL     OW32608   0.854   5.424   3.632
10570SOL    HW132609   0.797   5.500   3.662
10570SOL    HW232610   0.942   5.427   3.680
10571SOL     OW32611   0.034   4.285   6.047
10571SOL    HW132612   0.073   4.358   5.991
10571SOL    HW232613   7.019   4.322   6.133
10572SOL     OW32614   6.580   4.196   3.649
10572SOL    HW132615   6.547   4.162   3.737
10572SOL    HW232616   6.676   4.169   3.636
10573SOL     OW32617   4.682   0.536   5.089
10573SOL    HW132618   4.719   0.628   5.072
10573SOL    HW232619   4.671   0.488   5.003
10574SOL     OW32620   1.809   1.332   4.576
10574SOL    HW132621   1.833   1.427   4.598
10574SOL    HW232622   1.715   1.314   4.606
10575SOL     OW32623   0.054   1.710   3.946
10575SOL    HW132624   0.050   1.645   4.022
10575SOL    HW232625   0.007   1.671   3.867
10576SOL     OW32626   6.847   6.127   4.732
10576SOL    HW132627   6.783   6.051   4.746
10576SOL    HW232628   6.914   6.102   4.663
10577SOL     OW32629   2.025   4.403   0.163
10577SOL    HW132630   1.952   4.464   0.192
10577SOL    HW232631   2.101   4.456   0.126
10578SOL     OW32632   4.800   1.404   3.063
10578SOL    HW132633   4.878   1.365   3.015
10578SOL    HW232634   4.726   1.421   2.998
10579SOL     OW32635   4.279   2.740   1.702
10579SOL    HW132636   4.203   2.805   1.706
10579SOL    HW232637   4.365   2.790   1.697
10580SOL     OW32638   6.879   0.194   6.796
10580SOL    HW132639   6.940   0.116   6.781
10580SOL    HW232640   6.803   0.167   6.855
10581SOL     OW32641   6.463   0.082   3.279
10581SOL    HW132642   6.382   0.064   3.224
10581SOL    HW232643   6.539   0.026   3.246
10582SOL     OW32644   5.412   4.804   5.944
10582SOL    HW132645   5.505   4.776   5.922
10582SOL    HW232646   5.354   4.723   5.955
10583SOL     OW32647   3.942   0.964   4.410
10583SOL    HW132648   3.931   0.895   4.481
10583SOL    HW232649   3.978   0.921   4.327
10584SOL     OW32650   6.536   0.171   1.241
10584SOL    HW132651   6.442   0.149   1.214
10584SOL    HW232652   6.536   0.204   1.336
10585SOL     OW32653   1.862   1.727   5.225
10585SOL    HW132654   1.808   1.723   5.141
10585SOL    HW232655   1.950   1.771   5.206
10586SOL     OW32656   6.549   5.530   4.774
10586SOL    HW132657   6.511   5.577   4.695
10586SOL    HW232658   6.558   5.594   4.850
10587SOL     OW32659   6.558   4.478   7.009
10587SOL    HW132660   6.550   4.383   6.979
10587SOL    HW232661   6.466   4.518   7.017
10588SOL     OW32662   1.250   3.284   4.276
10588SOL    HW132663   1.316   3.212   4.295
10588SOL    HW232664   1.240   3.295   4.177
10589SOL     OW32665   5.968   1.156   4.190
10589SOL    HW132666   5.973   1.206   4.277
10589SOL    HW232667   5.987   1.060   4.206
10590SOL     OW32668   1.033   0.238   1.623
10590SOL    HW132669   0.957   0.252   1.560
10590SOL    HW232670   1.084   0.156   1.596
10591SOL     OW32671   2.049   2.301   6.467
10591SOL    HW132672   1.988   2.222   6.468
10591SOL    HW232673   2.140   2.274   6.499
10592SOL     OW32674   5.384   3.540   2.730
10592SOL    HW132675   5.310   3.483   2.765
10592SOL    HW232676   5.354   3.635   2.726
10593SOL     OW32677   2.409   6.334   0.525
10593SOL    HW132678   2.504   6.303   0.518
10593SOL    HW232679   2.364   6.321   0.436
10594SOL     OW32680   5.164   0.588   2.023
10594SOL    HW132681   5.084   0.641   1.994
10594SOL    HW232682   5.134   0.510   2.078
10595SOL     OW32683   4.715   5.882   6.815
10595SOL    HW132684   4.649   5.901   6.742
10595SOL    HW232685   4.729   5.783   6.823
10596SOL     OW32686   4.264   6.798   0.233
10596SOL    HW132687   4.362   6.790   0.247
10596SOL    HW232688   4.231   6.882   0.276
10597SOL     OW32689   3.343   0.705   5.451
10597SOL    HW132690   3.358   0.799   5.419
10597SOL    HW232691   3.282   0.707   5.531
10598SOL     OW32692   3.040   2.804   0.057
10598SOL    HW132693   3.055   2.706   0.068
10598SOL    HW232694   3.124   2.847   0.026
10599SOL     OW32695   5.100   3.084   5.829
10599SOL    HW132696   5.109   3.028   5.911
10599SOL    HW232697   5.003   3.105   5.812
10600SOL     OW32698   2.351   2.983   0.579
10600SOL    HW132699   2.265   2.932   0.571
10600SOL    HW232700   2.350   3.059   0.513
10601SOL     OW32701   2.080   4.574   5.102
10601SOL    HW132702   2.126   4.652   5.060
10601SOL    HW232703   2.012   4.538   5.038
10602SOL     OW32704   3.230   1.378   2.158
10602SOL    HW132705   3.201   1.283   2.166
10602SOL    HW232706   3.295   1.386   2.082
10603SOL     OW32707   3.744   6.319   3.356
10603SOL    HW132708   3.693   6.401   3.330
10603SOL    HW232709   3.728   6.247   3.290
10604SOL     OW32710   6.021   5.326   5.803
10604SOL    HW132711   6.055   5.245   5.755
10604SOL    HW232712   5.980   5.389   5.737
10605SOL     OW32713   1.643   6.200   0.268
10605SOL    HW132714   1.651   6.287   0.317
10605SOL    HW232715   1.682   6.127   0.324
10606SOL     OW32716   6.956   0.542   2.525
10606SOL    HW132717   0.020   0.496   2.494
10606SOL    HW232718   6.979   0.636   2.553
10607SOL     OW32719   3.891   4.687   5.284
10607SOL    HW132720   3.808   4.716   5.331
10607SOL    HW232721   3.904   4.744   5.203
10608SOL     OW32722   5.477   2.408   5.726
10608SOL    HW132723   5.511   2.482   5.783
10608SOL    HW232724   5.387   2.379   5.758
10609SOL     OW32725   2.584   6.443   7.001
10609SOL    HW132726   2.629   6.401   6.922
10609SOL    HW232727   2.490   6.409   7.007
10610SOL     OW32728   0.623   2.359   5.268
10610SOL    HW132729   0.571   2.324   5.190
10610SOL    HW232730   0.701   2.412   5.234
10611SOL     OW32731   3.115   3.788   6.567
10611SOL    HW132732   3.133   3.844   6.486
10611SOL    HW232733   3.197   3.782   6.623
10612SOL     OW32734   3.524   1.072   4.590
10612SOL    HW132735   3.552   1.120   4.507
10612SOL    HW232736   3.574   1.109   4.668
10613SOL     OW32737   5.726   6.377   5.170
10613SOL    HW132738   5.701   6.298   5.115
10613SOL    HW232739   5.825   6.381   5.180
10614SOL     OW32740   5.935   2.192   4.530
10614SOL    HW132741   5.950   2.256   4.606
10614SOL    HW232742   6.023   2.156   4.499
10615SOL     OW32743   3.967   7.010   5.482
10615SOL    HW132744   3.952   6.987   5.578
10615SOL    HW232745   3.973   6.927   5.428
10616SOL     OW32746   3.226   6.539   0.950
10616SOL    HW132747   3.173   6.542   0.866
10616SOL    HW232748   3.264   6.447   0.962
10617SOL     OW32749   2.737   3.118   1.398
10617SOL    HW132750   2.761   3.215   1.403
10617SOL    HW232751   2.656   3.101   1.455
10618SOL     OW32752   0.619   3.446   6.166
10618SOL    HW132753   0.677   3.387   6.221
10618SOL    HW232754   0.660   3.457   6.075
10619SOL     OW32755   6.952   4.163   2.062
10619SOL    HW132756   6.988   4.103   2.134
10619SOL    HW232757   6.862   4.196   2.090
10620SOL     OW32758   1.378   5.386   4.799
10620SOL    HW132759   1.321   5.468   4.794
10620SOL    HW232760   1.339   5.322   4.865
10621SOL     OW32761   0.803   5.704   1.944
10621SOL    HW132762   0.748   5.781   1.913
10621SOL    HW232763   0.767   5.619   1.906
10622SOL     OW32764   5.392   1.793   1.393
10622SOL    HW132765   5.421   1.700   1.371
10622SOL    HW232766   5.297   1.806   1.365
10623SOL     OW32767   6.671   4.235   5.048
10623SOL    HW132768   6.702   4.291   4.972
10623SOL    HW232769   6.593   4.279   5.092
10624SOL     OW32770   0.858   2.889   4.629
10624SOL    HW132771   0.865   2.815   4.696
10624SOL    HW232772   0.772   2.938   4.645
10625SOL     OW32773   0.519   4.406   0.658
10625SOL    HW132774   0.457   4.362   0.723
10625SOL    HW232775   0.487   4.500   0.641
10626SOL     OW32776   2.738   3.195   0.655
10626SOL    HW132777   2.729   3.190   0.755
10626SOL    HW232778   2.768   3.106   0.620
10627SOL     OW32779   5.464   6.796   0.500
10627SOL    HW132780   5.391   6.728   0.501
10627SOL    HW232781   5.504   6.802   0.408
10628SOL     OW32782   5.394   6.041   0.096
10628SOL    HW132783   5.482   6.003   0.069
10628SOL    HW232784   5.320   5.990   0.051
10629SOL     OW32785   2.422   4.678   5.165
10629SOL    HW132786   2.433   4.579   5.165
10629SOL    HW232787   2.415   4.711   5.071
10630SOL     OW32788   6.397   1.591   3.607
10630SOL    HW132789   6.461   1.524   3.647
10630SOL    HW232790   6.315   1.596   3.662
10631SOL     OW32791   2.534   4.968   4.801
10631SOL    HW132792   2.552   4.869   4.802
10631SOL    HW232793   2.542   5.003   4.708
10632SOL     OW32794   6.084   1.727   3.712
10632SOL    HW132795   6.075   1.703   3.809
10632SOL    HW232796   6.072   1.825   3.700
10633SOL     OW32797   3.046   3.066   1.100
10633SOL    HW132798   2.971   3.021   1.148
10633SOL    HW232799   3.047   3.163   1.124
10634SOL     OW32800   3.134   5.535   0.563
10634SOL    HW132801   3.072   5.610   0.582
10634SOL    HW232802   3.091   5.448   0.589
10635SOL     OW32803   2.587   2.584   1.161
10635SOL    HW132804   2.513   2.519   1.141
10635SOL    HW232805   2.572   2.623   1.252
10636SOL     OW32806   1.153   1.983   1.603
10636SOL    HW132807   1.152   1.897   1.551
10636SOL    HW232808   1.059   2.016   1.614
10637SOL     OW32809   2.528   4.971   6.056
10637SOL    HW132810   2.560   5.001   5.966
10637SOL    HW232811   2.527   4.871   6.059
10638SOL     OW32812   6.591   5.732   2.944
10638SOL    HW132813   6.511   5.712   3.002
10638SOL    HW232814   6.565   5.800   2.875
10639SOL     OW32815   0.983   2.979   3.620
10639SOL    HW132816   0.893   2.982   3.664
10639SOL    HW232817   1.014   3.073   3.603
10640SOL     OW32818   3.775   0.432   5.265
10640SOL    HW132819   3.838   0.393   5.198
10640SOL    HW232820   3.752   0.526   5.238
10641SOL     OW32821   2.385   1.872   1.960
10641SOL    HW132822   2.318   1.886   1.888
10641SOL    HW232823   2.453   1.946   1.957
10642SOL     OW32824   6.587   3.410   1.815
10642SOL    HW132825   6.519   3.484   1.810
10642SOL    HW232826   6.572   3.357   1.898
10643SOL     OW32827   1.766   5.052   5.461
10643SOL    HW132828   1.862   5.071   5.480
10643SOL    HW232829   1.747   5.067   5.364
10644SOL     OW32830   5.417   2.663   3.482
10644SOL    HW132831   5.359   2.666   3.563
10644SOL    HW232832   5.363   2.635   3.403
10645SOL     OW32833   1.831   2.205   4.620
10645SOL    HW132834   1.740   2.210   4.662
10645SOL    HW232835   1.884   2.286   4.644
10646SOL     OW32836   6.790   0.643   6.443
10646SOL    HW132837   6.744   0.595   6.368
10646SOL    HW232838   6.767   0.741   6.438
10647SOL     OW32839   2.836   5.710   4.844
10647SOL    HW132840   2.773   5.679   4.773
10647SOL    HW232841   2.867   5.803   4.824
10648SOL     OW32842   5.392   4.450   6.244
10648SOL    HW132843   5.426   4.358   6.260
10648SOL    HW232844   5.468   4.515   6.249
10649SOL     OW32845   0.285   4.581   2.570
10649SOL    HW132846   0.216   4.611   2.636
10649SOL    HW232847   0.242   4.526   2.499
10650SOL     OW32848   0.738   6.613   3.656
10650SOL    HW132849   0.734   6.592   3.754
10650SOL    HW232850   0.645   6.616   3.619
10651SOL     OW32851   5.267   6.357   6.482
10651SOL    HW132852   5.321   6.286   6.528
10651SOL    HW232853   5.301   6.369   6.389
10652SOL     OW32854   3.541   6.700   5.748
10652SOL    HW132855   3.482   6.650   5.812
10652SOL    HW232856   3.585   6.775   5.797
10653SOL     OW32857   4.567   4.483   4.329
10653SOL    HW132858   4.648   4.521   4.284
10653SOL    HW232859   4.486   4.502   4.273
10654SOL     OW32860   4.963   0.736   0.634
10654SOL    HW132861   4.970   0.814   0.572
10654SOL    HW232862   5.016   0.754   0.717
10655SOL     OW32863   2.380   5.326   0.537
10655SOL    HW132864   2.381   5.407   0.596
10655SOL    HW232865   2.373   5.355   0.442
10656SOL     OW32866   6.633   2.483   2.207
10656SOL    HW132867   6.715   2.435   2.239
10656SOL    HW232868   6.574   2.419   2.158
10657SOL     OW32869   6.603   0.080   6.075
10657SOL    HW132870   6.533   0.146   6.103
10657SOL    HW232871   6.627   0.023   6.153
10658SOL     OW32872   5.640   4.518   5.478
10658SOL    HW132873   5.622   4.489   5.384
10658SOL    HW232874   5.621   4.616   5.487
10659SOL     OW32875   6.612   5.779   1.355
10659SOL    HW132876   6.694   5.727   1.331
10659SOL    HW232877   6.607   5.860   1.296
10660SOL     OW32878   5.447   4.104   6.975
10660SOL    HW132879   5.475   4.055   0.038
10660SOL    HW232880   5.438   4.040   6.898
10661SOL     OW32881   1.402   0.252   2.269
10661SOL    HW132882   1.379   0.205   2.183
10661SOL    HW232883   1.317   0.278   2.316
10662SOL     OW32884   5.434   0.120   3.410
10662SOL    HW132885   5.445   0.024   3.384
10662SOL    HW232886   5.367   0.127   3.484
10663SOL     OW32887   0.724   1.031   1.575
10663SOL    HW132888   0.651   1.091   1.543
10663SOL    HW232889   0.772   1.075   1.651
10664SOL     OW32890   0.487   4.809   5.267
10664SOL    HW132891   0.522   4.792   5.359
10664SOL    HW232892   0.528   4.893   5.231
10665SOL     OW32893   1.115   1.113   0.723
10665SOL    HW132894   1.152   1.036   0.775
10665SOL    HW232895   1.181   1.187   0.721
10666SOL     OW32896   3.209   4.230   1.294
10666SOL    HW132897   3.267   4.225   1.375
10666SOL    HW232898   3.247   4.298   1.230
10667SOL     OW32899   4.133   3.320   5.595
10667SOL    HW132900   4.156   3.355   5.686
10667SOL    HW232901   4.162   3.386   5.526
10668SOL     OW32902   1.440   1.020   4.935
10668SOL    HW132903   1.527   1.049   4.976
10668SOL    HW232904   1.454   1.002   4.838
10669SOL     OW32905   5.709   6.352   0.856
10669SOL    HW132906   5.738   6.382   0.765
10669SOL    HW232907   5.630   6.405   0.885
10670SOL     OW32908   5.224   3.472   5.098
10670SOL    HW132909   5.193   3.565   5.078
10670SOL    HW232910   5.149   3.408   5.081
10671SOL     OW32911   2.636   2.431   3.395
10671SOL    HW132912   2.618   2.489   3.315
10671SOL    HW232913   2.716   2.373   3.376
10672SOL     OW32914   5.782   2.710   0.094
10672SOL    HW132915   5.815   2.676   0.006
10672SOL    HW232916   5.860   2.737   0.151
10673SOL     OW32917   1.529   1.203   0.004
10673SOL    HW132918   1.617   1.159   7.009
10673SOL    HW232919   1.506   1.258   6.943
10674SOL     OW32920   3.368   3.633   1.733
10674SOL    HW132921   3.272   3.658   1.720
10674SOL    HW232922   3.381   3.602   1.827
10675SOL     OW32923   1.797   6.740   6.595
10675SOL    HW132924   1.766   6.763   6.503
10675SOL    HW232925   1.813   6.642   6.601
10676SOL     OW32926   6.165   6.694   6.073
10676SOL    HW132927   6.199   6.764   6.010
10676SOL    HW232928   6.138   6.736   6.159
10677SOL     OW32929   1.098   0.950   2.751
10677SOL    HW132930   1.065   0.878   2.812
10677SOL    HW232931   1.131   0.910   2.666
10678SOL     OW32932   3.257   5.713   3.720
10678SOL    HW132933   3.279   5.636   3.661
10678SOL    HW232934   3.338   5.738   3.774
10679SOL     OW32935   4.486   5.577   6.638
10679SOL    HW132936   4.407   5.517   6.623
10679SOL    HW232937   4.569   5.531   6.606
10680SOL     OW32938   2.674   1.778   3.546
10680SOL    HW132939   2.615   1.816   3.617
10680SOL    HW232940   2.637   1.691   3.514
10681SOL     OW32941   0.583   3.682   0.551
10681SOL    HW132942   0.613   3.680   0.456
10681SOL    HW232943   0.662   3.668   0.611
10682SOL     OW32944   1.939   1.164   4.370
10682SOL    HW132945   2.039   1.163   4.381
10682SOL    HW232946   1.898   1.209   4.448
10683SOL     OW32947   3.385   1.749   4.117
10683SOL    HW132948   3.481   1.776   4.105
10683SOL    HW232949   3.353   1.704   4.033
10684SOL     OW32950   5.310   4.228   1.059
10684SOL    HW132951   5.254   4.171   1.119
10684SOL    HW232952   5.364   4.171   0.998
10685SOL     OW32953   0.696   5.669   2.807
10685SOL    HW132954   0.597   5.658   2.816
10685SOL    HW232955   0.722   5.660   2.711
10686SOL     OW32956   1.149   4.928   6.716
10686SOL    HW132957   1.094   4.953   6.637
10686SOL    HW232958   1.243   4.909   6.687
10687SOL     OW32959   6.910   5.649   1.863
10687SOL    HW132960   6.957   5.576   1.814
10687SOL    HW232961   6.825   5.615   1.902
10688SOL     OW32962   6.120   4.469   2.763
10688SOL    HW132963   6.074   4.381   2.776
10688SOL    HW232964   6.211   4.453   2.727
10689SOL     OW32965   0.469   0.031   3.520
10689SOL    HW132966   0.462   0.002   3.424
10689SOL    HW232967   0.455   0.130   3.525
10690SOL     OW32968   0.231   6.232   3.137
10690SOL    HW132969   0.278   6.153   3.096
10690SOL    HW232970   0.133   6.218   3.134
10691SOL     OW32971   1.078   1.896   2.240
10691SOL    HW132972   1.069   1.956   2.161
10691SOL    HW232973   1.021   1.930   2.315
10692SOL     OW32974   3.316   4.971   2.716
10692SOL    HW132975   3.216   4.975   2.715
10692SOL    HW232976   3.349   4.950   2.623
10693SOL     OW32977   2.762   0.288   1.036
10693SOL    HW132978   2.710   0.203   1.033
10693SOL    HW232979   2.744   0.342   0.953
10694SOL     OW32980   5.125   6.452   1.061
10694SOL    HW132981   5.033   6.492   1.056
10694SOL    HW232982   5.185   6.512   1.113
10695SOL     OW32983   5.691   2.001   3.049
10695SOL    HW132984   5.714   1.908   3.078
10695SOL    HW232985   5.593   2.017   3.060
10696SOL     OW32986   6.294   3.999   3.741
10696SOL    HW132987   6.252   4.059   3.673
10696SOL    HW232988   6.335   4.055   3.813
10697SOL     OW32989   0.490   5.733   4.729
10697SOL    HW132990   0.397   5.698   4.747
10697SOL    HW232991   0.552   5.656   4.717
10698SOL     OW32992   3.610   5.596   4.516
10698SOL    HW132993   3.515   5.607   4.547
10698SOL    HW232994   3.664   5.554   4.589
10699SOL     OW32995   4.235   2.300   1.886
10699SOL    HW132996   4.224   2.338   1.794
10699SOL    HW232997   4.286   2.214   1.881
10700SOL     OW32998   0.616   0.113   0.456
10700SOL    HW132999   0.705   0.067   0.459
10700SOL    HW233000   0.562   0.076   0.381
10701SOL     OW33001   2.848   5.704   0.348
10701SOL    HW133002   2.912   5.742   0.281
10701SOL    HW233003   2.879   5.727   0.440
10702SOL     OW33004   6.058   2.135   2.189
10702SOL    HW133005   6.086   2.045   2.221
10702SOL    HW233006   6.133   2.200   2.204
10703SOL     OW33007   2.991   3.372   4.128
10703SOL    HW133008   2.959   3.343   4.217
10703SOL    HW233009   3.088   3.397   4.134
10704SOL     OW33010   5.997   5.257   1.478
10704SOL    HW133011   5.980   5.176   1.421
10704SOL    HW233012   5.957   5.337   1.434
10705SOL     OW33013   6.492   4.295   2.267
10705SOL    HW133014   6.547   4.267   2.346
10705SOL    HW233015   6.395   4.297   2.293
10706SOL     OW33016   4.538   6.584   2.347
10706SOL    HW133017   4.519   6.560   2.442
10706SOL    HW233018   4.458   6.563   2.291
10707SOL     OW33019   0.277   0.039   3.742
10707SOL    HW133020   0.224   0.119   3.772
10707SOL    HW233021   0.312   0.056   3.650
10708SOL     OW33022   4.520   0.709   2.809
10708SOL    HW133023   4.619   0.722   2.817
10708SOL    HW233024   4.495   0.621   2.849
10709SOL     OW33025   6.186   0.426   5.222
10709SOL    HW133026   6.166   0.435   5.125
10709SOL    HW233027   6.246   0.348   5.237
10710SOL     OW33028   0.759   6.774   4.409
10710SOL    HW133029   0.670   6.732   4.426
10710SOL    HW233030   0.753   6.873   4.422
10711SOL     OW33031   1.831   6.405   3.336
10711SOL    HW133032   1.744   6.393   3.383
10711SOL    HW233033   1.819   6.386   3.238
10712SOL     OW33034   2.955   1.177   1.933
10712SOL    HW133035   3.052   1.158   1.944
10712SOL    HW233036   2.927   1.153   1.840
10713SOL     OW33037   0.736   3.674   1.829
10713SOL    HW133038   0.818   3.618   1.836
10713SOL    HW233039   0.707   3.679   1.734
10714SOL     OW33040   6.315   3.567   6.038
10714SOL    HW133041   6.242   3.622   5.998
10714SOL    HW233042   6.362   3.620   6.109
10715SOL     OW33043   4.924   6.760   2.916
10715SOL    HW133044   5.011   6.805   2.896
10715SOL    HW233045   4.886   6.796   3.001
10716SOL     OW33046   6.592   2.723   4.460
10716SOL    HW133047   6.609   2.625   4.473
10716SOL    HW233048   6.642   2.775   4.529
10717SOL     OW33049   1.156   2.640   0.769
10717SOL    HW133050   1.059   2.661   0.772
10717SOL    HW233051   1.200   2.693   0.696
10718SOL     OW33052   0.055   3.496   6.280
10718SOL    HW133053   0.118   3.559   6.324
10718SOL    HW233054   7.009   3.461   6.347
10719SOL     OW33055   4.394   6.439   0.076
10719SOL    HW133056   4.297   6.423   0.059
10719SOL    HW233057   4.443   6.352   0.076
10720SOL     OW33058   6.923   2.833   5.536
10720SOL    HW133059   6.931   2.851   5.438
10720SOL    HW233060   7.014   2.822   5.576
10721SOL     OW33061   6.137   3.399   5.528
10721SOL    HW133062   6.046   3.434   5.507
10721SOL    HW233063   6.205   3.472   5.515
10722SOL     OW33064   6.811   3.023   0.562
10722SOL    HW133065   6.866   3.072   0.494
10722SOL    HW233066   6.720   3.063   0.567
10723SOL     OW33067   6.362   3.366   7.004
10723SOL    HW133068   6.377   3.338   6.909
10723SOL    HW233069   6.441   3.419   0.016
10724SOL     OW33070   4.089   0.590   6.668
10724SOL    HW133071   4.072   0.688   6.666
10724SOL    HW233072   4.001   0.541   6.665
10725SOL     OW33073   0.011   5.412   3.916
10725SOL    HW133074   0.079   5.426   3.988
10725SOL    HW233075   7.013   5.498   3.869
10726SOL     OW33076   5.800   6.214   5.722
10726SOL    HW133077   5.826   6.309   5.702
10726SOL    HW233078   5.880   6.164   5.755
10727SOL     OW33079   1.312   4.777   3.504
10727SOL    HW133080   1.402   4.808   3.534
10727SOL    HW233081   1.257   4.753   3.584
10728SOL     OW33082   6.188   6.367   1.730
10728SOL    HW133083   6.138   6.454   1.724
10728SOL    HW233084   6.201   6.343   1.826
10729SOL     OW33085   6.274   0.633   3.189
10729SOL    HW133086   6.190   0.579   3.186
10729SOL    HW233087   6.353   0.573   3.180
10730SOL     OW33088   2.928   0.290   1.445
10730SOL    HW133089   2.850   0.312   1.387
10730SOL    HW233090   2.961   0.373   1.491
10731SOL     OW33091   2.042   6.064   6.378
10731SOL    HW133092   2.104   5.986   6.365
10731SOL    HW233093   2.039   6.088   6.475
10732SOL     OW33094   5.882   6.641   2.674
10732SOL    HW133095   5.891   6.548   2.709
10732SOL    HW233096   5.832   6.639   2.587
10733SOL     OW33097   5.734   2.131   6.941
10733SOL    HW133098   5.689   2.058   6.890
10733SOL    HW233099   5.667   2.199   6.969
10734SOL     OW33100   0.938   0.544   6.754
10734SOL    HW133101   0.872   0.481   6.713
10734SOL    HW233102   0.911   0.638   6.734
10735SOL     OW33103   1.884   4.779   2.451
10735SOL    HW133104   1.870   4.821   2.361
10735SOL    HW233105   1.941   4.840   2.507
10736SOL     OW33106   1.015   1.146   3.546
10736SOL    HW133107   1.003   1.046   3.544
10736SOL    HW233108   1.090   1.172   3.485
10737SOL     OW33109   1.329   1.755   6.954
10737SOL    HW133110   1.286   1.689   6.892
10737SOL    HW233111   1.426   1.764   6.931
10738SOL     OW33112   2.612   0.640   1.987
10738SOL    HW133113   2.689   0.610   2.044
10738SOL    HW233114   2.631   0.618   1.891
10739SOL     OW33115   0.687   1.344   2.225
10739SOL    HW133116   0.779   1.305   2.235
10739SOL    HW233117   0.689   1.414   2.153
10740SOL     OW33118   1.371   4.665   6.420
10740SOL    HW133119   1.344   4.626   6.508
10740SOL    HW233120   1.428   4.599   6.370
10741SOL     OW33121   1.239   1.233   3.392
10741SOL    HW133122   1.278   1.143   3.409
10741SOL    HW233123   1.303   1.287   3.337
10742SOL     OW33124   5.768   0.230   1.588
10742SOL    HW133125   5.697   0.163   1.564
10742SOL    HW233126   5.773   0.238   1.688
10743SOL     OW33127   2.552   2.508   3.651
10743SOL    HW133128   2.484   2.580   3.668
10743SOL    HW233129   2.562   2.494   3.552
10744SOL     OW33130   3.628   2.009   2.723
10744SOL    HW133131   3.710   1.967   2.686
10744SOL    HW233132   3.561   2.022   2.649
10745SOL     OW33133   0.820   4.874   0.753
10745SOL    HW133134   0.893   4.911   0.695
10745SOL    HW233135   0.851   4.788   0.793
10746SOL     OW33136   1.657   4.037   1.540
10746SOL    HW133137   1.579   3.982   1.510
10746SOL    HW233138   1.652   4.051   1.639
10747SOL     OW33139   5.046   1.631   3.535
10747SOL    HW133140   4.974   1.626   3.604
10747SOL    HW233141   5.086   1.722   3.535
10748SOL     OW33142   5.662   0.138   1.098
10748SOL    HW133143   5.670   0.099   1.007
10748SOL    HW233144   5.591   0.208   1.099
10749SOL     OW33145   0.373   4.845   2.549
10749SOL    HW133146   0.364   4.882   2.642
10749SOL    HW233147   0.349   4.748   2.550
10750SOL     OW33148   4.485   5.955   4.495
10750SOL    HW133149   4.397   5.967   4.449
10750SOL    HW233150   4.522   5.864   4.474
10751SOL     OW33151   0.854   3.863   5.191
10751SOL    HW133152   0.839   3.766   5.210
10751SOL    HW233153   0.915   3.872   5.112
10752SOL     OW33154   6.638   3.623   6.278
10752SOL    HW133155   6.644   3.584   6.370
10752SOL    HW233156   6.547   3.662   6.264
10753SOL     OW33157   5.892   0.583   3.698
10753SOL    HW133158   5.815   0.519   3.694
10753SOL    HW233159   5.947   0.573   3.615
10754SOL     OW33160   2.262   1.985   3.474
10754SOL    HW133161   2.295   2.060   3.531
10754SOL    HW233162   2.172   2.008   3.437
10755SOL     OW33163   0.854   1.611   0.759
10755SOL    HW133164   0.816   1.703   0.752
10755SOL    HW233165   0.800   1.557   0.823
10756SOL     OW33166   6.241   3.970   0.000
10756SOL    HW133167   6.209   4.064   0.005
10756SOL    HW233168   6.212   3.920   0.082
10757SOL     OW33169   6.635   3.431   0.611
10757SOL    HW133170   6.674   3.417   0.702
10757SOL    HW233171   6.621   3.342   0.567
10758SOL     OW33172   1.690   5.860   4.921
10758SOL    HW133173   1.700   5.794   4.847
10758SOL    HW233174   1.753   5.837   4.995
10759SOL     OW33175   1.574   3.188   0.065
10759SOL    HW133176   1.549   3.136   7.002
10759SOL    HW233177   1.498   3.246   0.093
10760SOL     OW33178   7.006   0.391   0.762
10760SOL    HW133179   6.934   0.324   0.779
10760SOL    HW233180   6.976   0.455   0.691
10761SOL     OW33181   0.992   1.918   6.430
10761SOL    HW133182   1.037   1.891   6.345
10761SOL    HW233183   0.893   1.921   6.415
10762SOL     OW33184   4.046   1.486   5.149
10762SOL    HW133185   4.016   1.515   5.240
10762SOL    HW233186   3.997   1.537   5.079
10763SOL     OW33187   4.503   5.936   0.579
10763SOL    HW133188   4.587   5.882   0.567
10763SOL    HW233189   4.520   6.011   0.642
10764SOL     OW33190   5.631   1.484   6.005
10764SOL    HW133191   5.536   1.464   5.980
10764SOL    HW233192   5.678   1.527   5.928
10765SOL     OW33193   5.468   2.766   1.492
10765SOL    HW133194   5.554   2.721   1.515
10765SOL    HW233195   5.406   2.763   1.571
10766SOL     OW33196   2.847   3.184   6.971
10766SOL    HW133197   2.817   3.178   0.047
10766SOL    HW233198   2.774   3.223   6.915
10767SOL     OW33199   1.228   0.739   0.663
10767SOL    HW133200   1.286   0.666   0.699
10767SOL    HW233201   1.286   0.813   0.628
10768SOL     OW33202   5.704   5.266   0.498
10768SOL    HW133203   5.761   5.193   0.536
10768SOL    HW233204   5.707   5.346   0.557
10769SOL     OW33205   2.113   4.976   4.339
10769SOL    HW133206   2.164   5.003   4.258
10769SOL    HW233207   2.141   4.884   4.367
10770SOL     OW33208   5.761   6.986   4.620
10770SOL    HW133209   5.760   6.894   4.580
10770SOL    HW233210   5.768   6.979   4.719
10771SOL     OW33211   4.719   0.171   5.105
10771SOL    HW133212   4.779   0.103   5.062
10771SOL    HW233213   4.766   0.214   5.182
10772SOL     OW33214   6.170   6.812   3.943
10772SOL    HW133215   6.208   6.787   3.854
10772SOL    HW233216   6.123   6.733   3.982
10773SOL     OW33217   6.416   5.205   6.491
10773SOL    HW133218   6.422   5.113   6.531
10773SOL    HW233219   6.321   5.224   6.466
10774SOL     OW33220   1.798   2.146   0.003
10774SOL    HW133221   1.727   2.116   0.066
10774SOL    HW233222   1.854   2.217   0.046
10775SOL     OW33223   0.416   3.770   0.732
10775SOL    HW133224   0.439   3.721   0.816
10775SOL    HW233225   0.473   3.736   0.657
10776SOL     OW33226   1.135   6.300   1.132
10776SOL    HW133227   1.087   6.212   1.130
10776SOL    HW233228   1.077   6.370   1.091
10777SOL     OW33229   3.944   6.785   4.064
10777SOL    HW133230   3.996   6.847   4.006
10777SOL    HW233231   3.914   6.833   4.147
10778SOL     OW33232   5.388   6.482   5.012
10778SOL    HW133233   5.346   6.462   5.100
10778SOL    HW233234   5.340   6.560   4.970
10779SOL     OW33235   6.326   4.539   3.492
10779SOL    HW133236   6.421   4.545   3.525
10779SOL    HW233237   6.295   4.630   3.465
10780SOL     OW33238   1.126   6.678   2.557
10780SOL    HW133239   1.189   6.730   2.615
10780SOL    HW233240   1.156   6.583   2.553
10781SOL     OW33241   4.080   1.447   3.300
10781SOL    HW133242   4.139   1.366   3.298
10781SOL    HW233243   4.087   1.491   3.390
10782SOL     OW33244   6.510   2.482   3.778
10782SOL    HW133245   6.548   2.390   3.782
10782SOL    HW233246   6.416   2.482   3.810
10783SOL     OW33247   1.029   3.249   3.420
10783SOL    HW133248   0.960   3.322   3.418
10783SOL    HW233249   1.063   3.238   3.513
10784SOL     OW33250   2.807   0.361   2.287
10784SOL    HW133251   2.895   0.407   2.285
10784SOL    HW233252   2.801   0.297   2.210
10785SOL     OW33253   0.615   5.116   1.618
10785SOL    HW133254   0.619   5.034   1.560
10785SOL    HW233255   0.656   5.095   1.707
10786SOL     OW33256   4.955   3.351   2.120
10786SOL    HW133257   4.893   3.273   2.135
10786SOL    HW233258   4.950   3.413   2.197
10787SOL     OW33259   3.522   2.117   4.655
10787SOL    HW133260   3.621   2.121   4.645
10787SOL    HW233261   3.496   2.031   4.698
10788SOL     OW33262   1.986   4.726   0.432
10788SOL    HW133263   1.911   4.785   0.463
10788SOL    HW233264   2.064   4.782   0.404
10789SOL     OW33265   5.946   1.950   0.932
10789SOL    HW133266   6.029   1.900   0.957
10789SOL    HW233267   5.867   1.890   0.946
10790SOL     OW33268   0.856   0.959   3.967
10790SOL    HW133269   0.772   0.942   4.018
10790SOL    HW233270   0.928   0.898   4.002
10791SOL     OW33271   0.668   1.241   0.764
10791SOL    HW133272   0.604   1.286   0.827
10791SOL    HW233273   0.760   1.244   0.803
10792SOL     OW33274   3.218   3.284   2.015
10792SOL    HW133275   3.178   3.371   2.042
10792SOL    HW233276   3.206   3.270   1.917
10793SOL     OW33277   5.142   2.833   4.210
10793SOL    HW133278   5.060   2.783   4.240
10793SOL    HW233279   5.223   2.778   4.231
10794SOL     OW33280   3.250   4.051   2.840
10794SOL    HW133281   3.236   4.086   2.748
10794SOL    HW233282   3.276   4.125   2.901
10795SOL     OW33283   6.310   3.929   4.034
10795SOL    HW133284   6.299   4.013   3.982
10795SOL    HW233285   6.227   3.875   4.028
10796SOL     OW33286   4.606   6.275   6.808
10796SOL    HW133287   4.584   6.373   6.803
10796SOL    HW233288   4.528   6.222   6.776
10797SOL     OW33289   4.409   2.419   0.674
10797SOL    HW133290   4.394   2.435   0.771
10797SOL    HW233291   4.472   2.489   0.638
10798SOL     OW33292   2.319   0.308   0.507
10798SOL    HW133293   2.307   0.260   0.594
10798SOL    HW233294   2.239   0.366   0.490
10799SOL     OW33295   3.446   1.497   2.017
10799SOL    HW133296   3.418   1.586   2.053
10799SOL    HW233297   3.458   1.504   1.918
10800SOL     OW33298   1.291   0.404   0.134
10800SOL    HW133299   1.317   0.360   0.220
10800SOL    HW233300   1.221   0.350   0.088
10801SOL     OW33301   0.807   6.804   4.960
10801SOL    HW133302   0.805   6.821   4.861
10801SOL    HW233303   0.723   6.837   5.002
10802SOL     OW33304   2.166   3.259   4.636
10802SOL    HW133305   2.143   3.339   4.580
10802SOL    HW233306   2.236   3.284   4.703
10803SOL     OW33307   4.595   4.377   5.143
10803SOL    HW133308   4.551   4.347   5.227
10803SOL    HW233309   4.673   4.317   5.123
10804SOL     OW33310   7.005   3.862   1.605
10804SOL    HW133311   7.013   3.926   1.529
10804SOL    HW233312   6.963   3.908   1.683
10805SOL     OW33313   3.018   6.761   6.747
10805SOL    HW133314   2.952   6.762   6.822
10805SOL    HW233315   3.111   6.766   6.784
10806SOL     OW33316   5.483   4.349   6.651
10806SOL    HW133317   5.388   4.342   6.618
10806SOL    HW233318   5.531   4.264   6.632
10807SOL     OW33319   2.918   6.923   3.560
10807SOL    HW133320   2.963   6.982   3.493
10807SOL    HW233321   2.982   6.898   3.632
10808SOL     OW33322   6.762   3.548   6.929
10808SOL    HW133323   6.835   3.577   6.990
10808SOL    HW233324   6.776   3.452   6.903
10809SOL     OW33325   2.640   6.763   3.724
10809SOL    HW133326   2.589   6.713   3.793
10809SOL    HW233327   2.594   6.850   3.705
10810SOL     OW33328   1.176   0.346   5.164
10810SOL    HW133329   1.244   0.419   5.165
10810SOL    HW233330   1.214   0.264   5.206
10811SOL     OW33331   4.718   4.627   5.560
10811SOL    HW133332   4.675   4.539   5.582
10811SOL    HW233333   4.744   4.673   5.645
10812SOL     OW33334   0.549   3.404   2.488
10812SOL    HW133335   0.451   3.425   2.496
10812SOL    HW233336   0.560   3.314   2.445
10813SOL     OW33337   1.669   6.157   7.014
10813SOL    HW133338   1.755   6.117   0.028
10813SOL    HW233339   1.619   6.198   0.072
10814SOL     OW33340   1.694   6.987   6.734
10814SOL    HW133341   1.644   0.021   6.665
10814SOL    HW233342   1.708   6.894   6.700
10815SOL     OW33343   5.176   4.979   3.214
10815SOL    HW133344   5.266   4.989   3.171
10815SOL    HW233345   5.114   4.933   3.150
10816SOL     OW33346   1.320   1.772   2.443
10816SOL    HW133347   1.254   1.838   2.480
10816SOL    HW233348   1.317   1.775   2.343
10817SOL     OW33349   5.397   6.887   2.537
10817SOL    HW133350   5.376   6.984   2.527
10817SOL    HW233351   5.318   6.840   2.578
10818SOL     OW33352   4.502   3.861   5.485
10818SOL    HW133353   4.433   3.931   5.470
10818SOL    HW233354   4.576   3.873   5.419
10819SOL     OW33355   6.744   4.649   0.089
10819SOL    HW133356   6.680   4.572   0.082
10819SOL    HW233357   6.788   4.664   0.001
10820SOL     OW33358   5.894   5.866   4.268
10820SOL    HW133359   5.878   5.769   4.252
10820SOL    HW233360   5.991   5.886   4.259
10821SOL     OW33361   5.341   6.419   1.685
10821SOL    HW133362   5.276   6.352   1.719
10821SOL    HW233363   5.314   6.511   1.714
10822SOL     OW33364   0.679   2.623   3.118
10822SOL    HW133365   0.609   2.558   3.087
10822SOL    HW233366   0.751   2.629   3.050
10823SOL     OW33367   1.299   4.983   1.843
10823SOL    HW133368   1.328   4.902   1.892
10823SOL    HW233369   1.353   5.062   1.873
10824SOL     OW33370   4.737   0.029   4.038
10824SOL    HW133371   4.761   6.959   4.076
10824SOL    HW233372   4.820   0.085   4.030
10825SOL     OW33373   2.674   0.583   0.030
10825SOL    HW133374   2.641   0.496   7.014
10825SOL    HW233375   2.769   0.596   0.001
10826SOL     OW33376   0.568   3.886   4.045
10826SOL    HW133377   0.608   3.978   4.041
10826SOL    HW233378   0.529   3.870   4.136
10827SOL     OW33379   5.514   4.113   4.941
10827SOL    HW133380   5.490   4.127   5.037
10827SOL    HW233381   5.430   4.103   4.887
10828SOL     OW33382   1.200   5.498   2.290
10828SOL    HW133383   1.118   5.441   2.283
10828SOL    HW233384   1.201   5.564   2.214
10829SOL     OW33385   3.653   2.371   0.677
10829SOL    HW133386   3.688   2.377   0.770
10829SOL    HW233387   3.633   2.463   0.643
10830SOL     OW33388   5.310   2.004   3.382
10830SOL    HW133389   5.304   2.104   3.376
10830SOL    HW233390   5.374   1.970   3.313
10831SOL     OW33391   3.706   5.952   1.866
10831SOL    HW133392   3.648   5.887   1.817
10831SOL    HW233393   3.652   6.001   1.934
10832SOL     OW33394   0.518   2.046   0.845
10832SOL    HW133395   0.430   2.050   0.892
10832SOL    HW233396   0.545   1.951   0.832
10833SOL     OW33397   1.565   0.672   3.947
10833SOL    HW133398   1.555   0.575   3.925
10833SOL    HW233399   1.477   0.710   3.973
10834SOL     OW33400   1.476   2.191   6.012
10834SOL    HW133401   1.540   2.266   5.993
10834SOL    HW233402   1.455   2.143   5.927
10835SOL     OW33403   6.159   1.633   1.399
10835SOL    HW133404   6.113   1.556   1.445
10835SOL    HW233405   6.219   1.679   1.465
10836SOL     OW33406   6.264   1.478   4.867
10836SOL    HW133407   6.308   1.558   4.907
10836SOL    HW233408   6.265   1.485   4.768
10837SOL     OW33409   0.542   5.042   0.266
10837SOL    HW133410   0.501   5.006   0.182
10837SOL    HW233411   0.618   5.103   0.241
10838SOL     OW33412   5.834   6.281   4.886
10838SOL    HW133413   5.853   6.360   4.828
10838SOL    HW233414   5.738   6.282   4.913
10839SOL     OW33415   3.243   3.176   0.163
10839SOL    HW133416   3.164   3.117   0.182
10839SOL    HW233417   3.317   3.120   0.124
10840SOL     OW33418   4.237   5.773   1.445
10840SOL    HW133419   4.180   5.781   1.363
10840SOL    HW233420   4.301   5.849   1.448
10841SOL     OW33421   3.608   6.555   6.892
10841SOL    HW133422   3.542   6.626   6.917
10841SOL    HW233423   3.602   6.535   6.795
10842SOL     OW33424   5.476   3.013   1.397
10842SOL    HW133425   5.500   2.916   1.403
10842SOL    HW233426   5.392   3.029   1.449
10843SOL     OW33427   0.770   2.115   1.933
10843SOL    HW133428   0.747   2.203   1.974
10843SOL    HW233429   0.712   2.044   1.973
10844SOL     OW33430   0.575   6.844   4.013
10844SOL    HW133431   0.540   6.936   3.996
10844SOL    HW233432   0.673   6.849   4.031
10845SOL     OW33433   2.906   0.569   0.476
10845SOL    HW133434   2.879   0.654   0.522
10845SOL    HW233435   2.845   0.552   0.399
10846SOL     OW33436   4.886   3.311   0.845
10846SOL    HW133437   4.856   3.387   0.903
10846SOL    HW233438   4.927   3.240   0.902
10847SOL     OW33439   3.243   2.403   6.745
10847SOL    HW133440   3.265   2.435   6.836
10847SOL    HW233441   3.327   2.378   6.696
10848SOL     OW33442   3.393   2.208   6.527
10848SOL    HW133443   3.300   2.173   6.536
10848SOL    HW233444   3.414   2.223   6.430
10849SOL     OW33445   2.885   4.814   3.337
10849SOL    HW133446   2.974   4.820   3.383
10849SOL    HW233447   2.813   4.840   3.400
10850SOL     OW33448   4.847   6.265   6.937
10850SOL    HW133449   4.916   6.261   6.865
10850SOL    HW233450   4.757   6.250   6.898
10851SOL     OW33451   2.720   2.974   6.682
10851SOL    HW133452   2.710   3.060   6.732
10851SOL    HW233453   2.631   2.947   6.645
10852SOL     OW33454   0.196   6.574   6.054
10852SOL    HW133455   0.234   6.486   6.082
10852SOL    HW233456   0.143   6.562   5.970
10853SOL     OW33457   3.463   1.546   6.035
10853SOL    HW133458   3.409   1.627   6.013
10853SOL    HW233459   3.431   1.507   6.121
10854SOL     OW33460   5.966   6.849   5.450
10854SOL    HW133461   5.925   6.821   5.537
10854SOL    HW233462   6.017   6.934   5.463
10855SOL     OW33463   2.932   6.419   2.131
10855SOL    HW133464   2.864   6.363   2.083
10855SOL    HW233465   3.007   6.442   2.069
10856SOL     OW33466   5.859   1.544   2.664
10856SOL    HW133467   5.812   1.533   2.752
10856SOL    HW233468   5.957   1.532   2.677
10857SOL     OW33469   5.507   3.308   3.793
10857SOL    HW133470   5.593   3.357   3.779
10857SOL    HW233471   5.486   3.303   3.891
10858SOL     OW33472   1.196   2.725   6.356
10858SOL    HW133473   1.217   2.648   6.416
10858SOL    HW233474   1.183   2.807   6.412
10859SOL     OW33475   2.215   4.102   4.025
10859SOL    HW133476   2.147   4.073   3.957
10859SOL    HW233477   2.270   4.023   4.051
10860SOL     OW33478   6.616   1.411   5.816
10860SOL    HW133479   6.715   1.401   5.825
10860SOL    HW233480   6.596   1.495   5.766
10861SOL     OW33481   4.006   3.088   2.550
10861SOL    HW133482   4.099   3.117   2.527
10861SOL    HW233483   3.999   3.074   2.649
10862SOL     OW33484   2.701   1.486   6.845
10862SOL    HW133485   2.781   1.521   6.894
10862SOL    HW233486   2.731   1.429   6.769
10863SOL     OW33487   3.999   0.276   2.396
10863SOL    HW133488   4.067   0.279   2.323
10863SOL    HW233489   4.011   0.356   2.455
10864SOL     OW33490   2.524   4.957   0.947
10864SOL    HW133491   2.490   4.982   0.857
10864SOL    HW233492   2.567   5.036   0.991
10865SOL     OW33493   5.556   1.953   3.935
10865SOL    HW133494   5.492   1.973   3.861
10865SOL    HW233495   5.533   1.865   3.976
10866SOL     OW33496   5.436   5.096   1.009
10866SOL    HW133497   5.490   5.169   1.052
10866SOL    HW233498   5.406   5.125   0.918
10867SOL     OW33499   3.240   4.345   0.434
10867SOL    HW133500   3.268   4.250   0.448
10867SOL    HW233501   3.147   4.358   0.470
10868SOL     OW33502   1.869   1.886   3.443
10868SOL    HW133503   1.955   1.838   3.456
10868SOL    HW233504   1.870   1.972   3.494
10869NA      NA33505   0.358   2.465   6.190
10870NA      NA33506   4.503   4.604   5.136
10871NA      NA33507   2.300   4.421   2.198
10872NA      NA33508   4.811   4.151   3.637
10873NA      NA33509   4.198   2.327   5.296
10874NA      NA33510   3.446   4.381   1.584
10875NA      NA33511   0.817   4.669   0.354
10876NA      NA33512   3.863   3.863   2.221
10877NA      NA33513   5.129   4.840   1.019
10878NA      NA33514   3.636   0.307   5.421
10879NA      NA33515   6.170   5.553   1.193
10880NA      NA33516   1.936   0.712   5.276
10881NA      NA33517   4.558   4.722   1.700
10882NA      NA33518   3.917   2.816   1.263
   7.01912   7.01912   7.01912
